fcc Ag                                  
   4.09000000000000     
     0.500000    0.500000    0.000000
     0.000000    0.500000    0.500000
     0.500000    0.000000    0.500000
   Ag
     1
Direct
  0.000000  0.000000  0.000000
 
   24   24   24
  132.00      126.06      110.32      89.442      67.813      47.966      31.210      18.611      10.755      6.8661    
  4.9421      3.9128      3.5869      3.9128      4.9421      6.8661      10.755      18.611      31.210      47.966    
  67.813      89.442      110.32      126.06      126.06      115.28      97.141      76.235      55.919      37.983    
  23.604      13.710      8.2519      5.6834      4.2777      3.6330      3.6325      4.2770      5.6833      8.2523    
  13.714      23.615      38.002      55.929      76.212      97.079      115.21      126.03      110.32      97.141    
  79.305      60.365      42.662      27.673      16.548      9.7596      6.4167      4.6737      3.7509      3.4610    
  3.7504      4.6736      6.4160      9.7581      16.552      27.690      42.686      60.371      79.268      97.070    
  110.26      115.21      89.442      76.235      60.365      44.334      29.951      18.598      11.084      7.0762    
  5.0416      3.8960      3.3824      3.3824      3.8963      5.0419      7.0740      11.079      18.596      29.959    
  44.349      60.374      76.227      89.424      97.070      97.079      67.813      55.919      42.662      29.951    
  19.345      11.865      7.5608      5.3255      4.0246      3.3590      3.1537      3.3590      4.0259      5.3277    
  7.5606      11.859      19.334      29.942      42.662      55.932      67.833      76.227      79.268      76.212    
  47.966      37.983      27.673      18.598      11.865      7.7415      5.4802      4.1083      3.3550      3.0253    
  3.0249      3.3546      4.1104      5.4864      7.7492      11.867      18.588      27.652      37.964      47.958    
  55.932      60.374      60.371      55.929      31.210      23.604      16.548      11.084      7.5608      5.4802    
  4.1366      3.3533      2.9602      2.8407      2.9592      3.3513      4.1365      5.4877      7.5772      11.102    
  16.552      23.586      31.174      37.964      42.662      44.349      42.686      38.002      18.611      13.710    
  9.7596      7.0762      5.3255      4.1083      3.3533      2.9398      2.7602      2.7603      2.9381      3.3473    
  4.1005      5.3252      7.0919      9.7881      13.734      18.610      23.586      27.652      29.942      29.959    
  27.690      23.615      10.755      8.2519      6.4167      5.0416      4.0246      3.3550      2.9602      2.7602    
  2.7006      2.7620      2.9601      3.3474      4.0084      5.0259      6.4170      8.2745      10.788      13.734    
  16.552      18.588      19.334      18.596      16.552      13.714      6.8661      5.6834      4.6737      3.8960    
  3.3590      3.0253      2.8407      2.7603      2.7620      2.8464      3.0328      3.3593      3.8805      4.6465    
  5.6618      6.8663      8.2745      9.7881      11.102      11.867      11.859      11.079      9.7581      8.2523    
  4.9421      4.2777      3.7509      3.3824      3.1537      3.0249      2.9592      2.9381      2.9601      3.0328    
  3.1703      3.3979      3.7504      4.2558      4.9103      5.6618      6.4170      7.0919      7.5772      7.7492    
  7.5606      7.0740      6.4160      5.6833      3.9128      3.6330      3.4610      3.3824      3.3590      3.3546    
  3.3513      3.3473      3.3474      3.3593      3.3979      3.4875      3.6543      3.9131      4.2558      4.6465    
  5.0259      5.3252      5.4877      5.4864      5.3277      5.0419      4.6736      4.2770      3.5869      3.6325    
  3.7504      3.8963      4.0259      4.1104      4.1365      4.1005      4.0084      3.8805      3.7504      3.6543    
  3.6191      3.6543      3.7504      3.8805      4.0084      4.1005      4.1365      4.1104      4.0259      3.8963    
  3.7504      3.6325      3.9128      4.2770      4.6736      5.0419      5.3277      5.4864      5.4877      5.3252    
  5.0259      4.6465      4.2558      3.9131      3.6543      3.4875      3.3979      3.3593      3.3474      3.3473    
  3.3513      3.3546      3.3590      3.3824      3.4610      3.6330      4.9421      5.6833      6.4160      7.0740    
  7.5606      7.7492      7.5772      7.0919      6.4170      5.6618      4.9103      4.2558      3.7504      3.3979    
  3.1703      3.0328      2.9601      2.9381      2.9592      3.0249      3.1537      3.3824      3.7509      4.2777    
  6.8661      8.2523      9.7581      11.079      11.859      11.867      11.102      9.7881      8.2745      6.8663    
  5.6618      4.6465      3.8805      3.3593      3.0328      2.8464      2.7620      2.7603      2.8407      3.0253    
  3.3590      3.8960      4.6737      5.6834      10.755      13.714      16.552      18.596      19.334      18.588    
  16.552      13.734      10.788      8.2745      6.4170      5.0259      4.0084      3.3474      2.9601      2.7620    
  2.7006      2.7602      2.9602      3.3550      4.0246      5.0416      6.4167      8.2519      18.611      23.615    
  27.690      29.959      29.942      27.652      23.586      18.610      13.734      9.7881      7.0919      5.3252    
  4.1005      3.3473      2.9381      2.7603      2.7602      2.9398      3.3533      4.1083      5.3255      7.0762    
  9.7596      13.710      31.210      38.002      42.686      44.349      42.662      37.964      31.174      23.586    
  16.552      11.102      7.5772      5.4877      4.1365      3.3513      2.9592      2.8407      2.9602      3.3533    
  4.1366      5.4802      7.5608      11.084      16.548      23.604      47.966      55.929      60.371      60.374    
  55.932      47.958      37.964      27.652      18.588      11.867      7.7492      5.4864      4.1104      3.3546    
  3.0249      3.0253      3.3550      4.1083      5.4802      7.7415      11.865      18.598      27.673      37.983    
  67.813      76.212      79.268      76.227      67.833      55.932      42.662      29.942      19.334      11.859    
  7.5606      5.3277      4.0259      3.3590      3.1537      3.3590      4.0246      5.3255      7.5608      11.865    
  19.345      29.951      42.662      55.919      89.442      97.079      97.070      89.424      76.227      60.374    
  44.349      29.959      18.596      11.079      7.0740      5.0419      3.8963      3.3824      3.3824      3.8960    
  5.0416      7.0762      11.084      18.598      29.951      44.334      60.365      76.235      110.32      115.21    
  110.26      97.070      79.268      60.371      42.686      27.690      16.552      9.7581      6.4160      4.6736    
  3.7504      3.4610      3.7509      4.6737      6.4167      9.7596      16.548      27.673      42.662      60.365    
  79.305      97.141      126.06      126.03      115.21      97.079      76.212      55.929      38.002      23.615    
  13.714      8.2523      5.6833      4.2770      3.6325      3.6330      4.2777      5.6834      8.2519      13.710    
  23.604      37.983      55.919      76.235      97.141      115.28      126.06      115.28      97.141      76.235    
  55.919      37.983      23.604      13.710      8.2519      5.6834      4.2777      3.6330      3.6325      4.2770    
  5.6833      8.2523      13.714      23.615      38.002      55.929      76.212      97.079      115.21      126.03    
  115.28      101.29      82.475      62.674      44.298      28.766      17.191      10.074      6.5643      4.7649    
  3.8083      3.5069      3.8078      4.7646      6.5634      10.074      17.199      28.792      44.330      62.675    
  82.414      101.18      115.19      120.48      97.141      82.475      65.107      47.797      32.351      20.092    
  11.868      7.4362      5.2501      4.0237      3.4699      3.4698      4.0237      5.2496      7.4328      11.865    
  20.099      32.375      47.823      65.103      82.427      97.076      105.67      105.70      76.235      62.674    
  47.797      33.633      21.738      13.195      8.1887      5.6648      4.2301      3.4886      3.2585      3.4883    
  4.2307      5.6648      8.1840      13.186      21.733      33.641      47.815      62.692      76.243      85.960    
  89.524      85.959      55.919      44.298      32.351      21.738      13.685      8.6354      5.9462      4.3866    
  3.5220      3.1415      3.1411      3.5222      4.3890      5.9491      8.6336      13.675      21.722      32.342    
  44.307      55.946      65.336      70.621      70.608      65.305      37.983      28.766      20.092      13.195    
  8.6354      6.0467      4.4703      3.5453      3.0803      2.9385      3.0799      3.5453      4.4734      6.0543    
  8.6436      13.195      20.079      28.747      37.970      46.196      51.898      53.938      51.893      46.196    
  23.604      17.191      11.868      8.1887      5.9462      4.4703      3.5531      3.0531      2.8355      2.8352    
  3.0512      3.5497      4.4700      5.9553      8.2072      11.886      17.194      23.587      29.991      35.166    
  38.058      38.069      35.193      30.021      13.710      10.074      7.4362      5.6648      4.3866      3.5453    
  3.0531      2.8043      2.7293      2.8043      3.0498      3.5368      4.3770      5.6643      7.4525      10.102    
  13.733      17.905      21.812      24.593      25.607      24.612      21.831      17.904      8.2519      6.5643    
  5.2501      4.2301      3.5220      3.0803      2.8355      2.7293      2.7308      2.8387      3.0803      3.5124    
  4.2106      5.2322      6.5640      8.2737      10.436      12.774      14.779      15.940      15.939      14.771    
  12.752      10.405      5.6834      4.7649      4.0237      3.4886      3.1415      2.9385      2.8352      2.8043    
  2.8387      2.9470      3.1512      3.4886      4.0061      4.7363      5.6618      6.7059      7.8339      8.9281    
  9.7395      10.034      9.7210      8.9005      7.8132      6.7059      4.2777      3.8083      3.4699      3.2585    
  3.1411      3.0799      3.0512      3.0498      3.0803      3.1512      3.2781      3.4871      3.8079      4.2559    
  4.8141      5.4256      6.0034      6.4558      6.7061      6.6990      6.4430      6.0025      5.4450      4.8444    
  3.6330      3.5069      3.4698      3.4883      3.5222      3.5453      3.5497      3.5368      3.5124      3.4886    
  3.4871      3.5351      3.6545      3.8513      4.1103      4.3938      4.6498      4.8263      4.8890      4.8300    
  4.6633      4.4168      4.1295      3.8512      3.6325      3.8078      4.0237      4.2307      4.3890      4.4734    
  4.4700      4.3770      4.2106      4.0061      3.8079      3.6545      3.5681      3.5511      3.5879      3.6513    
  3.7122      3.7500      3.7552      3.7252      3.6640      3.5880      3.5317      3.5377      4.2770      4.7646    
  5.2496      5.6648      5.9491      6.0543      5.9553      5.6643      5.2322      4.7363      4.2559      3.8513    
  3.5511      3.3526      3.2333      3.1669      3.1349      3.1275      3.1389      3.1668      3.2209      3.3301    
  3.5322      3.8512      5.6833      6.5634      7.4328      8.1840      8.6336      8.6436      8.2072      7.4525    
  6.5640      5.6618      4.8141      4.1103      3.5879      3.2333      3.0083      2.8771      2.8171      2.8163    
  2.8719      2.9962      3.2208      3.5882      4.1302      4.8444      8.2523      10.074      11.865      13.186    
  13.675      13.195      11.886      10.102      8.2737      6.7059      5.4256      4.3938      3.6513      3.1669    
  2.8771      2.7252      2.6773      2.7221      2.8723      3.1668      3.6633      4.4167      5.4451      6.7059    
  13.714      17.199      20.099      21.733      21.722      20.079      17.194      13.733      10.436      7.8339    
  6.0034      4.6498      3.7122      3.1349      2.8171      2.6773      2.6766      2.8170      3.1400      3.7242    
  4.6622      6.0031      7.8136      10.405      23.615      28.792      32.375      33.641      32.342      28.747    
  23.587      17.905      12.774      8.9281      6.4558      4.8263      3.7500      3.1275      2.8163      2.7221    
  2.8170      3.1310      3.7552      4.8265      6.4434      8.9040      12.752      17.904      38.002      44.330    
  47.823      47.815      44.307      37.970      29.991      21.812      14.779      9.7395      6.7061      4.8890    
  3.7552      3.1389      2.8719      2.8723      3.1400      3.7552      4.8838      6.6938      9.7261      14.776    
  21.828      30.021      55.929      62.675      65.103      62.692      55.946      46.196      35.166      24.593    
  15.940      10.034      6.6990      4.8300      3.7252      3.1668      2.9962      3.1668      3.7242      4.8265    
  6.6938      10.033      15.950      24.613      35.183      46.196      76.212      82.414      82.427      76.243    
  65.336      51.898      38.058      25.607      15.939      9.7210      6.4430      4.6633      3.6640      3.2209    
  3.2208      3.6633      4.6622      6.4434      9.7261      15.950      25.619      38.061      51.883      65.305    
  97.079      101.18      97.076      85.960      70.621      53.938      38.069      24.612      14.771      8.9005    
  6.0025      4.4168      3.5880      3.3301      3.5882      4.4167      6.0031      8.9040      14.776      24.613    
  38.061      53.923      70.611      85.959      115.21      115.19      105.67      89.524      70.608      51.893    
  35.193      21.831      12.752      7.8132      5.4450      4.1295      3.5317      3.5322      4.1302      5.4451    
  7.8136      12.752      21.828      35.183      51.883      70.611      89.547      105.70      126.03      120.48    
  105.70      85.959      65.305      46.196      30.021      17.904      10.405      6.7059      4.8444      3.8512    
  3.5377      3.8512      4.8444      6.7059      10.405      17.904      30.021      46.196      65.305      85.959    
  105.70      120.48      110.32      97.141      79.305      60.365      42.662      27.673      16.548      9.7596    
  6.4167      4.6737      3.7509      3.4610      3.7504      4.6736      6.4160      9.7581      16.552      27.690    
  42.686      60.371      79.268      97.070      110.26      115.21      97.141      82.475      65.107      47.797    
  32.351      20.092      11.868      7.4362      5.2501      4.0237      3.4699      3.4698      4.0237      5.2496    
  7.4328      11.865      20.099      32.375      47.823      65.103      82.427      97.076      105.67      105.70    
  79.305      65.107      49.627      34.943      22.598      13.681      8.4196      5.7854      4.3034      3.5344    
  3.2952      3.5339      4.3035      5.7840      8.4130      13.672      22.598      34.961      49.653      65.125    
  79.305      89.539      93.310      89.547      60.365      47.797      34.943      23.501      14.730      9.1556    
  6.2026      4.5412      3.6143      3.2046      3.2042      3.6142      4.5426      6.2020      9.1470      14.713    
  23.486      34.948      47.829      60.418      70.659      76.464      76.444      70.611      42.662      32.351    
  22.598      14.730      9.4308      6.4369      4.7005      3.6770      3.1612      3.0035      3.1612      3.6782    
  4.7039      6.4398      9.4263      14.713      22.575      32.343      42.686      51.930      58.367      60.666    
  58.328      51.883      27.673      20.092      13.681      9.1556      6.4369      4.7571      3.7101      3.1402    
  2.8922      2.8922      3.1397      3.7100      4.7610      6.4460      9.1632      13.677      20.075      27.655    
  35.178      41.233      44.607      44.602      41.226      35.183      16.548      11.868      8.4196      6.2026    
  4.7005      3.7101      3.1338      2.8430      2.7548      2.8423      3.1305      3.7055      4.7007      6.2128    
  8.4373      11.882      16.548      21.812      26.673      30.100      31.340      30.116      26.695      21.828    
  9.7596      7.4362      5.7854      4.5412      3.6770      3.1402      2.8430      2.7134      2.7140      2.8430    
  3.1358      3.6669      4.5305      5.7844      7.4512      9.7842      12.770      15.955      18.648      20.194    
  20.200      18.657      15.953      12.752      6.4167      5.2501      4.3034      3.6143      3.1612      2.8922    
  2.7548      2.7140      2.7581      2.8968      3.1612      3.6032      4.2826      5.2323      6.4160      7.8320    
  9.4795      11.101      12.302      12.744      12.293      11.081      9.4535      7.8136      4.6737      4.0237    
  3.5344      3.2046      3.0035      2.8922      2.8423      2.8430      2.8968      3.0141      3.2155      3.5341    
  4.0062      4.6469      5.4256      6.2598      7.0673      7.7487      8.1433      8.1344      7.7283      7.0503    
  6.2601      5.4451      3.7509      3.4699      3.2952      3.2042      3.1612      3.1397      3.1305      3.1358    
  3.1612      3.2155      3.3159      3.4870      3.7506      4.1106      4.5428      4.9938      5.3906      5.6600    
  5.7520      5.6540      5.3904      5.0092      4.5686      4.1302      3.4610      3.4698      3.5339      3.6142    
  3.6782      3.7100      3.7055      3.6669      3.6032      3.5341      3.4870      3.4878      3.5514      3.6767    
  3.8448      4.0219      4.1678      4.2499      4.2526      4.1778      4.0391      3.8602      3.6768      3.5322    
  3.7504      4.0237      4.3035      4.5426      4.7039      4.7610      4.7007      4.5305      4.2826      4.0062    
  3.7506      3.5514      3.4232      3.3612      3.3464      3.3553      3.3692      3.3780      3.3769      3.3642    
  3.3464      3.3457      3.3976      3.5317      4.6736      5.2496      5.7840      6.2020      6.4398      6.4460    
  6.2128      5.7844      5.2323      4.6469      4.1106      3.6767      3.3612      3.1501      3.0168      2.9388    
  2.9038      2.9051      2.9387      3.0083      3.1330      3.3461      3.6768      4.1295      6.4160      7.4328    
  8.4130      9.1470      9.4263      9.1632      8.4373      7.4512      6.4160      5.4256      4.5428      3.8448    
  3.3464      3.0168      2.8132      2.7031      2.6679      2.7003      2.8057      3.0080      3.3464      3.8607    
  4.5686      5.4450      9.7581      11.865      13.672      14.713      14.713      13.677      11.882      9.7842    
  7.8320      6.2598      4.9938      4.0219      3.3553      2.9388      2.7031      2.5971      2.5958      2.7005    
  2.9388      3.3636      4.0388      5.0093      6.2601      7.8132      16.552      20.099      22.598      23.486    
  22.575      20.075      16.548      12.770      9.4795      7.0673      5.3906      4.1678      3.3692      2.9038    
  2.6679      2.5958      2.6679      2.9067      3.3768      4.1762      5.3904      7.0515      9.4535      12.752    
  27.690      32.375      34.961      34.948      32.343      27.655      21.812      15.955      11.101      7.7487    
  5.6600      4.2499      3.3780      2.9051      2.7003      2.7005      2.9067      3.3809      4.2500      5.6515    
  7.7314      11.084      15.953      21.831      42.686      47.823      49.653      47.829      42.686      35.178    
  26.673      18.648      12.302      8.1433      5.7520      4.2526      3.3769      2.9387      2.8057      2.9388    
  3.3768      4.2500      5.7444      8.1344      12.302      18.662      26.695      35.193      60.371      65.103    
  65.125      60.418      51.930      41.233      30.100      20.194      12.744      8.1344      5.6540      4.1778    
  3.3642      3.0083      3.0080      3.3636      4.1762      5.6515      8.1344      12.754      20.213      30.117    
  41.226      51.893      79.268      82.427      79.305      70.659      58.367      44.607      31.340      20.200    
  12.293      7.7283      5.3904      4.0391      3.3464      3.1330      3.3464      4.0388      5.3904      7.7314    
  12.302      20.213      31.348      44.594      58.328      70.608      97.070      97.076      89.539      76.464    
  60.666      44.602      30.116      18.657      11.081      7.0503      5.0092      3.8602      3.3457      3.3461    
  3.8607      5.0093      7.0515      11.084      18.662      30.117      44.594      60.650      76.444      89.524    
  110.26      105.67      93.310      76.444      58.328      41.226      26.695      15.953      9.4535      6.2601    
  4.5686      3.6768      3.3976      3.6768      4.5686      6.2601      9.4535      15.953      26.695      41.226    
  58.328      76.444      93.310      105.67      115.21      105.70      89.547      70.611      51.883      35.183    
  21.828      12.752      7.8136      5.4451      4.1302      3.5322      3.5317      4.1295      5.4450      7.8132    
  12.752      21.831      35.193      51.893      70.608      89.524      105.67      115.19      89.442      76.235    
  60.365      44.334      29.951      18.598      11.084      7.0762      5.0416      3.8960      3.3824      3.3824    
  3.8963      5.0419      7.0740      11.079      18.596      29.959      44.349      60.374      76.227      89.424    
  97.070      97.079      76.235      62.674      47.797      33.633      21.738      13.195      8.1887      5.6648    
  4.2301      3.4886      3.2585      3.4883      4.2307      5.6648      8.1840      13.186      21.733      33.641    
  47.815      62.692      76.243      85.960      89.524      85.959      60.365      47.797      34.943      23.501    
  14.730      9.1556      6.2026      4.5412      3.6143      3.2046      3.2042      3.6142      4.5426      6.2020    
  9.1470      14.713      23.486      34.948      47.829      60.418      70.659      76.464      76.444      70.611    
  44.334      33.633      23.501      15.291      9.7250      6.5777      4.7829      3.7243      3.1900      3.0264    
  3.1899      3.7256      4.7860      6.5783      9.7148      15.267      23.476      33.632      44.376      53.993    
  60.704      63.099      60.650      53.923      29.951      21.738      14.730      9.7250      6.7150      4.9162    
  3.7970      3.1880      2.9229      2.9231      3.1885      3.7990      4.9217      6.7207      9.7204      14.708    
  21.709      29.942      38.084      44.634      48.279      48.260      44.594      38.061      18.598      13.195    
  9.1556      6.5777      4.9162      3.8223      3.1879      2.8687      2.7717      2.8684      3.1866      3.8226    
  4.9229      6.5898      9.1627      13.187      18.577      24.592      30.107      33.976      35.366      33.977    
  30.117      24.613      11.084      8.1887      6.2026      4.7829      3.7970      3.1879      2.8517      2.7045    
  2.7045      2.8503      3.1836      3.7925      4.7848      6.2142      8.2049      11.094      14.771      18.644    
  21.884      23.732      23.740      21.904      18.662      14.776      7.0762      5.6648      4.5412      3.7243    
  3.1880      2.8687      2.7045      2.6550      2.7059      2.8687      3.1829      3.7138      4.5314      5.6649    
  7.0895      8.9229      11.096      13.223      14.788      15.367      14.793      13.223      11.084      8.9040    
  5.0416      4.2301      3.6143      3.1900      2.9229      2.7717      2.7045      2.7059      2.7760      2.9281    
  3.1899      3.6033      4.2111      5.0264      6.0025      7.0654      8.1708      9.1321      9.6969      9.6917    
  9.1176      8.1516      7.0515      6.0031      3.8960      3.4886      3.2046      3.0264      2.9231      2.8684    
  2.8503      2.8687      2.9281      3.0377      3.2154      3.4884      3.8808      4.3943      4.9937      5.6063    
  6.1383      6.5053      6.6340      6.4944      6.1269      5.6066      5.0093      4.4167      3.3824      3.2585    
  3.2042      3.1899      3.1885      3.1866      3.1836      3.1829      3.1899      3.2154      3.2778      3.3978    
  3.5882      3.8450      4.1432      4.4376      4.6735      4.8028      4.8016      4.6745      4.4486      4.1626    
  3.8607      3.5882      3.3824      3.4883      3.6142      3.7256      3.7990      3.8226      3.7925      3.7138    
  3.6033      3.4884      3.3978      3.3527      3.3612      3.4173      3.5022      3.5893      3.6533      3.6782    
  3.6593      3.6006      3.5129      3.4174      3.3461      3.3301      3.8963      4.2307      4.5426      4.7860    
  4.9217      4.9229      4.7848      4.5314      4.2111      3.8808      3.5882      3.3612      3.2060      3.1118    
  3.0599      3.0338      3.0243      3.0272      3.0391      3.0599      3.1008      3.1869      3.3457      3.5880    
  5.0419      5.6648      6.2020      6.5783      6.7207      6.5898      6.2142      5.6649      5.0264      4.3943    
  3.8450      3.4173      3.1118      2.9061      2.7748      2.7015      2.6785      2.7014      2.7700      2.8950    
  3.1010      3.4174      3.8602      4.4168      7.0740      8.1840      9.1470      9.7148      9.7204      9.1627    
  8.2049      7.0895      6.0025      4.9937      4.1432      3.5022      3.0599      2.7748      2.6063      2.5280    
  2.5268      2.6025      2.7697      3.0597      3.5132      4.1626      5.0092      6.0025      11.079      13.186    
  14.713      15.267      14.708      13.187      11.094      8.9229      7.0654      5.6063      4.4376      3.5893    
  3.0338      2.7015      2.5280      2.4737      2.5268      2.7015      3.0386      3.6001      4.4485      5.6066    
  7.0503      8.9005      18.596      21.733      23.486      23.476      21.709      18.577      14.771      11.096    
  8.1708      6.1383      4.6735      3.6533      3.0243      2.6785      2.5268      2.5268      2.6797      3.0284    
  3.6584      4.6732      6.1273      8.1516      11.081      14.771      29.959      33.641      34.948      33.632    
  29.942      24.592      18.644      13.223      9.1321      6.5053      4.8028      3.6782      3.0272      2.7014    
  2.6025      2.7015      3.0284      3.6787      4.7980      6.4939      9.1213      13.223      18.657      24.612    
  44.349      47.815      47.829      44.376      38.084      30.107      21.884      14.788      9.6969      6.6340    
  4.8016      3.6593      3.0391      2.7700      2.7697      3.0386      3.6584      4.7980      6.6288      9.6975    
  14.802      21.904      30.116      38.069      60.374      62.692      60.418      53.993      44.634      33.976    
  23.732      15.367      9.6917      6.4944      4.6745      3.6006      3.0599      2.8950      3.0597      3.6001    
  4.6732      6.4939      9.6975      15.383      23.750      33.977      44.602      53.938      76.227      76.243    
  70.659      60.704      48.279      35.366      23.740      14.793      9.1176      6.1269      4.4486      3.5129    
  3.1008      3.1010      3.5132      4.4485      6.1273      9.1213      14.802      23.750      35.366      48.260    
  60.666      70.621      89.424      85.960      76.464      63.099      48.260      33.977      21.904      13.223    
  8.1516      5.6066      4.1626      3.4174      3.1869      3.4174      4.1626      5.6066      8.1516      13.223    
  21.904      33.977      48.260      63.099      76.464      85.960      97.070      89.524      76.444      60.650    
  44.594      30.117      18.662      11.084      7.0515      5.0093      3.8607      3.3461      3.3457      3.8602    
  5.0092      7.0503      11.081      18.657      30.116      44.602      60.666      76.464      89.539      97.076    
  97.079      85.959      70.611      53.923      38.061      24.613      14.776      8.9040      6.0031      4.4167    
  3.5882      3.3301      3.5880      4.4168      6.0025      8.9005      14.771      24.612      38.069      53.938    
  70.621      85.960      97.076      101.18      67.813      55.919      42.662      29.951      19.345      11.865    
  7.5608      5.3255      4.0246      3.3590      3.1537      3.3590      4.0259      5.3277      7.5606      11.859    
  19.334      29.942      42.662      55.932      67.833      76.227      79.268      76.212      55.919      44.298    
  32.351      21.738      13.685      8.6354      5.9462      4.3866      3.5220      3.1415      3.1411      3.5222    
  4.3890      5.9491      8.6336      13.675      21.722      32.342      44.307      55.946      65.336      70.621    
  70.608      65.305      42.662      32.351      22.598      14.730      9.4308      6.4369      4.7005      3.6770    
  3.1612      3.0035      3.1612      3.6782      4.7039      6.4398      9.4263      14.713      22.575      32.343    
  42.686      51.930      58.367      60.666      58.328      51.883      29.951      21.738      14.730      9.7250    
  6.7150      4.9162      3.7970      3.1880      2.9229      2.9231      3.1885      3.7990      4.9217      6.7207    
  9.7204      14.708      21.709      29.942      38.084      44.634      48.279      48.260      44.594      38.061    
  19.345      13.685      9.4308      6.7150      4.9931      3.8619      3.2068      2.8776      2.7777      2.8777    
  3.2067      3.8645      5.0021      6.7261      9.4310      13.666      19.315      25.599      31.348      35.374    
  36.816      35.366      31.348      25.619      11.865      8.6354      6.4369      4.9162      3.8619      3.2130    
  2.8561      2.6998      2.6999      2.8552      3.2109      3.8630      4.9258      6.4523      8.6452      11.858    
  15.927      20.185      23.729      25.742      25.750      23.750      20.213      15.950      7.5608      5.9462    