fcc Ag                                  
   4.09000000000000     
     0.500000    0.500000    0.000000
     0.000000    0.500000    0.500000
     0.500000    0.000000    0.500000
   Ag
     1
Direct
  0.000000  0.000000  0.000000
 
   24   24   24
 0.13199663718E+03 0.12606061646E+03 0.11031539578E+03 0.89442093552E+02 0.67813200497E+02
 0.47965594311E+02 0.31209671313E+02 0.18610687438E+02 0.10755216526E+02 0.68660670983E+01
 0.49420717640E+01 0.39128102536E+01 0.35869399705E+01 0.39128102536E+01 0.49420717640E+01
 0.68660670983E+01 0.10755216526E+02 0.18610687438E+02 0.31209671313E+02 0.47965594311E+02
 0.67813200497E+02 0.89442093552E+02 0.11031539578E+03 0.12606061646E+03 0.12606061646E+03
 0.11527562627E+03 0.97140641084E+02 0.76234504167E+02 0.55918596250E+02 0.37982732679E+02
 0.23604070006E+02 0.13710489515E+02 0.82519224328E+01 0.56833864562E+01 0.42776984104E+01
 0.36330226015E+01 0.36325160111E+01 0.42770252872E+01 0.56833442410E+01 0.82522865068E+01
 0.13713519273E+02 0.23615403450E+02 0.38002045380E+02 0.55929343486E+02 0.76212091349E+02
 0.97079348888E+02 0.11520572456E+03 0.12602961613E+03 0.11031539578E+03 0.97140641085E+02
 0.79305422734E+02 0.60365388896E+02 0.42662070114E+02 0.27672678917E+02 0.16548200413E+02
 0.97595571425E+01 0.64167388739E+01 0.46737424457E+01 0.37508956700E+01 0.34609770513E+01
 0.37503896744E+01 0.46735590403E+01 0.64159975984E+01 0.97581078801E+01 0.16552113564E+02
 0.27689845825E+02 0.42686451461E+02 0.60371059612E+02 0.79268214070E+02 0.97070175253E+02
 0.11025795562E+03 0.11520572456E+03 0.89442093552E+02 0.76234504167E+02 0.60365388896E+02
 0.44334186345E+02 0.29951285919E+02 0.18598083884E+02 0.11084222774E+02 0.70761880547E+01
 0.50415731967E+01 0.38959581465E+01 0.33824003856E+01 0.33823647182E+01 0.38963379830E+01
 0.50419464279E+01 0.70739964222E+01 0.11079010454E+02 0.18595624907E+02 0.29958535921E+02
 0.44348600298E+02 0.60373684394E+02 0.76226517614E+02 0.89424405788E+02 0.97070175253E+02
 0.97079348888E+02 0.67813200497E+02 0.55918596250E+02 0.42662070114E+02 0.29951285919E+02
 0.19345170437E+02 0.11864965621E+02 0.75607699376E+01 0.53254586663E+01 0.40245954546E+01
 0.33589872629E+01 0.31537136357E+01 0.33590012953E+01 0.40258739479E+01 0.53276972969E+01
 0.75606021566E+01 0.11858731996E+02 0.19333731753E+02 0.29941500306E+02 0.42662324661E+02
 0.55931693668E+02 0.67832865591E+02 0.76226517615E+02 0.79268214070E+02 0.76212091349E+02
 0.47965594311E+02 0.37982732679E+02 0.27672678917E+02 0.18598083884E+02 0.11864965621E+02
 0.77415093284E+01 0.54802362160E+01 0.41082731981E+01 0.33549651275E+01 0.30253209326E+01
 0.30249012207E+01 0.33546172778E+01 0.41103518035E+01 0.54864235508E+01 0.77492098444E+01
 0.11866711457E+02 0.18587521753E+02 0.27652372436E+02 0.37963956803E+02 0.47958062294E+02
 0.55931693671E+02 0.60373684398E+02 0.60371059614E+02 0.55929343486E+02 0.31209671313E+02
 0.23604070005E+02 0.16548200412E+02 0.11084222774E+02 0.75607699384E+01 0.54802362168E+01
 0.41365856056E+01 0.33533338935E+01 0.29602410099E+01 0.28406847219E+01 0.29592117144E+01
 0.33512689933E+01 0.41365134646E+01 0.54876981392E+01 0.75772435231E+01 0.11101589718E+02
 0.16552457938E+02 0.23586389467E+02 0.31174284632E+02 0.37963956807E+02 0.42662324667E+02
 0.44348600304E+02 0.42686451464E+02 0.38002045382E+02 0.18610687438E+02 0.13710489514E+02
 0.97595571426E+01 0.70761880559E+01 0.53254586683E+01 0.41082731999E+01 0.33533338944E+01
 0.29398027819E+01 0.27602191292E+01 0.27602825709E+01 0.29381030749E+01 0.33472991412E+01
 0.41005367131E+01 0.53252115483E+01 0.70918887082E+01 0.97880526456E+01 0.13734256337E+02
 0.18609865451E+02 0.23586389471E+02 0.27652372443E+02 0.29941500315E+02 0.29958535928E+02
 0.27689845829E+02 0.23615403452E+02 0.10755216526E+02 0.82519224329E+01 0.64167388750E+01
 0.50415731989E+01 0.40245954573E+01 0.33549651297E+01 0.29602410108E+01 0.27602191291E+01
 0.27005727910E+01 0.27619987925E+01 0.29601128430E+01 0.33474113657E+01 0.40084131831E+01
 0.50259376940E+01 0.64169848938E+01 0.82744599477E+01 0.10787562515E+02 0.13734256338E+02
 0.16552457943E+02 0.18587521760E+02 0.19333731760E+02 0.18595624912E+02 0.16552113567E+02
 0.13713519274E+02 0.68660670983E+01 0.56833864569E+01 0.46737424474E+01 0.38959581489E+01
 0.33589872652E+01 0.30253209337E+01 0.28406847212E+01 0.27602825690E+01 0.27619987908E+01
 0.28463831129E+01 0.30327517152E+01 0.33592774501E+01 0.38805326635E+01 0.46465467029E+01
 0.56618230886E+01 0.68662609288E+01 0.82744599470E+01 0.97880526459E+01 0.11101589720E+02
 0.11866711460E+02 0.11858731999E+02 0.11079010456E+02 0.97581078811E+01 0.82522865069E+01
 0.49420717640E+01 0.42776984111E+01 0.37508956714E+01 0.33824003869E+01 0.31537136361E+01
 0.30249012192E+01 0.29592117109E+01 0.29381030701E+01 0.29601128384E+01 0.30327517124E+01
 0.31702695176E+01 0.33978868604E+01 0.37503876929E+01 0.42557745138E+01 0.49102544216E+01
 0.56618230863E+01 0.64169848902E+01 0.70918887047E+01 0.75772435205E+01 0.77492098429E+01
 0.75606021557E+01 0.70739964215E+01 0.64159975977E+01 0.56833442405E+01 0.39128102536E+01
 0.36330226019E+01 0.34609770516E+01 0.33823647177E+01 0.33590012933E+01 0.33546172736E+01
 0.33512689870E+01 0.33472991336E+01 0.33474113585E+01 0.33592774449E+01 0.33978868580E+01
 0.34875050798E+01 0.36543065591E+01 0.39130892763E+01 0.42557745115E+01 0.46465466981E+01
 0.50259376874E+01 0.53252115411E+01 0.54876981326E+01 0.54864235457E+01 0.53276972934E+01
 0.50419464257E+01 0.46735590390E+01 0.42770252867E+01 0.35869399705E+01 0.36325160109E+01
 0.37503896736E+01 0.38963379811E+01 0.40258739442E+01 0.41103517977E+01 0.41365134568E+01
 0.41005367044E+01 0.40084131750E+01 0.38805326574E+01 0.37503876896E+01 0.36543065582E+01
 0.36190675704E+01 0.36543065582E+01 0.37503876896E+01 0.38805326574E+01 0.40084131750E+01
 0.41005367044E+01 0.41365134568E+01 0.41103517977E+01 0.40258739442E+01 0.38963379811E+01
 0.37503896736E+01 0.36325160109E+01 0.39128102536E+01 0.42770252867E+01 0.46735590390E+01
 0.50419464257E+01 0.53276972934E+01 0.54864235457E+01 0.54876981326E+01 0.53252115411E+01
 0.50259376874E+01 0.46465466981E+01 0.42557745115E+01 0.39130892763E+01 0.36543065591E+01
 0.34875050798E+01 0.33978868580E+01 0.33592774449E+01 0.33474113585E+01 0.33472991336E+01
 0.33512689870E+01 0.33546172736E+01 0.33590012933E+01 0.33823647177E+01 0.34609770516E+01
 0.36330226019E+01 0.49420717640E+01 0.56833442405E+01 0.64159975977E+01 0.70739964215E+01
 0.75606021557E+01 0.77492098429E+01 0.75772435205E+01 0.70918887047E+01 0.64169848902E+01
 0.56618230863E+01 0.49102544216E+01 0.42557745138E+01 0.37503876929E+01 0.33978868604E+01
 0.31702695176E+01 0.30327517124E+01 0.29601128384E+01 0.29381030701E+01 0.29592117109E+01
 0.30249012192E+01 0.31537136361E+01 0.33824003869E+01 0.37508956714E+01 0.42776984111E+01
 0.68660670983E+01 0.82522865069E+01 0.97581078811E+01 0.11079010456E+02 0.11858731999E+02
 0.11866711460E+02 0.11101589720E+02 0.97880526459E+01 0.82744599470E+01 0.68662609288E+01
 0.56618230886E+01 0.46465467029E+01 0.38805326635E+01 0.33592774501E+01 0.30327517152E+01
 0.28463831129E+01 0.27619987908E+01 0.27602825690E+01 0.28406847212E+01 0.30253209337E+01
 0.33589872652E+01 0.38959581489E+01 0.46737424474E+01 0.56833864569E+01 0.10755216526E+02
 0.13713519274E+02 0.16552113567E+02 0.18595624912E+02 0.19333731760E+02 0.18587521760E+02
 0.16552457943E+02 0.13734256338E+02 0.10787562515E+02 0.82744599477E+01 0.64169848938E+01
 0.50259376940E+01 0.40084131831E+01 0.33474113657E+01 0.29601128430E+01 0.27619987925E+01
 0.27005727910E+01 0.27602191291E+01 0.29602410108E+01 0.33549651297E+01 0.40245954573E+01
 0.50415731989E+01 0.64167388750E+01 0.82519224329E+01 0.18610687438E+02 0.23615403452E+02
 0.27689845829E+02 0.29958535928E+02 0.29941500315E+02 0.27652372443E+02 0.23586389471E+02
 0.18609865451E+02 0.13734256337E+02 0.97880526456E+01 0.70918887082E+01 0.53252115483E+01
 0.41005367131E+01 0.33472991412E+01 0.29381030749E+01 0.27602825709E+01 0.27602191292E+01
 0.29398027819E+01 0.33533338944E+01 0.41082731999E+01 0.53254586683E+01 0.70761880559E+01
 0.97595571426E+01 0.13710489514E+02 0.31209671313E+02 0.38002045382E+02 0.42686451464E+02
 0.44348600304E+02 0.42662324667E+02 0.37963956807E+02 0.31174284632E+02 0.23586389467E+02
 0.16552457938E+02 0.11101589718E+02 0.75772435231E+01 0.54876981392E+01 0.41365134646E+01
 0.33512689933E+01 0.29592117144E+01 0.28406847219E+01 0.29602410099E+01 0.33533338935E+01
 0.41365856056E+01 0.54802362168E+01 0.75607699384E+01 0.11084222774E+02 0.16548200412E+02
 0.23604070005E+02 0.47965594311E+02 0.55929343486E+02 0.60371059614E+02 0.60373684398E+02
 0.55931693671E+02 0.47958062294E+02 0.37963956803E+02 0.27652372436E+02 0.18587521753E+02
 0.11866711457E+02 0.77492098444E+01 0.54864235508E+01 0.41103518035E+01 0.33546172778E+01
 0.30249012207E+01 0.30253209326E+01 0.33549651275E+01 0.41082731981E+01 0.54802362160E+01
 0.77415093284E+01 0.11864965621E+02 0.18598083884E+02 0.27672678917E+02 0.37982732679E+02
 0.67813200497E+02 0.76212091349E+02 0.79268214070E+02 0.76226517615E+02 0.67832865591E+02
 0.55931693668E+02 0.42662324661E+02 0.29941500306E+02 0.19333731753E+02 0.11858731996E+02
 0.75606021566E+01 0.53276972969E+01 0.40258739479E+01 0.33590012953E+01 0.31537136357E+01
 0.33589872629E+01 0.40245954546E+01 0.53254586663E+01 0.75607699376E+01 0.11864965621E+02
 0.19345170437E+02 0.29951285919E+02 0.42662070114E+02 0.55918596250E+02 0.89442093552E+02
 0.97079348888E+02 0.97070175253E+02 0.89424405788E+02 0.76226517614E+02 0.60373684394E+02
 0.44348600298E+02 0.29958535921E+02 0.18595624907E+02 0.11079010454E+02 0.70739964222E+01
 0.50419464279E+01 0.38963379830E+01 0.33823647182E+01 0.33824003856E+01 0.38959581465E+01
 0.50415731967E+01 0.70761880547E+01 0.11084222774E+02 0.18598083884E+02 0.29951285919E+02
 0.44334186345E+02 0.60365388896E+02 0.76234504167E+02 0.11031539578E+03 0.11520572456E+03
 0.11025795562E+03 0.97070175253E+02 0.79268214070E+02 0.60371059612E+02 0.42686451461E+02
 0.27689845825E+02 0.16552113564E+02 0.97581078801E+01 0.64159975984E+01 0.46735590403E+01
 0.37503896744E+01 0.34609770513E+01 0.37508956700E+01 0.46737424457E+01 0.64167388739E+01
 0.97595571425E+01 0.16548200413E+02 0.27672678917E+02 0.42662070114E+02 0.60365388896E+02
 0.79305422734E+02 0.97140641085E+02 0.12606061646E+03 0.12602961613E+03 0.11520572456E+03
 0.97079348888E+02 0.76212091349E+02 0.55929343486E+02 0.38002045380E+02 0.23615403450E+02
 0.13713519273E+02 0.82522865068E+01 0.56833442410E+01 0.42770252872E+01 0.36325160111E+01
 0.36330226015E+01 0.42776984104E+01 0.56833864562E+01 0.82519224328E+01 0.13710489515E+02
 0.23604070006E+02 0.37982732679E+02 0.55918596250E+02 0.76234504167E+02 0.97140641084E+02
 0.11527562627E+03 0.12606061646E+03 0.11527562627E+03 0.97140641085E+02 0.76234504167E+02
 0.55918596250E+02 0.37982732679E+02 0.23604070005E+02 0.13710489514E+02 0.82519224329E+01
 0.56833864569E+01 0.42776984111E+01 0.36330226019E+01 0.36325160109E+01 0.42770252867E+01
 0.56833442405E+01 0.82522865069E+01 0.13713519274E+02 0.23615403452E+02 0.38002045382E+02
 0.55929343486E+02 0.76212091349E+02 0.97079348888E+02 0.11520572456E+03 0.12602961613E+03
 0.11527562627E+03 0.10128585450E+03 0.82474895421E+02 0.62674426027E+02 0.44298172940E+02
 0.28766053662E+02 0.17190762412E+02 0.10074157578E+02 0.65643111886E+01 0.47648769277E+01
 0.38082563765E+01 0.35069145233E+01 0.38077740362E+01 0.47646231030E+01 0.65634064072E+01
 0.10073570738E+02 0.17199013381E+02 0.28791758193E+02 0.44329818444E+02 0.62675272167E+02
 0.82413991045E+02 0.10118024641E+03 0.11519175130E+03 0.12047861008E+03 0.97140641084E+02
 0.82474895421E+02 0.65106891337E+02 0.47796559953E+02 0.32350817997E+02 0.20091827143E+02
 0.11868257615E+02 0.74361854970E+01 0.52501267725E+01 0.40236661542E+01 0.34699132819E+01
 0.34697584922E+01 0.40236862242E+01 0.52495986768E+01 0.74327754238E+01 0.11864714649E+02
 0.20099146704E+02 0.32375426361E+02 0.47822937159E+02 0.65103389185E+02 0.82426975547E+02
 0.97075981804E+02 0.10566859597E+03 0.10569876178E+03 0.76234504167E+02 0.62674426027E+02
 0.47796559953E+02 0.33632771671E+02 0.21738098387E+02 0.13195106236E+02 0.81887150870E+01
 0.56648301868E+01 0.42300637121E+01 0.34885764925E+01 0.32584755620E+01 0.34882796346E+01
 0.42306831052E+01 0.56647691634E+01 0.81839829925E+01 0.13186188361E+02 0.21733325763E+02
 0.33640653464E+02 0.47815195852E+02 0.62692311280E+02 0.76242840559E+02 0.85959833887E+02
 0.89523542792E+02 0.85958982311E+02 0.55918596250E+02 0.44298172940E+02 0.32350817997E+02
 0.21738098387E+02 0.13685429641E+02 0.86353757447E+01 0.59462157027E+01 0.43866080614E+01
 0.35220052912E+01 0.31414877342E+01 0.31411457382E+01 0.35221951318E+01 0.43889633968E+01
 0.59491350181E+01 0.86335804312E+01 0.13674890891E+02 0.21722434391E+02 0.32341847955E+02
 0.44307446139E+02 0.55945960459E+02 0.65335768921E+02 0.70620703077E+02 0.70607515507E+02
 0.65305444046E+02 0.37982732679E+02 0.28766053662E+02 0.20091827143E+02 0.13195106236E+02
 0.86353757450E+01 0.60466979675E+01 0.44703441997E+01 0.35453496686E+01 0.30803465324E+01
 0.29385007309E+01 0.30798604257E+01 0.35453415465E+01 0.44733634875E+01 0.60543229074E+01
 0.86436196031E+01 0.13195223458E+02 0.20079070193E+02 0.28746936090E+02 0.37970066144E+02
 0.46195957769E+02 0.51898028276E+02 0.53937542697E+02 0.51893198528E+02 0.46196391505E+02
 0.23604070006E+02 0.17190762412E+02 0.11868257615E+02 0.81887150877E+01 0.59462157037E+01
 0.44703442005E+01 0.35531275739E+01 0.30530558564E+01 0.28355460335E+01 0.28352477413E+01
 0.30511837350E+01 0.35496617522E+01 0.44699735918E+01 0.59553468240E+01 0.82072197822E+01
 0.11885847156E+02 0.17193792859E+02 0.23586847723E+02 0.29991055787E+02 0.35165739976E+02
 0.38058361682E+02 0.38069410420E+02 0.35193383170E+02 0.30021208332E+02 0.13710489515E+02
 0.10074157578E+02 0.74361854975E+01 0.56648301882E+01 0.43866080633E+01 0.35453496701E+01
 0.30530558570E+01 0.28042889190E+01 0.27293196793E+01 0.28042927339E+01 0.30498297187E+01
 0.35368259285E+01 0.43769818490E+01 0.56643062957E+01 0.74525408214E+01 0.10102464383E+02
 0.13733056368E+02 0.17904540975E+02 0.21811804371E+02 0.24592857353E+02 0.25607168246E+02
 0.24612497979E+02 0.21831312482E+02 0.17903878483E+02 0.82519224328E+01 0.65643111886E+01
 0.52501267734E+01 0.42300637139E+01 0.35220052933E+01 0.30803465337E+01 0.28355460336E+01
 0.27293196787E+01 0.27308054440E+01 0.28386635898E+01 0.30803249761E+01 0.35124339661E+01
 0.42106165927E+01 0.52322481711E+01 0.65639633156E+01 0.82736640440E+01 0.10436137868E+02
 0.12773719796E+02 0.14779074597E+02 0.15940105684E+02 0.15939411382E+02 0.14771412687E+02
 0.12751665612E+02 0.10405311315E+02 0.56833864562E+01 0.47648769277E+01 0.40236661552E+01
 0.34885764940E+01 0.31414877353E+01 0.29385007307E+01 0.28352477395E+01 0.28042927313E+01
 0.28386635878E+01 0.29470019281E+01 0.31512173000E+01 0.34885680893E+01 0.40061239379E+01
 0.47362734031E+01 0.56617948857E+01 0.67059049549E+01 0.78339167684E+01 0.89280548369E+01
 0.97394803985E+01 0.10034255357E+02 0.97210276455E+01 0.89004945413E+01 0.78131986882E+01
 0.67059402817E+01 0.42776984104E+01 0.38082563765E+01 0.34699132825E+01 0.32584755624E+01
 0.31411457374E+01 0.30798604230E+01 0.30511837305E+01 0.30498297133E+01 0.30803249715E+01
 0.31512172975E+01 0.32780740489E+01 0.34870501236E+01 0.38078822696E+01 0.42559413643E+01
 0.48140640566E+01 0.54256487607E+01 0.60034305352E+01 0.64557828607E+01 0.67061339230E+01
 0.66989869439E+01 0.64430313621E+01 0.60024548315E+01 0.54450300384E+01 0.48444081120E+01
 0.36330226015E+01 0.35069145233E+01 0.34697584920E+01 0.34882796335E+01 0.35221951290E+01
 0.35453415415E+01 0.35496617454E+01 0.35368259211E+01 0.35124339597E+01 0.34885680852E+01
 0.34870501221E+01 0.35350803478E+01 0.36544772016E+01 0.38513492463E+01 0.41102611267E+01
 0.43938468613E+01 0.46498260408E+01 0.48262928346E+01 0.48890399705E+01 0.48300405278E+01
 0.46633349502E+01 0.44168237118E+01 0.41295183558E+01 0.38512164611E+01 0.36325160111E+01
 0.38077740362E+01 0.40236862235E+01 0.42306831032E+01 0.43889633929E+01 0.44733634816E+01
 0.44699735844E+01 0.43769818414E+01 0.42106165865E+01 0.40061239341E+01 0.38078822684E+01
 0.36544772018E+01 0.35680781992E+01 0.35510869555E+01 0.35879471797E+01 0.36512835702E+01
 0.37121855007E+01 0.37500250507E+01 0.37551724083E+01 0.37252448611E+01 0.36640121191E+01
 0.35879982742E+01 0.35317101523E+01 0.35377013160E+01 0.42770252872E+01 0.47646231030E+01
 0.52495986760E+01 0.56647691615E+01 0.59491350150E+01 0.60543229030E+01 0.59553468188E+01
 0.56643062906E+01 0.52322481674E+01 0.47362734016E+01 0.42559413651E+01 0.38513492484E+01
 0.35510869573E+01 0.33525914021E+01 0.32333301932E+01 0.31669419989E+01 0.31348977857E+01
 0.31275326216E+01 0.31389198383E+01 0.31667546424E+01 0.32209446964E+01 0.33300870483E+01
 0.35322010367E+01 0.38512164620E+01 0.56833442410E+01 0.65634064072E+01 0.74327754236E+01
 0.81839829923E+01 0.86335804307E+01 0.86436196023E+01 0.82072197812E+01 0.74525408203E+01
 0.65639633154E+01 0.56617948872E+01 0.48140640601E+01 0.41102611316E+01 0.35879471844E+01
 0.32333301960E+01 0.30082561236E+01 0.28770556894E+01 0.28170918441E+01 0.28163061975E+01
 0.28718996142E+01 0.29961529323E+01 0.32207631553E+01 0.35882323151E+01 0.41301861306E+01
 0.48444081132E+01 0.82522865068E+01 0.10073570738E+02 0.11864714650E+02 0.13186188363E+02
 0.13674890894E+02 0.13195223461E+02 0.11885847159E+02 0.10102464385E+02 0.82736640461E+01
 0.67059049582E+01 0.54256487663E+01 0.43938468685E+01 0.36512835774E+01 0.31669420043E+01
 0.28770556919E+01 0.27252339377E+01 0.26773232493E+01 0.27220828827E+01 0.28723204558E+01
 0.31667706433E+01 0.36632565525E+01 0.44167194742E+01 0.54451484869E+01 0.67059402821E+01
 0.13713519273E+02 0.17199013381E+02 0.20099146706E+02 0.21733325767E+02 0.21722434397E+02
 0.20079070198E+02 0.17193792862E+02 0.13733056370E+02 0.10436137869E+02 0.78339167715E+01
 0.60034305413E+01 0.46498260491E+01 0.37121855092E+01 0.31348977925E+01 0.28170918479E+01
 0.26773232505E+01 0.26766093702E+01 0.28170487779E+01 0.31400480718E+01 0.37242325581E+01
 0.46621886969E+01 0.60031253218E+01 0.78135623002E+01 0.10405311314E+02 0.23615403450E+02
 0.28791758193E+02 0.32375426363E+02 0.33640653469E+02 0.32341847960E+02 0.28746936094E+02
 0.23586847725E+02 0.17904540974E+02 0.12773719794E+02 0.89280548380E+01 0.64557828658E+01
 0.48262928426E+01 0.37500250590E+01 0.31275326281E+01 0.28163062010E+01 0.27220828836E+01
 0.28170487777E+01 0.31309565432E+01 0.37551882106E+01 0.48265118883E+01 0.64434036023E+01
 0.89040044445E+01 0.12751896360E+02 0.17903878481E+02 0.38002045380E+02 0.44329818444E+02
 0.47822937161E+02 0.47815195855E+02 0.44307446143E+02 0.37970066144E+02 0.29991055783E+02
 0.21811804365E+02 0.14779074592E+02 0.97394803972E+01 0.67061339265E+01 0.48890399771E+01
 0.37551724152E+01 0.31389198432E+01 0.28718996161E+01 0.28723204553E+01 0.31400480704E+01
 0.37551882096E+01 0.48838305478E+01 0.66938299842E+01 0.97260510313E+01 0.14776363954E+02
 0.21827541242E+02 0.30021208330E+02 0.55929343486E+02 0.62675272167E+02 0.65103389186E+02
 0.62692311281E+02 0.55945960459E+02 0.46195957766E+02 0.35165739969E+02 0.24592857344E+02
 0.15940105676E+02 0.10034255354E+02 0.66989869459E+01 0.48300405327E+01 0.37252448659E+01
 0.31667546452E+01 0.29961529323E+01 0.31667706413E+01 0.37242325557E+01 0.48265118868E+01
 0.66938299838E+01 0.10033214868E+02 0.15950091398E+02 0.24612833484E+02 0.35183050120E+02
 0.46196391504E+02 0.76212091349E+02 0.82413991045E+02 0.82426975548E+02 0.76242840559E+02
 0.65335768919E+02 0.51898028271E+02 0.38058361673E+02 0.25607168237E+02 0.15939411375E+02
 0.97210276426E+01 0.64430313633E+01 0.46633349535E+01 0.36640121220E+01 0.32209446972E+01
 0.32207631538E+01 0.36632565496E+01 0.46621886944E+01 0.64434036012E+01 0.97260510316E+01
 0.15950091398E+02 0.25618662400E+02 0.38060625610E+02 0.51882838994E+02 0.65305444046E+02
 0.97079348888E+02 0.10118024641E+03 0.97075981804E+02 0.85959833887E+02 0.70620703076E+02
 0.53937542692E+02 0.38069410413E+02 0.24612497971E+02 0.14771412681E+02 0.89004945394E+01
 0.60024548326E+01 0.44168237141E+01 0.35879982757E+01 0.33300870479E+01 0.35882323130E+01
 0.44167194717E+01 0.60031253203E+01 0.89040044448E+01 0.14776363955E+02 0.24612833485E+02
 0.38060625610E+02 0.53923436226E+02 0.70610771611E+02 0.85958982311E+02 0.11520572456E+03
 0.11519175130E+03 0.10566859597E+03 0.89523542792E+02 0.70607515506E+02 0.51893198525E+02
 0.35193383166E+02 0.21831312477E+02 0.12751665609E+02 0.78131986877E+01 0.54450300396E+01
 0.41295183574E+01 0.35317101528E+01 0.35322010357E+01 0.41301861287E+01 0.54451484853E+01
 0.78135623001E+01 0.12751896362E+02 0.21827541244E+02 0.35183050121E+02 0.51882838994E+02
 0.70610771611E+02 0.89546597878E+02 0.10569876179E+03 0.12602961613E+03 0.12047861008E+03
 0.10569876179E+03 0.85958982311E+02 0.65305444046E+02 0.46196391504E+02 0.30021208330E+02
 0.17903878481E+02 0.10405311314E+02 0.67059402821E+01 0.48444081132E+01 0.38512164620E+01
 0.35377013160E+01 0.38512164611E+01 0.48444081120E+01 0.67059402817E+01 0.10405311315E+02
 0.17903878483E+02 0.30021208332E+02 0.46196391505E+02 0.65305444046E+02 0.85958982311E+02
 0.10569876178E+03 0.12047861008E+03 0.11031539578E+03 0.97140641084E+02 0.79305422734E+02
 0.60365388896E+02 0.42662070114E+02 0.27672678917E+02 0.16548200412E+02 0.97595571426E+01
 0.64167388750E+01 0.46737424474E+01 0.37508956714E+01 0.34609770516E+01 0.37503896736E+01
 0.46735590390E+01 0.64159975977E+01 0.97581078811E+01 0.16552113567E+02 0.27689845829E+02
 0.42686451464E+02 0.60371059614E+02 0.79268214070E+02 0.97070175253E+02 0.11025795562E+03
 0.11520572456E+03 0.97140641085E+02 0.82474895421E+02 0.65106891337E+02 0.47796559953E+02
 0.32350817997E+02 0.20091827143E+02 0.11868257615E+02 0.74361854975E+01 0.52501267734E+01
 0.40236661552E+01 0.34699132825E+01 0.34697584920E+01 0.40236862235E+01 0.52495986760E+01
 0.74327754236E+01 0.11864714650E+02 0.20099146706E+02 0.32375426363E+02 0.47822937161E+02
 0.65103389186E+02 0.82426975548E+02 0.97075981804E+02 0.10566859597E+03 0.10569876179E+03
 0.79305422734E+02 0.65106891337E+02 0.49626778351E+02 0.34943458915E+02 0.22597871683E+02
 0.13680629026E+02 0.84195774253E+01 0.57853843413E+01 0.43034248517E+01 0.35344455571E+01
 0.32952261910E+01 0.35339360097E+01 0.43034891218E+01 0.57839776358E+01 0.84129511866E+01
 0.13671592788E+02 0.22597844566E+02 0.34960578039E+02 0.49653300943E+02 0.65124592651E+02
 0.79305435337E+02 0.89539042892E+02 0.93309552217E+02 0.89546597878E+02 0.60365388896E+02
 0.47796559953E+02 0.34943458915E+02 0.23501166316E+02 0.14730345771E+02 0.91556146271E+01
 0.62025512705E+01 0.45412029914E+01 0.36142980548E+01 0.32046298394E+01 0.32041520097E+01
 0.36142071003E+01 0.45425814511E+01 0.62019510340E+01 0.91470150102E+01 0.14713336868E+02
 0.23486430799E+02 0.34947608454E+02 0.47828845438E+02 0.60417517731E+02 0.70659158870E+02
 0.76464031117E+02 0.76444371104E+02 0.70610771611E+02 0.42662070114E+02 0.32350817997E+02
 0.22597871683E+02 0.14730345771E+02 0.94308279224E+01 0.64368846650E+01 0.47005451484E+01
 0.36770342841E+01 0.31611898001E+01 0.30035197474E+01 0.31611964468E+01 0.36782338437E+01
 0.47038828293E+01 0.64398314514E+01 0.94262850369E+01 0.14713174997E+02 0.22575403892E+02
 0.32343369274E+02 0.42685979144E+02 0.51930065316E+02 0.58366850848E+02 0.60665924353E+02
 0.58328346991E+02 0.51882838994E+02 0.27672678917E+02 0.20091827143E+02 0.13680629026E+02
 0.91556146273E+01 0.64368846653E+01 0.47571148064E+01 0.37101382768E+01 0.31402090618E+01
 0.28921990284E+01 0.28921663473E+01 0.31396854226E+01 0.37100133460E+01 0.47610001784E+01
 0.64459983401E+01 0.91631738072E+01 0.13676534034E+02 0.20075097299E+02 0.27655449593E+02
 0.35178194280E+02 0.41232888750E+02 0.44606601795E+02 0.44601905197E+02 0.41226488715E+02
 0.35183050121E+02 0.16548200413E+02 0.11868257615E+02 0.84195774253E+01 0.62025512710E+01
 0.47005451492E+01 0.37101382774E+01 0.31337713665E+01 0.28430416175E+01 0.27547994259E+01
 0.28422733873E+01 0.31304648807E+01 0.37055253264E+01 0.47007060289E+01 0.62128485348E+01
 0.84372635970E+01 0.11882359156E+02 0.16547983129E+02 0.21811502238E+02 0.26672615083E+02
 0.30099847826E+02 0.31339882959E+02 0.30115846021E+02 0.26695333731E+02 0.21827541244E+02
 0.97595571425E+01 0.74361854970E+01 0.57853843413E+01 0.45412029922E+01 0.36770342853E+01
 0.31402090627E+01 0.28430416178E+01 0.27134444118E+01 0.27140356489E+01 0.28430226910E+01
 0.31358019603E+01 0.36668650090E+01 0.45305148273E+01 0.57844458896E+01 0.74512192931E+01
 0.97842182447E+01 0.12770406064E+02 0.15954983790E+02 0.18647508593E+02 0.20193632469E+02
 0.20199712017E+02 0.18657464201E+02 0.15953354897E+02 0.12751896362E+02 0.64167388739E+01
 0.52501267725E+01 0.43034248517E+01 0.36142980556E+01 0.31611898011E+01 0.28921990288E+01
 0.27547994254E+01 0.27140356480E+01 0.27580521830E+01 0.28967532773E+01 0.31611968256E+01
 0.36032072040E+01 0.42826482705E+01 0.52322801993E+01 0.64159860302E+01 0.78320382646E+01
 0.94795458850E+01 0.11100837476E+02 0.12302359489E+02 0.12744478412E+02 0.12293059907E+02
 0.11080693388E+02 0.94534672747E+01 0.78135623001E+01 0.46737424457E+01 0.40236661542E+01
 0.35344455571E+01 0.32046298399E+01 0.30035197474E+01 0.28921663462E+01 0.28422733848E+01
 0.28430226882E+01 0.28967532754E+01 0.30140514974E+01 0.32154944996E+01 0.35341447174E+01
 0.40061856588E+01 0.46468592854E+01 0.54255839501E+01 0.62598402569E+01 0.70672571834E+01
 0.77487427305E+01 0.81432883649E+01 0.81343898465E+01 0.77283159222E+01 0.70502877966E+01
 0.62600896604E+01 0.54451484853E+01 0.37508956700E+01 0.34699132819E+01 0.32952261910E+01
 0.32041520094E+01 0.31611964454E+01 0.31396854194E+01 0.31304648761E+01 0.31358019554E+01
 0.31611968218E+01 0.32154944978E+01 0.33158634733E+01 0.34870300475E+01 0.37506410243E+01
 0.41106013733E+01 0.45427681226E+01 0.49937660551E+01 0.53905753224E+01 0.56600485946E+01
 0.57519650286E+01 0.56539719798E+01 0.53904029066E+01 0.50091650782E+01 0.45686205393E+01
 0.41301861287E+01 0.34609770513E+01 0.34697584922E+01 0.35339360097E+01 0.36142070994E+01
 0.36782338410E+01 0.37100133413E+01 0.37055253204E+01 0.36668650029E+01 0.36032071994E+01
 0.35341447151E+01 0.34870300470E+01 0.34877676105E+01 0.35513846013E+01 0.36766992874E+01
 0.38448387554E+01 0.40218776189E+01 0.41677806170E+01 0.42498516498E+01 0.42525834570E+01
 0.41777785956E+01 0.40391136827E+01 0.38602294594E+01 0.36767833259E+01 0.35322010357E+01
 0.37503896744E+01 0.40236862242E+01 0.43034891218E+01 0.45425814497E+01 0.47038828261E+01
 0.47610001736E+01 0.47007060233E+01 0.45305148223E+01 0.42826482673E+01 0.40061856579E+01
 0.37506410251E+01 0.35513846025E+01 0.34232081333E+01 0.33611846004E+01 0.33464059141E+01
 0.33553260494E+01 0.33692289023E+01 0.33779699062E+01 0.33768798144E+01 0.33642337709E+01
 0.33463929711E+01 0.33457242427E+01 0.33976289793E+01 0.35317101528E+01 0.46735590403E+01
 0.52495986768E+01 0.57839776358E+01 0.62019510330E+01 0.64398314492E+01 0.64459983371E+01
 0.62128485318E+01 0.57844458876E+01 0.52322801991E+01 0.46468592873E+01 0.41106013767E+01
 0.36766992910E+01 0.33611846028E+01 0.31500609600E+01 0.30167699038E+01 0.29388328959E+01
 0.29037835749E+01 0.29050940343E+01 0.29387336872E+01 0.30082670604E+01 0.31330345491E+01
 0.33460620533E+01 0.36767833275E+01 0.41295183574E+01 0.64159975984E+01 0.74327754238E+01
 0.84129511866E+01 0.91470150102E+01 0.94262850370E+01 0.91631738074E+01 0.84372635977E+01
 0.74512192947E+01 0.64159860331E+01 0.54255839546E+01 0.45427681285E+01 0.38448387616E+01
 0.33464059192E+01 0.30167699065E+01 0.28132015893E+01 0.27031083674E+01 0.26679287915E+01
 0.27002535991E+01 0.28057452206E+01 0.30080299975E+01 0.33463687946E+01 0.38606839317E+01
 0.45686205412E+01 0.54450300396E+01 0.97581078801E+01 0.11864714649E+02 0.13671592788E+02
 0.14713336870E+02 0.14713175000E+02 0.13676534037E+02 0.11882359160E+02 0.97842182481E+01
 0.78320382688E+01 0.62598402626E+01 0.49937660624E+01 0.40218776268E+01 0.33553260563E+01
 0.29388329006E+01 0.27031083694E+01 0.25970546236E+01 0.25958269260E+01 0.27004853824E+01
 0.29388224727E+01 0.33635544239E+01 0.40387657236E+01 0.50093305781E+01 0.62600896610E+01
 0.78131986877E+01 0.16552113564E+02 0.20099146704E+02 0.22597844566E+02 0.23486430802E+02
 0.22575403896E+02 0.20075097303E+02 0.16547983131E+02 0.12770406066E+02 0.94795458875E+01
 0.70672571880E+01 0.53905753293E+01 0.41677806252E+01 0.33692289099E+01 0.29037835803E+01
 0.26679287942E+01 0.25958269267E+01 0.26679235121E+01 0.29066585864E+01 0.33768332229E+01
 0.41762316097E+01 0.53904166715E+01 0.70514670648E+01 0.94534672729E+01 0.12751665609E+02
 0.27689845825E+02 0.32375426361E+02 0.34960578039E+02 0.34947608456E+02 0.32343369277E+02
 0.27655449595E+02 0.21811502238E+02 0.15954983788E+02 0.11100837475E+02 0.77487427325E+01
 0.56600486000E+01 0.42498516571E+01 0.33779699130E+01 0.29050940390E+01 0.27002536010E+01
 0.27004853824E+01 0.29066585858E+01 0.33809051143E+01 0.42499706266E+01 0.56514670056E+01
 0.77314180241E+01 0.11084480549E+02 0.15953354893E+02 0.21831312477E+02 0.42686451461E+02
 0.47822937159E+02 0.49653300943E+02 0.47828845439E+02 0.42685979145E+02 0.35178194277E+02
 0.26672615078E+02 0.18647508586E+02 0.12302359484E+02 0.81432883643E+01 0.57519650321E+01
 0.42525834627E+01 0.33768798196E+01 0.29387336902E+01 0.28057452210E+01 0.29388224715E+01
 0.33768332214E+01 0.42499706258E+01 0.57443696163E+01 0.81344255803E+01 0.12302301311E+02
 0.18662443726E+02 0.26695333727E+02 0.35193383166E+02 0.60371059612E+02 0.65103389185E+02
 0.65124592651E+02 0.60417517730E+02 0.51930065314E+02 0.41232888745E+02 0.30099847818E+02
 0.20193632459E+02 0.12744478405E+02 0.81343898444E+01 0.56539719820E+01 0.41777785997E+01
 0.33642337743E+01 0.30082670615E+01 0.30080299963E+01 0.33635544216E+01 0.41762316077E+01
 0.56514670050E+01 0.81344255806E+01 0.12753796346E+02 0.20213408802E+02 0.30116954334E+02