   1   1   0   0
  0.1710448E+02  0.2892067E-09  0.2892067E-09  0.2892067E-09  0.5000000E-15
  1.000000000000000E-004
  CAR 
 fcc Ag                                  
     27.99173746     -6.58261575  301      3.24028032      1.00000000
     -6.583  0.0000E+00  0.0000E+00
     -6.467  0.0000E+00  0.0000E+00
     -6.352  0.0000E+00  0.0000E+00
     -6.237 -0.2032E-31 -0.2342E-32
     -6.122 -0.1898E-27 -0.2188E-28
     -6.006 -0.9115E-24 -0.1051E-24
     -5.891 -0.2252E-20 -0.2596E-21
     -5.776 -0.2864E-17 -0.3304E-18
     -5.661 -0.1815E-14 -0.2095E-15
     -5.545 -0.6095E-12 -0.7045E-13
     -5.430 -0.1054E-09 -0.1221E-10
     -5.315 -0.9378E-08 -0.1093E-08
     -5.200 -0.4283E-06 -0.5045E-07
     -5.084 -0.9946E-05 -0.1197E-05
     -4.969 -0.1147E-03 -0.1442E-04
     -4.854 -0.6104E-03 -0.8477E-04
     -4.739 -0.1012E-02 -0.2014E-03
     -4.623  0.2988E-02  0.1430E-03
     -4.508  0.1628E-01  0.2019E-02
     -4.393  0.3448E-01  0.5992E-02
     -4.278  0.4985E-01  0.1174E-01
     -4.162  0.6165E-01  0.1884E-01
     -4.047  0.7247E-01  0.2719E-01
     -3.932  0.8287E-01  0.3675E-01
     -3.817  0.9409E-01  0.4759E-01
     -3.701  0.1059E+00  0.5979E-01
     -3.586  0.1167E+00  0.7324E-01
     -3.471  0.1224E+00  0.8735E-01
     -3.356  0.1190E+00  0.1011E+00
     -3.240  0.2021E+00  0.1243E+00
     -3.125  0.5749E+00  0.1906E+00
     -3.010  0.1245E+01  0.3340E+00
     -2.895  0.1980E+01  0.5622E+00
     -2.779  0.2735E+01  0.8775E+00
     -2.664  0.3385E+01  0.1268E+01
     -2.549  0.3480E+01  0.1669E+01
     -2.434  0.3056E+01  0.2021E+01
     -2.318  0.2517E+01  0.2311E+01
     -2.203  0.2158E+01  0.2560E+01
     -2.088  0.2289E+01  0.2823E+01
     -1.973  0.2757E+01  0.3141E+01
     -1.857  0.2997E+01  0.3486E+01
     -1.742  0.2797E+01  0.3809E+01
     -1.627  0.2428E+01  0.4089E+01
     -1.512  0.2420E+01  0.4367E+01
     -1.396  0.2802E+01  0.4690E+01
     -1.281  0.3218E+01  0.5061E+01
     -1.166  0.3320E+01  0.5444E+01
     -1.051  0.2793E+01  0.5766E+01
     -0.935  0.2338E+01  0.6035E+01
     -0.820  0.2480E+01  0.6321E+01
     -0.705  0.2816E+01  0.6646E+01
     -0.590  0.3095E+01  0.7002E+01
     -0.474  0.3234E+01  0.7375E+01
     -0.359  0.3126E+01  0.7735E+01
     -0.244  0.2840E+01  0.8063E+01
     -0.129  0.2602E+01  0.8362E+01
     -0.013  0.2547E+01  0.8656E+01
      0.102  0.2758E+01  0.8974E+01
      0.217  0.3315E+01  0.9356E+01
      0.332  0.3682E+01  0.9780E+01
      0.448  0.2993E+01  0.1013E+02
      0.563  0.1640E+01  0.1031E+02
      0.678  0.6371E+00  0.1039E+02
      0.793  0.2496E+00  0.1042E+02
      0.908  0.1869E+00  0.1044E+02
      1.024  0.2086E+00  0.1046E+02
      1.139  0.2362E+00  0.1049E+02
      1.254  0.2161E+00  0.1051E+02
      1.369  0.2170E+00  0.1054E+02
      1.485  0.2516E+00  0.1057E+02
      1.600  0.2262E+00  0.1059E+02
      1.715  0.1966E+00  0.1062E+02
      1.830  0.2406E+00  0.1064E+02
      1.946  0.2659E+00  0.1068E+02
      2.061  0.2191E+00  0.1070E+02
      2.176  0.2065E+00  0.1072E+02
      2.291  0.2607E+00  0.1075E+02
      2.407  0.2672E+00  0.1079E+02
      2.522  0.2206E+00  0.1081E+02
      2.637  0.2259E+00  0.1084E+02
      2.752  0.2854E+00  0.1087E+02
      2.868  0.2961E+00  0.1090E+02
      2.983  0.2445E+00  0.1093E+02
      3.098  0.2304E+00  0.1096E+02
      3.213  0.2870E+00  0.1099E+02
      3.329  0.3106E+00  0.1103E+02
      3.444  0.2569E+00  0.1106E+02
      3.559  0.2308E+00  0.1108E+02
      3.674  0.2700E+00  0.1111E+02
      3.790  0.2955E+00  0.1115E+02
      3.905  0.2740E+00  0.1118E+02
      4.020  0.2403E+00  0.1121E+02
      4.135  0.2412E+00  0.1124E+02
      4.251  0.2832E+00  0.1127E+02
      4.366  0.2921E+00  0.1130E+02
      4.481  0.2526E+00  0.1133E+02
      4.596  0.2285E+00  0.1136E+02
      4.712  0.2496E+00  0.1139E+02
      4.827  0.2983E+00  0.1142E+02
      4.942  0.2961E+00  0.1145E+02
      5.057  0.2418E+00  0.1148E+02
      5.173  0.2243E+00  0.1151E+02
      5.288  0.2408E+00  0.1154E+02
      5.403  0.2632E+00  0.1157E+02
      5.518  0.2736E+00  0.1160E+02
      5.634  0.2382E+00  0.1163E+02
      5.749  0.1852E+00  0.1165E+02
      5.864  0.1937E+00  0.1167E+02
      5.979  0.2404E+00  0.1170E+02
      6.095  0.2432E+00  0.1172E+02
      6.210  0.2033E+00  0.1175E+02
      6.325  0.1665E+00  0.1177E+02
      6.440  0.1559E+00  0.1179E+02
      6.556  0.1854E+00  0.1181E+02
      6.671  0.2061E+00  0.1183E+02
      6.786  0.2121E+00  0.1186E+02
      6.901  0.2580E+00  0.1188E+02
      7.017  0.3281E+00  0.1192E+02
      7.132  0.3595E+00  0.1196E+02
      7.247  0.3535E+00  0.1200E+02
      7.362  0.3481E+00  0.1204E+02
      7.478  0.3356E+00  0.1208E+02
      7.593  0.3307E+00  0.1212E+02
      7.708  0.3296E+00  0.1216E+02
      7.823  0.3238E+00  0.1220E+02
      7.939  0.3047E+00  0.1223E+02
      8.054  0.3019E+00  0.1227E+02
      8.169  0.3230E+00  0.1230E+02
      8.284  0.3147E+00  0.1234E+02
      8.400  0.2717E+00  0.1237E+02
      8.515  0.2683E+00  0.1240E+02
      8.630  0.3042E+00  0.1244E+02
      8.745  0.3105E+00  0.1247E+02
      8.861  0.2802E+00  0.1251E+02
      8.976  0.2547E+00  0.1254E+02
      9.091  0.2593E+00  0.1257E+02
      9.206  0.2874E+00  0.1260E+02
      9.322  0.2952E+00  0.1263E+02
      9.437  0.2728E+00  0.1266E+02
      9.552  0.2542E+00  0.1269E+02
      9.667  0.2479E+00  0.1272E+02
      9.783  0.2756E+00  0.1275E+02
      9.898  0.3510E+00  0.1279E+02
     10.013  0.4094E+00  0.1284E+02
     10.128  0.3590E+00  0.1288E+02
     10.244  0.2933E+00  0.1292E+02
     10.359  0.3785E+00  0.1296E+02
     10.474  0.5021E+00  0.1302E+02
     10.589  0.4816E+00  0.1307E+02
     10.705  0.3778E+00  0.1312E+02
     10.820  0.3406E+00  0.1316E+02
     10.935  0.3967E+00  0.1320E+02
     11.050  0.4776E+00  0.1326E+02
     11.166  0.5196E+00  0.1332E+02
     11.281  0.4541E+00  0.1337E+02
     11.396  0.3478E+00  0.1341E+02
     11.511  0.3336E+00  0.1345E+02
     11.627  0.3912E+00  0.1349E+02
     11.742  0.4520E+00  0.1354E+02
     11.857  0.4658E+00  0.1360E+02
     11.972  0.4615E+00  0.1365E+02
     12.088  0.4612E+00  0.1370E+02
     12.203  0.4329E+00  0.1375E+02
     12.318  0.3942E+00  0.1380E+02
     12.433  0.3940E+00  0.1385E+02
     12.549  0.4542E+00  0.1390E+02
     12.664  0.4924E+00  0.1395E+02
     12.779  0.4681E+00  0.1401E+02
     12.894  0.4517E+00  0.1406E+02
     13.010  0.4797E+00  0.1412E+02
     13.125  0.4803E+00  0.1417E+02
     13.240  0.4215E+00  0.1422E+02
     13.355  0.4291E+00  0.1427E+02
     13.471  0.5203E+00  0.1433E+02
     13.586  0.5557E+00  0.1439E+02
     13.701  0.4975E+00  0.1445E+02
     13.816  0.4605E+00  0.1450E+02
     13.932  0.4935E+00  0.1456E+02
     14.047  0.5382E+00  0.1462E+02
     14.162  0.5397E+00  0.1468E+02
     14.277  0.5307E+00  0.1475E+02
     14.392  0.5406E+00  0.1481E+02
     14.508  0.5523E+00  0.1487E+02
     14.623  0.5593E+00  0.1494E+02
     14.738  0.5334E+00  0.1500E+02
     14.853  0.5015E+00  0.1506E+02
     14.969  0.5296E+00  0.1512E+02
     15.084  0.5541E+00  0.1518E+02
     15.199  0.4937E+00  0.1524E+02
     15.314  0.4541E+00  0.1529E+02
     15.430  0.5088E+00  0.1535E+02
     15.545  0.5492E+00  0.1541E+02
     15.660  0.5132E+00  0.1547E+02
     15.775  0.4875E+00  0.1553E+02
     15.891  0.5176E+00  0.1559E+02
     16.006  0.5181E+00  0.1565E+02
     16.121  0.4748E+00  0.1570E+02
     16.236  0.4405E+00  0.1575E+02
     16.352  0.4644E+00  0.1581E+02
     16.467  0.4764E+00  0.1586E+02
     16.582  0.4383E+00  0.1591E+02
     16.697  0.4685E+00  0.1596E+02
     16.813  0.5404E+00  0.1603E+02
     16.928  0.5245E+00  0.1609E+02
     17.043  0.4362E+00  0.1614E+02
     17.158  0.3974E+00  0.1618E+02
     17.274  0.4322E+00  0.1623E+02
     17.389  0.4412E+00  0.1628E+02
     17.504  0.4120E+00  0.1633E+02
     17.619  0.4390E+00  0.1638E+02
     17.735  0.4746E+00  0.1644E+02
     17.850  0.4439E+00  0.1649E+02
     17.965  0.4190E+00  0.1654E+02
     18.080  0.4277E+00  0.1659E+02
     18.196  0.4339E+00  0.1664E+02
     18.311  0.4151E+00  0.1668E+02
     18.426  0.4001E+00  0.1673E+02
     18.541  0.4093E+00  0.1678E+02
     18.657  0.3994E+00  0.1682E+02
     18.772  0.4093E+00  0.1687E+02
     18.887  0.4326E+00  0.1692E+02
     19.002  0.4271E+00  0.1697E+02
     19.118  0.4400E+00  0.1702E+02
     19.233  0.4575E+00  0.1707E+02
     19.348  0.4401E+00  0.1712E+02
     19.463  0.4024E+00  0.1717E+02
     19.579  0.3684E+00  0.1721E+02
     19.694  0.3519E+00  0.1725E+02
     19.809  0.3626E+00  0.1729E+02
     19.924  0.3893E+00  0.1734E+02
     20.040  0.4432E+00  0.1739E+02
     20.155  0.5675E+00  0.1746E+02
     20.270  0.8286E+00  0.1755E+02
     20.385  0.1162E+01  0.1769E+02
     20.501  0.1167E+01  0.1782E+02
     20.616  0.8370E+00  0.1792E+02
     20.731  0.7468E+00  0.1800E+02
     20.846  0.9902E+00  0.1812E+02
     20.962  0.1004E+01  0.1823E+02
     21.077  0.7213E+00  0.1831E+02
     21.192  0.5334E+00  0.1838E+02
     21.307  0.6288E+00  0.1845E+02
     21.423  0.8796E+00  0.1855E+02
     21.538  0.8971E+00  0.1865E+02
     21.653  0.6954E+00  0.1873E+02
     21.768  0.5505E+00  0.1880E+02
     21.884  0.5005E+00  0.1885E+02
     21.999  0.5543E+00  0.1892E+02
     22.114  0.6797E+00  0.1900E+02
     22.229  0.6968E+00  0.1908E+02
     22.345  0.6045E+00  0.1915E+02
     22.460  0.5422E+00  0.1921E+02
     22.575  0.5012E+00  0.1927E+02
     22.690  0.4804E+00  0.1932E+02
     22.806  0.5112E+00  0.1938E+02
     22.921  0.5321E+00  0.1944E+02
     23.036  0.4731E+00  0.1950E+02
     23.151  0.3458E+00  0.1954E+02
     23.267  0.2771E+00  0.1957E+02
     23.382  0.3305E+00  0.1961E+02
     23.497  0.4003E+00  0.1965E+02
     23.612  0.4131E+00  0.1970E+02
     23.728  0.3859E+00  0.1975E+02
     23.843  0.3346E+00  0.1978E+02
     23.958  0.2655E+00  0.1981E+02
     24.073  0.2217E+00  0.1984E+02
     24.189  0.2381E+00  0.1987E+02
     24.304  0.2621E+00  0.1990E+02
     24.419  0.2349E+00  0.1993E+02
     24.534  0.1685E+00  0.1994E+02
     24.650  0.9733E-01  0.1996E+02
     24.765  0.5667E-01  0.1996E+02
     24.880  0.4989E-01  0.1997E+02
     24.995  0.5525E-01  0.1997E+02
     25.111  0.5714E-01  0.1998E+02
     25.226  0.4703E-01  0.1999E+02
     25.341  0.3444E-01  0.1999E+02
     25.456  0.2435E-01  0.1999E+02
     25.572  0.8504E-02  0.1999E+02
     25.687 -0.7526E-03  0.1999E+02
     25.802  0.5129E-02  0.1999E+02
     25.917  0.1769E-01  0.2000E+02
     26.033  0.2008E-01  0.2000E+02
     26.148  0.9408E-02  0.2000E+02
     26.263  0.6485E-03  0.2000E+02
     26.378 -0.8302E-03  0.2000E+02
     26.494 -0.2541E-03  0.2000E+02
     26.609 -0.2878E-04  0.2000E+02
     26.724 -0.1491E-05  0.2000E+02
     26.839 -0.3740E-07  0.2000E+02
     26.955 -0.4653E-09  0.2000E+02
     27.070 -0.2905E-11  0.2000E+02
     27.185 -0.9163E-14  0.2000E+02
     27.300 -0.1734E-16  0.2000E+02
     27.415  0.0000E+00  0.2000E+02
     27.531  0.0000E+00  0.2000E+02
     27.646  0.0000E+00  0.2000E+02
     27.761  0.0000E+00  0.2000E+02
     27.876  0.0000E+00  0.2000E+02
     27.992  0.0000E+00  0.2000E+02
