    1    1    1    1
  0.1710448E+02  0.2892067E-09  0.2892067E-09  0.2892067E-09  0.5000000E-15
  1.000000000000000E-004
  CAR 
 fcc Ag                                  
     11   5340     20
 
  0.2500000E-01  0.2500000E-01  0.2500000E-01  0.6250000E-04
    1       -4.582616
    2       -4.582516
    3       -1.724532
    4       -1.724517
    5       -1.720532
    6       -1.720488
    7       -1.325863
    8       -1.325846
    9       -0.436787
   10       -0.436668
   11       -0.433473
   12       -0.433356
   13       20.129935
   14       20.130244
   15       22.934915
   16       22.934935
   17       23.388103
   18       23.388105
   19       23.516197
   20       23.516219
 
  0.2500000E-01  0.0000000E+00  0.0000000E+00  0.1875000E-03
    1       -4.582616
    2       -4.582516
    3       -1.724530
    4       -1.724501
    5       -1.720528
    6       -1.720513
    7       -1.325862
    8       -1.325847
    9       -0.436760
   10       -0.436720
   11       -0.433421
   12       -0.433381
   13       20.129935
   14       20.130244
   15       22.934914
   16       22.934933
   17       23.388097
   18       23.388110
   19       23.516205
   20       23.516213
 
  0.7500000E-01  0.2500000E-01  0.2500000E-01  0.1875000E-03
    1       -4.478584
    2       -4.478484
    3       -1.729982
    4       -1.729953
    5       -1.696156
    6       -1.696126
    7       -1.310436
    8       -1.310418
    9       -0.459740
   10       -0.459645
   11       -0.427015
   12       -0.426919
   13       20.104283
   14       20.104586
   15       22.223724
   16       22.223795
   17       23.055602
   18       23.055614
   19       23.597702
   20       23.597727
 
  0.2500000E-01  0.0000000E+00 -0.5000000E-01  0.1875000E-03
    1       -4.478583
    2       -4.478484
    3       -1.729980
    4       -1.729949
    5       -1.696150
    6       -1.696142
    7       -1.310432
    8       -1.310421
    9       -0.459746
   10       -0.459645
   11       -0.427010
   12       -0.426909
   13       20.104283
   14       20.104586
   15       22.223722
   16       22.223790
   17       23.055601
   18       23.055611
   19       23.597702
   20       23.597732
 
  0.7500000E-01  0.5000000E-01  0.5000000E-01  0.1875000E-03
    1       -4.478584
    2       -4.478485
    3       -1.729981
    4       -1.729957
    5       -1.696155
    6       -1.696117
    7       -1.310438
    8       -1.310415
    9       -0.459747
   10       -0.459635
   11       -0.427028
   12       -0.426915
   13       20.104284
   14       20.104587
   15       22.223724
   16       22.223801
   17       23.055601
   18       23.055612
   19       23.597704
   20       23.597728
 
  0.2500000E-01 -0.5000000E-01  0.0000000E+00  0.1875000E-03
    1       -4.478583
    2       -4.478484
    3       -1.729980
    4       -1.729949
    5       -1.696150
    6       -1.696142
    7       -1.310432
    8       -1.310421
    9       -0.459746
   10       -0.459645
   11       -0.427010
   12       -0.426909
   13       20.104283
   14       20.104586
   15       22.223722
   16       22.223790
   17       23.055601
   18       23.055611
   19       23.597702
   20       23.597732
 
  0.1250000E+00  0.2500000E-01  0.2500000E-01  0.1875000E-03
    1       -4.227248
    2       -4.227148
    3       -1.744331
    4       -1.744297
    5       -1.651623
    6       -1.651598
    7       -1.261039
    8       -1.261019
    9       -0.501347
   10       -0.501271
   11       -0.414772
   12       -0.414693
   13       19.608128
   14       19.608318
   15       21.090441
   16       21.090456
   17       22.894451
   18       22.894458
   19       23.737750
   20       23.737765
 
  0.2500000E-01  0.0000000E+00 -0.1000000E+00  0.1875000E-03
    1       -4.227247
    2       -4.227147
    3       -1.744329
    4       -1.744295
    5       -1.651621
    6       -1.651611
    7       -1.261035
    8       -1.261025
    9       -0.501358
   10       -0.501272
   11       -0.414766
   12       -0.414679
   13       19.608128
   14       19.608318
   15       21.090441
   16       21.090450
   17       22.894442
   18       22.894455
   19       23.737755
   20       23.737775
 
  0.1250000E+00  0.1000000E+00  0.1000000E+00  0.1875000E-03
    1       -4.227250
    2       -4.227150
    3       -1.744328
    4       -1.744297
    5       -1.651619
    6       -1.651575
    7       -1.261046
    8       -1.261010
    9       -0.501370
   10       -0.501254
   11       -0.414803
   12       -0.414688
   13       19.608136
   14       19.608324
   15       21.090444
   16       21.090454
   17       22.894446
   18       22.894459
   19       23.737761
   20       23.737772
 
  0.2500000E-01 -0.1000000E+00  0.0000000E+00  0.1875000E-03
    1       -4.227247
    2       -4.227147
    3       -1.744329
    4       -1.744295
    5       -1.651621
    6       -1.651611
    7       -1.261035
    8       -1.261025
    9       -0.501358
   10       -0.501272
   11       -0.414766
   12       -0.414679
   13       19.608128
   14       19.608318
   15       21.090441
   16       21.090450
   17       22.894442
   18       22.894455
   19       23.737755
   20       23.737775
 
  0.1750000E+00  0.2500000E-01  0.2500000E-01  0.1875000E-03
    1       -3.858758
    2       -3.858660
    3       -1.753775
    4       -1.753742
    5       -1.605973
    6       -1.605951
    7       -1.179674
    8       -1.179652
    9       -0.541997
   10       -0.541936
   11       -0.380191
   12       -0.380125
   13       17.991245
   14       17.991296
   15       20.809106
   16       20.809210
   17       22.757809
   18       22.757847
   19       23.825250
   20       23.825262
 
  0.2500000E-01  0.0000000E+00 -0.1500000E+00  0.1875000E-03
    1       -3.858757
    2       -3.858659
    3       -1.753773
    4       -1.753739
    5       -1.605976
    6       -1.605962
    7       -1.179672
    8       -1.179659
    9       -0.542013
   10       -0.541938
   11       -0.380181
   12       -0.380105
   13       17.991243
   14       17.991295
   15       20.809105
   16       20.809208
   17       22.757796
   18       22.757839
   19       23.825266
   20       23.825272
 
  0.1750000E+00  0.1500000E+00  0.1500000E+00  0.1875000E-03
    1       -3.858764
    2       -3.858666
    3       -1.753766
    4       -1.753733
    5       -1.605965
    6       -1.605916
    7       -1.179677
    8       -1.179629
    9       -0.542042
   10       -0.541926
   11       -0.380234
   12       -0.380122
   13       17.991258
   14       17.991305
   15       20.809107
   16       20.809206
   17       22.757804
   18       22.757848
   19       23.825266
   20       23.825282
 
  0.2500000E-01 -0.1500000E+00  0.0000000E+00  0.1875000E-03
    1       -3.858757
    2       -3.858659
    3       -1.753773
    4       -1.753739
    5       -1.605976
    6       -1.605962
    7       -1.179672
    8       -1.179659
    9       -0.542013
   10       -0.541938
   11       -0.380181
   12       -0.380105
   13       17.991243
   14       17.991295
   15       20.809105
   16       20.809208
   17       22.757796
   18       22.757839
   19       23.825266
   20       23.825272
 
  0.2250000E+00  0.2500000E-01  0.2500000E-01  0.1875000E-03
    1       -3.451991
    2       -3.451902
    3       -1.681367
    4       -1.681347
    5       -1.576909
    6       -1.576891
    7       -1.114548
    8       -1.114525
    9       -0.528633
   10       -0.528577
   11       -0.294388
   12       -0.294327
   13       16.038342
   14       16.038366
   15       20.663735
   16       20.663811
   17       22.552048
   18       22.552112
   19       23.784469
   20       23.784518
 
  0.2500000E-01  0.0000000E+00 -0.2000000E+00  0.1875000E-03
    1       -3.451990
    2       -3.451900
    3       -1.681359
    4       -1.681336
    5       -1.576923
    6       -1.576905
    7       -1.114549
    8       -1.114531
    9       -0.528653
   10       -0.528583
   11       -0.294373
   12       -0.294303
   13       16.038340
   14       16.038364
   15       20.663734
   16       20.663810
   17       22.552032
   18       22.552101
   19       23.784488
   20       23.784532
 
  0.2250000E+00  0.2000000E+00  0.2000000E+00  0.1875000E-03
    1       -3.452003
    2       -3.451913
    3       -1.681347
    4       -1.681321
    5       -1.576903
    6       -1.576850
    7       -1.114538
    8       -1.114479
    9       -0.528701
   10       -0.528589
   11       -0.294438
   12       -0.294329
   13       16.038357
   14       16.038377
   15       20.663736
   16       20.663808
   17       22.552042
   18       22.552113
   19       23.784488
   20       23.784543
 
  0.2500000E-01 -0.2000000E+00  0.0000000E+00  0.1875000E-03
    1       -3.451990
    2       -3.451900
    3       -1.681359
    4       -1.681336
    5       -1.576923
    6       -1.576905
    7       -1.114549
    8       -1.114531
    9       -0.528653
   10       -0.528583
   11       -0.294373
   12       -0.294303
   13       16.038340
   14       16.038364
   15       20.663734
   16       20.663810
   17       22.552032
   18       22.552101
   19       23.784488
   20       23.784532
 
  0.2750000E+00  0.2500000E-01  0.2500000E-01  0.1875000E-03
    1       -3.157960
    2       -3.157892
    3       -1.613279
    4       -1.613258
    5       -1.334131
    6       -1.334123
    7       -1.118851
    8       -1.118827
    9       -0.410631
   10       -0.410576
   11       -0.148271
   12       -0.148210
   13       14.054829
   14       14.054849
   15       20.395373
   16       20.395401
   17       22.223998
   18       22.224085
   19       23.539781
   20       23.539875
 
  0.2500000E-01  0.0000000E+00 -0.2500000E+00  0.1875000E-03
    1       -3.157958
    2       -3.157891
    3       -1.613276
    4       -1.613255
    5       -1.334133
    6       -1.334127
    7       -1.118857
    8       -1.118834
    9       -0.410656
   10       -0.410585
   11       -0.148254
   12       -0.148183
   13       14.054827
   14       14.054847
   15       20.395374
   16       20.395401
   17       22.223981
   18       22.224073
   19       23.539796
   20       23.539887
 
  0.2750000E+00  0.2500000E+00  0.2500000E+00  0.1875000E-03
    1       -3.157977
    2       -3.157908
    3       -1.613258
    4       -1.613194
    5       -1.334113
    6       -1.334109
    7       -1.118836
    8       -1.118765
    9       -0.410710
   10       -0.410607
   11       -0.148323
   12       -0.148217
   13       14.054847
   14       14.054862
   15       20.395376
   16       20.395399
   17       22.223989
   18       22.224085
   19       23.539792
   20       23.539894
 
  0.2500000E-01 -0.2500000E+00  0.0000000E+00  0.1875000E-03
    1       -3.157958
    2       -3.157891
    3       -1.613276
    4       -1.613255
    5       -1.334133
    6       -1.334127
    7       -1.118857
    8       -1.118834
    9       -0.410656
   10       -0.410585
   11       -0.148254
   12       -0.148183
   13       14.054827
   14       14.054847
   15       20.395374
   16       20.395401
   17       22.223981
   18       22.224073
   19       23.539796
   20       23.539887
 
  0.3250000E+00  0.2500000E-01  0.2500000E-01  0.1875000E-03
    1       -3.060981
    2       -3.060935
    3       -1.652071
    4       -1.652049
    5       -1.183865
    6       -1.183839
    7       -0.716042
    8       -0.716020
    9       -0.199590
   10       -0.199521
   11        0.060767
   12        0.060829
   13       12.103900
   14       12.103921
   15       20.036646
   16       20.036666
   17       21.822071
   18       21.822182
   19       23.069410
   20       23.069543
 
  0.2500000E-01  0.0000000E+00 -0.3000000E+00  0.1875000E-03
    1       -3.060979
    2       -3.060934
    3       -1.652072
    4       -1.652048
    5       -1.183864
    6       -1.183838
    7       -0.716047
    8       -0.716026
    9       -0.199619
   10       -0.199539
   11        0.060789
   12        0.060861
   13       12.103898
   14       12.103920
   15       20.036648
   16       20.036666
   17       21.822056
   18       21.822172
   19       23.069418
   20       23.069549
 
  0.3250000E+00  0.3000000E+00  0.3000000E+00  0.1875000E-03
    1       -3.060997
    2       -3.060952
    3       -1.652053
    4       -1.651981
    5       -1.183847
    6       -1.183768
    7       -0.716047
    8       -0.716016
    9       -0.199658
   10       -0.199573
   11        0.060726
   12        0.060819
   13       12.103919
   14       12.103935
   15       20.036645
   16       20.036669
   17       21.822060
   18       21.822184
   19       23.069407
   20       23.069555
 
  0.2500000E-01 -0.3000000E+00  0.0000000E+00  0.1875000E-03
    1       -3.060979
    2       -3.060934
    3       -1.652072
    4       -1.652048
    5       -1.183864
    6       -1.183838
    7       -0.716047
    8       -0.716026
    9       -0.199619
   10       -0.199539
   11        0.060789
   12        0.060861
   13       12.103898
   14       12.103920
   15       20.036648
   16       20.036666
   17       21.822056
   18       21.822172
   19       23.069418
   20       23.069549
 
  0.3750000E+00  0.2500000E-01  0.2500000E-01  0.1875000E-03
    1       -3.078127
    2       -3.078093
    3       -1.704524
    4       -1.704500
    5       -1.258083
    6       -1.258056
    7       -0.179947
    8       -0.179897
    9        0.089444
   10        0.089520
   11        0.549780
   12        0.549799
   13       10.248817
   14       10.248840
   15       19.679757
   16       19.679808
   17       21.435333
   18       21.435461
   19       22.492719
   20       22.492871
 
  0.2500000E-01  0.0000000E+00 -0.3500000E+00  0.1875000E-03
    1       -3.078127
    2       -3.078093
    3       -1.704525
    4       -1.704500
    5       -1.258083
    6       -1.258056
    7       -0.179934
    8       -0.179911
    9        0.089453
   10        0.089486
   11        0.549797
   12        0.549808
   13       10.248816
   14       10.248839
   15       19.679758
   16       19.679809
   17       21.435320
   18       21.435453
   19       22.492722
   20       22.492874
 
  0.3750000E+00  0.3500000E+00  0.3500000E+00  0.1875000E-03
    1       -3.078142
    2       -3.078108
    3       -1.704507
    4       -1.704431
    5       -1.258068
    6       -1.257985
    7       -0.180010
    8       -0.179921
    9        0.089387
   10        0.089471
   11        0.549789
   12        0.549806
   13       10.248839
   14       10.248856
   15       19.679756
   16       19.679812
   17       21.435316
   18       21.435467
   19       22.492705
   20       22.492883
 
  0.2500000E-01 -0.3500000E+00  0.0000000E+00  0.1875000E-03
    1       -3.078127
    2       -3.078093
    3       -1.704525
    4       -1.704500
    5       -1.258083
    6       -1.258056
    7       -0.179934
    8       -0.179911
    9        0.089453
   10        0.089486
   11        0.549797
   12        0.549808
   13       10.248816
   14       10.248839
   15       19.679758
   16       19.679809
   17       21.435320
   18       21.435453
   19       22.492722
   20       22.492874
 
  0.4250000E+00  0.2500000E-01  0.2500000E-01  0.1875000E-03
    1       -3.124780
    2       -3.124750
    3       -1.751762
    4       -1.751737
    5       -1.321645
    6       -1.321618
    7        0.047636
    8        0.047685
    9        0.281739
   10        0.281793
   11        1.515736
   12        1.515781
   13        8.563208
   14        8.563232
   15       19.393793
   16       19.393865
   17       21.134100
   18       21.134231
   19       21.967127
   20       21.967275
 
  0.2500000E-01  0.0000000E+00 -0.4000000E+00  0.1875000E-03
    1       -3.124779
    2       -3.124750
    3       -1.751763
    4       -1.751737
    5       -1.321645
    6       -1.321617
    7        0.047642
    8        0.047676
    9        0.281750
   10        0.281780
   11        1.515739
   12        1.515784
   13        8.563207
   14        8.563230
   15       19.393794
   16       19.393865
   17       21.134089
   18       21.134225
   19       21.967129
   20       21.967278
 
  0.4250000E+00  0.4000000E+00  0.4000000E+00  0.1875000E-03
    1       -3.124792
    2       -3.124763
    3       -1.751746
    4       -1.751668
    5       -1.321632
    6       -1.321547
    7        0.047552
    8        0.047663
    9        0.281659
   10        0.281770
   11        1.515749
   12        1.515796
   13        8.563234
   14        8.563250
   15       19.393792
   16       19.393869
   17       21.134075
   18       21.134247
   19       21.967103
   20       21.967297
 
  0.2500000E-01 -0.4000000E+00  0.0000000E+00  0.1875000E-03
    1       -3.124779
    2       -3.124750
    3       -1.751763
    4       -1.751737
    5       -1.321645
    6       -1.321617
    7        0.047642
    8        0.047676
    9        0.281750
   10        0.281780
   11        1.515739
   12        1.515784
   13        8.563207
   14        8.563230
   15       19.393794
   16       19.393865
   17       21.134089
   18       21.134225
   19       21.967129
   20       21.967278
 
  0.4750000E+00  0.2500000E-01  0.2500000E-01  0.1875000E-03
    1       -3.162715
    2       -3.162686
    3       -1.782700
    4       -1.782675
    5       -1.361841
    6       -1.361814
    7        0.164073
    8        0.164118
    9        0.386522
   10        0.386568
   11        2.474910
   12        2.474968
   13        7.225292
   14        7.225313
   15       19.219583
   16       19.219666
   17       20.963260
   18       20.963366
   19       21.606693
   20       21.606809
 
  0.2500000E-01  0.0000000E+00 -0.4500000E+00  0.1875000E-03
    1       -3.162715
    2       -3.162686
    3       -1.782702
    4       -1.782676
    5       -1.361841
    6       -1.361812
    7        0.164079
    8        0.164116
    9        0.386523
   10        0.386561
   11        2.474912
   12        2.474970
   13        7.225291
   14        7.225312
   15       19.219583
   16       19.219666
   17       20.963253
   18       20.963363
   19       21.606695
   20       21.606813
 
  0.4750000E+00  0.4500000E+00  0.4500000E+00  0.1875000E-03
    1       -3.162727
    2       -3.162699
    3       -1.782685
    4       -1.782606
    5       -1.361829
    6       -1.361743
    7        0.163982
    8        0.164097
    9        0.386428
   10        0.386546
   11        2.474917
   12        2.474978
   13        7.225323
   14        7.225335
   15       19.219582
   16       19.219670
   17       20.963219
   18       20.963403
   19       21.606652
   20       21.606855
 
  0.2500000E-01 -0.4500000E+00  0.0000000E+00  0.1875000E-03
    1       -3.162715
    2       -3.162686
    3       -1.782702
    4       -1.782676
    5       -1.361841
    6       -1.361812
    7        0.164079
    8        0.164116
    9        0.386523
   10        0.386561
   11        2.474912
   12        2.474970
   13        7.225291
   14        7.225312
   15       19.219583
   16       19.219666
   17       20.963253
   18       20.963363
   19       21.606695
   20       21.606813
 
 -0.4750000E+00  0.2500000E-01  0.2500000E-01  0.1875000E-03
    1       -3.173017
    2       -3.172989
    3       -1.791028
    4       -1.791002
    5       -1.372255
    6       -1.372227
    7        0.191171
    8        0.191218
    9        0.415788
   10        0.415835
   11        2.824572
   12        2.824635
   13        6.784390
   14        6.784408
   15       19.177579
   16       19.177665
   17       20.935858
   18       20.935922
   19       21.487356
   20       21.487425
 
  0.2500000E-01  0.0000000E+00  0.5000000E+00  0.1875000E-03
    1       -3.173017
    2       -3.172989
    3       -1.791029
    4       -1.791003
    5       -1.372254
    6       -1.372225
    7        0.191180
    8        0.191224
    9        0.415779
   10        0.415827
   11        2.824572
   12        2.824635
   13        6.784390
   14        6.784408
   15       19.177578
   16       19.177664
   17       20.935859
   18       20.935922
   19       21.487357
   20       21.487426
 
 -0.4750000E+00  0.5000000E+00  0.5000000E+00  0.1875000E-03
    1       -3.173029
    2       -3.173002
    3       -1.791012
    4       -1.790933
    5       -1.372242
    6       -1.372157
    7        0.191084
    8        0.191200
    9        0.415690
   10        0.415809
   11        2.824575
   12        2.824642
   13        6.784425
   14        6.784433
   15       19.177577
   16       19.177668
   17       20.935797
   18       20.935985
   19       21.487290
   20       21.487495
 
  0.2500000E-01  0.5000000E+00  0.0000000E+00  0.1875000E-03
    1       -3.173017
    2       -3.172989
    3       -1.791029
    4       -1.791003
    5       -1.372254
    6       -1.372225
    7        0.191180
    8        0.191224
    9        0.415779
   10        0.415827
   11        2.824572
   12        2.824635
   13        6.784390
   14        6.784408
   15       19.177578
   16       19.177664
   17       20.935859
   18       20.935922
   19       21.487357
   20       21.487426
 
 -0.4250000E+00  0.2500000E-01  0.2500000E-01  0.1875000E-03
    1       -3.152535
    2       -3.152506
    3       -1.774589
    4       -1.774563
    5       -1.351219
    6       -1.351191
    7        0.128806
    8        0.128861
    9        0.370160
   10        0.370214
   11        2.183581
   12        2.183636
   13        7.609258
   14        7.609280
   15       19.272386
   16       19.272468
   17       21.035493
   18       21.035595
   19       21.646618
   20       21.646726
 
  0.2500000E-01  0.0000000E+00  0.4500000E+00  0.1875000E-03
    1       -3.152535
    2       -3.152507
    3       -1.774590
    4       -1.774564
    5       -1.351216
    6       -1.351188
    7        0.128815
    8        0.128869
    9        0.370140
   10        0.370202
   11        2.183580
   12        2.183635
   13        7.609258
   14        7.609280
   15       19.272385
   16       19.272466
   17       21.035502
   18       21.035598
   19       21.646620
   20       21.646725
 
 -0.4250000E+00 -0.4500000E+00 -0.4500000E+00  0.1875000E-03
    1       -3.152547
    2       -3.152520
    3       -1.774573
    4       -1.774494
    5       -1.351205
    6       -1.351120
    7        0.128729
    8        0.128842
    9        0.370062
   10        0.370180
   11        2.183588
   12        2.183646
   13        7.609288
   14        7.609302
   15       19.272384
   16       19.272471
   17       21.035457
   18       21.035640
   19       21.646572
   20       21.646773
 
  0.2500000E-01  0.4500000E+00  0.0000000E+00  0.1875000E-03
    1       -3.152535
    2       -3.152507
    3       -1.774590
    4       -1.774564
    5       -1.351216
    6       -1.351188
    7        0.128815
    8        0.128869
    9        0.370140
   10        0.370202
   11        2.183580
   12        2.183635
   13        7.609258
   14        7.609280
   15       19.272385
   16       19.272466
   17       21.035502
   18       21.035598
   19       21.646620
   20       21.646725
 
 -0.3750000E+00  0.2500000E-01  0.2500000E-01  0.1875000E-03
    1       -3.109387
    2       -3.109357
    3       -1.737384
    4       -1.737357
    5       -1.302246
    6       -1.302217
    7       -0.029514
    8       -0.029455
    9        0.252134
   10        0.252198
   11        1.167114
   12        1.167154
   13        9.098606
   14        9.098630
   15       19.496356
   16       19.496425
   17       21.251644
   18       21.251778
   19       22.048469
   20       22.048612
 
  0.2500000E-01  0.0000000E+00  0.4000000E+00  0.1875000E-03
    1       -3.109388
    2       -3.109357
    3       -1.737384
    4       -1.737359
    5       -1.302242
    6       -1.302215
    7       -0.029498
    8       -0.029439
    9        0.252111
   10        0.252187
   11        1.167115
   12        1.167155
   13        9.098607
   14        9.098631
   15       19.496354
   16       19.496423
   17       21.251656
   18       21.251784
   19       22.048470
   20       22.048612
 
 -0.3750000E+00 -0.4000000E+00 -0.4000000E+00  0.1875000E-03
    1       -3.109401
    2       -3.109371
    3       -1.737366
    4       -1.737289
    5       -1.302230
    6       -1.302146
    7       -0.029577
    8       -0.029472
    9        0.252047
   10        0.252159
   11        1.167125
   12        1.167167
   13        9.098632
   14        9.098649
   15       19.496353
   16       19.496427
   17       21.251634
   18       21.251803
   19       22.048443
   20       22.048632
 
  0.2500000E-01  0.4000000E+00  0.0000000E+00  0.1875000E-03
    1       -3.109388
    2       -3.109357
    3       -1.737384
    4       -1.737359
    5       -1.302242
    6       -1.302215
    7       -0.029498
    8       -0.029439
    9        0.252111
   10        0.252187
   11        1.167115
   12        1.167155
   13        9.098607
   14        9.098631
   15       19.496354
   16       19.496423
   17       21.251656
   18       21.251784
   19       22.048470
   20       22.048612
 
 -0.3250000E+00  0.2500000E-01  0.2500000E-01  0.1875000E-03
    1       -3.066436
    2       -3.066399
    3       -1.686841
    4       -1.686815
    5       -1.233204
    6       -1.233176
    7       -0.335195
    8       -0.335149
    9        0.053090
   10        0.053179
   11        0.285800
   12        0.285838
   13       10.852661
   14       10.852684
   15       19.824193
   16       19.824238
   17       21.560245
   18       21.560380
   19       22.608094
   20       22.608238
 
  0.2500000E-01  0.0000000E+00  0.3500000E+00  0.1875000E-03
    1       -3.066437
    2       -3.066400
    3       -1.686842
    4       -1.686818
    5       -1.233201
    6       -1.233174
    7       -0.335175
    8       -0.335135
    9        0.053075
   10        0.053158
   11        0.285813
   12        0.285825
   13       10.852662
   14       10.852685
   15       19.824190
   16       19.824235
   17       21.560260
   18       21.560388
   19       22.608093
   20       22.608237
 
 -0.3250000E+00 -0.3500000E+00 -0.3500000E+00  0.1875000E-03
    1       -3.066452
    2       -3.066416
    3       -1.686823
    4       -1.686748
    5       -1.233186
    6       -1.233104
    7       -0.335224
    8       -0.335157
    9        0.053045
   10        0.053114
   11        0.285797
   12        0.285812
   13       10.852683
   14       10.852700
   15       19.824188
   16       19.824239
   17       21.560249
   18       21.560398
   19       22.608077
   20       22.608246
 
  0.2500000E-01  0.3500000E+00  0.0000000E+00  0.1875000E-03
    1       -3.066437
    2       -3.066400
    3       -1.686842
    4       -1.686818
    5       -1.233201
    6       -1.233174
    7       -0.335175
    8       -0.335135
    9        0.053075
   10        0.053158
   11        0.285813
   12        0.285825
   13       10.852662
   14       10.852685
   15       19.824190
   16       19.824235
   17       21.560260
   18       21.560388
   19       22.608093
   20       22.608237
 
 -0.2750000E+00  0.2500000E-01  0.2500000E-01  0.1875000E-03
    1       -3.075412
    2       -3.075360
    3       -1.636074
    4       -1.636050
    5       -1.160538
    6       -1.160514
    7       -0.948971
    8       -0.948951
    9       -0.252345
   10       -0.252275
   11       -0.039508
   12       -0.039439
   13       12.746067
   14       12.746087
   15       20.206062
   16       20.206071
   17       21.912524
   18       21.912640
   19       23.206917
   20       23.207035
 
  0.2500000E-01  0.0000000E+00  0.3000000E+00  0.1875000E-03
    1       -3.075413
    2       -3.075362
    3       -1.636075
    4       -1.636053
    5       -1.160539
    6       -1.160513
    7       -0.948957
    8       -0.948942
    9       -0.252317
   10       -0.252298
   11       -0.039507
   12       -0.039469
   13       12.746067
   14       12.746088
   15       20.206058
   16       20.206068
   17       21.912540
   18       21.912651
   19       23.206910
   20       23.207030
 
 -0.2750000E+00 -0.3000000E+00 -0.3000000E+00  0.1875000E-03
    1       -3.075430
    2       -3.075379
    3       -1.636055
    4       -1.635986
    5       -1.160520
    6       -1.160444
    7       -0.948954
    8       -0.948932
    9       -0.252396
   10       -0.252307
   11       -0.039582
   12       -0.039480
   13       12.746087
   14       12.746102
   15       20.206056
   16       20.206071
   17       21.912536
   18       21.912658
   19       23.206905
   20       23.207038
 
  0.2500000E-01  0.3000000E+00  0.0000000E+00  0.1875000E-03
    1       -3.075413
    2       -3.075362
    3       -1.636075
    4       -1.636053
    5       -1.160539
    6       -1.160513
    7       -0.948957
    8       -0.948942
    9       -0.252317
   10       -0.252298
   11       -0.039507
   12       -0.039469
   13       12.746067
   14       12.746088
   15       20.206058
   16       20.206068
   17       21.912540
   18       21.912651
   19       23.206910
   20       23.207030
 
 -0.2250000E+00  0.2500000E-01  0.2500000E-01  0.1875000E-03
    1       -3.234139
    2       -3.234063
    3       -1.610809
    4       -1.610792
    5       -1.472823
    6       -1.472813
    7       -1.109849
    8       -1.109827
    9       -0.451483
   10       -0.451416
   11       -0.211741
   12       -0.211673
   13       14.716677
   14       14.716697
   15       20.557251
   16       20.557292
   17       22.251230
   18       22.251319
   19       23.671309
   20       23.671383
 
  0.2500000E-01  0.0000000E+00  0.2500000E+00  0.1875000E-03
    1       -3.234141
    2       -3.234065
    3       -1.610821