 vasp.5.3.5 31Mar14 (build Dec 14 2018 19:18:10) complex                        
  
 POSCAR found type information on POSCAR  Ag
 POSCAR found :  1 types and       1 ions
 LDA part: xc-table for Ceperly-Alder, standard interpolation
 POSCAR, INCAR and KPOINTS ok, starting setup
 WARNING: small aliasing (wrap around) errors must be expected
 FFT: planning ...
 WAVECAR not read
 entering main loop
       N       E                     dE             d eps       ncg     rms          rms(c)
DAV:   1     0.508335835884E+02    0.50834E+02   -0.37517E+03236268   0.633E+02
DAV:   2    -0.277477449304E+01   -0.53608E+02   -0.49889E+02231756   0.213E+02
DAV:   3    -0.369358719774E+01   -0.91881E+00   -0.91690E+00241912   0.313E+01
DAV:   4    -0.369548173482E+01   -0.18945E-02   -0.18945E-02226236   0.145E+00
DAV:   5    -0.369548965660E+01   -0.79218E-05   -0.79215E-05202596   0.962E-02    0.822E+00
DAV:   6    -0.374360703866E+01   -0.48117E-01   -0.95364E-01238300   0.162E+01    0.263E+00
DAV:   7    -0.376235736440E+01   -0.18750E-01   -0.48344E-02220072   0.310E+00    0.898E-01
DAV:   8    -0.375769573192E+01    0.46616E-02   -0.16635E-03223568   0.561E-01    0.211E-01
DAV:   9    -0.375576494497E+01    0.19308E-02   -0.69365E-04228344   0.389E-01    0.115E-01
DAV:  10    -0.375518931043E+01    0.57563E-03   -0.94875E-05189656   0.226E-01    0.895E-03
DAV:  11    -0.375519117946E+01   -0.18690E-05   -0.72301E-06107404   0.301E-02
   1 F= -.37551912E+01 E0= -.37549834E+01  d E =-.623295E-03  mag=     0.0001     0.0001     0.0001
 writing wavefunctions
 optical routines
 imaginary and real dielectric function
 recalculating local potential from charge density
 direction            1
 direction            2
 direction            3
