   5   5   0   0
  0.3786540E+02  0.3160000E-09  0.3160000E-09  0.1896000E-08  0.5000000E-15
  1.000000000000000E-004
  CAR 
 unknown system                          
      5.21571097    -10.03399088  301      0.69396107      1.00000000
    -10.034  0.0000E+00  0.0000E+00
     -9.983  0.0000E+00  0.0000E+00
     -9.932  0.0000E+00  0.0000E+00
     -9.881  0.0000E+00  0.0000E+00
     -9.831  0.0000E+00  0.0000E+00
     -9.780  0.0000E+00  0.0000E+00
     -9.729  0.0000E+00  0.0000E+00
     -9.678  0.0000E+00  0.0000E+00
     -9.627  0.0000E+00  0.0000E+00
     -9.576  0.0000E+00  0.0000E+00
     -9.526  0.0000E+00  0.0000E+00
     -9.475  0.0000E+00  0.0000E+00
     -9.424  0.0000E+00  0.0000E+00
     -9.373  0.0000E+00  0.0000E+00
     -9.322  0.0000E+00  0.0000E+00
     -9.272  0.0000E+00  0.0000E+00
     -9.221  0.0000E+00  0.0000E+00
     -9.170  0.0000E+00  0.0000E+00
     -9.119  0.0000E+00  0.0000E+00
     -9.068  0.0000E+00  0.0000E+00
     -9.017  0.0000E+00  0.0000E+00
     -8.967  0.0000E+00  0.0000E+00
     -8.916  0.0000E+00  0.0000E+00
     -8.865  0.0000E+00  0.0000E+00
     -8.814  0.0000E+00  0.0000E+00
     -8.763  0.0000E+00  0.0000E+00
     -8.712  0.0000E+00  0.0000E+00
     -8.662  0.0000E+00  0.0000E+00
     -8.611  0.0000E+00  0.0000E+00
     -8.560  0.0000E+00  0.0000E+00
     -8.509  0.0000E+00  0.0000E+00
     -8.458  0.0000E+00  0.0000E+00
     -8.407  0.0000E+00  0.0000E+00
     -8.357  0.0000E+00  0.0000E+00
     -8.306  0.0000E+00  0.0000E+00
     -8.255  0.0000E+00  0.0000E+00
     -8.204  0.0000E+00  0.0000E+00
     -8.153  0.0000E+00  0.0000E+00
     -8.102  0.0000E+00  0.0000E+00
     -8.052  0.0000E+00  0.0000E+00
     -8.001  0.2145E+00  0.3570E-02
     -7.950  0.3001E+00  0.1937E-01
     -7.899  0.2605E+00  0.3270E-01
     -7.848  0.2984E+00  0.4691E-01
     -7.797  0.3093E+00  0.6283E-01
     -7.747  0.2750E+00  0.7741E-01
     -7.696  0.2838E+00  0.9161E-01
     -7.645  0.2926E+00  0.1063E+00
     -7.594  0.3018E+00  0.1214E+00
     -7.543  0.3151E+00  0.1371E+00
     -7.492  0.2944E+00  0.1526E+00
     -7.442  0.2969E+00  0.1676E+00
     -7.391  0.2993E+00  0.1828E+00
     -7.340  0.3018E+00  0.1980E+00
     -7.289  0.3099E+00  0.2136E+00
     -7.238  0.3175E+00  0.2295E+00
     -7.187  0.3247E+00  0.2459E+00
     -7.137  0.3139E+00  0.2621E+00
     -7.086  0.3149E+00  0.2781E+00
     -7.035  0.3179E+00  0.2942E+00
     -6.984  0.3212E+00  0.3104E+00
     -6.933  0.3260E+00  0.3269E+00
     -6.882  0.3309E+00  0.3436E+00
     -6.832  0.3357E+00  0.3605E+00
     -6.781  0.3405E+00  0.3777E+00
     -6.730  0.3420E+00  0.3950E+00
     -6.679  0.3429E+00  0.4124E+00
     -6.628  0.3463E+00  0.4299E+00
     -6.577  0.3496E+00  0.4476E+00
     -6.527  0.3534E+00  0.4655E+00
     -6.476  0.3575E+00  0.4836E+00
     -6.425  0.3615E+00  0.5018E+00
     -6.374  0.3681E+00  0.5204E+00
     -6.323  0.3748E+00  0.5393E+00
     -6.272  0.3802E+00  0.5584E+00
     -6.222  0.3849E+00  0.5779E+00
     -6.171  0.3899E+00  0.5976E+00
     -6.120  0.7293E+00  0.6223E+00
     -6.069  0.7488E+00  0.6635E+00
     -6.018  0.8084E+00  0.7026E+00
     -5.967  0.8289E+00  0.7450E+00
     -5.917  0.8172E+00  0.7863E+00
     -5.866  0.8459E+00  0.8286E+00
     -5.815  0.8741E+00  0.8723E+00
     -5.764  0.8804E+00  0.9170E+00
     -5.713  0.9062E+00  0.9624E+00
     -5.662  0.9380E+00  0.1009E+01
     -5.612  0.9642E+00  0.1058E+01
     -5.561  0.9936E+00  0.1107E+01
     -5.510  0.1025E+01  0.1159E+01
     -5.459  0.1056E+01  0.1212E+01
     -5.408  0.1082E+01  0.1266E+01
     -5.357  0.1164E+01  0.1322E+01
     -5.307  0.1274E+01  0.1385E+01
     -5.256  0.1346E+01  0.1451E+01
     -5.205  0.1479E+01  0.1522E+01
     -5.154  0.1640E+01  0.1602E+01
     -5.103  0.2361E+01  0.1695E+01
     -5.052  0.3456E+01  0.1860E+01
     -5.002  0.2280E+01  0.2005E+01
     -4.951  0.2050E+01  0.2112E+01
     -4.900  0.1952E+01  0.2214E+01
     -4.849  0.1773E+01  0.2310E+01
     -4.798  0.1798E+01  0.2397E+01
     -4.747  0.2477E+01  0.2515E+01
     -4.697  0.4059E+01  0.2670E+01
     -4.646  0.2572E+01  0.2818E+01
     -4.595  0.2874E+01  0.2967E+01
     -4.544  0.2773E+01  0.3105E+01
     -4.493  0.2864E+01  0.3256E+01
     -4.442  0.4461E+01  0.3442E+01
     -4.392  0.4822E+01  0.3679E+01
     -4.341  0.5078E+01  0.3941E+01
     -4.290  0.3549E+01  0.4156E+01
     -4.239  0.3302E+01  0.4329E+01
     -4.188  0.3385E+01  0.4495E+01
     -4.137  0.3087E+01  0.4660E+01
     -4.087  0.3083E+01  0.4816E+01
     -4.036  0.2755E+01  0.4965E+01
     -3.985  0.3144E+01  0.5115E+01
     -3.934  0.3051E+01  0.5268E+01
     -3.883  0.3072E+01  0.5423E+01
     -3.832  0.3180E+01  0.5583E+01
     -3.782  0.3459E+01  0.5750E+01
     -3.731  0.2508E+01  0.5893E+01
     -3.680  0.2437E+01  0.6018E+01
     -3.629  0.2406E+01  0.6141E+01
     -3.578  0.2294E+01  0.6261E+01
     -3.527  0.4329E+01  0.6440E+01
     -3.477  0.5720E+01  0.6690E+01
     -3.426  0.8662E+01  0.7082E+01
     -3.375  0.9171E+01  0.7532E+01
     -3.324  0.7326E+01  0.7964E+01
     -3.273  0.7504E+01  0.8357E+01
     -3.222  0.9578E+01  0.8870E+01
     -3.172  0.4565E+01  0.9164E+01
     -3.121  0.5687E+01  0.9408E+01
     -3.070  0.5034E+01  0.9693E+01
     -3.019  0.4126E+01  0.9934E+01
     -2.968  0.4169E+01  0.1015E+02
     -2.917  0.4514E+01  0.1035E+02
     -2.867  0.3657E+01  0.1054E+02
     -2.816  0.3534E+01  0.1072E+02
     -2.765  0.2161E+01  0.1087E+02
     -2.714  0.2824E+01  0.1099E+02
     -2.663  0.2182E+01  0.1111E+02
     -2.612  0.2427E+01  0.1123E+02
     -2.562  0.2320E+01  0.1135E+02
     -2.511  0.2954E+01  0.1148E+02
     -2.460  0.3398E+01  0.1166E+02
     -2.409  0.6500E+01  0.1187E+02
     -2.358  0.1041E+02  0.1226E+02
     -2.307  0.8453E+01  0.1278E+02
     -2.257  0.7552E+01  0.1320E+02
     -2.206  0.6943E+01  0.1353E+02
     -2.155  0.8099E+01  0.1390E+02
     -2.104  0.1473E+02  0.1438E+02
     -2.053  0.7228E+01  0.1475E+02
     -2.002  0.5353E+01  0.1503E+02
     -1.952  0.4519E+01  0.1526E+02
     -1.901  0.5122E+01  0.1552E+02
     -1.850  0.6310E+01  0.1580E+02
     -1.799  0.4802E+01  0.1609E+02
     -1.748  0.6221E+01  0.1639E+02
     -1.697  0.8610E+01  0.1675E+02
     -1.647  0.6163E+01  0.1712E+02
     -1.596  0.6938E+01  0.1748E+02
     -1.545  0.7692E+01  0.1784E+02
     -1.494  0.8036E+01  0.1825E+02
     -1.443  0.6153E+01  0.1865E+02
     -1.392  0.8034E+01  0.1898E+02
     -1.342  0.6284E+01  0.1936E+02
     -1.291  0.4284E+01  0.1959E+02
     -1.240  0.4498E+01  0.1981E+02
     -1.189  0.5009E+01  0.2007E+02
     -1.138  0.6407E+01  0.2036E+02
     -1.087  0.6158E+01  0.2070E+02
     -1.037  0.5694E+01  0.2100E+02
     -0.986  0.5524E+01  0.2128E+02
     -0.935  0.5678E+01  0.2156E+02
     -0.884  0.6308E+01  0.2187E+02
     -0.833  0.5884E+01  0.2219E+02
     -0.783  0.5207E+01  0.2247E+02
     -0.732  0.5748E+01  0.2274E+02
     -0.681  0.4993E+01  0.2302E+02
     -0.630  0.4887E+01  0.2327E+02
     -0.579  0.5315E+01  0.2353E+02
     -0.528  0.4935E+01  0.2379E+02
     -0.478  0.4757E+01  0.2403E+02
     -0.427  0.3956E+01  0.2427E+02
     -0.376  0.3055E+01  0.2445E+02
     -0.325  0.2984E+01  0.2459E+02
     -0.274  0.3742E+01  0.2476E+02
     -0.223  0.4291E+01  0.2500E+02
     -0.173  0.3609E+01  0.2518E+02
     -0.122  0.4305E+01  0.2538E+02
     -0.071  0.4287E+01  0.2562E+02
     -0.020  0.4554E+01  0.2583E+02
      0.031  0.7236E+01  0.2611E+02
      0.082  0.4866E+01  0.2634E+02
      0.132  0.4047E+01  0.2657E+02
      0.183  0.5418E+01  0.2678E+02
      0.234  0.8152E+01  0.2716E+02
      0.285  0.8013E+01  0.2755E+02
      0.336  0.7999E+01  0.2795E+02
      0.387  0.4892E+01  0.2826E+02
      0.437  0.3027E+01  0.2846E+02
      0.488  0.3054E+01  0.2865E+02
      0.539  0.4939E+01  0.2883E+02
      0.590  0.6319E+01  0.2913E+02
      0.641  0.8650E+01  0.2961E+02
      0.692  0.6240E+01  0.2999E+02
      0.742  0.7175E+01  0.3031E+02
      0.793  0.5540E+01  0.3061E+02
      0.844  0.6633E+01  0.3091E+02
      0.895  0.4836E+01  0.3121E+02
      0.946  0.5373E+01  0.3146E+02
      0.997  0.4601E+01  0.3172E+02
      1.047  0.4090E+01  0.3194E+02
      1.098  0.3586E+01  0.3213E+02
      1.149  0.3504E+01  0.3231E+02
      1.200  0.3629E+01  0.3249E+02
      1.251  0.3658E+01  0.3268E+02
      1.302  0.3218E+01  0.3287E+02
      1.352  0.3993E+01  0.3305E+02
      1.403  0.3352E+01  0.3325E+02
      1.454  0.2943E+01  0.3341E+02
      1.505  0.4010E+01  0.3357E+02
      1.556  0.7917E+01  0.3383E+02
      1.607  0.4448E+01  0.3420E+02
      1.657  0.7824E+01  0.3452E+02
      1.708  0.5660E+01  0.3486E+02
      1.759  0.4633E+01  0.3511E+02
      1.810  0.4381E+01  0.3534E+02
      1.861  0.3521E+01  0.3553E+02
      1.912  0.4073E+01  0.3572E+02
      1.962  0.4638E+01  0.3594E+02
      2.013  0.5143E+01  0.3619E+02
      2.064  0.6393E+01  0.3649E+02
      2.115  0.4513E+01  0.3687E+02
      2.166  0.2764E+01  0.3704E+02
      2.217  0.2364E+01  0.3717E+02
      2.267  0.2121E+01  0.3728E+02
      2.318  0.2485E+01  0.3739E+02
      2.369  0.2379E+01  0.3751E+02
      2.420  0.2267E+01  0.3765E+02
      2.471  0.1809E+01  0.3775E+02
      2.522  0.1425E+01  0.3783E+02
      2.572  0.7484E+00  0.3788E+02
      2.623  0.3708E+00  0.3792E+02
      2.674  0.3045E+00  0.3794E+02
      2.725  0.2382E+00  0.3795E+02
      2.776  0.1666E+00  0.3796E+02
      2.827  0.1530E+00  0.3797E+02
      2.877  0.1394E+00  0.3798E+02
      2.928  0.1258E+00  0.3798E+02
      2.979  0.9794E-01  0.3799E+02
      3.030  0.7689E-01  0.3799E+02
      3.081  0.5584E-01  0.3800E+02
      3.132  0.3479E-01  0.3800E+02
      3.182  0.1373E-01  0.3800E+02
      3.233  0.0000E+00  0.3800E+02
      3.284  0.0000E+00  0.3800E+02
      3.335  0.0000E+00  0.3800E+02
      3.386  0.0000E+00  0.3800E+02
      3.437  0.0000E+00  0.3800E+02
      3.487  0.0000E+00  0.3800E+02
      3.538  0.0000E+00  0.3800E+02
      3.589  0.0000E+00  0.3800E+02
      3.640  0.0000E+00  0.3800E+02
      3.691  0.0000E+00  0.3800E+02
      3.742  0.0000E+00  0.3800E+02
      3.792  0.0000E+00  0.3800E+02
      3.843  0.0000E+00  0.3800E+02
      3.894  0.0000E+00  0.3800E+02
      3.945  0.0000E+00  0.3800E+02
      3.996  0.0000E+00  0.3800E+02
      4.047  0.0000E+00  0.3800E+02
      4.097  0.0000E+00  0.3800E+02
      4.148  0.0000E+00  0.3800E+02
      4.199  0.0000E+00  0.3800E+02
      4.250  0.0000E+00  0.3800E+02
      4.301  0.0000E+00  0.3800E+02
      4.352  0.0000E+00  0.3800E+02
      4.402  0.0000E+00  0.3800E+02
      4.453  0.0000E+00  0.3800E+02
      4.504  0.0000E+00  0.3800E+02
      4.555  0.0000E+00  0.3800E+02
      4.606  0.0000E+00  0.3800E+02
      4.657  0.0000E+00  0.3800E+02
      4.707  0.0000E+00  0.3800E+02
      4.758  0.0000E+00  0.3800E+02
      4.809  0.0000E+00  0.3800E+02
      4.860  0.0000E+00  0.3800E+02
      4.911  0.0000E+00  0.3800E+02
      4.962  0.0000E+00  0.3800E+02
      5.012  0.0000E+00  0.3800E+02
      5.063  0.0000E+00  0.3800E+02
      5.114  0.0000E+00  0.3800E+02
      5.165  0.0000E+00  0.3800E+02
      5.216  0.0000E+00  0.3800E+02
