    5    5    1    1
  0.3786540E+02  0.3160000E-09  0.3160000E-09  0.1896000E-08  0.5000000E-15
  1.000000000000000E-004
  CAR 
 unknown system                          
     30    198     19
 
  0.0000000E+00  0.0000000E+00  0.0000000E+00  0.6250000E-03
    1       -8.033986   1.000000
    2       -6.148314   1.000000
    3       -4.653607   1.000000
    4       -4.556393   1.000000
    5       -4.021790   1.000000
    6       -3.374994   1.000000
    7       -3.370417   1.000000
    8       -1.663542   1.000000
    9       -0.440008   1.000000
   10       -0.440008   1.000000
   11       -0.097467   1.000000
   12       -0.008668   1.000000
   13       -0.008668   1.000000
   14        0.340369   1.000000
   15        0.389111   1.000000
   16        0.457970   1.000000
   17        0.837359  -0.038358
   18        0.837359   0.000000
   19        1.056691   0.000000
 
  0.5000000E-01  0.0000000E+00  0.0000000E+00  0.2500000E-02
    1       -7.978244   1.000000
    2       -6.107166   1.000000
    3       -4.615415   1.000000
    4       -4.521641   1.000000
    5       -3.996385   1.000000
    6       -3.381903   1.000000
    7       -3.308328   1.000000
    8       -1.681345   1.000000
    9       -0.509505   1.000000
   10       -0.488368   1.000000
   11       -0.351550   1.000000
   12        0.033723   1.000000
   13        0.191442   1.000000
   14        0.208418   1.000000
   15        0.457020   1.000000
   16        0.472209   1.000000
   17        0.586577   1.016054
   18        1.042780   0.000000
   19        1.329947   0.000000
 
  0.1000000E+00  0.0000000E+00  0.0000000E+00  0.2500000E-02
    1       -7.813261   1.000000
    2       -5.988887   1.000000
    3       -4.530896   1.000000
    4       -4.397063   1.000000
    5       -3.930411   1.000000
    6       -3.410294   1.000000
    7       -3.118055   1.000000
    8       -1.693700   1.000000
    9       -0.663515   1.000000
   10       -0.659071   1.000000
   11       -0.648709   1.000000
   12        0.025231   1.000000
   13        0.085847   1.000000
   14        0.312692   1.000000
   15        0.343033   1.000000
   16        0.554389   1.022243
   17        0.642197   0.582910
   18        1.404433   0.000000
   19        1.640511   0.000000
 
  0.1500000E+00  0.0000000E+00  0.0000000E+00  0.2500000E-02
    1       -7.545978   1.000000
    2       -5.809460   1.000000
    3       -4.438734   1.000000
    4       -4.180362   1.000000
    5       -3.841427   1.000000
    6       -3.457036   1.000000
    7       -2.811830   1.000000
    8       -1.615099   1.000000
    9       -0.974815   1.000000
   10       -0.914305   1.000000
   11       -0.798803   1.000000
   12       -0.094740   1.000000
   13        0.027891   1.000000
   14        0.201234   1.000000
   15        0.246519   1.000000
   16        0.758607   0.302723
   17        0.886246  -0.027199
   18        1.562359   0.000000
   19        1.799519   0.000000
 
  0.2000000E+00  0.0000000E+00  0.0000000E+00  0.2500000E-02
    1       -7.188428   1.000000
    2       -5.596551   1.000000
    3       -4.366336   1.000000
    4       -3.939080   1.000000
    5       -3.698549   1.000000
    6       -3.513927   1.000000
    7       -2.408892   1.000000
    8       -1.377814   1.000000
    9       -1.270508   1.000000
   10       -1.225594   1.000000
   11       -0.869455   1.000000
   12       -0.144095   1.000000
   13       -0.128179   1.000000
   14        0.027424   1.000000
   15        0.106018   1.000000
   16        1.034124  -0.048912
   17        1.158635   0.000000
   18        1.502069   0.000000
   19        1.839028   0.000000
 
  0.2500000E+00  0.0000000E+00  0.0000000E+00  0.2500000E-02
    1       -6.758833   1.000000
    2       -5.388611   1.000000
    3       -4.355191   1.000000
    4       -3.749751   1.000000
    5       -3.561767   1.000000
    6       -3.430840   1.000000
    7       -1.943265   1.000000
    8       -1.539651   1.000000
    9       -1.529887   1.000000
   10       -0.968876   1.000000
   11       -0.839227   1.000000
   12       -0.320448   1.000000
   13       -0.237263   1.000000
   14       -0.128266   1.000000
   15        0.002418   1.000000
   16        1.291493   0.000000
   17        1.396161   0.000000
   18        1.422109   0.000000
   19        1.833002   0.000000
 
  0.3000000E+00  0.0000000E+00  0.0000000E+00  0.2500000E-02
    1       -6.283724   1.000000
    2       -5.226004   1.000000
    3       -4.403153   1.000000
    4       -3.577473   1.000000
    5       -3.571816   1.000000
    6       -3.114582   1.000000
    7       -1.798912   1.000000
    8       -1.773297   1.000000
    9       -1.473499   1.000000
   10       -0.692777   1.000000
   11       -0.505908   1.000000
   12       -0.482157   1.000000
   13       -0.424779   1.000000
   14       -0.125678   1.000000
   15       -0.065224   1.000000
   16        1.275666   0.000000
   17        1.303481   0.000000
   18        1.407456   0.000000
   19        1.847355   0.000000
 
  0.3500000E+00  0.0000000E+00  0.0000000E+00  0.2500000E-02
    1       -5.803289   1.000000
    2       -5.130795   1.000000
    3       -4.464019   1.000000
    4       -3.552914   1.000000
    5       -3.425646   1.000000
    6       -2.801127   1.000000
    7       -2.018009   1.000000
    8       -1.963850   1.000000
    9       -1.077922   1.000000
   10       -0.687405   1.000000
   11       -0.680703   1.000000
   12       -0.448417   1.000000
   13       -0.262315   1.000000
   14        0.013625   1.000000
   15        0.163192   1.000000
   16        1.094594   0.000000
   17        1.128254   0.000000
   18        1.334044   0.000000
   19        1.947912   0.000000
 
  0.4000000E+00  0.0000000E+00  0.0000000E+00  0.2500000E-02
    1       -5.383494   1.000000
    2       -5.093237   1.000000
    3       -4.486021   1.000000
    4       -3.505535   1.000000
    5       -3.372205   1.000000
    6       -2.469896   1.000000
    7       -2.178994   1.000000
    8       -2.104934   1.000000
    9       -0.928380   1.000000
   10       -0.823603   1.000000
   11       -0.794551   1.000000
   12       -0.381129   1.000000
   13       -0.264656   1.000000
   14        0.154181   1.000000
   15        0.538204   1.000000
   16        0.929060   0.000000
   17        1.255617   0.000000
   18        1.398001   0.000000
   19        2.024413   0.000000
 
  0.4500000E+00  0.0000000E+00  0.0000000E+00  0.2500000E-02
    1       -5.120805   1.000000
    2       -5.085834   1.000000
    3       -4.427432   1.000000
    4       -3.463570   1.000000
    5       -3.411399   1.000000
    6       -2.277203   1.000000
    7       -2.191659   1.000000
    8       -2.102672   1.000000
    9       -1.259967   1.000000
   10       -0.908881   1.000000
   11       -0.617647   1.000000
   12       -0.460700   1.000000
   13       -0.253119   1.000000
   14        0.379455   1.000000
   15        0.598497   1.000000
   16        0.816105   0.000000
   17        1.498549   0.000000
   18        1.711052   0.000000
   19        2.073928   0.000000
 
  0.5000000E+00  0.0000000E+00  0.0000000E+00  0.1250000E-02
    1       -5.086041   1.000000
    2       -5.045789   1.000000
    3       -4.367474   1.000000
    4       -3.451034   1.000000
    5       -3.447326   1.000000
    6       -2.310202   1.000000
    7       -2.220931   1.000000
    8       -1.801484   1.000000
    9       -1.555023   1.000000
   10       -0.937137   1.000000
   11       -0.555732   1.000000
   12       -0.488557   1.000000
   13       -0.267572   1.000000
   14        0.486319   1.000000
   15        0.605116   1.000000
   16        0.776285   0.000000
   17        1.524075   0.000000
   18        1.950159   0.000000
   19        2.191275   0.000000
 
  0.5000000E-01  0.5000000E-01  0.0000000E+00  0.2500000E-02
    1       -7.922717   1.000000
    2       -6.065341   1.000000
    3       -4.571829   1.000000
    4       -4.491860   1.000000
    5       -3.968941   1.000000
    6       -3.320755   1.000000
    7       -3.314521   1.000000
    8       -1.704669   1.000000
    9       -0.618670   1.000000
   10       -0.502586   1.000000
   11       -0.453386   1.000000
   12        0.032348   1.000000
   13        0.104547   1.000000
   14        0.288827   1.000000
   15        0.406225   1.000000
   16        0.455101   1.000000
   17        0.741440   0.184089
   18        1.021246   0.000000
   19        1.504886   0.000000
 
  0.1000000E+00  0.5000000E-01  0.0000000E+00  0.5000000E-02
    1       -7.758441   1.000000
    2       -5.945055   1.000000
    3       -4.477899   1.000000
    4       -4.375215   1.000000
    5       -3.897483   1.000000
    6       -3.346799   1.000000
    7       -3.127415   1.000000
    8       -1.732907   1.000000
    9       -0.783584   1.000000
   10       -0.693775   1.000000
   11       -0.680374   1.000000
   12       -0.012170   1.000000
   13        0.066943   1.000000
   14        0.359562   1.000000
   15        0.368224   1.000000
   16        0.459166   1.020815
   17        0.768592   0.022189
   18        1.349098   0.000000
   19        1.669278   0.000000
 
  0.1500000E+00  0.5000000E-01  0.0000000E+00  0.5000000E-02
    1       -7.492400   1.000000
    2       -5.762371   1.000000
    3       -4.384656   1.000000
    4       -4.155494   1.000000
    5       -3.803408   1.000000
    6       -3.394588   1.000000
    7       -2.822032   1.000000
    8       -1.683137   1.000000
    9       -0.999372   1.000000
   10       -0.965168   1.000000
   11       -0.888280   1.000000
   12       -0.070904   1.000000
   13       -0.069935   1.000000
   14        0.247500   1.000000
   15        0.302298   1.000000
   16        0.623828   0.820789
   17        0.952971  -0.017382
   18        1.599034   0.000000
   19        1.722939   0.000000
 
  0.2000000E+00  0.5000000E-01  0.0000000E+00  0.5000000E-02
    1       -7.136669   1.000000
    2       -5.545287   1.000000
    3       -4.311098   1.000000
    4       -3.901612   1.000000
    5       -3.667745   1.000000
    6       -3.453287   1.000000
    7       -2.421261   1.000000
    8       -1.535584   1.000000
    9       -1.295052   1.000000
   10       -1.173472   1.000000
   11       -0.966926   1.000000
   12       -0.336869   1.000000
   13       -0.101819   1.000000
   14        0.121526   1.000000
   15        0.177099   1.000000
   16        0.849932  -0.052636
   17        1.211781   0.000000
   18        1.604147   0.000000
   19        1.663164   0.000000
 
  0.2500000E+00  0.5000000E-01  0.0000000E+00  0.5000000E-02
    1       -6.709493   1.000000
    2       -5.333082   1.000000
    3       -4.298328   1.000000
    4       -3.698089   1.000000
    5       -3.503465   1.000000
    6       -3.416466   1.000000
    7       -1.966600   1.000000
    8       -1.604633   1.000000
    9       -1.574876   1.000000
   10       -0.972336   1.000000
   11       -0.936971   1.000000
   12       -0.606958   1.000000
   13       -0.094290   1.000000
   14       -0.027888   1.000000
   15        0.004773   1.000000
   16        1.006904  -0.001952
   17        1.460339   0.000000
   18        1.569613   0.000000
   19        1.633744   0.000000
 
  0.3000000E+00  0.5000000E-01  0.0000000E+00  0.5000000E-02
    1       -6.237128   1.000000
    2       -5.167296   1.000000
    3       -4.346324   1.000000
    4       -3.521727   1.000000
    5       -3.515382   1.000000
    6       -3.116139   1.000000
    7       -1.858534   1.000000
    8       -1.808356   1.000000
    9       -1.474969   1.000000
   10       -0.839014   1.000000
   11       -0.779433   1.000000
   12       -0.458182   1.000000
   13       -0.230017   1.000000
   14       -0.180134   1.000000
   15       -0.021523   1.000000
   16        0.977224  -0.009677
   17        1.378597   0.000000
   18        1.615700   0.000000
   19        1.784924   0.000000
 
  0.3500000E+00  0.5000000E-01  0.0000000E+00  0.5000000E-02
    1       -5.758738   1.000000
    2       -5.070713   1.000000
    3       -4.409450   1.000000
    4       -3.500137   1.000000
    5       -3.371517   1.000000
    6       -2.824206   1.000000
    7       -2.056692   1.000000
    8       -1.987684   1.000000
    9       -1.107277   1.000000
   10       -1.007924   1.000000
   11       -0.499583   1.000000
   12       -0.410948   1.000000
   13       -0.375506   1.000000
   14        0.057676   1.000000
   15        0.123474   1.000000
   16        0.871642  -0.019950
   17        1.290383   0.000000
   18        1.372310   0.000000
   19        1.965772   0.000000
 
  0.4000000E+00  0.5000000E-01  0.0000000E+00  0.5000000E-02
    1       -5.337714   1.000000
    2       -5.033092   1.000000
    3       -4.436481   1.000000
    4       -3.456422   1.000000
    5       -3.333635   1.000000
    6       -2.517298   1.000000
    7       -2.206718   1.000000
    8       -2.116037   1.000000
    9       -1.170221   1.000000
   10       -0.848815   1.000000
   11       -0.595779   1.000000
   12       -0.580401   1.000000
   13       -0.131337   1.000000
   14        0.115978   1.000000
   15        0.538776   1.016125
   16        0.873631  -0.011796
   17        1.292673   0.000000
   18        1.314206   0.000000
   19        2.063293   0.000000
 
  0.4500000E+00  0.5000000E-01  0.0000000E+00  0.5000000E-02
    1       -5.068936   1.000000
    2       -5.026020   1.000000
    3       -4.384742   1.000000
    4       -3.417912   1.000000
    5       -3.393431   1.000000
    6       -2.298270   1.000000
    7       -2.261426   1.000000
    8       -2.104799   1.000000
    9       -1.403627   1.000000
   10       -0.761849   1.000000
   11       -0.739648   1.000000
   12       -0.623464   1.000000
   13        0.022998   1.000000
   14        0.262460   1.000000
   15        0.634454   0.976554
   16        0.854634   0.000000
   17        1.306826   0.000000
   18        1.653689   0.000000
   19        2.142297   0.000000
 
  0.5000000E+00  0.5000000E-01  0.0000000E+00  0.2500000E-02
    1       -5.026388   1.000000
    2       -4.990515   1.000000
    3       -4.326840   1.000000
    4       -3.443160   1.000000
    5       -3.403122   1.000000
    6       -2.328946   1.000000
    7       -2.256536   1.000000
    8       -1.852630   1.000000
    9       -1.652672   1.000000
   10       -0.792994   1.000000
   11       -0.785624   1.000000
   12       -0.577828   1.000000
   13        0.027509   1.000000
   14        0.378397   1.000000
   15        0.648215   0.918692
   16        0.832225   0.000000
   17        1.292251   0.000000
   18        1.866939   0.000000
   19        2.094855   0.000000
 
  0.1000000E+00  0.1000000E+00  0.0000000E+00  0.2500000E-02
    1       -7.596351   1.000000
    2       -5.818745   1.000000
    3       -4.329200   1.000000
    4       -4.308526   1.000000
    5       -3.810360   1.000000
    6       -3.176557   1.000000
    7       -3.139663   1.000000
    8       -1.803838   1.000000
    9       -0.960057   1.000000
   10       -0.891169   1.000000
   11       -0.816499   1.000000
   12       -0.023618   1.000000
   13        0.115384   1.000000
   14        0.123411   1.000000
   15        0.382000   1.000000
   16        0.495346   1.000000
   17        0.931156   0.000000
   18        1.458010   0.000000
   19        1.652244   0.000000
 
  0.1500000E+00  0.1000000E+00  0.0000000E+00  0.5000000E-02
    1       -7.334180   1.000000
    2       -5.626156   1.000000
    3       -4.230205   1.000000
    4       -4.083323   1.000000
    5       -3.698686   1.000000
    6       -3.211685   1.000000
    7       -2.854090   1.000000
    8       -1.818850   1.000000
    9       -1.181953   1.000000
   10       -1.101239   1.000000
   11       -1.003410   1.000000
   12       -0.261186   1.000000
   13       -0.033321   1.000000
   14        0.230827   1.000000
   15        0.314966   1.000000
   16        0.577467   0.998605
   17        1.055565   0.000000
   18        1.598258   0.000000
   19        1.667650   0.000000
 
  0.2000000E+00  0.1000000E+00  0.0000000E+00  0.5000000E-02
    1       -6.984259   1.000000
    2       -5.396156   1.000000
    3       -4.152941   1.000000
    4       -3.799905   1.000000
    5       -3.573857   1.000000
    6       -3.276025   1.000000
    7       -2.463110   1.000000
    8       -1.747993   1.000000
    9       -1.453074   1.000000
   10       -1.189424   1.000000
   11       -1.148139   1.000000
   12       -0.625289   1.000000
   13       -0.068250   1.000000
   14        0.161338   1.000000
   15        0.259037   1.000000
   16        0.690759   0.573450
   17        1.182439   0.000000
   18        1.542868   0.000000
   19        1.629857   0.000000
 
  0.2500000E+00  0.1000000E+00  0.0000000E+00  0.5000000E-02
    1       -6.564940   1.000000
    2       -5.170461   1.000000
    3       -4.133797   1.000000
    4       -3.550637   1.000000
    5       -3.374567   1.000000
    6       -3.334045   1.000000
    7       -2.054207   1.000000
    8       -1.756209   1.000000
    9       -1.661221   1.000000
   10       -1.175712   1.000000
   11       -1.075148   1.000000
   12       -0.878995   1.000000
   13       -0.178480   1.000000
   14        0.019155   1.000000
   15        0.187254   1.000000
   16        0.772013  -0.040954
   17        1.248997   0.000000
   18        1.635215   0.000000
   19        1.645881   0.000000
 
  0.3000000E+00  0.1000000E+00  0.0000000E+00  0.5000000E-02
    1       -6.101909   1.000000
    2       -4.994489   1.000000
    3       -4.180998   1.000000
    4       -3.361276   1.000000
    5       -3.351049   1.000000
    6       -3.125261   1.000000
    7       -2.004701   1.000000
    8       -1.900077   1.000000
    9       -1.496209   1.000000
   10       -1.176258   1.000000
   11       -1.014968   1.000000
   12       -0.570258   1.000000
   13       -0.435278   1.000000
   14        0.045811   1.000000
   15        0.070248   1.000000
   16        0.735117   0.168362
   17        1.238159   0.000000
   18        1.744036   0.000000
   19        1.862838   0.000000
 
  0.3500000E+00  0.1000000E+00  0.0000000E+00  0.5000000E-02
    1       -5.631520   1.000000
    2       -4.893529   1.000000
    3       -4.250925   1.000000
    4       -3.350860   1.000000
    5       -3.221049   1.000000
    6       -2.889776   1.000000
    7       -2.153361   1.000000
    8       -2.047480   1.000000
    9       -1.297272   1.000000
   10       -1.212075   1.000000
   11       -0.693724   1.000000
   12       -0.672724   1.000000
   13       -0.216058   1.000000
   14        0.092950   1.000000
   15        0.149593   1.000000
   16        0.682092   0.416053
   17        1.166358   0.000000
   18        1.632121   0.000000
   19        1.907066   0.000000
 
  0.4000000E+00  0.1000000E+00  0.0000000E+00  0.5000000E-02
    1       -5.209273   1.000000
    2       -4.855795   1.000000
    3       -4.294073   1.000000
    4       -3.321504   1.000000
    5       -3.246532   1.000000
    6       -2.620976   1.000000
    7       -2.271130   1.000000
    8       -2.144364   1.000000
    9       -1.405665   1.000000
   10       -1.060466   1.000000
   11       -0.813217   1.000000
   12       -0.349317   1.000000
   13       -0.307266   1.000000
   14        0.269870   1.000000
   15        0.545584   1.037030
   16        0.721969   0.057611
   17        1.085276   0.000000
   18        1.483247   0.000000
   19        2.029226   0.000000
 
  0.4500000E+00  0.1000000E+00  0.0000000E+00  0.5000000E-02
    1       -4.922213   1.000000
    2       -4.849825   1.000000
    3       -4.267579   1.000000
    4       -3.368137   1.000000
    5       -3.296530   1.000000
    6       -2.389631   1.000000
    7       -2.341776   1.000000
    8       -2.128651   1.000000
    9       -1.579551   1.000000
   10       -1.115381   1.000000
   11       -0.720649   1.000000
   12       -0.482960   1.000000
   13       -0.029854   1.000000
   14        0.363378   1.001127
   15        0.742381   0.304621
   16        0.850564   0.000000
   17        1.006734   0.000000
   18        1.594124   0.000000
   19        2.088515   0.000000
 
  0.5000000E+00  0.1000000E+00  0.0000000E+00  0.2500000E-02
    1       -4.850716   1.000000
    2       -4.831531   1.000000
    3       -4.220447   1.000000
    4       -3.444297   1.000000
    5       -3.287387   1.000000
    6       -2.364981   1.000000
    7       -2.341269   1.000000
    8       -1.974730   1.000000
    9       -1.756684   1.000000
   10       -1.153347   1.000000
   11       -0.664269   1.000000
   12       -0.528891   1.000000
   13        0.069695   1.000000
   14        0.414305   1.002089
   15        0.770884  -0.060404
   16        0.891534   0.000000
   17        0.955707   0.000000
   18        1.733914   0.000000
   19        2.101299   0.000000
 
  0.1500000E+00  0.1500000E+00  0.0000000E+00  0.2500000E-02
    1       -7.078954   1.000000
    2       -5.416876   1.000000
    3       -4.035804   1.000000
    4       -3.934222   1.000000
    5       -3.559837   1.000000
    6       -2.953502   1.000000
    7       -2.878625   1.000000
    8       -1.918741   1.000000
    9       -1.401871   1.000000
   10       -1.308919   1.000000
   11       -1.120432   1.000000
   12       -0.588334   1.000000
   13       -0.064330   1.000000
   14        0.220979   1.000000
   15        0.343372   1.000000
   16        0.635049   1.000000
   17        0.974586   0.000000
   18        1.604556   0.000000
   19        1.620666   0.000000
 
  0.2000000E+00  0.1500000E+00  0.0000000E+00  0.5000000E-02
    1       -6.739854   1.000000
    2       -5.164272   1.000000
    3       -3.924682   1.000000
    4       -3.645778   1.000000
    5       -3.430449   1.000000
    6       -2.999021   1.000000
    7       -2.542885   1.000000
    8       -1.927541   1.000000
    9       -1.621189   1.000000
   10       -1.433116   1.000000
   11       -1.237721   1.000000
   12       -0.933939   1.000000
   13       -0.201251   1.000000
   14        0.270147   1.000000
   15        0.276533   1.000000
   16        0.669699   0.956249
   17        0.906563   0.000000
   18        1.558417   0.000000
   19        1.733147   0.000000
 
  0.2500000E+00  0.1500000E+00  0.0000000E+00  0.5000000E-02
    1       -6.335765   1.000000
    2       -4.913713   1.000000
    3       -3.884233   1.000000
    4       -3.337355   1.000000
    5       -3.304307   1.000000
    6       -3.073606   1.000000
    7       -2.216556   1.000000
    8       -1.927513   1.000000
    9       -1.723191   1.000000
   10       -1.455147   1.000000
   11       -1.328194   1.000000
   12       -1.058801   1.000000
   13       -0.447172   1.000000
   14        0.178484   1.000000
   15        0.291697   1.000000
   16        0.646315   0.951164
   17        0.965773   0.000000
   18        1.555111   0.000000
   19        1.853822   0.000000
 
  0.3000000E+00  0.1500000E+00  0.0000000E+00  0.5000000E-02
    1       -5.892136   1.000000
    2       -4.718239   1.000000
    3       -3.924715   1.000000
    4       -3.155965   1.000000
    5       -3.121987   1.000000
    6       -3.094401   1.000000
    7       -2.180294   1.000000
    8       -2.018498   1.000000
    9       -1.581480   1.000000
   10       -1.460545   1.000000
   11       -1.271281   1.000000
   12       -0.763805   1.000000
   13       -0.742401   1.000000
   14        0.189236   1.000000
   15        0.249052   1.000000
   16        0.580252   1.056732
   17        1.006286   0.000000
   18        1.669417   0.000000
   19        1.970208   0.000000
 
  0.3500000E+00  0.1500000E+00  0.0000000E+00  0.5000000E-02
    1       -5.441750   1.000000
    2       -4.608953   1.000000
    3       -4.005209   1.000000
    4       -3.140882   1.000000
    5       -3.113876   1.000000
    6       -2.877149   1.000000
    7       -2.256692   1.000000
    8       -2.118752   1.000000
    9       -1.509424   1.000000
   10       -1.422981   1.000000
   11       -1.009858   1.000000
   12       -0.892214   1.000000
   13       -0.364413   1.000000
   14        0.188316   1.000000
   15        0.308197   1.000000
   16        0.606004   1.067685
   17        0.957959   0.000000
   18        1.822985   0.000000
   19        1.927963   0.000000
 
  0.4000000E+00  0.1500000E+00  0.0000000E+00  0.5000000E-02
    1       -5.027715   1.000000
    2       -4.571253   1.000000
    3       -4.077527   1.000000
    4       -3.231905   1.000000
    5       -3.149221   1.000000
    6       -2.639738   1.000000
    7       -2.315619   1.000000
    8       -2.177872   1.000000
    9       -1.539994   1.000000
   10       -1.356207   1.000000
   11       -1.075293   1.000000
   12       -0.579467   1.000000
   13       -0.224142   1.000000
   14        0.356699   1.000000
   15        0.500795   1.026104
   16        0.758727   0.003575
   17        0.859473   0.000000
   18        1.730686   0.000000
   19        2.004260   0.000000
 
  0.4500000E+00  0.1500000E+00  0.0000000E+00  0.5000000E-02
    1       -4.715073   1.000000
    2       -4.567564   1.000000
    3       -4.108032   1.000000
    4       -3.401965   1.000000
    5       -3.157049   1.000000
    6       -2.453857   1.000000
    7       -2.347373   1.000000
    8       -2.169149   1.000000
    9       -1.625690   1.000000
   10       -1.449272   1.000000
   11       -0.922737   1.000000
   12       -0.389264   1.000000
   13       -0.260764   1.000000
   14        0.603852   0.999693
   15        0.671146   0.839069
   16        0.775776   0.000000
   17        0.915874   0.000000
   18        1.744721   0.000000
   19        2.073568   0.000000
 
  0.5000000E+00  0.1500000E+00  0.0000000E+00  0.2500000E-02
    1       -4.595984   1.000000
    2       -4.569503   1.000000
    3       -4.101283   1.000000
    4       -3.492503   1.000000
    5       -3.160703   1.000000
    6       -2.400253   1.000000
    7       -2.357017   1.000000
    8       -2.115290   1.000000
    9       -1.697880   1.000000
   10       -1.491847   1.000000
   11       -0.845159   1.000000
   12       -0.326338   1.000000
   13       -0.278407   1.000000
   14        0.696394   0.991629
   15        0.712435   0.378774
   16        0.765599   0.000000
   17        0.960892   0.000000
   18        1.823912   0.000000
   19        2.075628   0.000000
 
  0.2000000E+00  0.2000000E+00  0.0000000E+00  0.2500000E-02
    1       -6.418112   1.000000
    2       -4.878826   1.000000
    3       -3.716810   1.000000
    4       -3.403216   1.000000
    5       -3.298813   1.000000
    6       -2.683109   1.000000
    7       -2.639057   1.000000
    8       -2.021741   1.000000
    9       -1.748379   1.000000
   10       -1.622992   1.000000
   11       -1.386649   1.000000
   12       -1.195894   1.000000
   13       -0.458143   1.000000
   14        0.330133   1.000000
   15        0.351673   1.000000
   16        0.631400   1.000000
   17        0.733862   0.017846
   18        1.488976   0.000000
   19        1.896494   0.000000
 
  0.2500000E+00  0.2000000E+00  0.0000000E+00  0.5000000E-02
    1       -6.039937   1.000000
    2       -4.588685   1.000000
    3       -3.607606   1.000000
    4       -3.246843   1.000000
    5       -3.070220   1.000000
    6       -2.779005   1.000000
    7       -2.399645   1.000000
    8       -2.053999   1.000000
    9       -1.766850   1.000000
   10       -1.684440   1.000000
   11       -1.572147   1.000000
   12       -1.218385   1.000000
   13       -0.768274   1.000000
   14        0.341126   1.000000
   15        0.383222   1.000000
   16        0.539028   1.000000
   17        0.744566   0.049987
   18        1.514618   0.000000
   19        1.966871   0.000000
 
  0.3000000E+00  0.2000000E+00  0.0000000E+00  0.5000000E-02
    1       -5.631828   1.000000
    2       -4.359281   1.000000
    3       -3.614694   1.000000
    4       -3.229853   1.000000
    5       -2.880174   1.000000
    6       -2.774035   1.000000
    7       -2.315405   1.000000
    8       -2.125193   1.000000
    9       -1.778440   1.000000
   10       -1.654068   1.000000
   11       -1.417301   1.000000
   12       -1.074834   1.000000
   13       -0.977531   1.000000
   14        0.324896   1.000000
   15        0.366903   1.000000
   16        0.547033   1.046770
   17        0.776132  -0.000743
   18        1.639807   0.000000
   19        2.027511   0.000000
 
  0.3500000E+00  0.2000000E+00  0.0000000E+00  0.5000000E-02
    1       -5.223985   1.000000
    2       -4.235167   1.000000
    3       -3.707004   1.000000
    4       -3.260629   1.000000
    5       -2.966058   1.000000
    6       -2.585257   1.000000
    7       -2.274979   1.000000
    8       -2.186928   1.000000
    9       -1.711157   1.000000
   10       -1.605637   1.000000
   11       -1.342915   1.000000
   12       -1.068310   1.000000
   13       -0.610667   1.000000
   14        0.212487   1.000000
   15        0.502354   1.000000
   16        0.707623   0.424944
   17        0.746708   0.009013
   18        1.808805   0.000000
   19        2.172527   0.000000
 
  0.4000000E+00  0.2000000E+00  0.0000000E+00  0.5000000E-02
    1       -4.846666   1.000000
    2       -4.198085   1.000000
    3       -3.827520   1.000000
    4       -3.364815   1.000000
    5       -3.040340   1.000000
    6       -2.458141   1.000000
    7       -2.250263   1.000000
    8       -2.217800   1.000000
    9       -1.636774   1.000000
   10       -1.517931   1.000000
   11       -1.423710   1.000000
   12       -0.838982   1.000000
   13       -0.274346   1.000000
   14        0.168843   1.000000
   15        0.650916   1.000000
   16        0.771268  -0.003184
   17        0.948475   0.000000
   18        1.948798   0.000000
   19        2.045535   0.000000
 
  0.4500000E+00  0.2000000E+00  0.0000000E+00  0.5000000E-02
    1       -4.531080   1.000000
    2       -4.198738   1.000000