 vasp.5.4.4.18Apr17-6-g9f103f2a35 (build May 20 2018 16:52:39) complex          
  
 executed on             LinuxIFC date 2022.11.15  15:14:13
 running on    1 total cores
 distrk:  each k-point on    1 cores,    1 groups
 distr:  one band on NCORES_PER_BAND=   1 cores,    1 groups


--------------------------------------------------------------------------------------------------------


 INCAR:
 POTCAR:    PAW W                                 
 POTCAR:    PAW W                                 
   VRHFIN =W: 5p6s5d                                                            
   LEXCH  = CA                                                                  
   EATOM  =   206.5370 eV,   15.1800 Ry                                         
                                                                                
   TITEL  = PAW W                                                               
   LULTRA =        F    use ultrasoft PP ?                                      
   IUNSCR =        1    unscreen: 0-lin 1-nonlin 2-no                           
   RPACOR =    2.330    partial core radius                                     
   POMASS =  183.850; ZVAL   =    6.000    mass and valenz                      
   RCORE  =    2.750    outmost cutoff radius                                   
   RWIGS  =    2.750; RWIGS  =    1.455    wigner-seitz radius (au A)           
   ENMAX  =  223.126; ENMIN  =  167.344 eV                                      
   RCLOC  =    2.147    cutoff for local pot                                    
   LCOR   =        T    correct aug charges                                     
   LPAW   =        T    paw PP                                                  
   EAUG   =  373.438                                                            
   DEXC   =    -.048                                                            
   RMAX   =    3.087    core radius for proj-oper                               
   RAUG   =    1.300    factor for augmentation sphere                          
   RDEP   =    2.886    radius for radial grids                                 
   QCUT   =   -4.050; QGAM   =    8.099    optimization parameters              
                                                                                
   Description                                                                  
     l     E      TYP  RCUT    TYP  RCUT                                        
     2   .000     23  2.500                                                     
     2   .000     23  2.500                                                     
     0   .000     23  2.500                                                     
     0   .000     23  2.500                                                     
     1   .200     23  2.750                                                     
     1  2.000     23  2.750                                                     
     3   .000      7   .000                                                     
  local pseudopotential read in
  partial core-charges read in
  atomic valenz-charges read in
  non local Contribution for L=           2  read in
    real space projection operators read in
  non local Contribution for L=           2  read in
    real space projection operators read in
  non local Contribution for L=           0  read in
    real space projection operators read in
  non local Contribution for L=           0  read in
    real space projection operators read in
  non local Contribution for L=           1  read in
    real space projection operators read in
  non local Contribution for L=           1  read in
    real space projection operators read in
    PAW grid and wavefunctions read in
 
   number of l-projection  operators is LMAX  =           6
   number of lm-projection operators is LMMAX =          18
 
  PAW W                                 :
 energy of atom  1       EATOM= -206.5370
 kinetic energy error for atom=    0.0005 (will be added to EATOM!!)
 
 
 POSCAR: BCC W 5-layers                          
  positions in direct lattice
  No initial velocities read in
 exchange correlation table for  LEXCH =        2
   RHO(1)=    0.500       N(1)  =     2000
   RHO(2)=  100.500       N(2)  =     4000
 


--------------------------------------------------------------------------------------------------------


 ion  position               nearest neighbor table
   1  0.000  0.000  0.000-   2 2.74   2 2.74   2 2.74   2 2.74   3 3.16
   2  0.500  0.500  0.083-   1 2.74   1 2.74   1 2.74   1 2.74   3 2.74   3 2.74   3 2.74   3 2.74
                             4 3.16
   3  0.000  0.000  0.167-   4 2.74   4 2.74   4 2.74   4 2.74   2 2.74   2 2.74   2 2.74   2 2.74
                             5 3.16   1 3.16
   4  0.500  0.500  0.250-   3 2.74   5 2.74   3 2.74   5 2.74   3 2.74   5 2.74   3 2.74   5 2.74
                             2 3.16
   5  0.000  0.000  0.333-   4 2.74   4 2.74   4 2.74   4 2.74   3 3.16
 
  LATTYP: Found a simple tetragonal cell.
 ALAT       =     3.1600000000
 C/A-ratio  =     6.0000000000
  
  Lattice vectors:
  
 A1 = (   3.1600000000,   0.0000000000,   0.0000000000)
 A2 = (   0.0000000000,   3.1600000000,   0.0000000000)
 A3 = (   0.0000000000,   0.0000000000,  18.9600000000)


Analysis of symmetry for initial positions (statically):
=====================================================================
 Subroutine PRICEL returns:
 Original cell was already a primitive cell.
 

 Routine SETGRP: Setting up the symmetry group for a 
 simple tetragonal supercell.


 Subroutine GETGRP returns: Found 16 space group operations
 (whereof  8 operations were pure point group operations)
 out of a pool of 16 trial point group operations.


The static configuration has the point symmetry C_4v.
 The point group associated with its full space group is D_4h.


Analysis of symmetry for dynamics (positions and initial velocities):
=====================================================================
 Subroutine PRICEL returns:
 Original cell was already a primitive cell.
 

 Routine SETGRP: Setting up the symmetry group for a 
 simple tetragonal supercell.


 Subroutine GETGRP returns: Found 16 space group operations
 (whereof  8 operations were pure point group operations)
 out of a pool of 16 trial point group operations.


The dynamic configuration has the point symmetry C_4v.
 The point group associated with its full space group is D_4h.


 Subroutine INISYM returns: Found 16 space group operations
 (whereof  8 operations are pure point group operations),
 and found     1 'primitive' translations

 
 
 KPOINTS: Gamma 20*20*4                           

Automatic generation of k-mesh.
Space group operators:
 irot       det(A)        alpha          n_x          n_y          n_z        tau_x        tau_y        tau_z
    1     1.000000     0.000000     1.000000     0.000000     0.000000     0.000000     0.000000     0.000000
    2     1.000000    90.000000     0.000000     0.000000    -1.000000     0.000000     0.000000     0.000000
    3     1.000000   180.000000     0.000000     0.000000     1.000000     0.000000     0.000000     0.000000
    4     1.000000    90.000000     0.000000     0.000000     1.000000     0.000000     0.000000     0.000000
    5    -1.000000   179.999999     0.000000     1.000000     0.000000     0.000000     0.000000     0.000000
    6    -1.000000   180.000000     0.707107     0.707107     0.000000     0.000000     0.000000     0.000000
    7    -1.000000   180.000000     1.000000     0.000000     0.000000     0.000000     0.000000     0.000000
    8    -1.000000   180.000000     0.707107    -0.707107     0.000000     0.000000     0.000000     0.000000
    9    -1.000000     0.000000     1.000000     0.000000     0.000000     0.000000     0.000000     0.333333
   10    -1.000000    90.000000     0.000000     0.000000    -1.000000     0.000000     0.000000     0.333333
   11    -1.000000   180.000000     0.000000     0.000000     1.000000     0.000000     0.000000     0.333333
   12    -1.000000    90.000000     0.000000     0.000000     1.000000     0.000000     0.000000     0.333333
   13     1.000000   179.999999     0.000000     1.000000     0.000000     0.000000     0.000000     0.333333
   14     1.000000   180.000000     0.707107     0.707107     0.000000     0.000000     0.000000     0.333333
   15     1.000000   180.000000     1.000000     0.000000     0.000000     0.000000     0.000000     0.333333
   16     1.000000   180.000000     0.707107    -0.707107     0.000000     0.000000     0.000000     0.333333
 
 Subroutine IBZKPT returns following result:
 ===========================================
 
 Found    198 irreducible k-points:
 
 Following reciprocal coordinates:
            Coordinates               Weight
  0.000000  0.000000  0.000000      1.000000
  0.050000  0.000000  0.000000      4.000000
  0.100000  0.000000  0.000000      4.000000
  0.150000  0.000000  0.000000      4.000000
  0.200000  0.000000  0.000000      4.000000
  0.250000  0.000000  0.000000      4.000000
  0.300000  0.000000  0.000000      4.000000
  0.350000  0.000000  0.000000      4.000000
  0.400000  0.000000  0.000000      4.000000
  0.450000  0.000000  0.000000      4.000000
  0.500000  0.000000  0.000000      2.000000
  0.050000  0.050000  0.000000      4.000000
  0.100000  0.050000  0.000000      8.000000
  0.150000  0.050000  0.000000      8.000000
  0.200000  0.050000  0.000000      8.000000
  0.250000  0.050000  0.000000      8.000000
  0.300000  0.050000  0.000000      8.000000
  0.350000  0.050000  0.000000      8.000000
  0.400000  0.050000  0.000000      8.000000
  0.450000  0.050000  0.000000      8.000000
  0.500000  0.050000  0.000000      4.000000
  0.100000  0.100000  0.000000      4.000000
  0.150000  0.100000  0.000000      8.000000
  0.200000  0.100000  0.000000      8.000000
  0.250000  0.100000  0.000000      8.000000
  0.300000  0.100000  0.000000      8.000000
  0.350000  0.100000  0.000000      8.000000
  0.400000  0.100000  0.000000      8.000000
  0.450000  0.100000  0.000000      8.000000
  0.500000  0.100000  0.000000      4.000000
  0.150000  0.150000  0.000000      4.000000
  0.200000  0.150000  0.000000      8.000000
  0.250000  0.150000  0.000000      8.000000
  0.300000  0.150000  0.000000      8.000000
  0.350000  0.150000  0.000000      8.000000
  0.400000  0.150000  0.000000      8.000000
  0.450000  0.150000  0.000000      8.000000
  0.500000  0.150000  0.000000      4.000000
  0.200000  0.200000  0.000000      4.000000
  0.250000  0.200000  0.000000      8.000000
  0.300000  0.200000  0.000000      8.000000
  0.350000  0.200000  0.000000      8.000000
  0.400000  0.200000  0.000000      8.000000
  0.450000  0.200000  0.000000      8.000000
  0.500000  0.200000  0.000000      4.000000
  0.250000  0.250000  0.000000      4.000000
  0.300000  0.250000  0.000000      8.000000
  0.350000  0.250000  0.000000      8.000000
  0.400000  0.250000  0.000000      8.000000
  0.450000  0.250000  0.000000      8.000000
  0.500000  0.250000  0.000000      4.000000
  0.300000  0.300000  0.000000      4.000000
  0.350000  0.300000  0.000000      8.000000
  0.400000  0.300000  0.000000      8.000000
  0.450000  0.300000  0.000000      8.000000
  0.500000  0.300000  0.000000      4.000000
  0.350000  0.350000  0.000000      4.000000
  0.400000  0.350000  0.000000      8.000000
  0.450000  0.350000  0.000000      8.000000
  0.500000  0.350000  0.000000      4.000000
  0.400000  0.400000  0.000000      4.000000
  0.450000  0.400000  0.000000      8.000000
  0.500000  0.400000  0.000000      4.000000
  0.450000  0.450000  0.000000      4.000000
  0.500000  0.450000  0.000000      4.000000
  0.500000  0.500000  0.000000      1.000000
  0.000000  0.000000  0.250000      2.000000
  0.050000  0.000000  0.250000      8.000000
  0.100000  0.000000  0.250000      8.000000
  0.150000  0.000000  0.250000      8.000000
  0.200000  0.000000  0.250000      8.000000
  0.250000  0.000000  0.250000      8.000000
  0.300000  0.000000  0.250000      8.000000
  0.350000  0.000000  0.250000      8.000000
  0.400000  0.000000  0.250000      8.000000
  0.450000  0.000000  0.250000      8.000000
  0.500000  0.000000  0.250000      4.000000
  0.050000  0.050000  0.250000      8.000000
  0.100000  0.050000  0.250000     16.000000
  0.150000  0.050000  0.250000     16.000000
  0.200000  0.050000  0.250000     16.000000
  0.250000  0.050000  0.250000     16.000000
  0.300000  0.050000  0.250000     16.000000
  0.350000  0.050000  0.250000     16.000000
  0.400000  0.050000  0.250000     16.000000
  0.450000  0.050000  0.250000     16.000000
  0.500000  0.050000  0.250000      8.000000
  0.100000  0.100000  0.250000      8.000000
  0.150000  0.100000  0.250000     16.000000
  0.200000  0.100000  0.250000     16.000000
  0.250000  0.100000  0.250000     16.000000
  0.300000  0.100000  0.250000     16.000000
  0.350000  0.100000  0.250000     16.000000
  0.400000  0.100000  0.250000     16.000000
  0.450000  0.100000  0.250000     16.000000
  0.500000  0.100000  0.250000      8.000000
  0.150000  0.150000  0.250000      8.000000
  0.200000  0.150000  0.250000     16.000000
  0.250000  0.150000  0.250000     16.000000
  0.300000  0.150000  0.250000     16.000000
  0.350000  0.150000  0.250000     16.000000
  0.400000  0.150000  0.250000     16.000000
  0.450000  0.150000  0.250000     16.000000
  0.500000  0.150000  0.250000      8.000000
  0.200000  0.200000  0.250000      8.000000
  0.250000  0.200000  0.250000     16.000000
  0.300000  0.200000  0.250000     16.000000
  0.350000  0.200000  0.250000     16.000000
  0.400000  0.200000  0.250000     16.000000
  0.450000  0.200000  0.250000     16.000000
  0.500000  0.200000  0.250000      8.000000
  0.250000  0.250000  0.250000      8.000000
  0.300000  0.250000  0.250000     16.000000
  0.350000  0.250000  0.250000     16.000000
  0.400000  0.250000  0.250000     16.000000
  0.450000  0.250000  0.250000     16.000000
  0.500000  0.250000  0.250000      8.000000
  0.300000  0.300000  0.250000      8.000000
  0.350000  0.300000  0.250000     16.000000
  0.400000  0.300000  0.250000     16.000000
  0.450000  0.300000  0.250000     16.000000
  0.500000  0.300000  0.250000      8.000000
  0.350000  0.350000  0.250000      8.000000
  0.400000  0.350000  0.250000     16.000000
  0.450000  0.350000  0.250000     16.000000
  0.500000  0.350000  0.250000      8.000000
  0.400000  0.400000  0.250000      8.000000
  0.450000  0.400000  0.250000     16.000000
  0.500000  0.400000  0.250000      8.000000
  0.450000  0.450000  0.250000      8.000000
  0.500000  0.450000  0.250000      8.000000
  0.500000  0.500000  0.250000      2.000000
  0.000000  0.000000  0.500000      1.000000
  0.050000  0.000000  0.500000      4.000000
  0.100000  0.000000  0.500000      4.000000
  0.150000  0.000000  0.500000      4.000000
  0.200000  0.000000  0.500000      4.000000
  0.250000  0.000000  0.500000      4.000000
  0.300000  0.000000  0.500000      4.000000
  0.350000  0.000000  0.500000      4.000000
  0.400000  0.000000  0.500000      4.000000
  0.450000  0.000000  0.500000      4.000000
  0.500000  0.000000  0.500000      2.000000
  0.050000  0.050000  0.500000      4.000000
  0.100000  0.050000  0.500000      8.000000
  0.150000  0.050000  0.500000      8.000000
  0.200000  0.050000  0.500000      8.000000
  0.250000  0.050000  0.500000      8.000000
  0.300000  0.050000  0.500000      8.000000
  0.350000  0.050000  0.500000      8.000000
  0.400000  0.050000  0.500000      8.000000
  0.450000  0.050000  0.500000      8.000000
  0.500000  0.050000  0.500000      4.000000
  0.100000  0.100000  0.500000      4.000000
  0.150000  0.100000  0.500000      8.000000
  0.200000  0.100000  0.500000      8.000000
  0.250000  0.100000  0.500000      8.000000
  0.300000  0.100000  0.500000      8.000000
  0.350000  0.100000  0.500000      8.000000
  0.400000  0.100000  0.500000      8.000000
  0.450000  0.100000  0.500000      8.000000
  0.500000  0.100000  0.500000      4.000000
  0.150000  0.150000  0.500000      4.000000
  0.200000  0.150000  0.500000      8.000000
  0.250000  0.150000  0.500000      8.000000
  0.300000  0.150000  0.500000      8.000000
  0.350000  0.150000  0.500000      8.000000
  0.400000  0.150000  0.500000      8.000000
  0.450000  0.150000  0.500000      8.000000
  0.500000  0.150000  0.500000      4.000000
  0.200000  0.200000  0.500000      4.000000
  0.250000  0.200000  0.500000      8.000000
  0.300000  0.200000  0.500000      8.000000
  0.350000  0.200000  0.500000      8.000000
  0.400000  0.200000  0.500000      8.000000
  0.450000  0.200000  0.500000      8.000000
  0.500000  0.200000  0.500000      4.000000
  0.250000  0.250000  0.500000      4.000000
  0.300000  0.250000  0.500000      8.000000
  0.350000  0.250000  0.500000      8.000000
  0.400000  0.250000  0.500000      8.000000
  0.450000  0.250000  0.500000      8.000000
  0.500000  0.250000  0.500000      4.000000
  0.300000  0.300000  0.500000      4.000000
  0.350000  0.300000  0.500000      8.000000
  0.400000  0.300000  0.500000      8.000000
  0.450000  0.300000  0.500000      8.000000
  0.500000  0.300000  0.500000      4.000000
  0.350000  0.350000  0.500000      4.000000
  0.400000  0.350000  0.500000      8.000000
  0.450000  0.350000  0.500000      8.000000
  0.500000  0.350000  0.500000      4.000000
  0.400000  0.400000  0.500000      4.000000
  0.450000  0.400000  0.500000      8.000000
  0.500000  0.400000  0.500000      4.000000
  0.450000  0.450000  0.500000      4.000000
  0.500000  0.450000  0.500000      4.000000
  0.500000  0.500000  0.500000      1.000000
 
 Following cartesian coordinates:
            Coordinates               Weight
  0.000000  0.000000  0.000000      1.000000
  0.050000  0.000000  0.000000      4.000000
  0.100000  0.000000  0.000000      4.000000
  0.150000  0.000000  0.000000      4.000000
  0.200000  0.000000  0.000000      4.000000
  0.250000  0.000000  0.000000      4.000000
  0.300000  0.000000  0.000000      4.000000
  0.350000  0.000000  0.000000      4.000000
  0.400000  0.000000  0.000000      4.000000
  0.450000  0.000000  0.000000      4.000000
  0.500000  0.000000  0.000000      2.000000
  0.050000  0.050000  0.000000      4.000000
  0.100000  0.050000  0.000000      8.000000
  0.150000  0.050000  0.000000      8.000000
  0.200000  0.050000  0.000000      8.000000
  0.250000  0.050000  0.000000      8.000000
  0.300000  0.050000  0.000000      8.000000
  0.350000  0.050000  0.000000      8.000000
  0.400000  0.050000  0.000000      8.000000
  0.450000  0.050000  0.000000      8.000000
  0.500000  0.050000  0.000000      4.000000
  0.100000  0.100000  0.000000      4.000000
  0.150000  0.100000  0.000000      8.000000
  0.200000  0.100000  0.000000      8.000000
  0.250000  0.100000  0.000000      8.000000
  0.300000  0.100000  0.000000      8.000000
  0.350000  0.100000  0.000000      8.000000
  0.400000  0.100000  0.000000      8.000000
  0.450000  0.100000  0.000000      8.000000
  0.500000  0.100000  0.000000      4.000000
  0.150000  0.150000  0.000000      4.000000
  0.200000  0.150000  0.000000      8.000000
  0.250000  0.150000  0.000000      8.000000
  0.300000  0.150000  0.000000      8.000000
  0.350000  0.150000  0.000000      8.000000
  0.400000  0.150000  0.000000      8.000000
  0.450000  0.150000  0.000000      8.000000
  0.500000  0.150000  0.000000      4.000000
  0.200000  0.200000  0.000000      4.000000
  0.250000  0.200000  0.000000      8.000000
  0.300000  0.200000  0.000000      8.000000
  0.350000  0.200000  0.000000      8.000000
  0.400000  0.200000  0.000000      8.000000
  0.450000  0.200000  0.000000      8.000000
  0.500000  0.200000  0.000000      4.000000
  0.250000  0.250000  0.000000      4.000000
  0.300000  0.250000  0.000000      8.000000
  0.350000  0.250000  0.000000      8.000000
  0.400000  0.250000  0.000000      8.000000
  0.450000  0.250000  0.000000      8.000000
  0.500000  0.250000  0.000000      4.000000
  0.300000  0.300000  0.000000      4.000000
  0.350000  0.300000  0.000000      8.000000
  0.400000  0.300000  0.000000      8.000000
  0.450000  0.300000  0.000000      8.000000
  0.500000  0.300000  0.000000      4.000000
  0.350000  0.350000  0.000000      4.000000
  0.400000  0.350000  0.000000      8.000000
  0.450000  0.350000  0.000000      8.000000
  0.500000  0.350000  0.000000      4.000000
  0.400000  0.400000  0.000000      4.000000
  0.450000  0.400000  0.000000      8.000000
  0.500000  0.400000  0.000000      4.000000
  0.450000  0.450000  0.000000      4.000000
  0.500000  0.450000  0.000000      4.000000
  0.500000  0.500000  0.000000      1.000000
  0.000000  0.000000  0.041667      2.000000
  0.050000  0.000000  0.041667      8.000000
  0.100000  0.000000  0.041667      8.000000
  0.150000  0.000000  0.041667      8.000000
  0.200000  0.000000  0.041667      8.000000
  0.250000  0.000000  0.041667      8.000000
  0.300000  0.000000  0.041667      8.000000
  0.350000  0.000000  0.041667      8.000000
  0.400000  0.000000  0.041667      8.000000
  0.450000  0.000000  0.041667      8.000000
  0.500000  0.000000  0.041667      4.000000
  0.050000  0.050000  0.041667      8.000000
  0.100000  0.050000  0.041667     16.000000
  0.150000  0.050000  0.041667     16.000000
  0.200000  0.050000  0.041667     16.000000
  0.250000  0.050000  0.041667     16.000000
  0.300000  0.050000  0.041667     16.000000
  0.350000  0.050000  0.041667     16.000000
  0.400000  0.050000  0.041667     16.000000
  0.450000  0.050000  0.041667     16.000000
  0.500000  0.050000  0.041667      8.000000
  0.100000  0.100000  0.041667      8.000000
  0.150000  0.100000  0.041667     16.000000
  0.200000  0.100000  0.041667     16.000000
  0.250000  0.100000  0.041667     16.000000
  0.300000  0.100000  0.041667     16.000000
  0.350000  0.100000  0.041667     16.000000
  0.400000  0.100000  0.041667     16.000000
  0.450000  0.100000  0.041667     16.000000
  0.500000  0.100000  0.041667      8.000000
  0.150000  0.150000  0.041667      8.000000
  0.200000  0.150000  0.041667     16.000000
  0.250000  0.150000  0.041667     16.000000
  0.300000  0.150000  0.041667     16.000000
  0.350000  0.150000  0.041667     16.000000
  0.400000  0.150000  0.041667     16.000000
  0.450000  0.150000  0.041667     16.000000
  0.500000  0.150000  0.041667      8.000000
  0.200000  0.200000  0.041667      8.000000
  0.250000  0.200000  0.041667     16.000000
  0.300000  0.200000  0.041667     16.000000
  0.350000  0.200000  0.041667     16.000000
  0.400000  0.200000  0.041667     16.000000
  0.450000  0.200000  0.041667     16.000000
  0.500000  0.200000  0.041667      8.000000
  0.250000  0.250000  0.041667      8.000000
  0.300000  0.250000  0.041667     16.000000
  0.350000  0.250000  0.041667     16.000000
  0.400000  0.250000  0.041667     16.000000
  0.450000  0.250000  0.041667     16.000000
  0.500000  0.250000  0.041667      8.000000
  0.300000  0.300000  0.041667      8.000000
  0.350000  0.300000  0.041667     16.000000
  0.400000  0.300000  0.041667     16.000000
  0.450000  0.300000  0.041667     16.000000
  0.500000  0.300000  0.041667      8.000000
  0.350000  0.350000  0.041667      8.000000
  0.400000  0.350000  0.041667     16.000000
  0.450000  0.350000  0.041667     16.000000
  0.500000  0.350000  0.041667      8.000000
  0.400000  0.400000  0.041667      8.000000
  0.450000  0.400000  0.041667     16.000000
  0.500000  0.400000  0.041667      8.000000
  0.450000  0.450000  0.041667      8.000000
  0.500000  0.450000  0.041667      8.000000
  0.500000  0.500000  0.041667      2.000000
  0.000000  0.000000  0.083333      1.000000
  0.050000  0.000000  0.083333      4.000000
  0.100000  0.000000  0.083333      4.000000
  0.150000  0.000000  0.083333      4.000000
  0.200000  0.000000  0.083333      4.000000
  0.250000  0.000000  0.083333      4.000000
  0.300000  0.000000  0.083333      4.000000
  0.350000  0.000000  0.083333      4.000000
  0.400000  0.000000  0.083333      4.000000
  0.450000  0.000000  0.083333      4.000000
  0.500000  0.000000  0.083333      2.000000
  0.050000  0.050000  0.083333      4.000000
  0.100000  0.050000  0.083333      8.000000
  0.150000  0.050000  0.083333      8.000000
  0.200000  0.050000  0.083333      8.000000
  0.250000  0.050000  0.083333      8.000000
  0.300000  0.050000  0.083333      8.000000
  0.350000  0.050000  0.083333      8.000000
  0.400000  0.050000  0.083333      8.000000
  0.450000  0.050000  0.083333      8.000000
  0.500000  0.050000  0.083333      4.000000
  0.100000  0.100000  0.083333      4.000000
  0.150000  0.100000  0.083333      8.000000
  0.200000  0.100000  0.083333      8.000000
  0.250000  0.100000  0.083333      8.000000
  0.300000  0.100000  0.083333      8.000000
  0.350000  0.100000  0.083333      8.000000
  0.400000  0.100000  0.083333      8.000000
  0.450000  0.100000  0.083333      8.000000
  0.500000  0.100000  0.083333      4.000000
  0.150000  0.150000  0.083333      4.000000
  0.200000  0.150000  0.083333      8.000000
  0.250000  0.150000  0.083333      8.000000
  0.300000  0.150000  0.083333      8.000000
  0.350000  0.150000  0.083333      8.000000
  0.400000  0.150000  0.083333      8.000000
  0.450000  0.150000  0.083333      8.000000
  0.500000  0.150000  0.083333      4.000000
  0.200000  0.200000  0.083333      4.000000
  0.250000  0.200000  0.083333      8.000000
  0.300000  0.200000  0.083333      8.000000
  0.350000  0.200000  0.083333      8.000000
  0.400000  0.200000  0.083333      8.000000
  0.450000  0.200000  0.083333      8.000000
  0.500000  0.200000  0.083333      4.000000
  0.250000  0.250000  0.083333      4.000000
  0.300000  0.250000  0.083333      8.000000
  0.350000  0.250000  0.083333      8.000000
  0.400000  0.250000  0.083333      8.000000
  0.450000  0.250000  0.083333      8.000000
  0.500000  0.250000  0.083333      4.000000
  0.300000  0.300000  0.083333      4.000000
  0.350000  0.300000  0.083333      8.000000
  0.400000  0.300000  0.083333      8.000000
  0.450000  0.300000  0.083333      8.000000
  0.500000  0.300000  0.083333      4.000000
  0.350000  0.350000  0.083333      4.000000
  0.400000  0.350000  0.083333      8.000000
  0.450000  0.350000  0.083333      8.000000
  0.500000  0.350000  0.083333      4.000000
  0.400000  0.400000  0.083333      4.000000
  0.450000  0.400000  0.083333      8.000000
  0.500000  0.400000  0.083333      4.000000
  0.450000  0.450000  0.083333      4.000000
  0.500000  0.450000  0.083333      4.000000
  0.500000  0.500000  0.083333      1.000000
 
 TETIRR: Found   2400 inequivalent tetrahedra from     9600


--------------------------------------------------------------------------------------------------------




 Dimension of arrays:
   k-points           NKPTS =    198   k-points in BZ     NKDIM =    198   number of bands    NBANDS=     19
   number of dos      NEDOS =    301   number of ions     NIONS =      5
   non local maximal  LDIM  =      6   non local SUM 2l+1 LMDIM =     18
   total plane-waves  NPLWV =  48000
   max r-space proj   IRMAX =      1   max aug-charges    IRDMAX=  14669
   dimension x,y,z NGX =    20 NGY =   20 NGZ =  120
   dimension x,y,z NGXF=    40 NGYF=   40 NGZF=  240
   support grid    NGXF=    40 NGYF=   40 NGZF=  240
   ions per type =               5
   NGX,Y,Z   is equivalent  to a cutoff of  10.52, 10.52, 10.52 a.u.
   NGXF,Y,Z  is equivalent  to a cutoff of  21.04, 21.04, 21.04 a.u.

 SYSTEM =  unknown system                          
 POSCAR =  BCC W 5-layers                          

 Startparameter for this run:
   NWRITE =      2    write-flag & timer
   PREC   = normal    normal or accurate (medium, high low for compatibility)
   ISTART =      0    job   : 0-new  1-cont  2-samecut
   ICHARG =      2    charge: 1-file 2-atom 10-const
   ISPIN  =      1    spin polarized calculation?
   LNONCOLLINEAR =      F non collinear calculations
   LSORBIT =      F    spin-orbit coupling
   INIWAV =      1    electr: 0-lowe 1-rand  2-diag
   LASPH  =      F    aspherical Exc in radial PAW
   METAGGA=      F    non-selfconsistent MetaGGA calc.

 Electronic Relaxation 1
   ENCUT  =  600.0 eV  44.10 Ry    6.64 a.u.   6.31  6.31 37.87*2*pi/ulx,y,z
   ENINI  =  600.0     initial cutoff
   ENAUG  =  373.4 eV  augmentation charge cutoff
   NELM   =     60;   NELMIN=  2; NELMDL= -5     # of ELM steps 
   EDIFF  = 0.1E-05   stopping-criterion for ELM
   LREAL  =      F    real-space projection
   NLSPLINE    = F    spline interpolate recip. space projectors
   LCOMPAT=      F    compatible to vasp.4.4
   GGA_COMPAT  = T    GGA compatible to vasp.4.4-vasp.4.6
   LMAXPAW     = -100 max onsite density
   LMAXMIX     =    2 max onsite mixed and CHGCAR
   VOSKOWN=      0    Vosko Wilk Nusair interpolation
   ROPT   =    0.00000
 Ionic relaxation
   EDIFFG = 0.1E-04   stopping-criterion for IOM
   NSW    =      0    number of steps for IOM
   NBLOCK =      1;   KBLOCK =      1    inner block; outer block 
   IBRION =     -1    ionic relax: 0-MD 1-quasi-New 2-CG
   NFREE  =      0    steps in history (QN), initial steepest desc. (CG)
   ISIF   =      2    stress and relaxation
   IWAVPR =     10    prediction:  0-non 1-charg 2-wave 3-comb
   ISYM   =      2    0-nonsym 1-usesym 2-fastsym
   LCORR  =      T    Harris-Foulkes like correction to forces

   POTIM  = 0.5000    time-step for ionic-motion
   TEIN   =    0.0    initial temperature
   TEBEG  =    0.0;   TEEND  =   0.0 temperature during run
   SMASS  =  -3.00    Nose mass-parameter (am)
   estimated Nose-frequenzy (Omega)   =  0.10E-29 period in steps =****** mass=  -0.228E-27a.u.
   SCALEE = 1.0000    scale energy and forces
   NPACO  =    256;   APACO  = 16.0  distance and # of slots for P.C.
   PSTRESS=    0.0 pullay stress

  Mass of Ions in am
   POMASS = 183.85
  Ionic Valenz
   ZVAL   =   6.00
  Atomic Wigner-Seitz radii
   RWIGS  =  -1.00
  virtual crystal weights 
   VCA    =   1.00
   NELECT =      30.0000    total number of electrons
   NUPDOWN=      -1.0000    fix difference up-down

 DOS related values:
   EMIN   =  10.00;   EMAX   =-10.00  energy-range for DOS
   EFERMI =   0.00
   ISMEAR =    -5;   SIGMA  =   0.20  broadening in eV -4-tet -1-fermi 0-gaus

 Electronic relaxation 2 (details)
   IALGO  =     38    algorithm
   LDIAG  =      T    sub-space diagonalisation (order eigenvalues)
   LSUBROT=      F    optimize rotation matrix (better conditioning)
   TURBO    =      0    0=normal 1=particle mesh
   IRESTART =      0    0=no restart 2=restart with 2 vectors
   NREBOOT  =      0    no. of reboots
   NMIN     =      0    reboot dimension
   EREF     =   0.00    reference energy to select bands
   IMIX   =      4    mixing-type and parameters
     AMIX     =   0.40;   BMIX     =  1.00
     AMIX_MAG =   1.60;   BMIX_MAG =  1.00
     AMIN     =   0.10
     WC   =   100.;   INIMIX=   1;  MIXPRE=   1;  MAXMIX= -45

 Intra band minimization:
   WEIMIN = 0.0000     energy-eigenvalue tresh-hold
   EBREAK =  0.13E-07  absolut break condition
   DEPER  =   0.30     relativ break condition  

   TIME   =   0.40     timestep for ELM

  volume/ion in A,a.u.               =      37.87       255.53
  Fermi-wavevector in a.u.,A,eV,Ry     =   0.885886  1.674081 10.677766  0.784794
  Thomas-Fermi vector in A             =   2.006979
 
 Write flags
   LWAVE        =      T    write WAVECAR
   LDOWNSAMPLE  =      F    k-point downsampling of WAVECAR
   LCHARG       =      T    write CHGCAR
   LVTOT        =      F    write LOCPOT, total local potential
   LVHAR        =      F    write LOCPOT, Hartree potential only
   LELF         =      F    write electronic localiz. function (ELF)
   LORBIT       =      0    0 simple, 1 ext, 2 COOP (PROOUT), +10 PAW based schemes


 Dipole corrections
   LMONO  =      F    monopole corrections only (constant potential shift)
   LDIPOL =      F    correct potential (dipole corrections)
   IDIPOL =      0    1-x, 2-y, 3-z, 4-all directions 
   EPSILON=  1.0000000 bulk dielectric constant

 Exchange correlation treatment:
   GGA     =    --    GGA type
   LEXCH   =     2    internal setting for exchange type
   VOSKOWN=      0    Vosko Wilk Nusair interpolation
   LHFCALC =     F    Hartree Fock is set to
   LHFONE  =     F    Hartree Fock one center treatment
   AEXX    =    0.0000 exact exchange contribution

 Linear response parameters
   LEPSILON=     F    determine dielectric tensor
   LRPA    =     F    only Hartree local field effects (RPA)
   LNABLA  =     F    use nabla operator in PAW spheres
   LVEL    =     F    velocity operator in full k-point grid
   LINTERFAST=   F  fast interpolation
   KINTER  =     0    interpolate to denser k-point grid
   CSHIFT  =0.1000    complex shift for real part using Kramers Kronig
   OMEGAMAX=  -1.0    maximum frequency
   DEG_THRESHOLD= 0.2000000E-02 threshold for treating states as degnerate
   RTIME   =   -0.100 relaxation time in fs
  (WPLASMAI=    0.000 imaginary part of plasma frequency in eV, 0.658/RTIME)
   DFIELD  = 0.0000000 0.0000000 0.0000000 field for delta impulse in time
 
 Orbital magnetization related:
   ORBITALMAG=     F  switch on orbital magnetization
   LCHIMAG   =     F  perturbation theory with respect to B field
   DQ        =  0.001000  dq finite difference perturbation B field
   LLRAUG    =     F  two centre corrections for induced B field



--------------------------------------------------------------------------------------------------------


 Static calculation
 charge density and potential will be updated during run
 non-spin polarized calculation
 Variant of blocked Davidson
 Davidson routine will perform the subspace rotation
 perform sub-space diagonalisation
    after iterative eigenvector-optimisation
 modified Broyden-mixing scheme, WC =      100.0
 initial mixing is a Kerker type mixing with AMIX =  0.4000 and BMIX =      1.0000
 Hartree-type preconditioning will be used
 using additional bands            4
 reciprocal scheme for non local part
 use partial core corrections
 calculate Harris-corrections to forces 
   (improved forces if not selfconsistent)
 use of overlap-Matrix (Vanderbilt PP)
 Fermi weights with tetrahedron method with Bloechl corrections


--------------------------------------------------------------------------------------------------------


  energy-cutoff  :      600.00
  volume of cell :      189.33
      direct lattice vectors                 reciprocal lattice vectors
     3.160000000  0.000000000  0.000000000     0.316455696  0.000000000  0.000000000
     0.000000000  3.160000000  0.000000000     0.000000000  0.316455696  0.000000000
     0.000000000  0.000000000 18.960000000     0.000000000  0.000000000  0.052742616

  length of vectors
     3.160000000  3.160000000 18.960000000     0.316455696  0.316455696  0.052742616


 
 k-points in units of 2pi/SCALE and weight: Gamma 20*20*4                           
   0.00000000  0.00000000  0.00000000       0.001
   0.05000000  0.00000000  0.00000000       0.003
   0.10000000  0.00000000  0.00000000       0.003
   0.15000000  0.00000000  0.00000000       0.003
   0.20000000  0.00000000  0.00000000       0.003
   0.25000000  0.00000000  0.00000000       0.003
   0.30000000  0.00000000  0.00000000       0.003
   0.35000000  0.00000000  0.00000000       0.003
   0.40000000  0.00000000  0.00000000       0.003
   0.45000000  0.00000000  0.00000000       0.003
   0.50000000  0.00000000  0.00000000       0.001
   0.05000000  0.05000000  0.00000000       0.003
   0.10000000  0.05000000  0.00000000       0.005
   0.15000000  0.05000000  0.00000000       0.005
   0.20000000  0.05000000  0.00000000       0.005
   0.25000000  0.05000000  0.00000000       0.005
   0.30000000  0.05000000  0.00000000       0.005
   0.35000000  0.05000000  0.00000000       0.005
   0.40000000  0.05000000  0.00000000       0.005
   0.45000000  0.05000000  0.00000000       0.005
   0.50000000  0.05000000  0.00000000       0.003
   0.10000000  0.10000000  0.00000000       0.003
   0.15000000  0.10000000  0.00000000       0.005
   0.20000000  0.10000000  0.00000000       0.005
   0.25000000  0.10000000  0.00000000       0.005
   0.30000000  0.10000000  0.00000000       0.005
   0.35000000  0.10000000  0.00000000       0.005
   0.40000000  0.10000000  0.00000000       0.005
   0.45000000  0.10000000  0.00000000       0.005
   0.50000000  0.10000000  0.00000000       0.003
   0.15000000  0.15000000  0.00000000       0.003
   0.20000000  0.15000000  0.00000000       0.005
   0.25000000  0.15000000  0.00000000       0.005
   0.30000000  0.15000000  0.00000000       0.005
   0.35000000  0.15000000  0.00000000       0.005
   0.40000000  0.15000000  0.00000000       0.005
   0.45000000  0.15000000  0.00000000       0.005
   0.50000000  0.15000000  0.00000000       0.003
   0.20000000  0.20000000  0.00000000       0.003
   0.25000000  0.20000000  0.00000000       0.005
   0.30000000  0.20000000  0.00000000       0.005
   0.35000000  0.20000000  0.00000000       0.005
   0.40000000  0.20000000  0.00000000       0.005
   0.45000000  0.20000000  0.00000000       0.005
   0.50000000  0.20000000  0.00000000       0.003
   0.25000000  0.25000000  0.00000000       0.003
   0.30000000  0.25000000  0.00000000       0.005
   0.35000000  0.25000000  0.00000000       0.005
   0.40000000  0.25000000  0.00000000       0.005
   0.45000000  0.25000000  0.00000000       0.005
   0.50000000  0.25000000  0.00000000       0.003
   0.30000000  0.30000000  0.00000000       0.003
   0.35000000  0.30000000  0.00000000       0.005
   0.40000000  0.30000000  0.00000000       0.005
   0.45000000  0.30000000  0.00000000       0.005
   0.50000000  0.30000000  0.00000000       0.003
   0.35000000  0.35000000  0.00000000       0.003
   0.40000000  0.35000000  0.00000000       0.005
   0.45000000  0.35000000  0.00000000       0.005
   0.50000000  0.35000000  0.00000000       0.003
   0.40000000  0.40000000  0.00000000       0.003
   0.45000000  0.40000000  0.00000000       0.005
   0.50000000  0.40000000  0.00000000       0.003
   0.45000000  0.45000000  0.00000000       0.003
   0.50000000  0.45000000  0.00000000       0.003
   0.50000000  0.50000000  0.00000000       0.001
   0.00000000  0.00000000  0.04166667       0.001
   0.05000000  0.00000000  0.04166667       0.005
   0.10000000  0.00000000  0.04166667       0.005
   0.15000000  0.00000000  0.04166667       0.005
   0.20000000  0.00000000  0.04166667       0.005
   0.25000000  0.00000000  0.04166667       0.005
   0.30000000  0.00000000  0.04166667       0.005
   0.35000000  0.00000000  0.04166667       0.005
   0.40000000  0.00000000  0.04166667       0.005
   0.45000000  0.00000000  0.04166667       0.005
   0.50000000  0.00000000  0.04166667       0.003
   0.05000000  0.05000000  0.04166667       0.005
   0.10000000  0.05000000  0.04166667       0.010
   0.15000000  0.05000000  0.04166667       0.010
   0.20000000  0.05000000  0.04166667       0.010
   0.25000000  0.05000000  0.04166667       0.010
   0.30000000  0.05000000  0.04166667       0.010
   0.35000000  0.05000000  0.04166667       0.010
   0.40000000  0.05000000  0.04166667       0.010
   0.45000000  0.05000000  0.04166667       0.010
   0.50000000  0.05000000  0.04166667       0.005
   0.10000000  0.10000000  0.04166667       0.005
   0.15000000  0.10000000  0.04166667       0.010
   0.20000000  0.10000000  0.04166667       0.010
   0.25000000  0.10000000  0.04166667       0.010
   0.30000000  0.10000000  0.04166667       0.010
   0.35000000  0.10000000  0.04166667       0.010
   0.40000000  0.10000000  0.04166667       0.010
   0.45000000  0.10000000  0.04166667       0.010
   0.50000000  0.10000000  0.04166667       0.005
   0.15000000  0.15000000  0.04166667       0.005
   0.20000000  0.15000000  0.04166667       0.010
   0.25000000  0.15000000  0.04166667       0.010
   0.30000000  0.15000000  0.04166667       0.010
   0.35000000  0.15000000  0.04166667       0.010
   0.40000000  0.15000000  0.04166667       0.010
   0.45000000  0.15000000  0.04166667       0.010
   0.50000000  0.15000000  0.04166667       0.005
   0.20000000  0.20000000  0.04166667       0.005
   0.25000000  0.20000000  0.04166667       0.010
   0.30000000  0.20000000  0.04166667       0.010
   0.35000000  0.20000000  0.04166667       0.010
   0.40000000  0.20000000  0.04166667       0.010
   0.45000000  0.20000000  0.04166667       0.010
   0.50000000  0.20000000  0.04166667       0.005
   0.25000000  0.25000000  0.04166667       0.005
   0.30000000  0.25000000  0.04166667       0.010
   0.35000000  0.25000000  0.04166667       0.010
   0.40000000  0.25000000  0.04166667       0.010
   0.45000000  0.25000000  0.04166667       0.010
   0.50000000  0.25000000  0.04166667       0.005
   0.30000000  0.30000000  0.04166667       0.005
   0.35000000  0.30000000  0.04166667       0.010
   0.40000000  0.30000000  0.04166667       0.010
   0.45000000  0.30000000  0.04166667       0.010
   0.50000000  0.30000000  0.04166667       0.005
   0.35000000  0.35000000  0.04166667       0.005
   0.40000000  0.35000000  0.04166667       0.010
   0.45000000  0.35000000  0.04166667       0.010
   0.50000000  0.35000000  0.04166667       0.005
   0.40000000  0.40000000  0.04166667       0.005
   0.45000000  0.40000000  0.04166667       0.010
   0.50000000  0.40000000  0.04166667       0.005
   0.45000000  0.45000000  0.04166667       0.005
   0.50000000  0.45000000  0.04166667       0.005
   0.50000000  0.50000000  0.04166667       0.001
   0.00000000  0.00000000  0.08333333       0.001
   0.05000000  0.00000000  0.08333333       0.003
   0.10000000  0.00000000  0.08333333       0.003
   0.15000000  0.00000000  0.08333333       0.003
   0.20000000  0.00000000  0.08333333       0.003
   0.25000000  0.00000000  0.08333333       0.003
   0.30000000  0.00000000  0.08333333       0.003
   0.35000000  0.00000000  0.08333333       0.003
   0.40000000  0.00000000  0.08333333       0.003
   0.45000000  0.00000000  0.08333333       0.003
   0.50000000  0.00000000  0.08333333       0.001
   0.05000000  0.05000000  0.08333333       0.003
   0.10000000  0.05000000  0.08333333       0.005
   0.15000000  0.05000000  0.08333333       0.005
   0.20000000  0.05000000  0.08333333       0.005
   0.25000000  0.05000000  0.08333333       0.005
   0.30000000  0.05000000  0.08333333       0.005
   0.35000000  0.05000000  0.08333333       0.005
   0.40000000  0.05000000  0.08333333       0.005
   0.45000000  0.05000000  0.08333333       0.005
   0.50000000  0.05000000  0.08333333       0.003
   0.10000000  0.10000000  0.08333333       0.003
   0.15000000  0.10000000  0.08333333       0.005
   0.20000000  0.10000000  0.08333333       0.005
   0.25000000  0.10000000  0.08333333       0.005
   0.30000000  0.10000000  0.08333333       0.005
   0.35000000  0.10000000  0.08333333       0.005
   0.40000000  0.10000000  0.08333333       0.005
   0.45000000  0.10000000  0.08333333       0.005
   0.50000000  0.10000000  0.08333333       0.003
   0.15000000  0.15000000  0.08333333       0.003
   0.20000000  0.15000000  0.08333333       0.005
   0.25000000  0.15000000  0.08333333       0.005
   0.30000000  0.15000000  0.08333333       0.005
   0.35000000  0.15000000  0.08333333       0.005
   0.40000000  0.15000000  0.08333333       0.005
   0.45000000  0.15000000  0.08333333       0.005
   0.50000000  0.15000000  0.08333333       0.003
   0.20000000  0.20000000  0.08333333       0.003
   0.25000000  0.20000000  0.08333333       0.005
   0.30000000  0.20000000  0.08333333       0.005
   0.35000000  0.20000000  0.08333333       0.005
   0.40000000  0.20000000  0.08333333       0.005
   0.45000000  0.20000000  0.08333333       0.005
   0.50000000  0.20000000  0.08333333       0.003
   0.25000000  0.25000000  0.08333333       0.003
   0.30000000  0.25000000  0.08333333       0.005
   0.35000000  0.25000000  0.08333333       0.005
   0.40000000  0.25000000  0.08333333       0.005
   0.45000000  0.25000000  0.08333333       0.005
   0.50000000  0.25000000  0.08333333       0.003
   0.30000000  0.30000000  0.08333333       0.003
   0.35000000  0.30000000  0.08333333       0.005
   0.40000000  0.30000000  0.08333333       0.005
   0.45000000  0.30000000  0.08333333       0.005
   0.50000000  0.30000000  0.08333333       0.003
   0.35000000  0.35000000  0.08333333       0.003
   0.40000000  0.35000000  0.08333333       0.005
   0.45000000  0.35000000  0.08333333       0.005
   0.50000000  0.35000000  0.08333333       0.003
   0.40000000  0.40000000  0.08333333       0.003
   0.45000000  0.40000000  0.08333333       0.005
   0.50000000  0.40000000  0.08333333       0.003
   0.45000000  0.45000000  0.08333333       0.003
   0.50000000  0.45000000  0.08333333       0.003
   0.50000000  0.50000000  0.08333333       0.001
 
 k-points in reciprocal lattice and weights: Gamma 20*20*4                           
   0.00000000  0.00000000  0.00000000       0.001
   0.05000000  0.00000000  0.00000000       0.003
   0.10000000  0.00000000  0.00000000       0.003
   0.15000000  0.00000000  0.00000000       0.003
   0.20000000  0.00000000  0.00000000       0.003
   0.25000000  0.00000000  0.00000000       0.003
   0.30000000  0.00000000  0.00000000       0.003
   0.35000000  0.00000000  0.00000000       0.003
   0.40000000  0.00000000  0.00000000       0.003
   0.45000000  0.00000000  0.00000000       0.003
   0.50000000  0.00000000  0.00000000       0.001
   0.05000000  0.05000000  0.00000000       0.003
   0.10000000  0.05000000  0.00000000       0.005
   0.15000000  0.05000000  0.00000000       0.005
   0.20000000  0.05000000  0.00000000       0.005
   0.25000000  0.05000000  0.00000000       0.005
   0.30000000  0.05000000  0.00000000       0.005
   0.35000000  0.05000000  0.00000000       0.005
   0.40000000  0.05000000  0.00000000       0.005
   0.45000000  0.05000000  0.00000000       0.005
   0.50000000  0.05000000  0.00000000       0.003
   0.10000000  0.10000000  0.00000000       0.003
   0.15000000  0.10000000  0.00000000       0.005
   0.20000000  0.10000000  0.00000000       0.005
   0.25000000  0.10000000  0.00000000       0.005
   0.30000000  0.10000000  0.00000000       0.005
   0.35000000  0.10000000  0.00000000       0.005
   0.40000000  0.10000000  0.00000000       0.005
   0.45000000  0.10000000  0.00000000       0.005
   0.50000000  0.10000000  0.00000000       0.003
   0.15000000  0.15000000  0.00000000       0.003
   0.20000000  0.15000000  0.00000000       0.005
   0.25000000  0.15000000  0.00000000       0.005
   0.30000000  0.15000000  0.00000000       0.005
   0.35000000  0.15000000  0.00000000       0.005
   0.40000000  0.15000000  0.00000000       0.005
   0.45000000  0.15000000  0.00000000       0.005
   0.50000000  0.15000000  0.00000000       0.003
   0.20000000  0.20000000  0.00000000       0.003
   0.25000000  0.20000000  0.00000000       0.005
   0.30000000  0.20000000  0.00000000       0.005
   0.35000000  0.20000000  0.00000000       0.005
   0.40000000  0.20000000  0.00000000       0.005
   0.45000000  0.20000000  0.00000000       0.005
   0.50000000  0.20000000  0.00000000       0.003
   0.25000000  0.25000000  0.00000000       0.003
   0.30000000  0.25000000  0.00000000       0.005
   0.35000000  0.25000000  0.00000000       0.005
   0.40000000  0.25000000  0.00000000       0.005
   0.45000000  0.25000000  0.00000000       0.005
   0.50000000  0.25000000  0.00000000       0.003
   0.30000000  0.30000000  0.00000000       0.003
   0.35000000  0.30000000  0.00000000       0.005
   0.40000000  0.30000000  0.00000000       0.005
   0.45000000  0.30000000  0.00000000       0.005
   0.50000000  0.30000000  0.00000000       0.003
   0.35000000  0.35000000  0.00000000       0.003
   0.40000000  0.35000000  0.00000000       0.005
   0.45000000  0.35000000  0.00000000       0.005
   0.50000000  0.35000000  0.00000000       0.003
   0.40000000  0.40000000  0.00000000       0.003
   0.45000000  0.40000000  0.00000000       0.005
   0.50000000  0.40000000  0.00000000       0.003
   0.45000000  0.45000000  0.00000000       0.003
   0.50000000  0.45000000  0.00000000       0.003
   0.50000000  0.50000000  0.00000000       0.001
   0.00000000  0.00000000  0.25000000       0.001
   0.05000000  0.00000000  0.25000000       0.005
   0.10000000  0.00000000  0.25000000       0.005
   0.15000000  0.00000000  0.25000000       0.005
   0.20000000  0.00000000  0.25000000       0.005
   0.25000000  0.00000000  0.25000000       0.005
   0.30000000  0.00000000  0.25000000       0.005
   0.35000000  0.00000000  0.25000000       0.005
   0.40000000  0.00000000  0.25000000       0.005
   0.45000000  0.00000000  0.25000000       0.005
   0.50000000  0.00000000  0.25000000       0.003
   0.05000000  0.05000000  0.25000000       0.005
   0.10000000  0.05000000  0.25000000       0.010
   0.15000000  0.05000000  0.25000000       0.010
   0.20000000  0.05000000  0.25000000       0.010
   0.25000000  0.05000000  0.25000000       0.010
   0.30000000  0.05000000  0.25000000       0.010
   0.35000000  0.05000000  0.25000000       0.010
   0.40000000  0.05000000  0.25000000       0.010
   0.45000000  0.05000000  0.25000000       0.010
   0.50000000  0.05000000  0.25000000       0.005
   0.10000000  0.10000000  0.25000000       0.005
   0.15000000  0.10000000  0.25000000       0.010
   0.20000000  0.10000000  0.25000000       0.010
   0.25000000  0.10000000  0.25000000       0.010
   0.30000000  0.10000000  0.25000000       0.010
   0.35000000  0.10000000  0.25000000       0.010
   0.40000000  0.10000000  0.25000000       0.010
   0.45000000  0.10000000  0.25000000       0.010
   0.50000000  0.10000000  0.25000000       0.005
   0.15000000  0.15000000  0.25000000       0.005
   0.20000000  0.15000000  0.25000000       0.010
   0.25000000  0.15000000  0.25000000       0.010
   0.30000000  0.15000000  0.25000000       0.010
   0.35000000  0.15000000  0.25000000       0.010
   0.40000000  0.15000000  0.25000000       0.010
   0.45000000  0.15000000  0.25000000       0.010
   0.50000000  0.15000000  0.25000000       0.005
   0.20000000  0.20000000  0.25000000       0.005
   0.25000000  0.20000000  0.25000000       0.010
   0.30000000  0.20000000  0.25000000       0.010
   0.35000000  0.20000000  0.25000000       0.010
   0.40000000  0.20000000  0.25000000       0.010
   0.45000000  0.20000000  0.25000000       0.010
   0.50000000  0.20000000  0.25000000       0.005
   0.25000000  0.25000000  0.25000000       0.005
   0.30000000  0.25000000  0.25000000       0.010
   0.35000000  0.25000000  0.25000000       0.010
   0.40000000  0.25000000  0.25000000       0.010
   0.45000000  0.25000000  0.25000000       0.010
   0.50000000  0.25000000  0.25000000       0.005
   0.30000000  0.30000000  0.25000000       0.005
   0.35000000  0.30000000  0.25000000       0.010
   0.40000000  0.30000000  0.25000000       0.010
   0.45000000  0.30000000  0.25000000       0.010
   0.50000000  0.30000000  0.25000000       0.005
   0.35000000  0.35000000  0.25000000       0.005
   0.40000000  0.35000000  0.25000000       0.010
   0.45000000  0.35000000  0.25000000       0.010
   0.50000000  0.35000000  0.25000000       0.005
   0.40000000  0.40000000  0.25000000       0.005
   0.45000000  0.40000000  0.25000000       0.010
   0.50000000  0.40000000  0.25000000       0.005
   0.45000000  0.45000000  0.25000000       0.005
   0.50000000  0.45000000  0.25000000       0.005
   0.50000000  0.50000000  0.25000000       0.001
   0.00000000  0.00000000  0.50000000       0.001
   0.05000000  0.00000000  0.50000000       0.003
   0.10000000  0.00000000  0.50000000       0.003
   0.15000000  0.00000000  0.50000000       0.003
   0.20000000  0.00000000  0.50000000       0.003
   0.25000000  0.00000000  0.50000000       0.003
   0.30000000  0.00000000  0.50000000       0.003
   0.35000000  0.00000000  0.50000000       0.003
   0.40000000  0.00000000  0.50000000       0.003
   0.45000000  0.00000000  0.50000000       0.003
   0.50000000  0.00000000  0.50000000       0.001
   0.05000000  0.05000000  0.50000000       0.003
   0.10000000  0.05000000  0.50000000       0.005
   0.15000000  0.05000000  0.50000000       0.005
   0.20000000  0.05000000  0.50000000       0.005
   0.25000000  0.05000000  0.50000000       0.005
   0.30000000  0.05000000  0.50000000       0.005
   0.35000000  0.05000000  0.50000000       0.005
   0.40000000  0.05000000  0.50000000       0.005
   0.45000000  0.05000000  0.50000000       0.005
   0.50000000  0.05000000  0.50000000       0.003
   0.10000000  0.10000000  0.50000000       0.003
   0.15000000  0.10000000  0.50000000       0.005
   0.20000000  0.10000000  0.50000000       0.005
   0.25000000  0.10000000  0.50000000       0.005
   0.30000000  0.10000000  0.50000000       0.005
   0.35000000  0.10000000  0.50000000       0.005
   0.40000000  0.10000000  0.50000000       0.005
   0.45000000  0.10000000  0.50000000       0.005
   0.50000000  0.10000000  0.50000000       0.003
   0.15000000  0.15000000  0.50000000       0.003
   0.20000000  0.15000000  0.50000000       0.005
   0.25000000  0.15000000  0.50000000       0.005
   0.30000000  0.15000000  0.50000000       0.005
   0.35000000  0.15000000  0.50000000       0.005
   0.40000000  0.15000000  0.50000000       0.005
   0.45000000  0.15000000  0.50000000       0.005
   0.50000000  0.15000000  0.50000000       0.003
   0.20000000  0.20000000  0.50000000       0.003
   0.25000000  0.20000000  0.50000000       0.005
   0.30000000  0.20000000  0.50000000       0.005
   0.35000000  0.20000000  0.50000000       0.005
   0.40000000  0.20000000  0.50000000       0.005
   0.45000000  0.20000000  0.50000000       0.005
   0.50000000  0.20000000  0.50000000       0.003
   0.25000000  0.25000000  0.50000000       0.003
   0.30000000  0.25000000  0.50000000       0.005
   0.35000000  0.25000000  0.50000000       0.005
   0.40000000  0.25000000  0.50000000       0.005
   0.45000000  0.25000000  0.50000000       0.005
   0.50000000  0.25000000  0.50000000       0.003
   0.30000000  0.30000000  0.50000000       0.003
   0.35000000  0.30000000  0.50000000       0.005
   0.40000000  0.30000000  0.50000000       0.005
   0.45000000  0.30000000  0.50000000       0.005
   0.50000000  0.30000000  0.50000000       0.003
   0.35000000  0.35000000  0.50000000       0.003
   0.40000000  0.35000000  0.50000000       0.005
   0.45000000  0.35000000  0.50000000       0.005
   0.50000000  0.35000000  0.50000000       0.003
   0.40000000  0.40000000  0.50000000       0.003
   0.45000000  0.40000000  0.50000000       0.005
   0.50000000  0.40000000  0.50000000       0.003
   0.45000000  0.45000000  0.50000000       0.003
   0.50000000  0.45000000  0.50000000       0.003
   0.50000000  0.50000000  0.50000000       0.001
 
 position of ions in fractional coordinates (direct lattice) 
   0.00000000  0.00000000  0.00000000
   0.50000000  0.50000000  0.08333333
   0.00000000  0.00000000  0.16666667
   0.50000000  0.50000000  0.25000000
   0.00000000  0.00000000  0.33333333
 
 position of ions in cartesian coordinates  (Angst):
   0.00000000  0.00000000  0.00000000
   1.58000000  1.58000000  1.58000000
   0.00000000  0.00000000  3.16000000
   1.58000000  1.58000000  4.74000000
   0.00000000  0.00000000  6.32000000
 


--------------------------------------------------------------------------------------------------------


 k-point  1 :   0.0000 0.0000 0.0000  plane waves:    6283
 k-point  2 :   0.0500 0.0000 0.0000  plane waves:    6279
 k-point  3 :   0.1000 0.0000 0.0000  plane waves:    6307
 k-point  4 :   0.1500 0.0000 0.0000  plane waves:    6341
 k-point  5 :   0.2000 0.0000 0.0000  plane waves:    6323
 k-point  6 :   0.2500 0.0000 0.0000  plane waves:    6335
 k-point  7 :   0.3000 0.0000 0.0000  plane waves:    6335
 k-point  8 :   0.3500 0.0000 0.0000  plane waves:    6348
 k-point  9 :   0.4000 0.0000 0.0000  plane waves:    6348
 k-point 10 :   0.4500 0.0000 0.0000  plane waves:    6354
 k-point 11 :   0.5000 0.0000 0.0000  plane waves:    6352
 k-point 12 :   0.0500 0.0500 0.0000  plane waves:    6299
 k-point 13 :   0.1000 0.0500 0.0000  plane waves:    6321
 k-point 14 :   0.1500 0.0500 0.0000  plane waves:    6328
 k-point 15 :   0.2000 0.0500 0.0000  plane waves:    6329
 k-point 16 :   0.2500 0.0500 0.0000  plane waves:    6343
 k-point 17 :   0.3000 0.0500 0.0000  plane waves:    6341
 k-point 18 :   0.3500 0.0500 0.0000  plane waves:    6338
 k-point 19 :   0.4000 0.0500 0.0000  plane waves:    6352
 k-point 20 :   0.4500 0.0500 0.0000  plane waves:    6353
 k-point 21 :   0.5000 0.0500 0.0000  plane waves:    6340
 k-point 22 :   0.1000 0.1000 0.0000  plane waves:    6327
 k-point 23 :   0.1500 0.1000 0.0000  plane waves:    6335
 k-point 24 :   0.2000 0.1000 0.0000  plane waves:    6321
 k-point 25 :   0.2500 0.1000 0.0000  plane waves:    6311
 k-point 26 :   0.3000 0.1000 0.0000  plane waves:    6312
 k-point 27 :   0.3500 0.1000 0.0000  plane waves:    6321
 k-point 28 :   0.4000 0.1000 0.0000  plane waves:    6345
 k-point 29 :   0.4500 0.1000 0.0000  plane waves:    6345
 k-point 30 :   0.5000 0.1000 0.0000  plane waves:    6326
 k-point 31 :   0.1500 0.1500 0.0000  plane waves:    6335
 k-point 32 :   0.2000 0.1500 0.0000  plane waves:    6337
 k-point 33 :   0.2500 0.1500 0.0000  plane waves:    6323
 k-point 34 :   0.3000 0.1500 0.0000  plane waves:    6310
 k-point 35 :   0.3500 0.1500 0.0000  plane waves:    6311
 k-point 36 :   0.4000 0.1500 0.0000  plane waves:    6316
 k-point 37 :   0.4500 0.1500 0.0000  plane waves:    6323
 k-point 38 :   0.5000 0.1500 0.0000  plane waves:    6328
 k-point 39 :   0.2000 0.2000 0.0000  plane waves:    6313
 k-point 40 :   0.2500 0.2000 0.0000  plane waves:    6317
 k-point 41 :   0.3000 0.2000 0.0000  plane waves:    6301
 k-point 42 :   0.3500 0.2000 0.0000  plane waves:    6311
 k-point 43 :   0.4000 0.2000 0.0000  plane waves:    6327
 k-point 44 :   0.4500 0.2000 0.0000  plane waves:    6315
 k-point 45 :   0.5000 0.2000 0.0000  plane waves:    6316
 k-point 46 :   0.2500 0.2500 0.0000  plane waves:    6299
 k-point 47 :   0.3000 0.2500 0.0000  plane waves:    6300
 k-point 48 :   0.3500 0.2500 0.0000  plane waves:    6311
 k-point 49 :   0.4000 0.2500 0.0000  plane waves:    6318
 k-point 50 :   0.4500 0.2500 0.0000  plane waves:    6311
 k-point 51 :   0.5000 0.2500 0.0000  plane waves:    6306
 k-point 52 :   0.3000 0.3000 0.0000  plane waves:    6311
 k-point 53 :   0.3500 0.3000 0.0000  plane waves:    6300
 k-point 54 :   0.4000 0.3000 0.0000  plane waves:    6291
 k-point 55 :   0.4500 0.3000 0.0000  plane waves:    6306
 k-point 56 :   0.5000 0.3000 0.0000  plane waves:    6310
 k-point 57 :   0.3500 0.3500 0.0000  plane waves:    6287
 k-point 58 :   0.4000 0.3500 0.0000  plane waves:    6291
 k-point 59 :   0.4500 0.3500 0.0000  plane waves:    6290
 k-point 60 :   0.5000 0.3500 0.0000  plane waves:    6290
 k-point 61 :   0.4000 0.4000 0.0000  plane waves:    6287
 k-point 62 :   0.4500 0.4000 0.0000  plane waves:    6279
 k-point 63 :   0.5000 0.4000 0.0000  plane waves:    6294
 k-point 64 :   0.4500 0.4500 0.0000  plane waves:    6293
 k-point 65 :   0.5000 0.4500 0.0000  plane waves:    6284
 k-point 66 :   0.5000 0.5000 0.0000  plane waves:    6280
 k-point 67 :   0.0000 0.0000 0.2500  plane waves:    6276
 k-point 68 :   0.0500 0.0000 0.2500  plane waves:    6301
 k-point 69 :   0.1000 0.0000 0.2500  plane waves:    6301
 k-point 70 :   0.1500 0.0000 0.2500  plane waves:    6326
 k-point 71 :   0.2000 0.0000 0.2500  plane waves:    6345
 k-point 72 :   0.2500 0.0000 0.2500  plane waves:    6351
 k-point 73 :   0.3000 0.0000 0.2500  plane waves:    6336
 k-point 74 :   0.3500 0.0000 0.2500  plane waves:    6347
 k-point 75 :   0.4000 0.0000 0.2500  plane waves:    6343
 k-point 76 :   0.4500 0.0000 0.2500  plane waves:    6349
 k-point 77 :   0.5000 0.0000 0.2500  plane waves:    6356
 k-point 78 :   0.0500 0.0500 0.2500  plane waves:    6312
 k-point 79 :   0.1000 0.0500 0.2500  plane waves:    6318
 k-point 80 :   0.1500 0.0500 0.2500  plane waves:    6319
 k-point 81 :   0.2000 0.0500 0.2500  plane waves:    6326
 k-point 82 :   0.2500 0.0500 0.2500  plane waves:    6333
 k-point 83 :   0.3000 0.0500 0.2500  plane waves:    6336
 k-point 84 :   0.3500 0.0500 0.2500  plane waves:    6346
 k-point 85 :   0.4000 0.0500 0.2500  plane waves:    6343
 k-point 86 :   0.4500 0.0500 0.2500  plane waves:    6349
 k-point 87 :   0.5000 0.0500 0.2500  plane waves:    6354
 k-point 88 :   0.1000 0.1000 0.2500  plane waves:    6334
 k-point 89 :   0.1500 0.1000 0.2500  plane waves:    6337
 k-point 90 :   0.2000 0.1000 0.2500  plane waves:    6331
 k-point 91 :   0.2500 0.1000 0.2500  plane waves:    6322
 k-point 92 :   0.3000 0.1000 0.2500  plane waves:    6328
 k-point 93 :   0.3500 0.1000 0.2500  plane waves:    6321
 k-point 94 :   0.4000 0.1000 0.2500  plane waves:    6329
 k-point 95 :   0.4500 0.1000 0.2500  plane waves:    6342
 k-point 96 :   0.5000 0.1000 0.2500  plane waves:    6332
 k-point 97 :   0.1500 0.1500 0.2500  plane waves:    6336
 k-point 98 :   0.2000 0.1500 0.2500  plane waves:    6331
 k-point 99 :   0.2500 0.1500 0.2500  plane waves:    6325
 k-point ** :   0.3000 0.1500 0.2500  plane waves:    6323
 k-point ** :   0.3500 0.1500 0.2500  plane waves:    6315
 k-point ** :   0.4000 0.1500 0.2500  plane waves:    6321
 k-point ** :   0.4500 0.1500 0.2500  plane waves:    6316
 k-point ** :   0.5000 0.1500 0.2500  plane waves:    6316
 k-point ** :   0.2000 0.2000 0.2500  plane waves:    6319
 k-point ** :   0.2500 0.2000 0.2500  plane waves:    6312
 k-point ** :   0.3000 0.2000 0.2500  plane waves:    6311
 k-point ** :   0.3500 0.2000 0.2500  plane waves:    6311
 k-point ** :   0.4000 0.2000 0.2500  plane waves:    6308
 k-point ** :   0.4500 0.2000 0.2500  plane waves:    6316
 k-point ** :   0.5000 0.2000 0.2500  plane waves:    6312
 k-point ** :   0.2500 0.2500 0.2500  plane waves:    6307
 k-point ** :   0.3000 0.2500 0.2500  plane waves:    6298
 k-point ** :   0.3500 0.2500 0.2500  plane waves:    6306
 k-point ** :   0.4000 0.2500 0.2500  plane waves:    6311
 k-point ** :   0.4500 0.2500 0.2500  plane waves:    6315
 k-point ** :   0.5000 0.2500 0.2500  plane waves:    6320
 k-point ** :   0.3000 0.3000 0.2500  plane waves:    6285
 k-point ** :   0.3500 0.3000 0.2500  plane waves:    6296
 k-point ** :   0.4000 0.3000 0.2500  plane waves:    6291
 k-point ** :   0.4500 0.3000 0.2500  plane waves:    6292
 k-point ** :   0.5000 0.3000 0.2500  plane waves:    6296
 k-point ** :   0.3500 0.3500 0.2500  plane waves:    6293
 k-point ** :   0.4000 0.3500 0.2500  plane waves:    6289
 k-point ** :   0.4500 0.3500 0.2500  plane waves:    6297
 k-point ** :   0.5000 0.3500 0.2500  plane waves:    6304
 k-point ** :   0.4000 0.4000 0.2500  plane waves:    6302
 k-point ** :   0.4500 0.4000 0.2500  plane waves:    6300
 k-point ** :   0.5000 0.4000 0.2500  plane waves:    6300
 k-point ** :   0.4500 0.4500 0.2500  plane waves:    6294
 k-point ** :   0.5000 0.4500 0.2500  plane waves:    6288
 k-point ** :   0.5000 0.5000 0.2500  plane waves:    6280
 k-point ** :   0.0000 0.0000 0.5000  plane waves:    6268
 k-point ** :   0.0500 0.0000 0.5000  plane waves:    6290
 k-point ** :   0.1000 0.0000 0.5000  plane waves:    6306
 k-point ** :   0.1500 0.0000 0.5000  plane waves:    6328
 k-point ** :   0.2000 0.0000 0.5000  plane waves:    6350
 k-point ** :   0.2500 0.0000 0.5000  plane waves:    6326
 k-point ** :   0.3000 0.0000 0.5000  plane waves:    6346
 k-point ** :   0.3500 0.0000 0.5000  plane waves:    6352
 k-point ** :   0.4000 0.0000 0.5000  plane waves:    6346
 k-point ** :   0.4500 0.0000 0.5000  plane waves:    6338
 k-point ** :   0.5000 0.0000 0.5000  plane waves:    6376
 k-point ** :   0.0500 0.0500 0.5000  plane waves:    6304
 k-point ** :   0.1000 0.0500 0.5000  plane waves:    6314
 k-point ** :   0.1500 0.0500 0.5000  plane waves:    6330
 k-point ** :   0.2000 0.0500 0.5000  plane waves:    6330
 k-point ** :   0.2500 0.0500 0.5000  plane waves:    6326
 k-point ** :   0.3000 0.0500 0.5000  plane waves:    6330
 k-point ** :   0.3500 0.0500 0.5000  plane waves:    6338
 k-point ** :   0.4000 0.0500 0.5000  plane waves:    6338
 k-point ** :   0.4500 0.0500 0.5000  plane waves:    6336
 k-point ** :   0.5000 0.0500 0.5000  plane waves:    6368
 k-point ** :   0.1000 0.1000 0.5000  plane waves:    6324
 k-point ** :   0.1500 0.1000 0.5000  plane waves:    6338
 k-point ** :   0.2000 0.1000 0.5000  plane waves:    6336
 k-point ** :   0.2500 0.1000 0.5000  plane waves:    6322
 k-point ** :   0.3000 0.1000 0.5000  plane waves:    6326
 k-point ** :   0.3500 0.1000 0.5000  plane waves:    6334
 k-point ** :   0.4000 0.1000 0.5000  plane waves:    6340
 k-point ** :   0.4500 0.1000 0.5000  plane waves:    6340
 k-point ** :   0.5000 0.1000 0.5000  plane waves:    6340
 k-point ** :   0.1500 0.1500 0.5000  plane waves:    6340
 k-point ** :   0.2000 0.1500 0.5000  plane waves:    6330
 k-point ** :   0.2500 0.1500 0.5000  plane waves:    6320
 k-point ** :   0.3000 0.1500 0.5000  plane waves:    6318
 k-point ** :   0.3500 0.1500 0.5000  plane waves:    6320
 k-point ** :   0.4000 0.1500 0.5000  plane waves:    6320
 k-point ** :   0.4500 0.1500 0.5000  plane waves:    6328
 k-point ** :   0.5000 0.1500 0.5000  plane waves:    6304
 k-point ** :   0.2000 0.2000 0.5000  plane waves:    6318
 k-point ** :   0.2500 0.2000 0.5000  plane waves:    6308
 k-point ** :   0.3000 0.2000 0.5000  plane waves:    6310
 k-point ** :   0.3500 0.2000 0.5000  plane waves:    6316
 k-point ** :   0.4000 0.2000 0.5000  plane waves:    6308
 k-point ** :   0.4500 0.2000 0.5000  plane waves:    6308
 k-point ** :   0.5000 0.2000 0.5000  plane waves:    6304
 k-point ** :   0.2500 0.2500 0.5000  plane waves:    6340
 k-point ** :   0.3000 0.2500 0.5000  plane waves:    6308
 k-point ** :   0.3500 0.2500 0.5000  plane waves:    6304
 k-point ** :   0.4000 0.2500 0.5000  plane waves:    6302
 k-point ** :   0.4500 0.2500 0.5000  plane waves:    6308
 k-point ** :   0.5000 0.2500 0.5000  plane waves:    6312
 k-point ** :   0.3000 0.3000 0.5000  plane waves:    6280
 k-point ** :   0.3500 0.3000 0.5000  plane waves:    6288
 k-point ** :   0.4000 0.3000 0.5000  plane waves:    6298
 k-point ** :   0.4500 0.3000 0.5000  plane waves:    6292
 k-point ** :   0.5000 0.3000 0.5000  plane waves:    6300
 k-point ** :   0.3500 0.3500 0.5000  plane waves:    6278
 k-point ** :   0.4000 0.3500 0.5000  plane waves:    6288
 k-point ** :   0.4500 0.3500 0.5000  plane waves:    6308
 k-point ** :   0.5000 0.3500 0.5000  plane waves:    6300
 k-point ** :   0.4000 0.4000 0.5000  plane waves:    6298
 k-point ** :   0.4500 0.4000 0.5000  plane waves:    6314
 k-point ** :   0.5000 0.4000 0.5000  plane waves:    6300
 k-point ** :   0.4500 0.4500 0.5000  plane waves:    6306
 k-point ** :   0.5000 0.4500 0.5000  plane waves:    6312
 k-point ** :   0.5000 0.5000 0.5000  plane waves:    6288

 maximum and minimum number of plane-waves per node :      6376     6268

 maximum number of plane-waves:      6376
 maximum index in each direction: 
   IXMAX=    6   IYMAX=    6   IZMAX=   37
   IXMIN=   -6   IYMIN=   -6   IZMIN=  -38


 serial   3D FFT for wavefunctions
 parallel 3D FFT for charge:
    minimum data exchange during FFTs selected (reduces bandwidth)


 total amount of memory used by VASP MPI-rank0   659948. kBytes
=======================================================================

   base      :      30000. kBytes
   nonl-proj :     182302. kBytes
   fftplans  :      26112. kBytes
   grid      :      32256. kBytes
   one-center:         77. kBytes
   wavefun   :     389201. kBytes
 
     INWAV:  cpu time    0.0001: real time    0.0003
 Broyden mixing: mesh for mixing (old mesh)
   NGX = 13   NGY = 13   NGZ = 75
  (NGX  = 40   NGY  = 40   NGZ  =240)
  gives a total of  12675 points

 initial charge density was supplied:
 charge density of overlapping atoms calculated
 number of electron      30.0000000 magnetization 
 keeping initial charge density in first step


--------------------------------------------------------------------------------------------------------


 Maximum index for augmentation-charges        13949 (set IRDMAX)


--------------------------------------------------------------------------------------------------------


 First call to EWALD:  gamma=   0.309
 Maximum number of real-space cells 5x 5x 1
 Maximum number of reciprocal cells 2x 2x 8

    FEWALD:  cpu time    0.0015: real time    0.0015


--------------------------------------- Iteration      1(   1)  ---------------------------------------


    POTLOK:  cpu time    0.0654: real time    0.0679
    SETDIJ:  cpu time    0.0143: real time    0.0144
     EDDAV:  cpu time   26.9654: real time   27.0513
 BZINTS: Fermi energy: 11.160393; 30.000000 electrons
         Band energy: 120.473752;  BLOECHL correction: -0.141453
       DOS:  cpu time    0.0902: real time    0.0910
    --------------------------------------------
      LOOP:  cpu time   27.1362: real time   27.2247

 eigenvalue-minimisations  :  7524
 total energy-change (2. order) : 0.1446786E+03  (-0.1240583E+04)
 number of electron      30.0000000 magnetization 
 augmentation part       30.0000000 magnetization 

 Free energy of the ion-electron system (eV)
  ---------------------------------------------------
  alpha Z        PSCENC =        92.17273665
  Ewald energy   TEWEN  =      3037.32980781
  -Hartree energ DENC   =     -4188.29384353
  -exchange      EXHF   =         0.00000000
  -V(xc)+E(xc)   XCENC  =      -238.31735841
  PAW double counting   =       917.67451279     -629.04332620
  entropy T*S    EENTRO =         0.00000000
  eigenvalues    EBANDS =       120.47375195
  atomic energy  EATOM  =      1032.68232307
  Solvation  Ediel_sol  =         0.00000000
  ---------------------------------------------------
  free energy    TOTEN  =       144.67860412 eV

  energy without entropy =      144.67860412  energy(sigma->0) =      144.67860412


--------------------------------------------------------------------------------------------------------




--------------------------------------- Iteration      1(   2)  ---------------------------------------


     EDDAV:  cpu time   34.1384: real time   34.2336
 BZINTS: Fermi energy:  1.711938; 30.000000 electrons
         Band energy: -75.328453;  BLOECHL correction: -0.078891
       DOS:  cpu time    0.0891: real time    0.0894
    --------------------------------------------
      LOOP:  cpu time   34.2265: real time   34.3229

 eigenvalue-minimisations  : 10667
 total energy-change (2. order) :-0.1958022E+03  (-0.1889826E+03)
 number of electron      30.0000000 magnetization 
 augmentation part       30.0000000 magnetization 

 Free energy of the ion-electron system (eV)
  ---------------------------------------------------
  alpha Z        PSCENC =        92.17273665
  Ewald energy   TEWEN  =      3037.32980781
  -Hartree energ DENC   =     -4188.29384353
  -exchange      EXHF   =         0.00000000
  -V(xc)+E(xc)   XCENC  =      -238.31735841
  PAW double counting   =       917.67451279     -629.04332620
  entropy T*S    EENTRO =         0.00000000
  eigenvalues    EBANDS =       -75.32845252
  atomic energy  EATOM  =      1032.68232307
  Solvation  Ediel_sol  =         0.00000000
  ---------------------------------------------------
  free energy    TOTEN  =       -51.12360035 eV

  energy without entropy =      -51.12360035  energy(sigma->0) =      -51.12360035


--------------------------------------------------------------------------------------------------------




--------------------------------------- Iteration      1(   3)  ---------------------------------------


     EDDAV:  cpu time   33.1530: real time   33.2452
 BZINTS: Fermi energy:  0.717479; 30.000000 electrons
         Band energy: -93.060553;  BLOECHL correction: -0.030504
       DOS:  cpu time    0.0834: real time    0.0836
    --------------------------------------------
      LOOP:  cpu time   33.2364: real time   33.3288

 eigenvalue-minimisations  : 10259
 total energy-change (2. order) :-0.1773210E+02  (-0.1700469E+02)
 number of electron      30.0000000 magnetization 
 augmentation part       30.0000000 magnetization 

 Free energy of the ion-electron system (eV)
  ---------------------------------------------------
  alpha Z        PSCENC =        92.17273665
  Ewald energy   TEWEN  =      3037.32980781
  -Hartree energ DENC   =     -4188.29384353
  -exchange      EXHF   =         0.00000000
  -V(xc)+E(xc)   XCENC  =      -238.31735841
  PAW double counting   =       917.67451279     -629.04332620
  entropy T*S    EENTRO =         0.00000000
  eigenvalues    EBANDS =       -93.06055284
  atomic energy  EATOM  =      1032.68232307
  Solvation  Ediel_sol  =         0.00000000
  ---------------------------------------------------
  free energy    TOTEN  =       -68.85570067 eV

  energy without entropy =      -68.85570067  energy(sigma->0) =      -68.85570067


--------------------------------------------------------------------------------------------------------




--------------------------------------- Iteration      1(   4)  ---------------------------------------


     EDDAV:  cpu time   40.4668: real time   40.5817
 BZINTS: Fermi energy:  0.571261; 30.000000 electrons
         Band energy: -94.327312;  BLOECHL correction: -0.016395
       DOS:  cpu time    0.0859: real time    0.0862
    --------------------------------------------
      LOOP:  cpu time   40.5528: real time   40.6679

 eigenvalue-minimisations  : 13045
 total energy-change (2. order) :-0.1266759E+01  (-0.1206277E+01)
 number of electron      30.0000000 magnetization 
 augmentation part       30.0000000 magnetization 

 Free energy of the ion-electron system (eV)
  ---------------------------------------------------
  alpha Z        PSCENC =        92.17273665
  Ewald energy   TEWEN  =      3037.32980781
  -Hartree energ DENC   =     -4188.29384353
  -exchange      EXHF   =         0.00000000
  -V(xc)+E(xc)   XCENC  =      -238.31735841
  PAW double counting   =       917.67451279     -629.04332620
  entropy T*S    EENTRO =         0.00000000
  eigenvalues    EBANDS =       -94.32731233
  atomic energy  EATOM  =      1032.68232307
  Solvation  Ediel_sol  =         0.00000000
  ---------------------------------------------------
  free energy    TOTEN  =       -70.12246016 eV

  energy without entropy =      -70.12246016  energy(sigma->0) =      -70.12246016


--------------------------------------------------------------------------------------------------------




--------------------------------------- Iteration      1(   5)  ---------------------------------------


     EDDAV:  cpu time   37.9645: real time   38.0776
 BZINTS: Fermi energy:  0.558773; 30.000000 electrons
         Band energy: -94.384390;  BLOECHL correction: -0.015377
       DOS:  cpu time    0.0872: real time    0.0875
    CHARGE:  cpu time    2.2921: real time    2.2982
    MIXING:  cpu time    0.0122: real time    0.0122
    --------------------------------------------
      LOOP:  cpu time   40.3561: real time   40.4756

 eigenvalue-minimisations  : 11625
 total energy-change (2. order) :-0.5707801E-01  (-0.5440005E-01)
 number of electron      30.0000001 magnetization 
 augmentation part        3.1503316 magnetization 

 Broyden mixing:
  rms(total) = 0.99997E+00    rms(broyden)= 0.99997E+00
  rms(prec ) = 0.13231E+01
  weight for this iteration     100.00

 Free energy of the ion-electron system (eV)
  ---------------------------------------------------
  alpha Z        PSCENC =        92.17273665
  Ewald energy   TEWEN  =      3037.32980781
  -Hartree energ DENC   =     -4188.29384353
  -exchange      EXHF   =         0.00000000
  -V(xc)+E(xc)   XCENC  =      -238.31735841
  PAW double counting   =       917.67451279     -629.04332620
  entropy T*S    EENTRO =         0.00000000
  eigenvalues    EBANDS =       -94.38439034
  atomic energy  EATOM  =      1032.68232307
  Solvation  Ediel_sol  =         0.00000000
  ---------------------------------------------------
  free energy    TOTEN  =       -70.17953817 eV

  energy without entropy =      -70.17953817  energy(sigma->0) =      -70.17953817


--------------------------------------------------------------------------------------------------------




--------------------------------------- Iteration      1(   6)  ---------------------------------------


    POTLOK:  cpu time    0.0582: real time    0.0586
    SETDIJ:  cpu time    0.0138: real time    0.0138
     EDDAV:  cpu time   39.9483: real time   40.0672
 BZINTS: Fermi energy:  0.615906; 30.000000 electrons
         Band energy: -56.693109;  BLOECHL correction: -0.028931
       DOS:  cpu time    0.0843: real time    0.0845
    CHARGE:  cpu time    2.4011: real time    2.4075
    MIXING:  cpu time    0.0110: real time    0.0111
    --------------------------------------------
      LOOP:  cpu time   42.5167: real time   42.6428

 eigenvalue-minimisations  : 12368
 total energy-change (2. order) : 0.1698670E+01  (-0.4753941E+01)
 number of electron      30.0000001 magnetization 
 augmentation part        3.3689599 magnetization 

 Broyden mixing:
  rms(total) = 0.92979E+00    rms(broyden)= 0.92979E+00
  rms(prec ) = 0.14940E+01
  weight for this iteration     100.00

 eigenvalues of (default mixing * dielectric matrix)
  average eigenvalue GAMMA=   0.5966
  0.5966

 Free energy of the ion-electron system (eV)
  ---------------------------------------------------
  alpha Z        PSCENC =        92.17273665
  Ewald energy   TEWEN  =      3037.32980781
  -Hartree energ DENC   =     -4221.82391741
  -exchange      EXHF   =         0.00000000
  -V(xc)+E(xc)   XCENC  =      -237.49676416
  PAW double counting   =       988.87822092     -703.53016579
  entropy T*S    EENTRO =         0.00000000
  eigenvalues    EBANDS =       -56.69310925
  atomic energy  EATOM  =      1032.68232307
  Solvation  Ediel_sol  =         0.00000000
  ---------------------------------------------------
  free energy    TOTEN  =       -68.48086817 eV

  energy without entropy =      -68.48086817  energy(sigma->0) =      -68.48086817


--------------------------------------------------------------------------------------------------------




--------------------------------------- Iteration      1(   7)  ---------------------------------------


    POTLOK:  cpu time    0.0569: real time    0.0573
    SETDIJ:  cpu time    0.0138: real time    0.0138
     EDDAV:  cpu time   39.6574: real time   39.7750
 BZINTS: Fermi energy:  0.660032; 30.000000 electrons
         Band energy: -77.185151;  BLOECHL correction: -0.016986
       DOS:  cpu time    0.0866: real time    0.0868
    CHARGE:  cpu time    2.3978: real time    2.4041
    MIXING:  cpu time    0.0114: real time    0.0115
    --------------------------------------------
      LOOP:  cpu time   42.2239: real time   42.3485

 eigenvalue-minimisations  : 12253
 total energy-change (2. order) : 0.2798912E+01  (-0.3139008E+01)
 number of electron      30.0000001 magnetization 
 augmentation part        3.3226697 magnetization 

 Broyden mixing:
  rms(total) = 0.42867E+00    rms(broyden)= 0.42867E+00
  rms(prec ) = 0.58637E+00
  weight for this iteration     100.00

 eigenvalues of (default mixing * dielectric matrix)
  average eigenvalue GAMMA=   1.1659
  1.9723  0.3596

 Free energy of the ion-electron system (eV)
  ---------------------------------------------------
  alpha Z        PSCENC =        92.17273665
  Ewald energy   TEWEN  =      3037.32980781
  -Hartree energ DENC   =     -4198.20752656
  -exchange      EXHF   =         0.00000000
[...]
      1      -4.5243      2.00000
      2      -4.1513      2.00000
      3      -3.3685      2.00000
      4      -3.1608      2.00000
      5      -3.0512      2.00000
      6      -2.3959      2.00000
      7      -2.1473      2.00000
      8      -2.0761      2.00000
      9      -1.6799      2.00000
     10      -1.6577      2.00000
     11      -1.4039      2.00000
     12      -0.9465      2.00000
     13      -0.6299      2.00000
     14       0.6034      1.46014
     15       0.7963      0.02884
     16       1.5778      0.00000
     17       1.6987      0.00000
     18       2.1303      0.00000
     19       2.3922      0.00000

 k-point   188 :       0.5000    0.3000    0.5000
  band No.  band energies     occupation 
      1      -4.4226      2.00000
      2      -4.2647      2.00000
      3      -3.3768      2.00000
      4      -3.1908      2.00000
      5      -3.0569      2.00000
      6      -2.4188      2.00000
      7      -2.1496      2.00000
      8      -2.1044      2.00000
      9      -1.6434      2.00000
     10      -1.5925      2.00000
     11      -1.4188      2.00000
     12      -0.8599      2.00000
     13      -0.5358      2.00000
     14       0.5913      1.46959
     15       0.8167     -0.01012
     16       1.7222      0.00000
     17       1.7937      0.00000
     18       2.1704      0.00000
     19       2.4187      0.00000

 k-point   189 :       0.3500    0.3500    0.5000
  band No.  band energies     occupation 
      1      -4.7617      2.00000
      2      -3.9835      2.00000
      3      -3.1960      2.00000
      4      -2.9068      2.00000
      5      -2.8691      2.00000
      6      -2.5039      2.00000
      7      -2.2759      2.00000
      8      -1.9677      2.00000
      9      -1.7725      2.00000
     10      -1.5987      2.00000
     11      -1.4835      2.00000
     12      -1.2704      2.00000
     13      -1.1713      2.00000
     14       0.8531      0.11132
     15       1.0034     -0.21266
     16       1.1439      0.00000
     17       1.1702      0.00000
     18       1.9829      0.00000
     19       2.2778      0.00000

 k-point   190 :       0.4000    0.3500    0.5000
  band No.  band energies     occupation 
      1      -4.6857      2.00000
      2      -4.1805      2.00000
      3      -3.2136      2.00000
      4      -2.9192      2.00000
      5      -2.7883      2.00000
      6      -2.4558      2.00000
      7      -2.3239      2.00000
      8      -2.0066      2.00000
      9      -1.8069      2.00000
     10      -1.6184      2.00000
     11      -1.3350      2.00000
     12      -1.1258      2.00000
     13      -0.9146      2.00000
     14       1.0818     -0.14763
     15       1.1514     -0.04867
     16       1.4876      0.00000
     17       1.6044      0.00000
     18       2.1173      0.00000
     19       2.3768      0.00000

 k-point   191 :       0.4500    0.3500    0.5000
  band No.  band energies     occupation 
      1      -4.6166      2.00000
      2      -4.3372      2.00000
      3      -3.2288      2.00000
      4      -3.0260      2.00000
      5      -2.7463      2.00000
      6      -2.4024      2.00000
      7      -2.3725      2.00000
      8      -2.0377      2.00000
      9      -1.8966      2.00000
     10      -1.5011      2.00000
     11      -1.3439      2.00000
     12      -0.8748      2.00000
     13      -0.6881      2.00000
     14       1.1949     -0.14368
     15       1.2025      0.00000
     16       1.8502      0.00000
     17       2.0152      0.00000
     18       2.2325      0.00000
     19       2.4539      0.00000

 k-point   192 :       0.5000    0.3500    0.5000
  band No.  band energies     occupation 
      1      -4.5700      2.00000
      2      -4.4154      2.00000
      3      -3.2280      2.00000
      4      -3.0747      2.00000
      5      -2.7280      2.00000
      6      -2.4416      2.00000
      7      -2.3420      2.00000
      8      -2.0705      2.00000
      9      -1.9189      2.00000
     10      -1.4405      2.00000
     11      -1.3543      2.00000
     12      -0.7329      2.00000
     13      -0.6373      2.00000
     14       1.2078     -0.13919
     15       1.2400      0.00000
     16       2.0169      0.00000
     17       2.1462      0.00000
     18       2.2790      0.00000
     19       2.4812      0.00000

 k-point   193 :       0.4000    0.4000    0.5000
  band No.  band energies     occupation 
      1      -4.6998      2.00000
      2      -4.3601      2.00000
      3      -3.2338      2.00000
      4      -2.7630      2.00000
      5      -2.6504      2.00000
      6      -2.6450      2.00000
      7      -2.3089      2.00000
      8      -1.9848      2.00000
      9      -1.8885      2.00000
     10      -1.6412      2.00000
     11      -1.3581      2.00000
     12      -0.9185      2.00000
     13      -0.6626      2.00000
     14       1.5207      0.00000
     15       1.7246      0.00000
     16       1.7347      0.00000
     17       1.8235      0.00000
     18       2.2571      0.00000
     19       2.4585      0.00000

 k-point   194 :       0.4500    0.4000    0.5000
  band No.  band energies     occupation 
      1      -4.7009      2.00000
      2      -4.4885      2.00000
      3      -3.2401      2.00000
      4      -2.8634      2.00000
      5      -2.5950      2.00000
      6      -2.5603      2.00000
      7      -2.3579      2.00000
      8      -2.1674      2.00000
      9      -1.8257      2.00000
     10      -1.5413      2.00000
     11      -1.4457      2.00000
     12      -0.6406      2.00000
     13      -0.4613      2.00000
     14       1.7424      0.00000
     15       1.8905      0.00000
     16       2.0920      0.00000
     17       2.2879      0.00000
     18       2.4062      0.00000
     19       2.5245      0.00000

 k-point   195 :       0.5000    0.4000    0.5000
  band No.  band energies     occupation 
      1      -4.6941      2.00000
      2      -4.5405      2.00000
      3      -3.2372      2.00000
      4      -2.9186      2.00000
      5      -2.5499      2.00000
      6      -2.4950      2.00000
      7      -2.4211      2.00000
      8      -2.2530      2.00000
      9      -1.8201      2.00000
     10      -1.4774      2.00000
     11      -1.4740      2.00000
     12      -0.5015      2.00000
     13      -0.4137      2.00000
     14       1.7977      0.00000
     15       1.9379      0.00000
     16       2.2865      0.00000
     17       2.3894      0.00000
     18       2.5392      0.00000
     19       2.5498      0.00000

 k-point   196 :       0.4500    0.4500    0.5000
  band No.  band energies     occupation 
      1      -4.7557      2.00000
      2      -4.5870      2.00000
      3      -3.2320      2.00000
      4      -2.7875      2.00000
      5      -2.7383      2.00000
      6      -2.4552      2.00000
      7      -2.3731      2.00000
      8      -2.3317      2.00000
      9      -1.6398      2.00000
     10      -1.6117      2.00000
     11      -1.5596      2.00000
     12      -0.3659      2.00000
     13      -0.2649      2.00000
     14       2.2360      0.00000
     15       2.2868      0.00000
     16       2.3563      0.00000
     17       2.5286      0.00000
     18       2.5796      0.00000
     19       2.7395      0.00000

 k-point   197 :       0.5000    0.4500    0.5000
  band No.  band energies     occupation 
      1      -4.7741      2.00000
      2      -4.6214      2.00000
      3      -3.2224      2.00000
      4      -2.8276      2.00000
      5      -2.7082      2.00000
      6      -2.4709      2.00000
      7      -2.3745      2.00000
      8      -2.3713      2.00000
      9      -1.6752      2.00000
     10      -1.6152      2.00000
     11      -1.5163      2.00000
     12      -0.2322      2.00000
     13      -0.2132      2.00000
     14       2.3282      0.00000
     15       2.3917      0.00000
     16       2.4934      0.00000
     17       2.5999      0.00000
     18       2.7525      0.00000
     19       2.9498      0.00000

 k-point   198 :       0.5000    0.5000    0.5000
  band No.  band energies     occupation 
      1      -4.8015      2.00000
      2      -4.6492      2.00000
      3      -3.2095      2.00000
      4      -2.7705      2.00000
      5      -2.7705      2.00000
      6      -2.5779      2.00000
      7      -2.3396      2.00000
      8      -2.3396      2.00000
      9      -1.7633      2.00000
     10      -1.5322      2.00000
     11      -1.5322      2.00000
     12      -0.1295      2.00000
     13      -0.1295      2.00000
     14       2.4323      0.00000
     15       2.5751      0.00000
     16       2.5751      0.00000
     17       2.6145      0.00000
     18       3.2155      0.00000
     19       3.2156      0.00000


--------------------------------------------------------------------------------------------------------


 soft charge-density along one line, spin component           1
         0         1         2         3         4         5         6         7         8         9
 total charge-density along one line
 
 pseudopotential strength for first ion, spin component:           1
 -8.124   0.000  -0.000   0.000  -0.000   0.000   0.000   0.000   0.000   0.000   0.011   0.000  -0.000   0.000  -0.000   0.000
 -0.000   0.000  -8.151   0.000  -0.000   0.000   0.000   0.000   0.000   0.000  -0.000   0.000   0.009   0.000  -0.000   0.000
 -0.000   0.000  -0.000   0.000  -8.182   0.000  -0.000   0.000  -0.000   0.000  -0.000   0.000  -0.000   0.000   0.007   0.000
  0.000   0.000   0.000   0.000  -0.000   0.000  -8.151   0.000  -0.000   0.000   0.000   0.000   0.000   0.000  -0.000   0.000
  0.000   0.000   0.000   0.000  -0.000   0.000  -0.000   0.000  -8.137   0.000   0.000   0.000   0.000   0.000  -0.000   0.000
  0.011   0.000  -0.000   0.000  -0.000   0.000   0.000   0.000   0.000   0.000   0.076   0.000  -0.000   0.000  -0.000   0.000
 -0.000   0.000   0.009   0.000  -0.000   0.000   0.000   0.000   0.000   0.000  -0.000   0.000   0.076   0.000   0.000   0.000
 -0.000   0.000  -0.000   0.000   0.007   0.000  -0.000   0.000  -0.000   0.000  -0.000   0.000   0.000   0.000   0.076   0.000
  0.000   0.000   0.000   0.000  -0.000   0.000   0.009   0.000  -0.000   0.000  -0.000   0.000   0.000   0.000  -0.000   0.000
  0.000   0.000   0.000   0.000  -0.000   0.000  -0.000   0.000   0.010   0.000  -0.000   0.000   0.000   0.000   0.000   0.000
 -0.000   0.000   0.000   0.000   0.016   0.000   0.000   0.000   0.000   0.000  -0.000   0.000   0.000   0.000   0.001   0.000
  0.000   0.000  -0.000   0.000  -0.002   0.000  -0.000   0.000  -0.000   0.000   0.000   0.000  -0.000   0.000  -0.000   0.000
  0.000   0.000  -0.024   0.000  -0.000   0.000   0.000   0.000  -0.000   0.000  -0.000   0.000  -0.001   0.000  -0.000   0.000
  0.000   0.000   0.000   0.000  -0.045   0.000  -0.000   0.000  -0.000   0.000  -0.000   0.000   0.000   0.000  -0.000   0.000
  0.000   0.000   0.000   0.000  -0.000   0.000  -0.024   0.000  -0.000   0.000   0.000   0.000  -0.000   0.000   0.000   0.000
 -0.000   0.000   0.020   0.000   0.000   0.000  -0.000   0.000   0.000   0.000   0.000   0.000   0.001   0.000   0.000   0.000
 -0.000   0.000  -0.000   0.000   0.032   0.000   0.000   0.000   0.000   0.000   0.000   0.000  -0.000   0.000   0.001   0.000
 -0.000   0.000  -0.000   0.000   0.000   0.000   0.020   0.000   0.000   0.000  -0.000   0.000   0.000   0.000  -0.000   0.000
 total augmentation occupancy for first ion, spin component:           1
  0.995  -0.000   0.000   0.000  -0.000  -0.444   0.000   0.000   0.000  -0.000   0.000   0.000  -0.000   0.000   0.000  -0.000
 -0.000   1.004   0.000   0.000   0.000   0.000  -0.412   0.000   0.000   0.000   0.000   0.000   0.123   0.000  -0.000  -0.024
  0.000  -0.000   0.737   0.000   0.000   0.000  -0.000  -0.390   0.000   0.000  -0.049   0.055   0.000   0.095   0.000  -0.000
  0.000   0.000   0.000   1.004   0.000   0.000   0.000   0.000  -0.412   0.000   0.000  -0.000   0.000   0.000   0.123   0.000
  0.000   0.000   0.000   0.000   0.828  -0.000   0.000   0.000  -0.000  -0.452   0.000   0.000   0.000   0.000   0.000   0.000
 -0.444   0.000   0.000   0.000  -0.000   0.273   0.000   0.000   0.000  -0.000   0.000   0.000   0.000   0.000   0.000   0.000
  0.000  -0.412   0.000   0.000   0.000   0.000   0.269   0.000   0.000   0.000   0.000   0.000  -0.112   0.000   0.000   0.014
  0.000   0.000  -0.390   0.000   0.000   0.000   0.000   0.293   0.000   0.000   0.055  -0.030   0.000  -0.093  -0.000   0.000
  0.000   0.000   0.000  -0.412   0.000  -0.000   0.000   0.000   0.269   0.000   0.000   0.000   0.000   0.000  -0.112   0.000
  0.000   0.000   0.000   0.000  -0.452   0.000   0.000   0.000  -0.000   0.351   0.000   0.000   0.000   0.000   0.000   0.000
  0.000   0.000  -0.049   0.000   0.000   0.000   0.000   0.055   0.000   0.000   1.409  -0.151   0.000   0.131   0.000   0.000
  0.000  -0.000   0.055   0.000   0.000   0.000   0.000  -0.030   0.000   0.000  -0.151   0.033   0.000  -0.024   0.000   0.000
 -0.000   0.123  -0.000   0.000   0.000   0.000  -0.112   0.000   0.000   0.000  -0.000  -0.000   0.170   0.000   0.000  -0.013
  0.000   0.000   0.095   0.000   0.000   0.000   0.000  -0.093   0.000   0.000   0.131  -0.024   0.000   0.100   0.000  -0.000
  0.000   0.000   0.000   0.123   0.000   0.000  -0.000   0.000  -0.112   0.000   0.000   0.000   0.000   0.000   0.170   0.000
 -0.000  -0.024   0.000   0.000   0.000   0.000   0.014   0.000   0.000   0.000   0.000   0.000  -0.013  -0.000  -0.000   0.001
  0.000  -0.000  -0.027   0.000   0.000   0.000   0.000   0.017   0.000   0.000  -0.019   0.001   0.000  -0.010   0.000   0.000
  0.000  -0.000   0.000  -0.024  -0.000  -0.000   0.000   0.000   0.014  -0.000   0.000   0.000   0.000   0.000  -0.013   0.000


------------------------ aborting loop because EDIFF is reached ----------------------------------------


    CHARGE:  cpu time    2.3860: real time    2.3924
    FORLOC:  cpu time    0.0281: real time    0.0281
    FORNL :  cpu time   16.4985: real time   16.5412
    STRESS:  cpu time   15.1464: real time   15.1865
    FORCOR:  cpu time    0.0875: real time    0.0878
    FORHAR:  cpu time    0.0738: real time    0.0740
    MIXING:  cpu time    0.0233: real time    0.0233
    OFIELD:  cpu time    0.0001: real time    0.0001

  FORCE on cell =-STRESS in cart. coord.  units (eV):
  Direction    XX          YY          ZZ          XY          YZ          ZX
  --------------------------------------------------------------------------------------
  Alpha Z    92.17274    92.17274    92.17274
  Ewald    3997.59375  3997.59375 -4957.85860     0.00000     0.00000     0.00000
  Hartree  4195.33072  4195.33072 -4182.60682    -0.00000    -0.00000    -0.00000
  E(xc)    -132.88947  -132.88947  -131.73168     0.00000    -0.00000     0.00000
  Local   -8510.78009 -8510.78009  8827.75141    -0.00000    -0.00000    -0.00000
  n-local   -75.43685   -62.91986   -74.34305     3.83800    -0.00019    -0.00005
  augment    26.10227    26.10227    26.14055    -0.00000     0.00000     0.00000
  Kinetic   370.99245   404.67286   390.62178     2.43169     0.00016     0.00008
  Fock        0.00000     0.00000     0.00000     0.00000     0.00000     0.00000
  -------------------------------------------------------------------------------------
  Total     -13.81579   -13.81579    -9.85367     0.00000     0.00000     0.00000
  in kB    -116.91595  -116.91595   -83.38654     0.00000     0.00000     0.00000
  external pressure =     -105.74 kB  Pullay stress =        0.00 kB


 VOLUME and BASIS-vectors are now :
 -----------------------------------------------------------------------------
  energy-cutoff  :      600.00
  volume of cell :      189.33
      direct lattice vectors                 reciprocal lattice vectors
     3.160000000  0.000000000  0.000000000     0.316455696  0.000000000  0.000000000
     0.000000000  3.160000000  0.000000000     0.000000000  0.316455696  0.000000000
     0.000000000  0.000000000 18.960000000     0.000000000  0.000000000  0.052742616

  length of vectors
     3.160000000  3.160000000 18.960000000     0.316455696  0.316455696  0.052742616


 FORCES acting on ions
    electron-ion (+dipol)            ewald-force                    non-local-force                 convergence-correction
 -----------------------------------------------------------------------------------------------
   0.786E-15 0.513E-14 0.730E+03   0.639E-14 -.114E-14 -.723E+03   0.000E+00 0.000E+00 -.455E+01   -.497E-15 -.319E-15 -.263E-02
   -.118E-14 -.258E-13 0.382E+03   0.205E-14 -.219E-14 -.383E+03   -.529E-22 0.000E+00 -.331E-01   0.646E-15 0.136E-15 -.303E-02
   0.362E-14 0.310E-14 -.210E-07   0.496E-14 -.218E-14 -.106E-08   -.827E-24 0.000E+00 -.993E-23   -.348E-15 0.120E-15 0.714E-10
   -.162E-14 -.240E-15 -.382E+03   0.293E-14 -.181E-14 0.383E+03   -.265E-22 0.000E+00 0.331E-01   0.302E-15 -.200E-15 0.303E-02
   0.391E-14 0.926E-14 -.730E+03   0.522E-15 -.247E-14 0.723E+03   0.000E+00 0.000E+00 0.455E+01   -.210E-14 0.382E-15 0.263E-02
 -----------------------------------------------------------------------------------------------
   0.553E-14 -.856E-14 -.212E-07   0.169E-13 -.980E-14 0.000E+00   -.802E-22 0.000E+00 0.000E+00   -.199E-14 0.119E-15 0.260E-09
 
 
 POSITION                                       TOTAL-FORCE (eV/Angst)
 -----------------------------------------------------------------------------------
      0.00000      0.00000      0.00000        -0.000000      0.000000      2.354600
      1.58000      1.58000      1.58000         0.000000     -0.000000     -1.593583
      0.00000      0.00000      3.16000         0.000000     -0.000000      0.000000
      1.58000      1.58000      4.74000        -0.000000     -0.000000      1.593583
      0.00000      0.00000      6.32000        -0.000000     -0.000000     -2.354600
 -----------------------------------------------------------------------------------
    total drift:                                0.000000     -0.000000     -0.000000


--------------------------------------------------------------------------------------------------------



  FREE ENERGIE OF THE ION-ELECTRON SYSTEM (eV)
  ---------------------------------------------------
  free  energy   TOTEN  =       -64.89742158 eV

  energy  without entropy=      -64.89742158  energy(sigma->0) =      -64.89742158
 


--------------------------------------------------------------------------------------------------------


    POTLOK:  cpu time    0.0757: real time    0.0765


--------------------------------------------------------------------------------------------------------


 writing wavefunctions
     LOOP+:  cpu time  828.1769: real time  830.8905
    4ORBIT:  cpu time    0.0000: real time    0.0000
 BZINTS: Fermi energy:  0.693961; 30.000000 electrons
         Band energy: -64.822782;  BLOECHL correction: -0.019308

 total amount of memory used by VASP MPI-rank0   659948. kBytes
=======================================================================

   base      :      30000. kBytes
   nonl-proj :     182302. kBytes
   fftplans  :      26112. kBytes
   grid      :      32256. kBytes
   one-center:         77. kBytes
   wavefun   :     389201. kBytes
 
  
  
 General timing and accounting informations for this job:
 ========================================================
  
                  Total CPU time used (sec):      833.819
                            User time (sec):      832.022
                          System time (sec):        1.797
                         Elapsed time (sec):      836.853
  
                   Maximum memory used (kb):      755160.
                   Average memory used (kb):           0.
  
                          Minor page faults:       109498
                          Major page faults:           68
                 Voluntary context switches:          455
