<?xml version="1.0" encoding="ISO-8859-1"?>
<modeling>
 <generator>
  <i name="program" type="string">vasp </i>
  <i name="version" type="string">5.4.4.18Apr17-6-g9f103f2a35  </i>
  <i name="subversion" type="string">(build May 20 2018 16:52:39) complex            parallel </i>
  <i name="platform" type="string">LinuxIFC </i>
  <i name="date" type="string">2022 11 15 </i>
  <i name="time" type="string">15:14:13 </i>
 </generator>
 <incar>
  <i type="string" name="PREC">normal</i>
  <i name="EDIFF">      0.00000100</i>
  <i name="ENCUT">    600.00000000</i>
  <i type="int" name="ISMEAR">    -5</i>
  <v type="int" name="KPOINT_BSE">    -1     0     0     0</v>
 </incar>
 <structure name="primitive_cell" >
  <crystal>
   <varray name="basis" >
    <v>       3.16000000       0.00000000       0.00000000 </v>
    <v>       0.00000000       3.16000000       0.00000000 </v>
    <v>       0.00000000       0.00000000      18.96000000 </v>
   </varray>
   <i name="volume">    189.32697600 </i>
   <varray name="rec_basis" >
    <v>       0.31645570       0.00000000       0.00000000 </v>
    <v>       0.00000000       0.31645570       0.00000000 </v>
    <v>       0.00000000       0.00000000       0.05274262 </v>
   </varray>
  </crystal>
  <varray name="positions" >
   <v>       0.00000000       0.00000000       0.00000000 </v>
   <v>      -0.50000000      -0.50000000       0.08333333 </v>
   <v>       0.00000000       0.00000000       0.16666667 </v>
   <v>      -0.50000000      -0.50000000       0.25000000 </v>
   <v>       0.00000000       0.00000000       0.33333333 </v>
  </varray>
 </structure>
 <varray name="primitive_index" >
  <v type="int" >        1 </v>
  <v type="int" >        2 </v>
  <v type="int" >        3 </v>
  <v type="int" >        4 </v>
  <v type="int" >        5 </v>
 </varray>
 <kpoints>
  <generation param="Gamma">
   <v type="int" name="divisions">      20       20        4 </v>
   <v name="usershift">      0.00000000       0.00000000       0.00000000 </v>
   <v name="genvec1">      0.05000000       0.00000000       0.00000000 </v>
   <v name="genvec2">      0.00000000       0.05000000       0.00000000 </v>
   <v name="genvec3">      0.00000000       0.00000000       0.25000000 </v>
   <v name="shift">      0.00000000       0.00000000       0.00000000 </v>
  </generation>
  <varray name="kpointlist" >
   <v>       0.00000000       0.00000000       0.00000000 </v>
   <v>       0.05000000       0.00000000       0.00000000 </v>
   <v>       0.10000000       0.00000000       0.00000000 </v>
   <v>       0.15000000       0.00000000       0.00000000 </v>
   <v>       0.20000000       0.00000000       0.00000000 </v>
   <v>       0.25000000       0.00000000       0.00000000 </v>
   <v>       0.30000000       0.00000000       0.00000000 </v>
   <v>       0.35000000       0.00000000       0.00000000 </v>
   <v>       0.40000000       0.00000000       0.00000000 </v>
   <v>       0.45000000       0.00000000       0.00000000 </v>
   <v>       0.50000000       0.00000000       0.00000000 </v>
   <v>       0.05000000       0.05000000       0.00000000 </v>
   <v>       0.10000000       0.05000000       0.00000000 </v>
   <v>       0.15000000       0.05000000       0.00000000 </v>
   <v>       0.20000000       0.05000000       0.00000000 </v>
   <v>       0.25000000       0.05000000       0.00000000 </v>
   <v>       0.30000000       0.05000000       0.00000000 </v>
   <v>       0.35000000       0.05000000       0.00000000 </v>
   <v>       0.40000000       0.05000000       0.00000000 </v>
   <v>       0.45000000       0.05000000       0.00000000 </v>
   <v>       0.50000000       0.05000000       0.00000000 </v>
   <v>       0.10000000       0.10000000       0.00000000 </v>
   <v>       0.15000000       0.10000000       0.00000000 </v>
   <v>       0.20000000       0.10000000       0.00000000 </v>
   <v>       0.25000000       0.10000000       0.00000000 </v>
   <v>       0.30000000       0.10000000       0.00000000 </v>
   <v>       0.35000000       0.10000000       0.00000000 </v>
   <v>       0.40000000       0.10000000       0.00000000 </v>
   <v>       0.45000000       0.10000000       0.00000000 </v>
   <v>       0.50000000       0.10000000       0.00000000 </v>
   <v>       0.15000000       0.15000000       0.00000000 </v>
   <v>       0.20000000       0.15000000       0.00000000 </v>
   <v>       0.25000000       0.15000000       0.00000000 </v>
   <v>       0.30000000       0.15000000       0.00000000 </v>
   <v>       0.35000000       0.15000000       0.00000000 </v>
   <v>       0.40000000       0.15000000       0.00000000 </v>
   <v>       0.45000000       0.15000000       0.00000000 </v>
   <v>       0.50000000       0.15000000       0.00000000 </v>
   <v>       0.20000000       0.20000000       0.00000000 </v>
   <v>       0.25000000       0.20000000       0.00000000 </v>
   <v>       0.30000000       0.20000000       0.00000000 </v>
   <v>       0.35000000       0.20000000       0.00000000 </v>
   <v>       0.40000000       0.20000000       0.00000000 </v>
   <v>       0.45000000       0.20000000       0.00000000 </v>
   <v>       0.50000000       0.20000000       0.00000000 </v>
   <v>       0.25000000       0.25000000       0.00000000 </v>
   <v>       0.30000000       0.25000000       0.00000000 </v>
   <v>       0.35000000       0.25000000       0.00000000 </v>
   <v>       0.40000000       0.25000000       0.00000000 </v>
   <v>       0.45000000       0.25000000       0.00000000 </v>
   <v>       0.50000000       0.25000000       0.00000000 </v>
   <v>       0.30000000       0.30000000       0.00000000 </v>
   <v>       0.35000000       0.30000000       0.00000000 </v>
   <v>       0.40000000       0.30000000       0.00000000 </v>
   <v>       0.45000000       0.30000000       0.00000000 </v>
   <v>       0.50000000       0.30000000       0.00000000 </v>
   <v>       0.35000000       0.35000000       0.00000000 </v>
   <v>       0.40000000       0.35000000       0.00000000 </v>
   <v>       0.45000000       0.35000000       0.00000000 </v>
   <v>       0.50000000       0.35000000       0.00000000 </v>
   <v>       0.40000000       0.40000000       0.00000000 </v>
   <v>       0.45000000       0.40000000       0.00000000 </v>
   <v>       0.50000000       0.40000000       0.00000000 </v>
   <v>       0.45000000       0.45000000       0.00000000 </v>
   <v>       0.50000000       0.45000000       0.00000000 </v>
   <v>       0.50000000       0.50000000       0.00000000 </v>
   <v>       0.00000000       0.00000000       0.25000000 </v>
   <v>       0.05000000       0.00000000       0.25000000 </v>
   <v>       0.10000000       0.00000000       0.25000000 </v>
   <v>       0.15000000       0.00000000       0.25000000 </v>
   <v>       0.20000000       0.00000000       0.25000000 </v>
   <v>       0.25000000       0.00000000       0.25000000 </v>
   <v>       0.30000000       0.00000000       0.25000000 </v>
   <v>       0.35000000       0.00000000       0.25000000 </v>
   <v>       0.40000000       0.00000000       0.25000000 </v>
   <v>       0.45000000       0.00000000       0.25000000 </v>
   <v>       0.50000000       0.00000000       0.25000000 </v>
   <v>       0.05000000       0.05000000       0.25000000 </v>
   <v>       0.10000000       0.05000000       0.25000000 </v>
   <v>       0.15000000       0.05000000       0.25000000 </v>
   <v>       0.20000000       0.05000000       0.25000000 </v>
   <v>       0.25000000       0.05000000       0.25000000 </v>
   <v>       0.30000000       0.05000000       0.25000000 </v>
   <v>       0.35000000       0.05000000       0.25000000 </v>
   <v>       0.40000000       0.05000000       0.25000000 </v>
   <v>       0.45000000       0.05000000       0.25000000 </v>
   <v>       0.50000000       0.05000000       0.25000000 </v>
   <v>       0.10000000       0.10000000       0.25000000 </v>
   <v>       0.15000000       0.10000000       0.25000000 </v>
   <v>       0.20000000       0.10000000       0.25000000 </v>
   <v>       0.25000000       0.10000000       0.25000000 </v>
   <v>       0.30000000       0.10000000       0.25000000 </v>
   <v>       0.35000000       0.10000000       0.25000000 </v>
   <v>       0.40000000       0.10000000       0.25000000 </v>
   <v>       0.45000000       0.10000000       0.25000000 </v>
   <v>       0.50000000       0.10000000       0.25000000 </v>
   <v>       0.15000000       0.15000000       0.25000000 </v>
   <v>       0.20000000       0.15000000       0.25000000 </v>
   <v>       0.25000000       0.15000000       0.25000000 </v>
   <v>       0.30000000       0.15000000       0.25000000 </v>
   <v>       0.35000000       0.15000000       0.25000000 </v>
   <v>       0.40000000       0.15000000       0.25000000 </v>
   <v>       0.45000000       0.15000000       0.25000000 </v>
   <v>       0.50000000       0.15000000       0.25000000 </v>
   <v>       0.20000000       0.20000000       0.25000000 </v>
   <v>       0.25000000       0.20000000       0.25000000 </v>
   <v>       0.30000000       0.20000000       0.25000000 </v>
   <v>       0.35000000       0.20000000       0.25000000 </v>
   <v>       0.40000000       0.20000000       0.25000000 </v>
   <v>       0.45000000       0.20000000       0.25000000 </v>
   <v>       0.50000000       0.20000000       0.25000000 </v>
   <v>       0.25000000       0.25000000       0.25000000 </v>
   <v>       0.30000000       0.25000000       0.25000000 </v>
   <v>       0.35000000       0.25000000       0.25000000 </v>
   <v>       0.40000000       0.25000000       0.25000000 </v>
   <v>       0.45000000       0.25000000       0.25000000 </v>
   <v>       0.50000000       0.25000000       0.25000000 </v>
   <v>       0.30000000       0.30000000       0.25000000 </v>
   <v>       0.35000000       0.30000000       0.25000000 </v>
   <v>       0.40000000       0.30000000       0.25000000 </v>
   <v>       0.45000000       0.30000000       0.25000000 </v>
   <v>       0.50000000       0.30000000       0.25000000 </v>
   <v>       0.35000000       0.35000000       0.25000000 </v>
   <v>       0.40000000       0.35000000       0.25000000 </v>
   <v>       0.45000000       0.35000000       0.25000000 </v>
   <v>       0.50000000       0.35000000       0.25000000 </v>
   <v>       0.40000000       0.40000000       0.25000000 </v>
   <v>       0.45000000       0.40000000       0.25000000 </v>
   <v>       0.50000000       0.40000000       0.25000000 </v>
   <v>       0.45000000       0.45000000       0.25000000 </v>
   <v>       0.50000000       0.45000000       0.25000000 </v>
   <v>       0.50000000       0.50000000       0.25000000 </v>
   <v>       0.00000000       0.00000000       0.50000000 </v>
   <v>       0.05000000       0.00000000       0.50000000 </v>
   <v>       0.10000000       0.00000000       0.50000000 </v>
   <v>       0.15000000       0.00000000       0.50000000 </v>
   <v>       0.20000000       0.00000000       0.50000000 </v>
   <v>       0.25000000       0.00000000       0.50000000 </v>
   <v>       0.30000000       0.00000000       0.50000000 </v>
   <v>       0.35000000       0.00000000       0.50000000 </v>
   <v>       0.40000000       0.00000000       0.50000000 </v>
   <v>       0.45000000       0.00000000       0.50000000 </v>
   <v>       0.50000000       0.00000000       0.50000000 </v>
   <v>       0.05000000       0.05000000       0.50000000 </v>
   <v>       0.10000000       0.05000000       0.50000000 </v>
   <v>       0.15000000       0.05000000       0.50000000 </v>
   <v>       0.20000000       0.05000000       0.50000000 </v>
   <v>       0.25000000       0.05000000       0.50000000 </v>
   <v>       0.30000000       0.05000000       0.50000000 </v>
   <v>       0.35000000       0.05000000       0.50000000 </v>
   <v>       0.40000000       0.05000000       0.50000000 </v>
   <v>       0.45000000       0.05000000       0.50000000 </v>
   <v>       0.50000000       0.05000000       0.50000000 </v>
   <v>       0.10000000       0.10000000       0.50000000 </v>
   <v>       0.15000000       0.10000000       0.50000000 </v>
   <v>       0.20000000       0.10000000       0.50000000 </v>
   <v>       0.25000000       0.10000000       0.50000000 </v>
   <v>       0.30000000       0.10000000       0.50000000 </v>
   <v>       0.35000000       0.10000000       0.50000000 </v>
   <v>       0.40000000       0.10000000       0.50000000 </v>
   <v>       0.45000000       0.10000000       0.50000000 </v>
   <v>       0.50000000       0.10000000       0.50000000 </v>
   <v>       0.15000000       0.15000000       0.50000000 </v>
   <v>       0.20000000       0.15000000       0.50000000 </v>
   <v>       0.25000000       0.15000000       0.50000000 </v>
   <v>       0.30000000       0.15000000       0.50000000 </v>
   <v>       0.35000000       0.15000000       0.50000000 </v>
   <v>       0.40000000       0.15000000       0.50000000 </v>
   <v>       0.45000000       0.15000000       0.50000000 </v>
   <v>       0.50000000       0.15000000       0.50000000 </v>
   <v>       0.20000000       0.20000000       0.50000000 </v>
   <v>       0.25000000       0.20000000       0.50000000 </v>
   <v>       0.30000000       0.20000000       0.50000000 </v>
   <v>       0.35000000       0.20000000       0.50000000 </v>
   <v>       0.40000000       0.20000000       0.50000000 </v>
   <v>       0.45000000       0.20000000       0.50000000 </v>
   <v>       0.50000000       0.20000000       0.50000000 </v>
   <v>       0.25000000       0.25000000       0.50000000 </v>
   <v>       0.30000000       0.25000000       0.50000000 </v>
   <v>       0.35000000       0.25000000       0.50000000 </v>
   <v>       0.40000000       0.25000000       0.50000000 </v>
   <v>       0.45000000       0.25000000       0.50000000 </v>
   <v>       0.50000000       0.25000000       0.50000000 </v>
   <v>       0.30000000       0.30000000       0.50000000 </v>
   <v>       0.35000000       0.30000000       0.50000000 </v>
   <v>       0.40000000       0.30000000       0.50000000 </v>
   <v>       0.45000000       0.30000000       0.50000000 </v>
   <v>       0.50000000       0.30000000       0.50000000 </v>
   <v>       0.35000000       0.35000000       0.50000000 </v>
   <v>       0.40000000       0.35000000       0.50000000 </v>
   <v>       0.45000000       0.35000000       0.50000000 </v>
   <v>       0.50000000       0.35000000       0.50000000 </v>
   <v>       0.40000000       0.40000000       0.50000000 </v>
   <v>       0.45000000       0.40000000       0.50000000 </v>
   <v>       0.50000000       0.40000000       0.50000000 </v>
   <v>       0.45000000       0.45000000       0.50000000 </v>
   <v>       0.50000000       0.45000000       0.50000000 </v>
   <v>       0.50000000       0.50000000       0.50000000 </v>
  </varray>
  <varray name="weights" >
   <v>       0.00062500 </v>
   <v>       0.00250000 </v>
   <v>       0.00250000 </v>
   <v>       0.00250000 </v>
   <v>       0.00250000 </v>
   <v>       0.00250000 </v>
   <v>       0.00250000 </v>
   <v>       0.00250000 </v>
   <v>       0.00250000 </v>
   <v>       0.00250000 </v>
   <v>       0.00125000 </v>
   <v>       0.00250000 </v>
   <v>       0.00500000 </v>
   <v>       0.00500000 </v>
   <v>       0.00500000 </v>
   <v>       0.00500000 </v>
   <v>       0.00500000 </v>
   <v>       0.00500000 </v>
   <v>       0.00500000 </v>
   <v>       0.00500000 </v>
   <v>       0.00250000 </v>
   <v>       0.00250000 </v>
   <v>       0.00500000 </v>
   <v>       0.00500000 </v>
   <v>       0.00500000 </v>
   <v>       0.00500000 </v>
   <v>       0.00500000 </v>
   <v>       0.00500000 </v>
   <v>       0.00500000 </v>
   <v>       0.00250000 </v>
   <v>       0.00250000 </v>
   <v>       0.00500000 </v>
   <v>       0.00500000 </v>
   <v>       0.00500000 </v>
   <v>       0.00500000 </v>
   <v>       0.00500000 </v>
   <v>       0.00500000 </v>
   <v>       0.00250000 </v>
   <v>       0.00250000 </v>
   <v>       0.00500000 </v>
   <v>       0.00500000 </v>
   <v>       0.00500000 </v>
   <v>       0.00500000 </v>
   <v>       0.00500000 </v>
   <v>       0.00250000 </v>
   <v>       0.00250000 </v>
   <v>       0.00500000 </v>
   <v>       0.00500000 </v>
   <v>       0.00500000 </v>
   <v>       0.00500000 </v>
   <v>       0.00250000 </v>
   <v>       0.00250000 </v>
   <v>       0.00500000 </v>
   <v>       0.00500000 </v>
   <v>       0.00500000 </v>
   <v>       0.00250000 </v>
   <v>       0.00250000 </v>
   <v>       0.00500000 </v>
   <v>       0.00500000 </v>
   <v>       0.00250000 </v>
   <v>       0.00250000 </v>
   <v>       0.00500000 </v>
   <v>       0.00250000 </v>
   <v>       0.00250000 </v>
   <v>       0.00250000 </v>
   <v>       0.00062500 </v>
   <v>       0.00125000 </v>
   <v>       0.00500000 </v>
   <v>       0.00500000 </v>
   <v>       0.00500000 </v>
   <v>       0.00500000 </v>
   <v>       0.00500000 </v>
   <v>       0.00500000 </v>
   <v>       0.00500000 </v>
   <v>       0.00500000 </v>
   <v>       0.00500000 </v>
   <v>       0.00250000 </v>
   <v>       0.00500000 </v>
   <v>       0.01000000 </v>
   <v>       0.01000000 </v>
   <v>       0.01000000 </v>
   <v>       0.01000000 </v>
   <v>       0.01000000 </v>
   <v>       0.01000000 </v>
   <v>       0.01000000 </v>
   <v>       0.01000000 </v>
   <v>       0.00500000 </v>
   <v>       0.00500000 </v>
   <v>       0.01000000 </v>
   <v>       0.01000000 </v>
   <v>       0.01000000 </v>
   <v>       0.01000000 </v>
   <v>       0.01000000 </v>
   <v>       0.01000000 </v>
   <v>       0.01000000 </v>
   <v>       0.00500000 </v>
   <v>       0.00500000 </v>
   <v>       0.01000000 </v>
   <v>       0.01000000 </v>
   <v>       0.01000000 </v>
   <v>       0.01000000 </v>
   <v>       0.01000000 </v>
   <v>       0.01000000 </v>
   <v>       0.00500000 </v>
   <v>       0.00500000 </v>
   <v>       0.01000000 </v>
   <v>       0.01000000 </v>
   <v>       0.01000000 </v>
   <v>       0.01000000 </v>
   <v>       0.01000000 </v>
   <v>       0.00500000 </v>
   <v>       0.00500000 </v>
   <v>       0.01000000 </v>
   <v>       0.01000000 </v>
   <v>       0.01000000 </v>
   <v>       0.01000000 </v>
   <v>       0.00500000 </v>
   <v>       0.00500000 </v>
   <v>       0.01000000 </v>
   <v>       0.01000000 </v>
   <v>       0.01000000 </v>
   <v>       0.00500000 </v>
   <v>       0.00500000 </v>
   <v>       0.01000000 </v>
   <v>       0.01000000 </v>
   <v>       0.00500000 </v>
   <v>       0.00500000 </v>
   <v>       0.01000000 </v>
   <v>       0.00500000 </v>
   <v>       0.00500000 </v>
   <v>       0.00500000 </v>
   <v>       0.00125000 </v>
   <v>       0.00062500 </v>
   <v>       0.00250000 </v>
   <v>       0.00250000 </v>
   <v>       0.00250000 </v>
   <v>       0.00250000 </v>
   <v>       0.00250000 </v>
   <v>       0.00250000 </v>
   <v>       0.00250000 </v>
   <v>       0.00250000 </v>
   <v>       0.00250000 </v>
   <v>       0.00125000 </v>
   <v>       0.00250000 </v>
   <v>       0.00500000 </v>
   <v>       0.00500000 </v>
   <v>       0.00500000 </v>
   <v>       0.00500000 </v>
   <v>       0.00500000 </v>
   <v>       0.00500000 </v>
   <v>       0.00500000 </v>
   <v>       0.00500000 </v>
   <v>       0.00250000 </v>
   <v>       0.00250000 </v>
   <v>       0.00500000 </v>
   <v>       0.00500000 </v>
   <v>       0.00500000 </v>
   <v>       0.00500000 </v>
   <v>       0.00500000 </v>
   <v>       0.00500000 </v>
   <v>       0.00500000 </v>
   <v>       0.00250000 </v>
   <v>       0.00250000 </v>
   <v>       0.00500000 </v>
   <v>       0.00500000 </v>
   <v>       0.00500000 </v>
   <v>       0.00500000 </v>
   <v>       0.00500000 </v>
   <v>       0.00500000 </v>
   <v>       0.00250000 </v>
   <v>       0.00250000 </v>
   <v>       0.00500000 </v>
   <v>       0.00500000 </v>
   <v>       0.00500000 </v>
   <v>       0.00500000 </v>
   <v>       0.00500000 </v>
   <v>       0.00250000 </v>
   <v>       0.00250000 </v>
   <v>       0.00500000 </v>
   <v>       0.00500000 </v>
   <v>       0.00500000 </v>
   <v>       0.00500000 </v>
   <v>       0.00250000 </v>
   <v>       0.00250000 </v>
   <v>       0.00500000 </v>
   <v>       0.00500000 </v>
   <v>       0.00500000 </v>
   <v>       0.00250000 </v>
   <v>       0.00250000 </v>
   <v>       0.00500000 </v>
   <v>       0.00500000 </v>
   <v>       0.00250000 </v>
   <v>       0.00250000 </v>
   <v>       0.00500000 </v>
   <v>       0.00250000 </v>
   <v>       0.00250000 </v>
   <v>       0.00250000 </v>
   <v>       0.00062500 </v>
  </varray>
  <varray name="tetrahedronlist"  type="int" >
   <v type="int" >        4        1        2       12       67 </v>
   <v type="int" >        4        2       12       67       68 </v>
   <v type="int" >        4       12       67       68       78 </v>
   <v type="int" >        4        2        3       13       68 </v>
   <v type="int" >        4        2       12       13       68 </v>
   <v type="int" >        4       12       13       68       78 </v>
   <v type="int" >        4        3       13       68       69 </v>
   <v type="int" >        4       13       68       69       79 </v>
   <v type="int" >        4       13       68       78       79 </v>
   <v type="int" >        4        3        4       14       69 </v>
   <v type="int" >        4        3       13       14       69 </v>
   <v type="int" >        4       13       14       69       79 </v>
   <v type="int" >        4        4       14       69       70 </v>
   <v type="int" >        4       14       69       70       80 </v>
   <v type="int" >        4       14       69       79       80 </v>
   <v type="int" >        4        4        5       15       70 </v>
   <v type="int" >        4        4       14       15       70 </v>
   <v type="int" >        4       14       15       70       80 </v>
   <v type="int" >        4        5       15       70       71 </v>
   <v type="int" >        4       15       70       71       81 </v>
   <v type="int" >        4       15       70       80       81 </v>
   <v type="int" >        4        5        6       16       71 </v>
   <v type="int" >        4        5       15       16       71 </v>
   <v type="int" >        4       15       16       71       81 </v>
   <v type="int" >        4        6       16       71       72 </v>
   <v type="int" >        4       16       71       72       82 </v>
   <v type="int" >        4       16       71       81       82 </v>
   <v type="int" >        4        6        7       17       72 </v>
   <v type="int" >        4        6       16       17       72 </v>
   <v type="int" >        4       16       17       72       82 </v>
   <v type="int" >        4        7       17       72       73 </v>
   <v type="int" >        4       17       72       73       83 </v>
   <v type="int" >        4       17       72       82       83 </v>
   <v type="int" >        4        7        8       18       73 </v>
   <v type="int" >        4        7       17       18       73 </v>
   <v type="int" >        4       17       18       73       83 </v>
   <v type="int" >        4        8       18       73       74 </v>
   <v type="int" >        4       18       73       74       84 </v>
   <v type="int" >        4       18       73       83       84 </v>
   <v type="int" >        4        8        9       19       74 </v>
   <v type="int" >        4        8       18       19       74 </v>
   <v type="int" >        4       18       19       74       84 </v>
   <v type="int" >        4        9       19       74       75 </v>
   <v type="int" >        4       19       74       75       85 </v>
   <v type="int" >        4       19       74       84       85 </v>
   <v type="int" >        4        9       10       20       75 </v>
   <v type="int" >        4        9       19       20       75 </v>
   <v type="int" >        4       19       20       75       85 </v>
   <v type="int" >        4       10       20       75       76 </v>
   <v type="int" >        4       20       75       76       86 </v>
   <v type="int" >        4       20       75       85       86 </v>
   <v type="int" >        4       10       11       21       76 </v>
   <v type="int" >        4       10       20       21       76 </v>
   <v type="int" >        4       20       21       76       86 </v>
   <v type="int" >        4       11       21       76       77 </v>
   <v type="int" >        4       21       76       77       87 </v>
   <v type="int" >        4       21       76       86       87 </v>
   <v type="int" >        4       10       11       20       77 </v>
   <v type="int" >        4       11       20       21       77 </v>
   <v type="int" >        4       20       21       77       87 </v>
   <v type="int" >        4       10       20       76       77 </v>
   <v type="int" >        4       20       76       77       86 </v>
   <v type="int" >        4       20       77       86       87 </v>
   <v type="int" >        4        9       10       19       76 </v>
   <v type="int" >        4       10       19       20       76 </v>
   <v type="int" >        4       19       20       76       86 </v>
   <v type="int" >        4        9       19       75       76 </v>
   <v type="int" >        4       19       75       76       85 </v>
   <v type="int" >        4       19       76       85       86 </v>
   <v type="int" >        4        8        9       18       75 </v>
   <v type="int" >        4        9       18       19       75 </v>
   <v type="int" >        4       18       19       75       85 </v>
   <v type="int" >        4        8       18       74       75 </v>
   <v type="int" >        4       18       74       75       84 </v>
   <v type="int" >        4       18       75       84       85 </v>
   <v type="int" >        4        7        8       17       74 </v>
   <v type="int" >        4        8       17       18       74 </v>
   <v type="int" >        4       17       18       74       84 </v>
   <v type="int" >        4        7       17       73       74 </v>
   <v type="int" >        4       17       73       74       83 </v>
   <v type="int" >        4       17       74       83       84 </v>
   <v type="int" >        4        6        7       16       73 </v>
   <v type="int" >        4        7       16       17       73 </v>
   <v type="int" >        4       16       17       73       83 </v>
   <v type="int" >        4        6       16       72       73 </v>
   <v type="int" >        4       16       72       73       82 </v>
   <v type="int" >        4       16       73       82       83 </v>
   <v type="int" >        4        5        6       15       72 </v>
   <v type="int" >        4        6       15       16       72 </v>
   <v type="int" >        4       15       16       72       82 </v>
   <v type="int" >        4        5       15       71       72 </v>
   <v type="int" >        4       15       71       72       81 </v>
   <v type="int" >        4       15       72       81       82 </v>
   <v type="int" >        4        4        5       14       71 </v>
   <v type="int" >        4        5       14       15       71 </v>
   <v type="int" >        4       14       15       71       81 </v>
   <v type="int" >        4        4       14       70       71 </v>
   <v type="int" >        4       14       70       71       80 </v>
   <v type="int" >        4       14       71       80       81 </v>
   <v type="int" >        4        3        4       13       70 </v>
   <v type="int" >        4        4       13       14       70 </v>
   <v type="int" >        4       13       14       70       80 </v>
   <v type="int" >        4        3       13       69       70 </v>
   <v type="int" >        4       13       69       70       79 </v>
   <v type="int" >        4       13       70       79       80 </v>
   <v type="int" >        4        2        3       12       69 </v>
   <v type="int" >        4        3       12       13       69 </v>
   <v type="int" >        4       12       13       69       79 </v>
   <v type="int" >        4        2       12       68       69 </v>
   <v type="int" >        4       12       68       69       78 </v>
   <v type="int" >        4       12       69       78       79 </v>
   <v type="int" >        4        1        2        2       68 </v>
   <v type="int" >        4        2        2       12       68 </v>
   <v type="int" >        4        2       12       68       78 </v>
   <v type="int" >        4        1        2       67       68 </v>
   <v type="int" >        4        2       67       68       68 </v>
   <v type="int" >        4        2       68       68       78 </v>
   <v type="int" >        4       12       13       22       78 </v>
   <v type="int" >        4       13       22       78       79 </v>
   <v type="int" >        4       22       78       79       88 </v>
   <v type="int" >        4       13       14       23       79 </v>
   <v type="int" >        4       13       22       23       79 </v>
   <v type="int" >        4       22       23       79       88 </v>
   <v type="int" >        4       14       23       79       80 </v>
   <v type="int" >        4       23       79       80       89 </v>
   <v type="int" >        4       23       79       88       89 </v>
   <v type="int" >        4       14       15       24       80 </v>
   <v type="int" >        4       14       23       24       80 </v>
   <v type="int" >        4       23       24       80       89 </v>
   <v type="int" >        4       15       24       80       81 </v>
   <v type="int" >        4       24       80       81       90 </v>
   <v type="int" >        4       24       80       89       90 </v>
   <v type="int" >        4       15       16       25       81 </v>
   <v type="int" >        4       15       24       25       81 </v>
   <v type="int" >        4       24       25       81       90 </v>
   <v type="int" >        4       16       25       81       82 </v>
   <v type="int" >        4       25       81       82       91 </v>
   <v type="int" >        4       25       81       90       91 </v>
   <v type="int" >        4       16       17       26       82 </v>
   <v type="int" >        4       16       25       26       82 </v>
   <v type="int" >        4       25       26       82       91 </v>
   <v type="int" >        4       17       26       82       83 </v>
   <v type="int" >        4       26       82       83       92 </v>
   <v type="int" >        4       26       82       91       92 </v>
   <v type="int" >        4       17       18       27       83 </v>
   <v type="int" >        4       17       26       27       83 </v>
   <v type="int" >        4       26       27       83       92 </v>
   <v type="int" >        4       18       27       83       84 </v>
   <v type="int" >        4       27       83       84       93 </v>
   <v type="int" >        4       27       83       92       93 </v>
   <v type="int" >        4       18       19       28       84 </v>
   <v type="int" >        4       18       27       28       84 </v>
   <v type="int" >        4       27       28       84       93 </v>
   <v type="int" >        4       19       28       84       85 </v>
   <v type="int" >        4       28       84       85       94 </v>
   <v type="int" >        4       28       84       93       94 </v>
   <v type="int" >        4       19       20       29       85 </v>
   <v type="int" >        4       19       28       29       85 </v>
   <v type="int" >        4       28       29       85       94 </v>
   <v type="int" >        4       20       29       85       86 </v>
   <v type="int" >        4       29       85       86       95 </v>
   <v type="int" >        4       29       85       94       95 </v>
   <v type="int" >        4       20       21       30       86 </v>
   <v type="int" >        4       20       29       30       86 </v>
   <v type="int" >        4       29       30       86       95 </v>
   <v type="int" >        4       21       30       86       87 </v>
   <v type="int" >        4       30       86       87       96 </v>
   <v type="int" >        4       30       86       95       96 </v>
   <v type="int" >        4       20       21       29       87 </v>
   <v type="int" >        4       21       29       30       87 </v>
   <v type="int" >        4       29       30       87       96 </v>
   <v type="int" >        4       20       29       86       87 </v>
   <v type="int" >        4       29       86       87       95 </v>
   <v type="int" >        4       29       87       95       96 </v>
   <v type="int" >        4       19       20       28       86 </v>
   <v type="int" >        4       20       28       29       86 </v>
   <v type="int" >        4       28       29       86       95 </v>
   <v type="int" >        4       19       28       85       86 </v>
   <v type="int" >        4       28       85       86       94 </v>
   <v type="int" >        4       28       86       94       95 </v>
   <v type="int" >        4       18       19       27       85 </v>
   <v type="int" >        4       19       27       28       85 </v>
   <v type="int" >        4       27       28       85       94 </v>
   <v type="int" >        4       18       27       84       85 </v>
   <v type="int" >        4       27       84       85       93 </v>
   <v type="int" >        4       27       85       93       94 </v>
   <v type="int" >        4       17       18       26       84 </v>
   <v type="int" >        4       18       26       27       84 </v>
   <v type="int" >        4       26       27       84       93 </v>
   <v type="int" >        4       17       26       83       84 </v>
   <v type="int" >        4       26       83       84       92 </v>
   <v type="int" >        4       26       84       92       93 </v>
   <v type="int" >        4       16       17       25       83 </v>
   <v type="int" >        4       17       25       26       83 </v>
   <v type="int" >        4       25       26       83       92 </v>
   <v type="int" >        4       16       25       82       83 </v>
   <v type="int" >        4       25       82       83       91 </v>
   <v type="int" >        4       25       83       91       92 </v>
   <v type="int" >        4       15       16       24       82 </v>
   <v type="int" >        4       16       24       25       82 </v>
   <v type="int" >        4       24       25       82       91 </v>
   <v type="int" >        4       15       24       81       82 </v>
   <v type="int" >        4       24       81       82       90 </v>
   <v type="int" >        4       24       82       90       91 </v>
   <v type="int" >        4       14       15       23       81 </v>
   <v type="int" >        4       15       23       24       81 </v>
   <v type="int" >        4       23       24       81       90 </v>
   <v type="int" >        4       14       23       80       81 </v>
   <v type="int" >        4       23       80       81       89 </v>
   <v type="int" >        4       23       81       89       90 </v>
   <v type="int" >        4       13       14       22       80 </v>
   <v type="int" >        4       14       22       23       80 </v>
   <v type="int" >        4       22       23       80       89 </v>
   <v type="int" >        4       13       22       79       80 </v>
   <v type="int" >        4       22       79       80       88 </v>
   <v type="int" >        4       22       80       88       89 </v>
   <v type="int" >        4       12       13       13       79 </v>
   <v type="int" >        4       13       13       22       79 </v>
   <v type="int" >        4       13       22       79       88 </v>
   <v type="int" >        4       12       13       78       79 </v>
   <v type="int" >        4       13       78       79       79 </v>
   <v type="int" >        4       13       79       79       88 </v>
   <v type="int" >        4        2        3       12       78 </v>
   <v type="int" >        4        3       12       13       78 </v>
   <v type="int" >        4        3       13       78       79 </v>
   <v type="int" >        4        2        3       68       78 </v>
   <v type="int" >        4        3       68       69       78 </v>
   <v type="int" >        4        3       69       78       79 </v>
   <v type="int" >        4       22       23       31       88 </v>
   <v type="int" >        4       23       31       88       89 </v>
   <v type="int" >        4       31       88       89       97 </v>
   <v type="int" >        4       23       24       32       89 </v>
   <v type="int" >        4       23       31       32       89 </v>
   <v type="int" >        4       31       32       89       97 </v>
   <v type="int" >        4       24       32       89       90 </v>
   <v type="int" >        4       32       89       90       98 </v>
   <v type="int" >        4       32       89       97       98 </v>
   <v type="int" >        4       24       25       33       90 </v>
   <v type="int" >        4       24       32       33       90 </v>
   <v type="int" >        4       32       33       90       98 </v>
   <v type="int" >        4       25       33       90       91 </v>
   <v type="int" >        4       33       90       91       99 </v>
   <v type="int" >        4       33       90       98       99 </v>
   <v type="int" >        4       25       26       34       91 </v>
   <v type="int" >        4       25       33       34       91 </v>
   <v type="int" >        4       33       34       91       99 </v>
   <v type="int" >        4       26       34       91       92 </v>
   <v type="int" >        4       34       91       92      100 </v>
   <v type="int" >        4       34       91       99      100 </v>
   <v type="int" >        4       26       27       35       92 </v>
   <v type="int" >        4       26       34       35       92 </v>
   <v type="int" >        4       34       35       92      100 </v>
   <v type="int" >        4       27       35       92       93 </v>
   <v type="int" >        4       35       92       93      101 </v>
   <v type="int" >        4       35       92      100      101 </v>
   <v type="int" >        4       27       28       36       93 </v>
   <v type="int" >        4       27       35       36       93 </v>
   <v type="int" >        4       35       36       93      101 </v>
   <v type="int" >        4       28       36       93       94 </v>
   <v type="int" >        4       36       93       94      102 </v>
   <v type="int" >        4       36       93      101      102 </v>
   <v type="int" >        4       28       29       37       94 </v>
   <v type="int" >        4       28       36       37       94 </v>
   <v type="int" >        4       36       37       94      102 </v>
   <v type="int" >        4       29       37       94       95 </v>
   <v type="int" >        4       37       94       95      103 </v>
   <v type="int" >        4       37       94      102      103 </v>
   <v type="int" >        4       29       30       38       95 </v>
   <v type="int" >        4       29       37       38       95 </v>
   <v type="int" >        4       37       38       95      103 </v>
   <v type="int" >        4       30       38       95       96 </v>
   <v type="int" >        4       38       95       96      104 </v>
   <v type="int" >        4       38       95      103      104 </v>
   <v type="int" >        4       29       30       37       96 </v>
   <v type="int" >        4       30       37       38       96 </v>
   <v type="int" >        4       37       38       96      104 </v>
   <v type="int" >        4       29       37       95       96 </v>
   <v type="int" >        4       37       95       96      103 </v>
   <v type="int" >        4       37       96      103      104 </v>
   <v type="int" >        4       28       29       36       95 </v>
   <v type="int" >        4       29       36       37       95 </v>
   <v type="int" >        4       36       37       95      103 </v>
   <v type="int" >        4       28       36       94       95 </v>
   <v type="int" >        4       36       94       95      102 </v>
   <v type="int" >        4       36       95      102      103 </v>
   <v type="int" >        4       27       28       35       94 </v>
   <v type="int" >        4       28       35       36       94 </v>
   <v type="int" >        4       35       36       94      102 </v>
   <v type="int" >        4       27       35       93       94 </v>
   <v type="int" >        4       35       93       94      101 </v>
   <v type="int" >        4       35       94      101      102 </v>
   <v type="int" >        4       26       27       34       93 </v>
   <v type="int" >        4       27       34       35       93 </v>
   <v type="int" >        4       34       35       93      101 </v>
   <v type="int" >        4       26       34       92       93 </v>
   <v type="int" >        4       34       92       93      100 </v>
   <v type="int" >        4       34       93      100      101 </v>
   <v type="int" >        4       25       26       33       92 </v>
   <v type="int" >        4       26       33       34       92 </v>
   <v type="int" >        4       33       34       92      100 </v>
   <v type="int" >        4       25       33       91       92 </v>
   <v type="int" >        4       33       91       92       99 </v>
   <v type="int" >        4       33       92       99      100 </v>
   <v type="int" >        4       24       25       32       91 </v>
   <v type="int" >        4       25       32       33       91 </v>
   <v type="int" >        4       32       33       91       99 </v>
   <v type="int" >        4       24       32       90       91 </v>
   <v type="int" >        4       32       90       91       98 </v>
   <v type="int" >        4       32       91       98       99 </v>
   <v type="int" >        4       23       24       31       90 </v>
   <v type="int" >        4       24       31       32       90 </v>
   <v type="int" >        4       31       32       90       98 </v>
   <v type="int" >        4       23       31       89       90 </v>
   <v type="int" >        4       31       89       90       97 </v>
   <v type="int" >        4       31       90       97       98 </v>
   <v type="int" >        4       22       23       23       89 </v>
   <v type="int" >        4       23       23       31       89 </v>
   <v type="int" >        4       23       31       89       97 </v>
   <v type="int" >        4       22       23       88       89 </v>
   <v type="int" >        4       23       88       89       89 </v>
   <v type="int" >        4       23       89       89       97 </v>
   <v type="int" >        4       13       14       22       88 </v>
   <v type="int" >        4       14       22       23       88 </v>
   <v type="int" >        4       14       23       88       89 </v>
   <v type="int" >        4       13       14       79       88 </v>
   <v type="int" >        4       14       79       80       88 </v>
   <v type="int" >        4       14       80       88       89 </v>
   <v type="int" >        4        3        4       13       79 </v>
   <v type="int" >        4        4       13       14       79 </v>
   <v type="int" >        4        4       14       79       80 </v>
   <v type="int" >        4        3        4       69       79 </v>
   <v type="int" >        4        4       69       70       79 </v>
   <v type="int" >        4        4       70       79       80 </v>
   <v type="int" >        4       31       32       39       97 </v>
   <v type="int" >        4       32       39       97       98 </v>
   <v type="int" >        4       39       97       98      105 </v>
   <v type="int" >        4       32       33       40       98 </v>
   <v type="int" >        4       32       39       40       98 </v>
   <v type="int" >        4       39       40       98      105 </v>
   <v type="int" >        4       33       40       98       99 </v>
   <v type="int" >        4       40       98       99      106 </v>
   <v type="int" >        4       40       98      105      106 </v>
   <v type="int" >        4       33       34       41       99 </v>
   <v type="int" >        4       33       40       41       99 </v>
   <v type="int" >        4       40       41       99      106 </v>
   <v type="int" >        4       34       41       99      100 </v>
   <v type="int" >        4       41       99      100      107 </v>
   <v type="int" >        4       41       99      106      107 </v>
   <v type="int" >        4       34       35       42      100 </v>
   <v type="int" >        4       34       41       42      100 </v>
   <v type="int" >        4       41       42      100      107 </v>
   <v type="int" >        4       35       42      100      101 </v>
   <v type="int" >        4       42      100      101      108 </v>
   <v type="int" >        4       42      100      107      108 </v>
   <v type="int" >        4       35       36       43      101 </v>
   <v type="int" >        4       35       42       43      101 </v>
   <v type="int" >        4       42       43      101      108 </v>
   <v type="int" >        4       36       43      101      102 </v>
   <v type="int" >        4       43      101      102      109 </v>
   <v type="int" >        4       43      101      108      109 </v>
   <v type="int" >        4       36       37       44      102 </v>
   <v type="int" >        4       36       43       44      102 </v>
   <v type="int" >        4       43       44      102      109 </v>
   <v type="int" >        4       37       44      102      103 </v>
   <v type="int" >        4       44      102      103      110 </v>
   <v type="int" >        4       44      102      109      110 </v>
   <v type="int" >        4       37       38       45      103 </v>
   <v type="int" >        4       37       44       45      103 </v>
   <v type="int" >        4       44       45      103      110 </v>
   <v type="int" >        4       38       45      103      104 </v>
   <v type="int" >        4       45      103      104      111 </v>
   <v type="int" >        4       45      103      110      111 </v>
   <v type="int" >        4       37       38       44      104 </v>
   <v type="int" >        4       38       44       45      104 </v>
   <v type="int" >        4       44       45      104      111 </v>
   <v type="int" >        4       37       44      103      104 </v>
   <v type="int" >        4       44      103      104      110 </v>
   <v type="int" >        4       44      104      110      111 </v>
   <v type="int" >        4       36       37       43      103 </v>
   <v type="int" >        4       37       43       44      103 </v>
   <v type="int" >        4       43       44      103      110 </v>
   <v type="int" >        4       36       43      102      103 </v>
   <v type="int" >        4       43      102      103      109 </v>
   <v type="int" >        4       43      103      109      110 </v>
   <v type="int" >        4       35       36       42      102 </v>
   <v type="int" >        4       36       42       43      102 </v>
   <v type="int" >        4       42       43      102      109 </v>
   <v type="int" >        4       35       42      101      102 </v>
   <v type="int" >        4       42      101      102      108 </v>
   <v type="int" >        4       42      102      108      109 </v>
   <v type="int" >        4       34       35       41      101 </v>
   <v type="int" >        4       35       41       42      101 </v>
   <v type="int" >        4       41       42      101      108 </v>
   <v type="int" >        4       34       41      100      101 </v>
   <v type="int" >        4       41      100      101      107 </v>
   <v type="int" >        4       41      101      107      108 </v>
   <v type="int" >        4       33       34       40      100 </v>
   <v type="int" >        4       34       40       41      100 </v>
   <v type="int" >        4       40       41      100      107 </v>
   <v type="int" >        4       33       40       99      100 </v>
   <v type="int" >        4       40       99      100      106 </v>
   <v type="int" >        4       40      100      106      107 </v>
   <v type="int" >        4       32       33       39       99 </v>
   <v type="int" >        4       33       39       40       99 </v>
   <v type="int" >        4       39       40       99      106 </v>
   <v type="int" >        4       32       39       98       99 </v>
   <v type="int" >        4       39       98       99      105 </v>
   <v type="int" >        4       39       99      105      106 </v>
   <v type="int" >        4       31       32       32       98 </v>
   <v type="int" >        4       32       32       39       98 </v>
   <v type="int" >        4       32       39       98      105 </v>
   <v type="int" >        4       31       32       97       98 </v>
   <v type="int" >        4       32       97       98       98 </v>
   <v type="int" >        4       32       98       98      105 </v>
   <v type="int" >        4       23       24       31       97 </v>
   <v type="int" >        4       24       31       32       97 </v>
   <v type="int" >        4       24       32       97       98 </v>
   <v type="int" >        4       23       24       89       97 </v>
   <v type="int" >        4       24       89       90       97 </v>
   <v type="int" >        4       24       90       97       98 </v>
   <v type="int" >        4       14       15       23       89 </v>
   <v type="int" >        4       15       23       24       89 </v>
   <v type="int" >        4       15       24       89       90 </v>
   <v type="int" >        4       14       15       80       89 </v>
   <v type="int" >        4       15       80       81       89 </v>
   <v type="int" >        4       15       81       89       90 </v>
   <v type="int" >        4        4        5       14       80 </v>
   <v type="int" >        4        5       14       15       80 </v>
   <v type="int" >        4        5       15       80       81 </v>
   <v type="int" >        4        4        5       70       80 </v>
   <v type="int" >        4        5       70       71       80 </v>
   <v type="int" >        4        5       71       80       81 </v>
   <v type="int" >        4       39       40       46      105 </v>
   <v type="int" >        4       40       46      105      106 </v>
   <v type="int" >        4       46      105      106      112 </v>
   <v type="int" >        4       40       41       47      106 </v>
   <v type="int" >        4       40       46       47      106 </v>
   <v type="int" >        4       46       47      106      112 </v>
   <v type="int" >        4       41       47      106      107 </v>
   <v type="int" >        4       47      106      107      113 </v>
   <v type="int" >        4       47      106      112      113 </v>
   <v type="int" >        4       41       42       48      107 </v>
   <v type="int" >        4       41       47       48      107 </v>
   <v type="int" >        4       47       48      107      113 </v>
   <v type="int" >        4       42       48      107      108 </v>
   <v type="int" >        4       48      107      108      114 </v>
   <v type="int" >        4       48      107      113      114 </v>
   <v type="int" >        4       42       43       49      108 </v>
   <v type="int" >        4       42       48       49      108 </v>
   <v type="int" >        4       48       49      108      114 </v>
   <v type="int" >        4       43       49      108      109 </v>
   <v type="int" >        4       49      108      109      115 </v>
   <v type="int" >        4       49      108      114      115 </v>
   <v type="int" >        4       43       44       50      109 </v>
   <v type="int" >        4       43       49       50      109 </v>
   <v type="int" >        4       49       50      109      115 </v>
   <v type="int" >        4       44       50      109      110 </v>
   <v type="int" >        4       50      109      110      116 </v>
   <v type="int" >        4       50      109      115      116 </v>
   <v type="int" >        4       44       45       51      110 </v>
   <v type="int" >        4       44       50       51      110 </v>
   <v type="int" >        4       50       51      110      116 </v>
   <v type="int" >        4       45       51      110      111 </v>
   <v type="int" >        4       51      110      111      117 </v>
   <v type="int" >        4       51      110      116      117 </v>
   <v type="int" >        4       44       45       50      111 </v>
   <v type="int" >        4       45       50       51      111 </v>
   <v type="int" >        4       50       51      111      117 </v>
   <v type="int" >        4       44       50      110      111 </v>
   <v type="int" >        4       50      110      111      116 </v>
   <v type="int" >        4       50      111      116      117 </v>
   <v type="int" >        4       43       44       49      110 </v>
   <v type="int" >        4       44       49       50      110 </v>
   <v type="int" >        4       49       50      110      116 </v>
   <v type="int" >        4       43       49      109      110 </v>
   <v type="int" >        4       49      109      110      115 </v>
   <v type="int" >        4       49      110      115      116 </v>
   <v type="int" >        4       42       43       48      109 </v>
   <v type="int" >        4       43       48       49      109 </v>
   <v type="int" >        4       48       49      109      115 </v>
   <v type="int" >        4       42       48      108      109 </v>
   <v type="int" >        4       48      108      109      114 </v>
   <v type="int" >        4       48      109      114      115 </v>
   <v type="int" >        4       41       42       47      108 </v>
   <v type="int" >        4       42       47       48      108 </v>
   <v type="int" >        4       47       48      108      114 </v>
   <v type="int" >        4       41       47      107      108 </v>
   <v type="int" >        4       47      107      108      113 </v>
   <v type="int" >        4       47      108      113      114 </v>
   <v type="int" >        4       40       41       46      107 </v>
   <v type="int" >        4       41       46       47      107 </v>
   <v type="int" >        4       46       47      107      113 </v>
   <v type="int" >        4       40       46      106      107 </v>
   <v type="int" >        4       46      106      107      112 </v>
   <v type="int" >        4       46      107      112      113 </v>
   <v type="int" >        4       39       40       40      106 </v>
   <v type="int" >        4       40       40       46      106 </v>
   <v type="int" >        4       40       46      106      112 </v>
   <v type="int" >        4       39       40      105      106 </v>
   <v type="int" >        4       40      105      106      106 </v>
   <v type="int" >        4       40      106      106      112 </v>
   <v type="int" >        4       32       33       39      105 </v>
   <v type="int" >        4       33       39       40      105 </v>
   <v type="int" >        4       33       40      105      106 </v>
   <v type="int" >        4       32       33       98      105 </v>
   <v type="int" >        4       33       98       99      105 </v>
   <v type="int" >        4       33       99      105      106 </v>
   <v type="int" >        4       24       25       32       98 </v>
   <v type="int" >        4       25       32       33       98 </v>
   <v type="int" >        4       25       33       98       99 </v>
   <v type="int" >        4       24       25       90       98 </v>
   <v type="int" >        4       25       90       91       98 </v>
   <v type="int" >        4       25       91       98       99 </v>
   <v type="int" >        4       15       16       24       90 </v>
   <v type="int" >        4       16       24       25       90 </v>
   <v type="int" >        4       16       25       90       91 </v>
   <v type="int" >        4       15       16       81       90 </v>
   <v type="int" >        4       16       81       82       90 </v>
   <v type="int" >        4       16       82       90       91 </v>
   <v type="int" >        4        5        6       15       81 </v>
   <v type="int" >        4        6       15       16       81 </v>
   <v type="int" >        4        6       16       81       82 </v>
   <v type="int" >        4        5        6       71       81 </v>
   <v type="int" >        4        6       71       72       81 </v>
   <v type="int" >        4        6       72       81       82 </v>
   <v type="int" >        4       46       47       52      112 </v>
   <v type="int" >        4       47       52      112      113 </v>
   <v type="int" >        4       52      112      113      118 </v>
   <v type="int" >        4       47       48       53      113 </v>
   <v type="int" >        4       47       52       53      113 </v>
   <v type="int" >        4       52       53      113      118 </v>
   <v type="int" >        4       48       53      113      114 </v>
   <v type="int" >        4       53      113      114      119 </v>
   <v type="int" >        4       53      113      118      119 </v>
   <v type="int" >        4       48       49       54      114 </v>
   <v type="int" >        4       48       53       54      114 </v>
   <v type="int" >        4       53       54      114      119 </v>
   <v type="int" >        4       49       54      114      115 </v>
   <v type="int" >        4       54      114      115      120 </v>
   <v type="int" >        4       54      114      119      120 </v>
   <v type="int" >        4       49       50       55      115 </v>
   <v type="int" >        4       49       54       55      115 </v>
   <v type="int" >        4       54       55      115      120 </v>
   <v type="int" >        4       50       55      115      116 </v>
   <v type="int" >        4       55      115      116      121 </v>
   <v type="int" >        4       55      115      120      121 </v>
   <v type="int" >        4       50       51       56      116 </v>
   <v type="int" >        4       50       55       56      116 </v>
   <v type="int" >        4       55       56      116      121 </v>
   <v type="int" >        4       51       56      116      117 </v>
   <v type="int" >        4       56      116      117      122 </v>
   <v type="int" >        4       56      116      121      122 </v>
   <v type="int" >        4       50       51       55      117 </v>
   <v type="int" >        4       51       55       56      117 </v>
   <v type="int" >        4       55       56      117      122 </v>
   <v type="int" >        4       50       55      116      117 </v>
   <v type="int" >        4       55      116      117      121 </v>
   <v type="int" >        4       55      117      121      122 </v>
   <v type="int" >        4       49       50       54      116 </v>
   <v type="int" >        4       50       54       55      116 </v>
   <v type="int" >        4       54       55      116      121 </v>
   <v type="int" >        4       49       54      115      116 </v>
   <v type="int" >        4       54      115      116      120 </v>
   <v type="int" >        4       54      116      120      121 </v>
   <v type="int" >        4       48       49       53      115 </v>
   <v type="int" >        4       49       53       54      115 </v>
   <v type="int" >        4       53       54      115      120 </v>
   <v type="int" >        4       48       53      114      115 </v>
   <v type="int" >        4       53      114      115      119 </v>
   <v type="int" >        4       53      115      119      120 </v>
   <v type="int" >        4       47       48       52      114 </v>
   <v type="int" >        4       48       52       53      114 </v>
   <v type="int" >        4       52       53      114      119 </v>
   <v type="int" >        4       47       52      113      114 </v>
   <v type="int" >        4       52      113      114      118 </v>
   <v type="int" >        4       52      114      118      119 </v>
   <v type="int" >        4       46       47       47      113 </v>
   <v type="int" >        4       47       47       52      113 </v>
   <v type="int" >        4       47       52      113      118 </v>
   <v type="int" >        4       46       47      112      113 </v>
   <v type="int" >        4       47      112      113      113 </v>
   <v type="int" >        4       47      113      113      118 </v>
   <v type="int" >        4       40       41       46      112 </v>
   <v type="int" >        4       41       46       47      112 </v>
   <v type="int" >        4       41       47      112      113 </v>
   <v type="int" >        4       40       41      106      112 </v>
   <v type="int" >        4       41      106      107      112 </v>
   <v type="int" >        4       41      107      112      113 </v>
   <v type="int" >        4       33       34       40      106 </v>
   <v type="int" >        4       34       40       41      106 </v>
   <v type="int" >        4       34       41      106      107 </v>
   <v type="int" >        4       33       34       99      106 </v>
   <v type="int" >        4       34       99      100      106 </v>
   <v type="int" >        4       34      100      106      107 </v>
   <v type="int" >        4       25       26       33       99 </v>
   <v type="int" >        4       26       33       34       99 </v>
   <v type="int" >        4       26       34       99      100 </v>
   <v type="int" >        4       25       26       91       99 </v>
   <v type="int" >        4       26       91       92       99 </v>
   <v type="int" >        4       26       92       99      100 </v>
   <v type="int" >        4       16       17       25       91 </v>
   <v type="int" >        4       17       25       26       91 </v>
   <v type="int" >        4       17       26       91       92 </v>
   <v type="int" >        4       16       17       82       91 </v>
   <v type="int" >        4       17       82       83       91 </v>
   <v type="int" >        4       17       83       91       92 </v>
   <v type="int" >        4        6        7       16       82 </v>
   <v type="int" >        4        7       16       17       82 </v>
   <v type="int" >        4        7       17       82       83 </v>
   <v type="int" >        4        6        7       72       82 </v>
   <v type="int" >        4        7       72       73       82 </v>
   <v type="int" >        4        7       73       82       83 </v>
   <v type="int" >        4       52       53       57      118 </v>
   <v type="int" >        4       53       57      118      119 </v>
   <v type="int" >        4       57      118      119      123 </v>
   <v type="int" >        4       53       54       58      119 </v>
   <v type="int" >        4       53       57       58      119 </v>
   <v type="int" >        4       57       58      119      123 </v>
   <v type="int" >        4       54       58      119      120 </v>
   <v type="int" >        4       58      119      120      124 </v>
   <v type="int" >        4       58      119      123      124 </v>
   <v type="int" >        4       54       55       59      120 </v>
   <v type="int" >        4       54       58       59      120 </v>
   <v type="int" >        4       58       59      120      124 </v>
   <v type="int" >        4       55       59      120      121 </v>
   <v type="int" >        4       59      120      121      125 </v>
   <v type="int" >        4       59      120      124      125 </v>
   <v type="int" >        4       55       56       60      121 </v>
   <v type="int" >        4       55       59       60      121 </v>
   <v type="int" >        4       59       60      121      125 </v>
   <v type="int" >        4       56       60      121      122 </v>
   <v type="int" >        4       60      121      122      126 </v>
   <v type="int" >        4       60      121      125      126 </v>
   <v type="int" >        4       55       56       59      122 </v>
   <v type="int" >        4       56       59       60      122 </v>
   <v type="int" >        4       59       60      122      126 </v>
   <v type="int" >        4       55       59      121      122 </v>
   <v type="int" >        4       59      121      122      125 </v>
   <v type="int" >        4       59      122      125      126 </v>
   <v type="int" >        4       54       55       58      121 </v>
   <v type="int" >        4       55       58       59      121 </v>
   <v type="int" >        4       58       59      121      125 </v>
   <v type="int" >        4       54       58      120      121 </v>
   <v type="int" >        4       58      120      121      124 </v>
   <v type="int" >        4       58      121      124      125 </v>
   <v type="int" >        4       53       54       57      120 </v>
   <v type="int" >        4       54       57       58      120 </v>
   <v type="int" >        4       57       58      120      124 </v>
   <v type="int" >        4       53       57      119      120 </v>
   <v type="int" >        4       57      119      120      123 </v>
   <v type="int" >        4       57      120      123      124 </v>
   <v type="int" >        4       52       53       53      119 </v>
   <v type="int" >        4       53       53       57      119 </v>
   <v type="int" >        4       53       57      119      123 </v>
   <v type="int" >        4       52       53      118      119 </v>
   <v type="int" >        4       53      118      119      119 </v>
   <v type="int" >        4       53      119      119      123 </v>
   <v type="int" >        4       47       48       52      118 </v>
   <v type="int" >        4       48       52       53      118 </v>
   <v type="int" >        4       48       53      118      119 </v>
   <v type="int" >        4       47       48      113      118 </v>
   <v type="int" >        4       48      113      114      118 </v>
   <v type="int" >        4       48      114      118      119 </v>
   <v type="int" >        4       41       42       47      113 </v>
   <v type="int" >        4       42       47       48      113 </v>
   <v type="int" >        4       42       48      113      114 </v>
   <v type="int" >        4       41       42      107      113 </v>
   <v type="int" >        4       42      107      108      113 </v>
   <v type="int" >        4       42      108      113      114 </v>
   <v type="int" >        4       34       35       41      107 </v>
   <v type="int" >        4       35       41       42      107 </v>
   <v type="int" >        4       35       42      107      108 </v>
   <v type="int" >        4       34       35      100      107 </v>
   <v type="int" >        4       35      100      101      107 </v>
   <v type="int" >        4       35      101      107      108 </v>
   <v type="int" >        4       26       27       34      100 </v>
   <v type="int" >        4       27       34       35      100 </v>
   <v type="int" >        4       27       35      100      101 </v>
   <v type="int" >        4       26       27       92      100 </v>
   <v type="int" >        4       27       92       93      100 </v>
   <v type="int" >        4       27       93      100      101 </v>
   <v type="int" >        4       17       18       26       92 </v>
   <v type="int" >        4       18       26       27       92 </v>
   <v type="int" >        4       18       27       92       93 </v>
   <v type="int" >        4       17       18       83       92 </v>
   <v type="int" >        4       18       83       84       92 </v>
   <v type="int" >        4       18       84       92       93 </v>
   <v type="int" >        4        7        8       17       83 </v>
   <v type="int" >        4        8       17       18       83 </v>
   <v type="int" >        4        8       18       83       84 </v>
   <v type="int" >        4        7        8       73       83 </v>
   <v type="int" >        4        8       73       74       83 </v>
   <v type="int" >        4        8       74       83       84 </v>
   <v type="int" >        4       57       58       61      123 </v>
   <v type="int" >        4       58       61      123      124 </v>
   <v type="int" >        4       61      123      124      127 </v>
   <v type="int" >        4       58       59       62      124 </v>
   <v type="int" >        4       58       61       62      124 </v>
   <v type="int" >        4       61       62      124      127 </v>
   <v type="int" >        4       59       62      124      125 </v>
   <v type="int" >        4       62      124      125      128 </v>
   <v type="int" >        4       62      124      127      128 </v>
   <v type="int" >        4       59       60       63      125 </v>
   <v type="int" >        4       59       62       63      125 </v>
   <v type="int" >        4       62       63      125      128 </v>
   <v type="int" >        4       60       63      125      126 </v>
   <v type="int" >        4       63      125      126      129 </v>
   <v type="int" >        4       63      125      128      129 </v>
   <v type="int" >        4       59       60       62      126 </v>
   <v type="int" >        4       60       62       63      126 </v>
   <v type="int" >        4       62       63      126      129 </v>
   <v type="int" >        4       59       62      125      126 </v>
   <v type="int" >        4       62      125      126      128 </v>
   <v type="int" >        4       62      126      128      129 </v>
   <v type="int" >        4       58       59       61      125 </v>
   <v type="int" >        4       59       61       62      125 </v>
   <v type="int" >        4       61       62      125      128 </v>
   <v type="int" >        4       58       61      124      125 </v>
   <v type="int" >        4       61      124      125      127 </v>
   <v type="int" >        4       61      125      127      128 </v>
   <v type="int" >        4       57       58       58      124 </v>
   <v type="int" >        4       58       58       61      124 </v>
   <v type="int" >        4       58       61      124      127 </v>
   <v type="int" >        4       57       58      123      124 </v>
   <v type="int" >        4       58      123      124      124 </v>
   <v type="int" >        4       58      124      124      127 </v>
   <v type="int" >        4       53       54       57      123 </v>
   <v type="int" >        4       54       57       58      123 </v>
   <v type="int" >        4       54       58      123      124 </v>
   <v type="int" >        4       53       54      119      123 </v>
   <v type="int" >        4       54      119      120      123 </v>
   <v type="int" >        4       54      120      123      124 </v>
   <v type="int" >        4       48       49       53      119 </v>
   <v type="int" >        4       49       53       54      119 </v>
   <v type="int" >        4       49       54      119      120 </v>
   <v type="int" >        4       48       49      114      119 </v>
   <v type="int" >        4       49      114      115      119 </v>
   <v type="int" >        4       49      115      119      120 </v>
   <v type="int" >        4       42       43       48      114 </v>
   <v type="int" >        4       43       48       49      114 </v>
   <v type="int" >        4       43       49      114      115 </v>
   <v type="int" >        4       42       43      108      114 </v>
   <v type="int" >        4       43      108      109      114 </v>
   <v type="int" >        4       43      109      114      115 </v>
   <v type="int" >        4       35       36       42      108 </v>
   <v type="int" >        4       36       42       43      108 </v>
   <v type="int" >        4       36       43      108      109 </v>
   <v type="int" >        4       35       36      101      108 </v>
   <v type="int" >        4       36      101      102      108 </v>
   <v type="int" >        4       36      102      108      109 </v>
   <v type="int" >        4       27       28       35      101 </v>
   <v type="int" >        4       28       35       36      101 </v>
   <v type="int" >        4       28       36      101      102 </v>
   <v type="int" >        4       27       28       93      101 </v>
   <v type="int" >        4       28       93       94      101 </v>
   <v type="int" >        4       28       94      101      102 </v>
   <v type="int" >        4       18       19       27       93 </v>
   <v type="int" >        4       19       27       28       93 </v>
   <v type="int" >        4       19       28       93       94 </v>
   <v type="int" >        4       18       19       84       93 </v>
   <v type="int" >        4       19       84       85       93 </v>
   <v type="int" >        4       19       85       93       94 </v>
   <v type="int" >        4        8        9       18       84 </v>
   <v type="int" >        4        9       18       19       84 </v>
   <v type="int" >        4        9       19       84       85 </v>
   <v type="int" >        4        8        9       74       84 </v>
   <v type="int" >        4        9       74       75       84 </v>
   <v type="int" >        4        9       75       84       85 </v>
   <v type="int" >        4       61       62       64      127 </v>
   <v type="int" >        4       62       64      127      128 </v>
   <v type="int" >        4       64      127      128      130 </v>
   <v type="int" >        4       62       63       65      128 </v>
   <v type="int" >        4       62       64       65      128 </v>
   <v type="int" >        4       64       65      128      130 </v>
   <v type="int" >        4       63       65      128      129 </v>
   <v type="int" >        4       65      128      129      131 </v>
   <v type="int" >        4       65      128      130      131 </v>
   <v type="int" >        4       62       63       64      129 </v>
   <v type="int" >        4       63       64       65      129 </v>
   <v type="int" >        4       64       65      129      131 </v>
   <v type="int" >        4       62       64      128      129 </v>
   <v type="int" >        4       64      128      129      130 </v>
   <v type="int" >        4       64      129      130      131 </v>
   <v type="int" >        4       61       62       62      128 </v>
   <v type="int" >        4       62       62       64      128 </v>
   <v type="int" >        4       62       64      128      130 </v>
   <v type="int" >        4       61       62      127      128 </v>
   <v type="int" >        4       62      127      128      128 </v>
   <v type="int" >        4       62      128      128      130 </v>
   <v type="int" >        4       58       59       61      127 </v>
   <v type="int" >        4       59       61       62      127 </v>
   <v type="int" >        4       59       62      127      128 </v>
   <v type="int" >        4       58       59      124      127 </v>
   <v type="int" >        4       59      124      125      127 </v>
   <v type="int" >        4       59      125      127      128 </v>
   <v type="int" >        4       54       55       58      124 </v>
   <v type="int" >        4       55       58       59      124 </v>
   <v type="int" >        4       55       59      124      125 </v>
   <v type="int" >        4       54       55      120      124 </v>
   <v type="int" >        4       55      120      121      124 </v>
   <v type="int" >        4       55      121      124      125 </v>
   <v type="int" >        4       49       50       54      120 </v>
   <v type="int" >        4       50       54       55      120 </v>
   <v type="int" >        4       50       55      120      121 </v>
   <v type="int" >        4       49       50      115      120 </v>
   <v type="int" >        4       50      115      116      120 </v>
   <v type="int" >        4       50      116      120      121 </v>
   <v type="int" >        4       43       44       49      115 </v>
   <v type="int" >        4       44       49       50      115 </v>
   <v type="int" >        4       44       50      115      116 </v>
   <v type="int" >        4       43       44      109      115 </v>
   <v type="int" >        4       44      109      110      115 </v>
   <v type="int" >        4       44      110      115      116 </v>
   <v type="int" >        4       36       37       43      109 </v>
   <v type="int" >        4       37       43       44      109 </v>
   <v type="int" >        4       37       44      109      110 </v>
   <v type="int" >        4       36       37      102      109 </v>
   <v type="int" >        4       37      102      103      109 </v>
   <v type="int" >        4       37      103      109      110 </v>
   <v type="int" >        4       28       29       36      102 </v>
   <v type="int" >        4       29       36       37      102 </v>
   <v type="int" >        4       29       37      102      103 </v>
   <v type="int" >        4       28       29       94      102 </v>
   <v type="int" >        4       29       94       95      102 </v>
   <v type="int" >        4       29       95      102      103 </v>
   <v type="int" >        4       19       20       28       94 </v>
   <v type="int" >        4       20       28       29       94 </v>
   <v type="int" >        4       20       29       94       95 </v>
   <v type="int" >        4       19       20       85       94 </v>
   <v type="int" >        4       20       85       86       94 </v>
   <v type="int" >        4       20       86       94       95 </v>
   <v type="int" >        4        9       10       19       85 </v>
   <v type="int" >        4       10       19       20       85 </v>
   <v type="int" >        4       10       20       85       86 </v>
   <v type="int" >        4        9       10       75       85 </v>
   <v type="int" >        4       10       75       76       85 </v>
   <v type="int" >        4       10       76       85       86 </v>
   <v type="int" >        4       64       65       66      130 </v>
   <v type="int" >        4       65       66      130      131 </v>
   <v type="int" >        4       66      130      131      132 </v>
   <v type="int" >        4       64       65       65      131 </v>
   <v type="int" >        4       65       65       66      131 </v>
   <v type="int" >        4       65       66      131      132 </v>
   <v type="int" >        4       64       65      130      131 </v>
   <v type="int" >        4       65      130      131      131 </v>
   <v type="int" >        4       65      131      131      132 </v>
   <v type="int" >        4       62       63       64      130 </v>
   <v type="int" >        4       63       64       65      130 </v>
   <v type="int" >        4       63       65      130      131 </v>
   <v type="int" >        4       62       63      128      130 </v>
   <v type="int" >        4       63      128      129      130 </v>
   <v type="int" >        4       63      129      130      131 </v>
   <v type="int" >        4       59       60       62      128 </v>
   <v type="int" >        4       60       62       63      128 </v>
   <v type="int" >        4       60       63      128      129 </v>
   <v type="int" >        4       59       60      125      128 </v>
   <v type="int" >        4       60      125      126      128 </v>
   <v type="int" >        4       60      126      128      129 </v>
   <v type="int" >        4       55       56       59      125 </v>
[...]
       <r>    2.2571    0.0000 </r>
       <r>    2.4585    0.0000 </r>
      </set>
      <set comment="kpoint 194">
       <r>   -4.7009    1.0000 </r>
       <r>   -4.4885    1.0000 </r>
       <r>   -3.2401    1.0000 </r>
       <r>   -2.8634    1.0000 </r>
       <r>   -2.5950    1.0000 </r>
       <r>   -2.5603    1.0000 </r>
       <r>   -2.3579    1.0000 </r>
       <r>   -2.1674    1.0000 </r>
       <r>   -1.8257    1.0000 </r>
       <r>   -1.5413    1.0000 </r>
       <r>   -1.4457    1.0000 </r>
       <r>   -0.6406    1.0000 </r>
       <r>   -0.4613    1.0000 </r>
       <r>    1.7424    0.0000 </r>
       <r>    1.8905    0.0000 </r>
       <r>    2.0920    0.0000 </r>
       <r>    2.2879    0.0000 </r>
       <r>    2.4062    0.0000 </r>
       <r>    2.5245    0.0000 </r>
      </set>
      <set comment="kpoint 195">
       <r>   -4.6941    1.0000 </r>
       <r>   -4.5405    1.0000 </r>
       <r>   -3.2372    1.0000 </r>
       <r>   -2.9186    1.0000 </r>
       <r>   -2.5499    1.0000 </r>
       <r>   -2.4950    1.0000 </r>
       <r>   -2.4211    1.0000 </r>
       <r>   -2.2530    1.0000 </r>
       <r>   -1.8201    1.0000 </r>
       <r>   -1.4774    1.0000 </r>
       <r>   -1.4740    1.0000 </r>
       <r>   -0.5015    1.0000 </r>
       <r>   -0.4137    1.0000 </r>
       <r>    1.7977    0.0000 </r>
       <r>    1.9379    0.0000 </r>
       <r>    2.2865    0.0000 </r>
       <r>    2.3894    0.0000 </r>
       <r>    2.5392    0.0000 </r>
       <r>    2.5498    0.0000 </r>
      </set>
      <set comment="kpoint 196">
       <r>   -4.7557    1.0000 </r>
       <r>   -4.5870    1.0000 </r>
       <r>   -3.2320    1.0000 </r>
       <r>   -2.7875    1.0000 </r>
       <r>   -2.7383    1.0000 </r>
       <r>   -2.4552    1.0000 </r>
       <r>   -2.3731    1.0000 </r>
       <r>   -2.3317    1.0000 </r>
       <r>   -1.6398    1.0000 </r>
       <r>   -1.6117    1.0000 </r>
       <r>   -1.5596    1.0000 </r>
       <r>   -0.3659    1.0000 </r>
       <r>   -0.2649    1.0000 </r>
       <r>    2.2360    0.0000 </r>
       <r>    2.2868    0.0000 </r>
       <r>    2.3563    0.0000 </r>
       <r>    2.5286    0.0000 </r>
       <r>    2.5796    0.0000 </r>
       <r>    2.7395    0.0000 </r>
      </set>
      <set comment="kpoint 197">
       <r>   -4.7741    1.0000 </r>
       <r>   -4.6214    1.0000 </r>
       <r>   -3.2224    1.0000 </r>
       <r>   -2.8276    1.0000 </r>
       <r>   -2.7082    1.0000 </r>
       <r>   -2.4709    1.0000 </r>
       <r>   -2.3745    1.0000 </r>
       <r>   -2.3713    1.0000 </r>
       <r>   -1.6752    1.0000 </r>
       <r>   -1.6152    1.0000 </r>
       <r>   -1.5163    1.0000 </r>
       <r>   -0.2322    1.0000 </r>
       <r>   -0.2132    1.0000 </r>
       <r>    2.3282    0.0000 </r>
       <r>    2.3917    0.0000 </r>
       <r>    2.4934    0.0000 </r>
       <r>    2.5999    0.0000 </r>
       <r>    2.7525    0.0000 </r>
       <r>    2.9498    0.0000 </r>
      </set>
      <set comment="kpoint 198">
       <r>   -4.8015    1.0000 </r>
       <r>   -4.6492    1.0000 </r>
       <r>   -3.2095    1.0000 </r>
       <r>   -2.7705    1.0000 </r>
       <r>   -2.7705    1.0000 </r>
       <r>   -2.5779    1.0000 </r>
       <r>   -2.3396    1.0000 </r>
       <r>   -2.3396    1.0000 </r>
       <r>   -1.7633    1.0000 </r>
       <r>   -1.5322    1.0000 </r>
       <r>   -1.5322    1.0000 </r>
       <r>   -0.1295    1.0000 </r>
       <r>   -0.1295    1.0000 </r>
       <r>    2.4323    0.0000 </r>
       <r>    2.5751    0.0000 </r>
       <r>    2.5751    0.0000 </r>
       <r>    2.6145    0.0000 </r>
       <r>    3.2155    0.0000 </r>
       <r>    3.2156    0.0000 </r>
      </set>
     </set>
    </set>
   </array>
  </eigenvalues>
  <separator name="orbital magnetization" >
   <v name="MAGDIPOLOUT">      0.00000000      0.00000000      0.00000000</v>
  </separator>
  <dos>
   <i name="efermi">      0.69396107 </i>
   <total>
    <array>
     <dimension dim="1">gridpoints</dimension>
     <dimension dim="2">spin</dimension>
     <field>energy</field>
     <field>total</field>
     <field>integrated</field>
     <set>
      <set comment="spin 1">
       <r>   -10.0340     0.0000     0.0000 </r>
       <r>    -9.9832     0.0000     0.0000 </r>
       <r>    -9.9323     0.0000     0.0000 </r>
       <r>    -9.8815     0.0000     0.0000 </r>
       <r>    -9.8307     0.0000     0.0000 </r>
       <r>    -9.7798     0.0000     0.0000 </r>
       <r>    -9.7290     0.0000     0.0000 </r>
       <r>    -9.6782     0.0000     0.0000 </r>
       <r>    -9.6273     0.0000     0.0000 </r>
       <r>    -9.5765     0.0000     0.0000 </r>
       <r>    -9.5257     0.0000     0.0000 </r>
       <r>    -9.4748     0.0000     0.0000 </r>
       <r>    -9.4240     0.0000     0.0000 </r>
       <r>    -9.3732     0.0000     0.0000 </r>
       <r>    -9.3223     0.0000     0.0000 </r>
       <r>    -9.2715     0.0000     0.0000 </r>
       <r>    -9.2207     0.0000     0.0000 </r>
       <r>    -9.1698     0.0000     0.0000 </r>
       <r>    -9.1190     0.0000     0.0000 </r>
       <r>    -9.0682     0.0000     0.0000 </r>
       <r>    -9.0173     0.0000     0.0000 </r>
       <r>    -8.9665     0.0000     0.0000 </r>
       <r>    -8.9157     0.0000     0.0000 </r>
       <r>    -8.8648     0.0000     0.0000 </r>
       <r>    -8.8140     0.0000     0.0000 </r>
       <r>    -8.7632     0.0000     0.0000 </r>
       <r>    -8.7124     0.0000     0.0000 </r>
       <r>    -8.6615     0.0000     0.0000 </r>
       <r>    -8.6107     0.0000     0.0000 </r>
       <r>    -8.5599     0.0000     0.0000 </r>
       <r>    -8.5090     0.0000     0.0000 </r>
       <r>    -8.4582     0.0000     0.0000 </r>
       <r>    -8.4074     0.0000     0.0000 </r>
       <r>    -8.3565     0.0000     0.0000 </r>
       <r>    -8.3057     0.0000     0.0000 </r>
       <r>    -8.2549     0.0000     0.0000 </r>
       <r>    -8.2040     0.0000     0.0000 </r>
       <r>    -8.1532     0.0000     0.0000 </r>
       <r>    -8.1024     0.0000     0.0000 </r>
       <r>    -8.0515     0.0000     0.0000 </r>
       <r>    -8.0007     0.2145     0.0036 </r>
       <r>    -7.9499     0.3001     0.0194 </r>
       <r>    -7.8990     0.2605     0.0327 </r>
       <r>    -7.8482     0.2984     0.0469 </r>
       <r>    -7.7974     0.3093     0.0628 </r>
       <r>    -7.7465     0.2750     0.0774 </r>
       <r>    -7.6957     0.2838     0.0916 </r>
       <r>    -7.6449     0.2926     0.1063 </r>
       <r>    -7.5940     0.3018     0.1214 </r>
       <r>    -7.5432     0.3151     0.1371 </r>
       <r>    -7.4924     0.2944     0.1526 </r>
       <r>    -7.4415     0.2969     0.1676 </r>
       <r>    -7.3907     0.2993     0.1828 </r>
       <r>    -7.3399     0.3018     0.1980 </r>
       <r>    -7.2890     0.3099     0.2136 </r>
       <r>    -7.2382     0.3175     0.2295 </r>
       <r>    -7.1874     0.3247     0.2459 </r>
       <r>    -7.1365     0.3139     0.2621 </r>
       <r>    -7.0857     0.3149     0.2781 </r>
       <r>    -7.0349     0.3179     0.2942 </r>
       <r>    -6.9841     0.3212     0.3104 </r>
       <r>    -6.9332     0.3260     0.3269 </r>
       <r>    -6.8824     0.3309     0.3436 </r>
       <r>    -6.8316     0.3357     0.3605 </r>
       <r>    -6.7807     0.3405     0.3777 </r>
       <r>    -6.7299     0.3420     0.3950 </r>
       <r>    -6.6791     0.3429     0.4124 </r>
       <r>    -6.6282     0.3463     0.4299 </r>
       <r>    -6.5774     0.3496     0.4476 </r>
       <r>    -6.5266     0.3534     0.4655 </r>
       <r>    -6.4757     0.3575     0.4836 </r>
       <r>    -6.4249     0.3615     0.5018 </r>
       <r>    -6.3741     0.3681     0.5204 </r>
       <r>    -6.3232     0.3748     0.5393 </r>
       <r>    -6.2724     0.3802     0.5584 </r>
       <r>    -6.2216     0.3849     0.5779 </r>
       <r>    -6.1707     0.3899     0.5976 </r>
       <r>    -6.1199     0.7293     0.6223 </r>
       <r>    -6.0691     0.7488     0.6635 </r>
       <r>    -6.0182     0.8084     0.7026 </r>
       <r>    -5.9674     0.8289     0.7450 </r>
       <r>    -5.9166     0.8172     0.7863 </r>
       <r>    -5.8657     0.8459     0.8286 </r>
       <r>    -5.8149     0.8741     0.8723 </r>
       <r>    -5.7641     0.8804     0.9170 </r>
       <r>    -5.7132     0.9062     0.9624 </r>
       <r>    -5.6624     0.9380     1.0092 </r>
       <r>    -5.6116     0.9642     1.0576 </r>
       <r>    -5.5607     0.9936     1.1074 </r>
       <r>    -5.5099     1.0246     1.1587 </r>
       <r>    -5.4591     1.0555     1.2115 </r>
       <r>    -5.4082     1.0818     1.2659 </r>
       <r>    -5.3574     1.1636     1.3222 </r>
       <r>    -5.3066     1.2742     1.3848 </r>
       <r>    -5.2558     1.3461     1.4514 </r>
       <r>    -5.2049     1.4790     1.5223 </r>
       <r>    -5.1541     1.6402     1.6024 </r>
       <r>    -5.1033     2.3610     1.6953 </r>
       <r>    -5.0524     3.4562     1.8601 </r>
       <r>    -5.0016     2.2796     2.0050 </r>
       <r>    -4.9508     2.0498     2.1122 </r>
       <r>    -4.8999     1.9518     2.2141 </r>
       <r>    -4.8491     1.7729     2.3098 </r>
       <r>    -4.7983     1.7978     2.3968 </r>
       <r>    -4.7474     2.4771     2.5149 </r>
       <r>    -4.6966     4.0592     2.6703 </r>
       <r>    -4.6458     2.5715     2.8176 </r>
       <r>    -4.5949     2.8740     2.9672 </r>
       <r>    -4.5441     2.7731     3.1052 </r>
       <r>    -4.4933     2.8641     3.2558 </r>
       <r>    -4.4424     4.4613     3.4422 </r>
       <r>    -4.3916     4.8222     3.6792 </r>
       <r>    -4.3408     5.0779     3.9405 </r>
       <r>    -4.2899     3.5487     4.1560 </r>
       <r>    -4.2391     3.3018     4.3292 </r>
       <r>    -4.1883     3.3853     4.4945 </r>
       <r>    -4.1374     3.0874     4.6603 </r>
       <r>    -4.0866     3.0834     4.8159 </r>
       <r>    -4.0358     2.7554     4.9645 </r>
       <r>    -3.9849     3.1438     5.1152 </r>
       <r>    -3.9341     3.0508     5.2680 </r>
       <r>    -3.8833     3.0716     5.4233 </r>
       <r>    -3.8324     3.1795     5.5829 </r>
       <r>    -3.7816     3.4589     5.7500 </r>
       <r>    -3.7308     2.5084     5.8926 </r>
       <r>    -3.6799     2.4369     6.0177 </r>
       <r>    -3.6291     2.4065     6.1409 </r>
       <r>    -3.5783     2.2939     6.2608 </r>
       <r>    -3.5275     4.3289     6.4400 </r>
       <r>    -3.4766     5.7198     6.6897 </r>
       <r>    -3.4258     8.6623     7.0817 </r>
       <r>    -3.3750     9.1714     7.5321 </r>
       <r>    -3.3241     7.3265     7.9642 </r>
       <r>    -3.2733     7.5035     8.3573 </r>
       <r>    -3.2225     9.5785     8.8698 </r>
       <r>    -3.1716     4.5646     9.1635 </r>
       <r>    -3.1208     5.6867     9.4081 </r>
       <r>    -3.0700     5.0340     9.6935 </r>
       <r>    -3.0191     4.1259     9.9339 </r>
       <r>    -2.9683     4.1687    10.1472 </r>
       <r>    -2.9175     4.5140    10.3482 </r>
       <r>    -2.8666     3.6574    10.5381 </r>
       <r>    -2.8158     3.5339    10.7231 </r>
       <r>    -2.7650     2.1606    10.8668 </r>
       <r>    -2.7141     2.8236    10.9931 </r>
       <r>    -2.6633     2.1825    11.1128 </r>
       <r>    -2.6125     2.4269    11.2277 </r>
       <r>    -2.5616     2.3196    11.3481 </r>
       <r>    -2.5108     2.9541    11.4784 </r>
       <r>    -2.4600     3.3983    11.6565 </r>
       <r>    -2.4091     6.5002    11.8650 </r>
       <r>    -2.3583    10.4112    12.2561 </r>
       <r>    -2.3075     8.4531    12.7808 </r>
       <r>    -2.2566     7.5520    13.1969 </r>
       <r>    -2.2058     6.9431    13.5261 </r>
       <r>    -2.1550     8.0986    13.8970 </r>
       <r>    -2.1041    14.7290    14.3841 </r>
       <r>    -2.0533     7.2282    14.7502 </r>
       <r>    -2.0025     5.3527    15.0266 </r>
       <r>    -1.9516     4.5189    15.2568 </r>
       <r>    -1.9008     5.1219    15.5161 </r>
       <r>    -1.8500     6.3096    15.7960 </r>
       <r>    -1.7992     4.8022    16.0945 </r>
       <r>    -1.7483     6.2215    16.3885 </r>
       <r>    -1.6975     8.6102    16.7471 </r>
       <r>    -1.6467     6.1634    17.1242 </r>
       <r>    -1.5958     6.9378    17.4823 </r>
       <r>    -1.5450     7.6920    17.8434 </r>
       <r>    -1.4942     8.0361    18.2483 </r>
       <r>    -1.4433     6.1529    18.6476 </r>
       <r>    -1.3925     8.0343    18.9776 </r>
       <r>    -1.3417     6.2844    19.3595 </r>
       <r>    -1.2908     4.2845    19.5896 </r>
       <r>    -1.2400     4.4977    19.8085 </r>
       <r>    -1.1892     5.0086    20.0651 </r>
       <r>    -1.1383     6.4075    20.3627 </r>
       <r>    -1.0875     6.1583    20.6967 </r>
       <r>    -1.0367     5.6940    20.9963 </r>
       <r>    -0.9858     5.5238    21.2814 </r>
       <r>    -0.9350     5.6780    21.5643 </r>
       <r>    -0.8842     6.3079    21.8689 </r>
       <r>    -0.8333     5.8843    22.1852 </r>
       <r>    -0.7825     5.2071    22.4665 </r>
       <r>    -0.7317     5.7480    22.7438 </r>
       <r>    -0.6808     4.9927    23.0193 </r>
       <r>    -0.6300     4.8865    23.2712 </r>
       <r>    -0.5792     5.3147    23.5266 </r>
       <r>    -0.5283     4.9346    23.7863 </r>
       <r>    -0.4775     4.7567    24.0337 </r>
       <r>    -0.4267     3.9563    24.2699 </r>
       <r>    -0.3758     3.0545    24.4466 </r>
       <r>    -0.3250     2.9840    24.5945 </r>
       <r>    -0.2742     3.7417    24.7635 </r>
       <r>    -0.2233     4.2906    24.9951 </r>
       <r>    -0.1725     3.6094    25.1823 </r>
       <r>    -0.1217     4.3052    25.3815 </r>
       <r>    -0.0709     4.2874    25.6170 </r>
       <r>    -0.0200     4.5535    25.8310 </r>
       <r>     0.0308     7.2365    26.1122 </r>
       <r>     0.0816     4.8656    26.3407 </r>
       <r>     0.1325     4.0470    26.5685 </r>
       <r>     0.1833     5.4185    26.7838 </r>
       <r>     0.2341     8.1523    27.1553 </r>
       <r>     0.2850     8.0133    27.5507 </r>
       <r>     0.3358     7.9992    27.9476 </r>
       <r>     0.3866     4.8920    28.2644 </r>
       <r>     0.4375     3.0271    28.4579 </r>
       <r>     0.4883     3.0545    28.6482 </r>
       <r>     0.5391     4.9390    28.8320 </r>
       <r>     0.5900     6.3186    29.1279 </r>
       <r>     0.6408     8.6498    29.6094 </r>
       <r>     0.6916     6.2404    29.9855 </r>
       <r>     0.7425     7.1750    30.3095 </r>
       <r>     0.7933     5.5401    30.6080 </r>
       <r>     0.8441     6.6330    30.9065 </r>
       <r>     0.8950     4.8356    31.2080 </r>
       <r>     0.9458     5.3730    31.4604 </r>
       <r>     0.9966     4.6009    31.7198 </r>
       <r>     1.0475     4.0898    31.9433 </r>
       <r>     1.0983     3.5865    32.1345 </r>
       <r>     1.1491     3.5038    32.3134 </r>
       <r>     1.2000     3.6289    32.4912 </r>
       <r>     1.2508     3.6576    32.6776 </r>
       <r>     1.3016     3.2184    32.8738 </r>
       <r>     1.3525     3.9927    33.0505 </r>
       <r>     1.4033     3.3516    33.2491 </r>
       <r>     1.4541     2.9427    33.4107 </r>
       <r>     1.5050     4.0095    33.5690 </r>
       <r>     1.5558     7.9170    33.8311 </r>
       <r>     1.6066     4.4476    34.1999 </r>
       <r>     1.6574     7.8241    34.5162 </r>
       <r>     1.7083     5.6603    34.8565 </r>
       <r>     1.7591     4.6328    35.1107 </r>
       <r>     1.8099     4.3808    35.3376 </r>
       <r>     1.8608     3.5212    35.5335 </r>
       <r>     1.9116     4.0730    35.7241 </r>
       <r>     1.9624     4.6380    35.9443 </r>
       <r>     2.0133     5.1433    36.1928 </r>
       <r>     2.0641     6.3928    36.4857 </r>
       <r>     2.1149     4.5135    36.8666 </r>
       <r>     2.1658     2.7638    37.0422 </r>
       <r>     2.2166     2.3637    37.1683 </r>
       <r>     2.2674     2.1208    37.2826 </r>
       <r>     2.3183     2.4851    37.3935 </r>
       <r>     2.3691     2.3794    37.5145 </r>
       <r>     2.4199     2.2668    37.6494 </r>
       <r>     2.4708     1.8090    37.7526 </r>
       <r>     2.5216     1.4247    37.8348 </r>
       <r>     2.5724     0.7484    37.8829 </r>
       <r>     2.6233     0.3708    37.9194 </r>
       <r>     2.6741     0.3045    37.9366 </r>
       <r>     2.7249     0.2382    37.9504 </r>
       <r>     2.7758     0.1666    37.9604 </r>
       <r>     2.8266     0.1530    37.9686 </r>
       <r>     2.8774     0.1394    37.9760 </r>
       <r>     2.9283     0.1258    37.9827 </r>
       <r>     2.9791     0.0979    37.9884 </r>
       <r>     3.0299     0.0769    37.9929 </r>
       <r>     3.0808     0.0558    37.9962 </r>
       <r>     3.1316     0.0348    37.9985 </r>
       <r>     3.1824     0.0137    37.9998 </r>
       <r>     3.2332     0.0000    38.0000 </r>
       <r>     3.2841     0.0000    38.0000 </r>
       <r>     3.3349     0.0000    38.0000 </r>
       <r>     3.3857     0.0000    38.0000 </r>
       <r>     3.4366     0.0000    38.0000 </r>
       <r>     3.4874     0.0000    38.0000 </r>
       <r>     3.5382     0.0000    38.0000 </r>
       <r>     3.5891     0.0000    38.0000 </r>
       <r>     3.6399     0.0000    38.0000 </r>
       <r>     3.6907     0.0000    38.0000 </r>
       <r>     3.7416     0.0000    38.0000 </r>
       <r>     3.7924     0.0000    38.0000 </r>
       <r>     3.8432     0.0000    38.0000 </r>
       <r>     3.8941     0.0000    38.0000 </r>
       <r>     3.9449     0.0000    38.0000 </r>
       <r>     3.9957     0.0000    38.0000 </r>
       <r>     4.0466     0.0000    38.0000 </r>
       <r>     4.0974     0.0000    38.0000 </r>
       <r>     4.1482     0.0000    38.0000 </r>
       <r>     4.1991     0.0000    38.0000 </r>
       <r>     4.2499     0.0000    38.0000 </r>
       <r>     4.3007     0.0000    38.0000 </r>
       <r>     4.3516     0.0000    38.0000 </r>
       <r>     4.4024     0.0000    38.0000 </r>
       <r>     4.4532     0.0000    38.0000 </r>
       <r>     4.5041     0.0000    38.0000 </r>
       <r>     4.5549     0.0000    38.0000 </r>
       <r>     4.6057     0.0000    38.0000 </r>
       <r>     4.6566     0.0000    38.0000 </r>
       <r>     4.7074     0.0000    38.0000 </r>
       <r>     4.7582     0.0000    38.0000 </r>
       <r>     4.8091     0.0000    38.0000 </r>
       <r>     4.8599     0.0000    38.0000 </r>
       <r>     4.9107     0.0000    38.0000 </r>
       <r>     4.9615     0.0000    38.0000 </r>
       <r>     5.0124     0.0000    38.0000 </r>
       <r>     5.0632     0.0000    38.0000 </r>
       <r>     5.1140     0.0000    38.0000 </r>
       <r>     5.1649     0.0000    38.0000 </r>
       <r>     5.2157     0.0000    38.0000 </r>
      </set>
     </set>
    </array>
   </total>
  </dos>
 </calculation>
 <structure name="finalpos" >
  <crystal>
   <varray name="basis" >
    <v>       3.16000000       0.00000000       0.00000000 </v>
    <v>       0.00000000       3.16000000       0.00000000 </v>
    <v>       0.00000000       0.00000000      18.96000000 </v>
   </varray>
   <i name="volume">    189.32697600 </i>
   <varray name="rec_basis" >
    <v>       0.31645570       0.00000000       0.00000000 </v>
    <v>       0.00000000       0.31645570       0.00000000 </v>
    <v>       0.00000000       0.00000000       0.05274262 </v>
   </varray>
  </crystal>
  <varray name="positions" >
   <v>       0.00000000       0.00000000       0.00000000 </v>
   <v>       0.50000000       0.50000000       0.08333333 </v>
   <v>       0.00000000       0.00000000       0.16666667 </v>
   <v>       0.50000000       0.50000000       0.25000000 </v>
   <v>       0.00000000       0.00000000       0.33333333 </v>
  </varray>
 </structure>
</modeling>
