   4   4   1   0
  0.1098546E+02  0.5445216E-09  0.5445216E-09  0.5445216E-09  0.5000000E-15
  1.000000000000000E-004
  CAR 
 MnO double cell                         
     10.63432904    -16.18596051  301      5.11381944      1.00000000
    -16.186  0.0000E+00  0.0000E+00  0.0000E+00  0.0000E+00
    -16.097  0.0000E+00  0.0000E+00  0.0000E+00  0.0000E+00
    -16.007  0.0000E+00  0.0000E+00  0.0000E+00  0.0000E+00
    -15.918  0.0000E+00  0.0000E+00  0.0000E+00  0.0000E+00
    -15.828  0.0000E+00  0.0000E+00  0.0000E+00  0.0000E+00
    -15.739  0.0000E+00  0.0000E+00  0.0000E+00  0.0000E+00
    -15.650  0.0000E+00  0.0000E+00  0.0000E+00  0.0000E+00
    -15.560  0.0000E+00  0.0000E+00  0.0000E+00  0.0000E+00
    -15.471  0.0000E+00  0.0000E+00  0.0000E+00  0.0000E+00
    -15.381  0.0000E+00  0.0000E+00  0.0000E+00  0.0000E+00
    -15.292  0.0000E+00  0.0000E+00  0.0000E+00  0.0000E+00
    -15.203  0.0000E+00  0.0000E+00  0.0000E+00  0.0000E+00
    -15.113  0.0000E+00  0.0000E+00  0.0000E+00  0.0000E+00
    -15.024  0.0000E+00  0.0000E+00  0.0000E+00  0.0000E+00
    -14.934  0.0000E+00  0.0000E+00  0.0000E+00  0.0000E+00
    -14.845  0.0000E+00  0.0000E+00  0.0000E+00  0.0000E+00
    -14.756  0.0000E+00  0.0000E+00  0.0000E+00  0.0000E+00
    -14.666  0.0000E+00  0.0000E+00  0.0000E+00  0.0000E+00
    -14.577  0.0000E+00  0.0000E+00  0.0000E+00  0.0000E+00
    -14.487  0.0000E+00  0.0000E+00  0.0000E+00  0.0000E+00
    -14.398  0.0000E+00  0.0000E+00  0.0000E+00  0.0000E+00
    -14.309  0.0000E+00  0.0000E+00  0.0000E+00  0.0000E+00
    -14.219  0.0000E+00  0.0000E+00  0.0000E+00  0.0000E+00
    -14.130  0.1579E+00  0.1579E+00  0.5230E-02  0.5230E-02
    -14.040  0.2847E+00  0.2847E+00  0.2509E-01  0.2509E-01
    -13.951  0.4005E+00  0.4005E+00  0.5574E-01  0.5574E-01
    -13.862  0.5253E+00  0.5253E+00  0.9697E-01  0.9697E-01
    -13.772  0.6835E+00  0.6835E+00  0.1503E+00  0.1503E+00
    -13.683  0.8381E+00  0.8381E+00  0.2176E+00  0.2176E+00
    -13.593  0.1096E+01  0.1096E+01  0.3035E+00  0.3035E+00
    -13.504  0.1454E+01  0.1454E+01  0.4161E+00  0.4161E+00
    -13.415  0.2045E+01  0.2045E+01  0.5702E+00  0.5702E+00
    -13.325  0.3328E+01  0.3328E+01  0.8030E+00  0.8030E+00
    -13.236  0.8235E+01  0.8235E+01  0.1284E+01  0.1284E+01
    -13.146  0.0000E+00  0.0000E+00  0.2000E+01  0.2000E+01
    -13.057  0.0000E+00  0.0000E+00  0.2000E+01  0.2000E+01
    -12.968  0.0000E+00  0.0000E+00  0.2000E+01  0.2000E+01
    -12.878  0.0000E+00  0.0000E+00  0.2000E+01  0.2000E+01
    -12.789  0.0000E+00  0.0000E+00  0.2000E+01  0.2000E+01
    -12.699  0.0000E+00  0.0000E+00  0.2000E+01  0.2000E+01
    -12.610  0.0000E+00  0.0000E+00  0.2000E+01  0.2000E+01
    -12.521  0.0000E+00  0.0000E+00  0.2000E+01  0.2000E+01
    -12.431  0.0000E+00  0.0000E+00  0.2000E+01  0.2000E+01
    -12.342  0.0000E+00  0.0000E+00  0.2000E+01  0.2000E+01
    -12.252  0.0000E+00  0.0000E+00  0.2000E+01  0.2000E+01
    -12.163  0.0000E+00  0.0000E+00  0.2000E+01  0.2000E+01
    -12.074  0.0000E+00  0.0000E+00  0.2000E+01  0.2000E+01
    -11.984  0.0000E+00  0.0000E+00  0.2000E+01  0.2000E+01
    -11.895  0.0000E+00  0.0000E+00  0.2000E+01  0.2000E+01
    -11.805  0.0000E+00  0.0000E+00  0.2000E+01  0.2000E+01
    -11.716  0.0000E+00  0.0000E+00  0.2000E+01  0.2000E+01
    -11.627  0.0000E+00  0.0000E+00  0.2000E+01  0.2000E+01
    -11.537  0.0000E+00  0.0000E+00  0.2000E+01  0.2000E+01
    -11.448  0.0000E+00  0.0000E+00  0.2000E+01  0.2000E+01
    -11.358  0.0000E+00  0.0000E+00  0.2000E+01  0.2000E+01
    -11.269  0.0000E+00  0.0000E+00  0.2000E+01  0.2000E+01
    -11.180  0.0000E+00  0.0000E+00  0.2000E+01  0.2000E+01
    -11.090  0.0000E+00  0.0000E+00  0.2000E+01  0.2000E+01
    -11.001  0.0000E+00  0.0000E+00  0.2000E+01  0.2000E+01
    -10.911  0.0000E+00  0.0000E+00  0.2000E+01  0.2000E+01
    -10.822  0.0000E+00  0.0000E+00  0.2000E+01  0.2000E+01
    -10.733  0.0000E+00  0.0000E+00  0.2000E+01  0.2000E+01
    -10.643  0.0000E+00  0.0000E+00  0.2000E+01  0.2000E+01
    -10.554  0.0000E+00  0.0000E+00  0.2000E+01  0.2000E+01
    -10.464  0.0000E+00  0.0000E+00  0.2000E+01  0.2000E+01
    -10.375  0.0000E+00  0.0000E+00  0.2000E+01  0.2000E+01
    -10.285  0.0000E+00  0.0000E+00  0.2000E+01  0.2000E+01
    -10.196  0.0000E+00  0.0000E+00  0.2000E+01  0.2000E+01
    -10.107  0.0000E+00  0.0000E+00  0.2000E+01  0.2000E+01
    -10.017  0.0000E+00  0.0000E+00  0.2000E+01  0.2000E+01
     -9.928  0.0000E+00  0.0000E+00  0.2000E+01  0.2000E+01
     -9.838  0.0000E+00  0.0000E+00  0.2000E+01  0.2000E+01
     -9.749  0.0000E+00  0.0000E+00  0.2000E+01  0.2000E+01
     -9.660  0.0000E+00  0.0000E+00  0.2000E+01  0.2000E+01
     -9.570  0.0000E+00  0.0000E+00  0.2000E+01  0.2000E+01
     -9.481  0.0000E+00  0.0000E+00  0.2000E+01  0.2000E+01
     -9.391  0.0000E+00  0.0000E+00  0.2000E+01  0.2000E+01
     -9.302  0.0000E+00  0.0000E+00  0.2000E+01  0.2000E+01
     -9.213  0.0000E+00  0.0000E+00  0.2000E+01  0.2000E+01
     -9.123  0.0000E+00  0.0000E+00  0.2000E+01  0.2000E+01
     -9.034  0.0000E+00  0.0000E+00  0.2000E+01  0.2000E+01
     -8.944  0.0000E+00  0.0000E+00  0.2000E+01  0.2000E+01
     -8.855  0.0000E+00  0.0000E+00  0.2000E+01  0.2000E+01
     -8.766  0.0000E+00  0.0000E+00  0.2000E+01  0.2000E+01
     -8.676  0.0000E+00  0.0000E+00  0.2000E+01  0.2000E+01
     -8.587  0.0000E+00  0.0000E+00  0.2000E+01  0.2000E+01
     -8.497  0.0000E+00  0.0000E+00  0.2000E+01  0.2000E+01
     -8.408  0.0000E+00  0.0000E+00  0.2000E+01  0.2000E+01
     -8.319  0.0000E+00  0.0000E+00  0.2000E+01  0.2000E+01
     -8.229  0.0000E+00  0.0000E+00  0.2000E+01  0.2000E+01
     -8.140  0.0000E+00  0.0000E+00  0.2000E+01  0.2000E+01
     -8.050  0.0000E+00  0.0000E+00  0.2000E+01  0.2000E+01
     -7.961  0.0000E+00  0.0000E+00  0.2000E+01  0.2000E+01
     -7.872  0.0000E+00  0.0000E+00  0.2000E+01  0.2000E+01
     -7.782  0.0000E+00  0.0000E+00  0.2000E+01  0.2000E+01
     -7.693  0.0000E+00  0.0000E+00  0.2000E+01  0.2000E+01
     -7.603  0.0000E+00  0.0000E+00  0.2000E+01  0.2000E+01
     -7.514  0.0000E+00  0.0000E+00  0.2000E+01  0.2000E+01
     -7.425  0.0000E+00  0.0000E+00  0.2000E+01  0.2000E+01
     -7.335  0.0000E+00  0.0000E+00  0.2000E+01  0.2000E+01
     -7.246  0.0000E+00  0.0000E+00  0.2000E+01  0.2000E+01
     -7.156  0.0000E+00  0.0000E+00  0.2000E+01  0.2000E+01
     -7.067  0.0000E+00  0.0000E+00  0.2000E+01  0.2000E+01
     -6.978  0.0000E+00  0.0000E+00  0.2000E+01  0.2000E+01
     -6.888  0.0000E+00  0.0000E+00  0.2000E+01  0.2000E+01
     -6.799  0.0000E+00  0.0000E+00  0.2000E+01  0.2000E+01
     -6.709  0.0000E+00  0.0000E+00  0.2000E+01  0.2000E+01
     -6.620  0.0000E+00  0.0000E+00  0.2000E+01  0.2000E+01
     -6.531  0.0000E+00  0.0000E+00  0.2000E+01  0.2000E+01
     -6.441  0.0000E+00  0.0000E+00  0.2000E+01  0.2000E+01
     -6.352  0.0000E+00  0.0000E+00  0.2000E+01  0.2000E+01
     -6.262  0.0000E+00  0.0000E+00  0.2000E+01  0.2000E+01
     -6.173  0.0000E+00  0.0000E+00  0.2000E+01  0.2000E+01
     -6.084  0.0000E+00  0.0000E+00  0.2000E+01  0.2000E+01
     -5.994  0.0000E+00  0.0000E+00  0.2000E+01  0.2000E+01
     -5.905  0.0000E+00  0.0000E+00  0.2000E+01  0.2000E+01
     -5.815  0.0000E+00  0.0000E+00  0.2000E+01  0.2000E+01
     -5.726  0.0000E+00  0.0000E+00  0.2000E+01  0.2000E+01
     -5.637  0.0000E+00  0.0000E+00  0.2000E+01  0.2000E+01
     -5.547  0.0000E+00  0.0000E+00  0.2000E+01  0.2000E+01
     -5.458  0.0000E+00  0.0000E+00  0.2000E+01  0.2000E+01
     -5.368  0.0000E+00  0.0000E+00  0.2000E+01  0.2000E+01
     -5.279  0.0000E+00  0.0000E+00  0.2000E+01  0.2000E+01
     -5.190  0.0000E+00  0.0000E+00  0.2000E+01  0.2000E+01
     -5.100  0.0000E+00  0.0000E+00  0.2000E+01  0.2000E+01
     -5.011  0.0000E+00  0.0000E+00  0.2000E+01  0.2000E+01
     -4.921  0.0000E+00  0.0000E+00  0.2000E+01  0.2000E+01
     -4.832  0.0000E+00  0.0000E+00  0.2000E+01  0.2000E+01
     -4.743  0.0000E+00  0.0000E+00  0.2000E+01  0.2000E+01
     -4.653  0.0000E+00  0.0000E+00  0.2000E+01  0.2000E+01
     -4.564  0.0000E+00  0.0000E+00  0.2000E+01  0.2000E+01
     -4.474  0.0000E+00  0.0000E+00  0.2000E+01  0.2000E+01
     -4.385  0.0000E+00  0.0000E+00  0.2000E+01  0.2000E+01
     -4.296  0.0000E+00  0.0000E+00  0.2000E+01  0.2000E+01
     -4.206  0.0000E+00  0.0000E+00  0.2000E+01  0.2000E+01
     -4.117  0.0000E+00  0.0000E+00  0.2000E+01  0.2000E+01
     -4.027  0.0000E+00  0.0000E+00  0.2000E+01  0.2000E+01
     -3.938  0.0000E+00  0.0000E+00  0.2000E+01  0.2000E+01
     -3.849  0.0000E+00  0.0000E+00  0.2000E+01  0.2000E+01
     -3.759  0.0000E+00  0.0000E+00  0.2000E+01  0.2000E+01
     -3.670  0.0000E+00  0.0000E+00  0.2000E+01  0.2000E+01
     -3.580  0.0000E+00  0.0000E+00  0.2000E+01  0.2000E+01
     -3.491  0.0000E+00  0.0000E+00  0.2000E+01  0.2000E+01
     -3.402  0.0000E+00  0.0000E+00  0.2000E+01  0.2000E+01
     -3.312  0.0000E+00  0.0000E+00  0.2000E+01  0.2000E+01
     -3.223  0.0000E+00  0.0000E+00  0.2000E+01  0.2000E+01
     -3.133  0.0000E+00  0.0000E+00  0.2000E+01  0.2000E+01
     -3.044  0.0000E+00  0.0000E+00  0.2000E+01  0.2000E+01
     -2.955  0.0000E+00  0.0000E+00  0.2000E+01  0.2000E+01
     -2.865  0.0000E+00  0.0000E+00  0.2000E+01  0.2000E+01
     -2.776  0.0000E+00  0.0000E+00  0.2000E+01  0.2000E+01
     -2.686  0.0000E+00  0.0000E+00  0.2000E+01  0.2000E+01
     -2.597  0.0000E+00  0.0000E+00  0.2000E+01  0.2000E+01
     -2.508  0.0000E+00  0.0000E+00  0.2000E+01  0.2000E+01
     -2.418  0.0000E+00  0.0000E+00  0.2000E+01  0.2000E+01
     -2.329  0.0000E+00  0.0000E+00  0.2000E+01  0.2000E+01
     -2.239  0.0000E+00  0.0000E+00  0.2000E+01  0.2000E+01
     -2.150  0.0000E+00  0.0000E+00  0.2000E+01  0.2000E+01
     -2.061  0.0000E+00  0.0000E+00  0.2000E+01  0.2000E+01
     -1.971  0.1345E+00  0.1345E+00  0.2002E+01  0.2002E+01
     -1.882  0.2647E+00  0.2647E+00  0.2020E+01  0.2020E+01
     -1.792  0.3678E+00  0.3678E+00  0.2049E+01  0.2049E+01
     -1.703  0.4681E+00  0.4681E+00  0.2086E+01  0.2086E+01
     -1.614  0.5704E+00  0.5704E+00  0.2132E+01  0.2132E+01
     -1.524  0.6848E+00  0.6848E+00  0.2188E+01  0.2188E+01
     -1.435  0.8248E+00  0.8248E+00  0.2256E+01  0.2256E+01
     -1.345  0.1015E+01  0.1015E+01  0.2337E+01  0.2337E+01
     -1.256  0.1351E+01  0.1351E+01  0.2441E+01  0.2441E+01
     -1.167  0.1944E+01  0.1944E+01  0.2589E+01  0.2589E+01
     -1.077  0.1886E+01  0.1886E+01  0.2759E+01  0.2759E+01
     -0.988  0.1925E+01  0.1925E+01  0.2923E+01  0.2923E+01
     -0.898  0.2519E+01  0.2519E+01  0.3189E+01  0.3189E+01
     -0.809  0.1874E+01  0.1874E+01  0.3392E+01  0.3392E+01
     -0.720  0.1460E+01  0.1460E+01  0.3540E+01  0.3540E+01
     -0.630  0.1201E+01  0.1201E+01  0.3660E+01  0.3660E+01
     -0.541  0.6179E+00  0.6179E+00  0.3740E+01  0.3740E+01
     -0.451  0.4335E+00  0.4335E+00  0.3786E+01  0.3786E+01
     -0.362  0.6360E+00  0.6360E+00  0.3831E+01  0.3831E+01
     -0.273  0.9542E+00  0.9542E+00  0.3902E+01  0.3902E+01
     -0.183  0.1357E+01  0.1357E+01  0.4011E+01  0.4011E+01
     -0.094  0.2089E+01  0.2089E+01  0.4155E+01  0.4155E+01
     -0.004  0.1887E+01  0.1887E+01  0.4326E+01  0.4326E+01
      0.085  0.2132E+01  0.2132E+01  0.4502E+01  0.4502E+01
      0.174  0.2242E+01  0.2242E+01  0.4697E+01  0.4697E+01
      0.264  0.3158E+01  0.3158E+01  0.4917E+01  0.4917E+01
      0.353  0.7115E+01  0.7115E+01  0.5382E+01  0.5382E+01
      0.443  0.4127E+01  0.4127E+01  0.5868E+01  0.5868E+01
      0.532  0.3032E+01  0.3032E+01  0.6180E+01  0.6180E+01
      0.621  0.2032E+01  0.2032E+01  0.6409E+01  0.6409E+01
      0.711  0.1799E+01  0.1799E+01  0.6573E+01  0.6573E+01
      0.800  0.1733E+01  0.1733E+01  0.6733E+01  0.6733E+01
      0.890  0.1717E+01  0.1717E+01  0.6887E+01  0.6887E+01
      0.979  0.1975E+01  0.1975E+01  0.7048E+01  0.7048E+01
      1.068  0.2006E+01  0.2006E+01  0.7222E+01  0.7222E+01
      1.158  0.2132E+01  0.2132E+01  0.7405E+01  0.7405E+01
      1.247  0.1617E+01  0.1617E+01  0.7568E+01  0.7568E+01
      1.337  0.1014E+01  0.1014E+01  0.7679E+01  0.7679E+01
      1.426  0.7815E+00  0.7815E+00  0.7760E+01  0.7760E+01
      1.515  0.5905E+00  0.5905E+00  0.7820E+01  0.7820E+01
      1.605  0.4627E+00  0.4627E+00  0.7867E+01  0.7867E+01
      1.694  0.3694E+00  0.3694E+00  0.7904E+01  0.7904E+01
      1.784  0.2893E+00  0.2893E+00  0.7933E+01  0.7933E+01
      1.873  0.2238E+00  0.2238E+00  0.7956E+01  0.7956E+01
      1.962  0.1684E+00  0.1684E+00  0.7974E+01  0.7974E+01
      2.052  0.1216E+00  0.1216E+00  0.7987E+01  0.7987E+01
      2.141  0.7155E-01  0.7155E-01  0.7995E+01  0.7995E+01
      2.231  0.1527E-01  0.1527E-01  0.8000E+01  0.8000E+01
      2.320  0.0000E+00  0.0000E+00  0.8000E+01  0.8000E+01
      2.409  0.0000E+00  0.0000E+00  0.8000E+01  0.8000E+01
      2.499  0.1133E+00  0.1133E+00  0.8004E+01  0.8004E+01
      2.588  0.2320E+00  0.2320E+00  0.8019E+01  0.8019E+01
      2.678  0.3642E+00  0.3642E+00  0.8045E+01  0.8045E+01
      2.767  0.5457E+00  0.5457E+00  0.8086E+01  0.8086E+01
      2.856  0.8363E+00  0.8363E+00  0.8146E+01  0.8146E+01
      2.946  0.1267E+01  0.1267E+01  0.8244E+01  0.8244E+01
      3.035  0.1638E+01  0.1638E+01  0.8372E+01  0.8372E+01
      3.125  0.2993E+01  0.2993E+01  0.8562E+01  0.8562E+01
      3.214  0.2032E+01  0.2032E+01  0.8809E+01  0.8809E+01
      3.303  0.1632E+01  0.1632E+01  0.8956E+01  0.8956E+01
      3.393  0.1895E+01  0.1895E+01  0.9118E+01  0.9118E+01
      3.482  0.2091E+01  0.2091E+01  0.9299E+01  0.9299E+01
      3.572  0.2545E+01  0.2545E+01  0.9488E+01  0.9488E+01
      3.661  0.5557E+01  0.5557E+01  0.9806E+01  0.9806E+01
      3.750  0.2520E+01  0.2520E+01  0.1028E+02  0.1028E+02
      3.840  0.5704E+01  0.5704E+01  0.1071E+02  0.1071E+02
      3.929  0.1673E+01  0.1673E+01  0.1099E+02  0.1099E+02
      4.019  0.0000E+00  0.0000E+00  0.1100E+02  0.1100E+02
      4.108  0.0000E+00  0.0000E+00  0.1100E+02  0.1100E+02
      4.197  0.0000E+00  0.0000E+00  0.1100E+02  0.1100E+02
      4.287  0.6641E-02  0.6641E-02  0.1100E+02  0.1100E+02
      4.376  0.4926E+00  0.4926E+00  0.1103E+02  0.1103E+02
      4.466  0.1220E+01  0.1220E+01  0.1110E+02  0.1110E+02
      4.555  0.1821E+01  0.1821E+01  0.1125E+02  0.1125E+02
      4.644  0.2236E+01  0.2236E+01  0.1143E+02  0.1143E+02
      4.734  0.3384E+01  0.3384E+01  0.1167E+02  0.1167E+02
      4.823  0.4855E+01  0.4855E+01  0.1204E+02  0.1204E+02
      4.913  0.7401E+01  0.7401E+01  0.1265E+02  0.1265E+02
      5.002  0.4871E+00  0.4871E+00  0.1299E+02  0.1299E+02
      5.091  0.0000E+00  0.0000E+00  0.1300E+02  0.1300E+02
      5.181  0.0000E+00  0.0000E+00  0.1300E+02  0.1300E+02
      5.270  0.0000E+00  0.0000E+00  0.1300E+02  0.1300E+02
      5.360  0.0000E+00  0.0000E+00  0.1300E+02  0.1300E+02
      5.449  0.0000E+00  0.0000E+00  0.1300E+02  0.1300E+02
      5.538  0.0000E+00  0.0000E+00  0.1300E+02  0.1300E+02
      5.628  0.0000E+00  0.0000E+00  0.1300E+02  0.1300E+02
      5.717  0.0000E+00  0.0000E+00  0.1300E+02  0.1300E+02
      5.807  0.0000E+00  0.0000E+00  0.1300E+02  0.1300E+02
      5.896  0.0000E+00  0.0000E+00  0.1300E+02  0.1300E+02
      5.985  0.8227E-04  0.8227E-04  0.1300E+02  0.1300E+02
      6.075  0.5794E-02  0.5794E-02  0.1300E+02  0.1300E+02
      6.164  0.1115E-01  0.1115E-01  0.1300E+02  0.1300E+02
      6.254  0.8547E-01  0.8547E-01  0.1300E+02  0.1300E+02
      6.343  0.3467E+00  0.3467E+00  0.1302E+02  0.1302E+02
      6.432  0.5843E+00  0.5843E+00  0.1307E+02  0.1307E+02
      6.522  0.8866E+00  0.8866E+00  0.1313E+02  0.1313E+02
      6.611  0.1327E+01  0.1327E+01  0.1323E+02  0.1323E+02
      6.701  0.1465E+01  0.1465E+01  0.1336E+02  0.1336E+02
      6.790  0.1757E+01  0.1757E+01  0.1350E+02  0.1350E+02
      6.879  0.2295E+01  0.2295E+01  0.1368E+02  0.1368E+02
      6.969  0.1296E+01  0.1296E+01  0.1387E+02  0.1387E+02
      7.058  0.2612E+01  0.2612E+01  0.1402E+02  0.1402E+02
      7.148  0.2254E+01  0.2243E+01  0.1425E+02  0.1425E+02
      7.237  0.2021E+01  0.2035E+01  0.1445E+02  0.1445E+02
      7.326  0.2057E+01  0.2081E+01  0.1464E+02  0.1464E+02
      7.416  0.2184E+01  0.2191E+01  0.1483E+02  0.1483E+02
      7.505  0.2326E+01  0.2342E+01  0.1504E+02  0.1504E+02
      7.595  0.2440E+01  0.2387E+01  0.1525E+02  0.1525E+02
      7.684  0.2827E+01  0.2806E+01  0.1550E+02  0.1549E+02
      7.773  0.4151E+01  0.4198E+01  0.1578E+02  0.1578E+02
      7.863  0.5787E+00  0.5744E+00  0.1629E+02  0.1629E+02
      7.952  0.7085E+00  0.6108E+00  0.1635E+02  0.1635E+02
      8.042  0.1019E+01  0.1099E+01  0.1643E+02  0.1643E+02
      8.131  0.1196E+01  0.1169E+01  0.1653E+02  0.1653E+02
      8.221  0.1452E+01  0.1664E+01  0.1665E+02  0.1665E+02
      8.310  0.2253E+01  0.2027E+01  0.1682E+02  0.1683E+02
      8.399  0.5916E+00  0.5669E+00  0.1694E+02  0.1694E+02
      8.489  0.2675E+00  0.2380E+00  0.1698E+02  0.1698E+02
      8.578  0.1439E+00  0.1628E+00  0.1700E+02  0.1700E+02
      8.668  0.0000E+00  0.0000E+00  0.1700E+02  0.1700E+02
      8.757  0.0000E+00  0.0000E+00  0.1700E+02  0.1700E+02
      8.846  0.0000E+00  0.0000E+00  0.1700E+02  0.1700E+02
      8.936  0.0000E+00  0.0000E+00  0.1700E+02  0.1700E+02
      9.025  0.0000E+00  0.0000E+00  0.1700E+02  0.1700E+02
      9.115  0.0000E+00  0.0000E+00  0.1700E+02  0.1700E+02
      9.204  0.0000E+00  0.0000E+00  0.1700E+02  0.1700E+02
      9.293  0.0000E+00  0.0000E+00  0.1700E+02  0.1700E+02
      9.383  0.0000E+00  0.0000E+00  0.1700E+02  0.1700E+02
      9.472  0.0000E+00  0.0000E+00  0.1700E+02  0.1700E+02
      9.562  0.0000E+00  0.0000E+00  0.1700E+02  0.1700E+02
      9.651  0.0000E+00  0.0000E+00  0.1700E+02  0.1700E+02
      9.740  0.0000E+00  0.0000E+00  0.1700E+02  0.1700E+02
      9.830  0.0000E+00  0.0000E+00  0.1700E+02  0.1700E+02
      9.919  0.0000E+00  0.0000E+00  0.1700E+02  0.1700E+02
     10.009  0.0000E+00  0.0000E+00  0.1700E+02  0.1700E+02
     10.098  0.0000E+00  0.0000E+00  0.1700E+02  0.1700E+02
     10.187  0.0000E+00  0.0000E+00  0.1700E+02  0.1700E+02
     10.277  0.0000E+00  0.0000E+00  0.1700E+02  0.1700E+02
     10.366  0.0000E+00  0.0000E+00  0.1700E+02  0.1700E+02
     10.456  0.0000E+00  0.0000E+00  0.1700E+02  0.1700E+02
     10.545  0.0000E+00  0.0000E+00  0.1700E+02  0.1700E+02
     10.634  0.0000E+00  0.0000E+00  0.1700E+02  0.1700E+02
     10.63432904    -16.18596051  301      5.11381944      1.00000000
    -16.186  0.0000E+00  0.0000E+00  0.0000E+00  0.0000E+00  0.0000E+00  0.0000E+00  0.0000E+00  0.0000E+00  0.0000E+00  0.0000E+00  0.0000E+00  0.0000E+00  0.0000E+00  0.0000E+00  0.0000E+00  0.0000E+00  0.0000E+00  0.0000E+00
    -16.097  0.0000E+00  0.0000E+00  0.0000E+00  0.0000E+00  0.0000E+00  0.0000E+00  0.0000E+00  0.0000E+00  0.0000E+00  0.0000E+00  0.0000E+00  0.0000E+00  0.0000E+00  0.0000E+00  0.0000E+00  0.0000E+00  0.0000E+00  0.0000E+00
    -16.007  0.0000E+00  0.0000E+00  0.0000E+00  0.0000E+00  0.0000E+00  0.0000E+00  0.0000E+00  0.0000E+00  0.0000E+00  0.0000E+00  0.0000E+00  0.0000E+00  0.0000E+00  0.0000E+00  0.0000E+00  0.0000E+00  0.0000E+00  0.0000E+00
    -15.918  0.0000E+00  0.0000E+00  0.0000E+00  0.0000E+00  0.0000E+00  0.0000E+00  0.0000E+00  0.0000E+00  0.0000E+00  0.0000E+00  0.0000E+00  0.0000E+00  0.0000E+00  0.0000E+00  0.0000E+00  0.0000E+00  0.0000E+00  0.0000E+00
    -15.828  0.0000E+00  0.0000E+00  0.0000E+00  0.0000E+00  0.0000E+00  0.0000E+00  0.0000E+00  0.0000E+00  0.0000E+00  0.0000E+00  0.0000E+00  0.0000E+00  0.0000E+00  0.0000E+00  0.0000E+00  0.0000E+00  0.0000E+00  0.0000E+00
    -15.739  0.0000E+00  0.0000E+00  0.0000E+00  0.0000E+00  0.0000E+00  0.0000E+00  0.0000E+00  0.0000E+00  0.0000E+00  0.0000E+00  0.0000E+00  0.0000E+00  0.0000E+00  0.0000E+00  0.0000E+00  0.0000E+00  0.0000E+00  0.0000E+00
    -15.650  0.0000E+00  0.0000E+00  0.0000E+00  0.0000E+00  0.0000E+00  0.0000E+00  0.0000E+00  0.0000E+00  0.0000E+00  0.0000E+00  0.0000E+00  0.0000E+00  0.0000E+00  0.0000E+00  0.0000E+00  0.0000E+00  0.0000E+00  0.0000E+00
    -15.560  0.0000E+00  0.0000E+00  0.0000E+00  0.0000E+00  0.0000E+00  0.0000E+00  0.0000E+00  0.0000E+00  0.0000E+00  0.0000E+00  0.0000E+00  0.0000E+00  0.0000E+00  0.0000E+00  0.0000E+00  0.0000E+00  0.0000E+00  0.0000E+00
    -15.471  0.0000E+00  0.0000E+00  0.0000E+00  0.0000E+00  0.0000E+00  0.0000E+00  0.0000E+00  0.0000E+00  0.0000E+00  0.0000E+00  0.0000E+00  0.0000E+00  0.0000E+00  0.0000E+00  0.0000E+00  0.0000E+00  0.0000E+00  0.0000E+00
    -15.381  0.0000E+00  0.0000E+00  0.0000E+00  0.0000E+00  0.0000E+00  0.0000E+00  0.0000E+00  0.0000E+00  0.0000E+00  0.0000E+00  0.0000E+00  0.0000E+00  0.0000E+00  0.0000E+00  0.0000E+00  0.0000E+00  0.0000E+00  0.0000E+00
    -15.292  0.0000E+00  0.0000E+00  0.0000E+00  0.0000E+00  0.0000E+00  0.0000E+00  0.0000E+00  0.0000E+00  0.0000E+00  0.0000E+00  0.0000E+00  0.0000E+00  0.0000E+00  0.0000E+00  0.0000E+00  0.0000E+00  0.0000E+00  0.0000E+00
    -15.203  0.0000E+00  0.0000E+00  0.0000E+00  0.0000E+00  0.0000E+00  0.0000E+00  0.0000E+00  0.0000E+00  0.0000E+00  0.0000E+00  0.0000E+00  0.0000E+00  0.0000E+00  0.0000E+00  0.0000E+00  0.0000E+00  0.0000E+00  0.0000E+00
    -15.113  0.0000E+00  0.0000E+00  0.0000E+00  0.0000E+00  0.0000E+00  0.0000E+00  0.0000E+00  0.0000E+00  0.0000E+00  0.0000E+00  0.0000E+00  0.0000E+00  0.0000E+00  0.0000E+00  0.0000E+00  0.0000E+00  0.0000E+00  0.0000E+00
    -15.024  0.0000E+00  0.0000E+00  0.0000E+00  0.0000E+00  0.0000E+00  0.0000E+00  0.0000E+00  0.0000E+00  0.0000E+00  0.0000E+00  0.0000E+00  0.0000E+00  0.0000E+00  0.0000E+00  0.0000E+00  0.0000E+00  0.0000E+00  0.0000E+00
    -14.934  0.0000E+00  0.0000E+00  0.0000E+00  0.0000E+00  0.0000E+00  0.0000E+00  0.0000E+00  0.0000E+00  0.0000E+00  0.0000E+00  0.0000E+00  0.0000E+00  0.0000E+00  0.0000E+00  0.0000E+00  0.0000E+00  0.0000E+00  0.0000E+00
    -14.845  0.0000E+00  0.0000E+00  0.0000E+00  0.0000E+00  0.0000E+00  0.0000E+00  0.0000E+00  0.0000E+00  0.0000E+00  0.0000E+00  0.0000E+00  0.0000E+00  0.0000E+00  0.0000E+00  0.0000E+00  0.0000E+00  0.0000E+00  0.0000E+00
    -14.756  0.0000E+00  0.0000E+00  0.0000E+00  0.0000E+00  0.0000E+00  0.0000E+00  0.0000E+00  0.0000E+00  0.0000E+00  0.0000E+00  0.0000E+00  0.0000E+00  0.0000E+00  0.0000E+00  0.0000E+00  0.0000E+00  0.0000E+00  0.0000E+00
    -14.666  0.0000E+00  0.0000E+00  0.0000E+00  0.0000E+00  0.0000E+00  0.0000E+00  0.0000E+00  0.0000E+00  0.0000E+00  0.0000E+00  0.0000E+00  0.0000E+00  0.0000E+00  0.0000E+00  0.0000E+00  0.0000E+00  0.0000E+00  0.0000E+00
    -14.577  0.0000E+00  0.0000E+00  0.0000E+00  0.0000E+00  0.0000E+00  0.0000E+00  0.0000E+00  0.0000E+00  0.0000E+00  0.0000E+00  0.0000E+00  0.0000E+00  0.0000E+00  0.0000E+00  0.0000E+00  0.0000E+00  0.0000E+00  0.0000E+00
    -14.487  0.0000E+00  0.0000E+00  0.0000E+00  0.0000E+00  0.0000E+00  0.0000E+00  0.0000E+00  0.0000E+00  0.0000E+00  0.0000E+00  0.0000E+00  0.0000E+00  0.0000E+00  0.0000E+00  0.0000E+00  0.0000E+00  0.0000E+00  0.0000E+00
    -14.398  0.0000E+00  0.0000E+00  0.0000E+00  0.0000E+00  0.0000E+00  0.0000E+00  0.0000E+00  0.0000E+00  0.0000E+00  0.0000E+00  0.0000E+00  0.0000E+00  0.0000E+00  0.0000E+00  0.0000E+00  0.0000E+00  0.0000E+00  0.0000E+00
    -14.309  0.0000E+00  0.0000E+00  0.0000E+00  0.0000E+00  0.0000E+00  0.0000E+00  0.0000E+00  0.0000E+00  0.0000E+00  0.0000E+00  0.0000E+00  0.0000E+00  0.0000E+00  0.0000E+00  0.0000E+00  0.0000E+00  0.0000E+00  0.0000E+00
    -14.219  0.0000E+00  0.0000E+00  0.0000E+00  0.0000E+00  0.0000E+00  0.0000E+00  0.0000E+00  0.0000E+00  0.0000E+00  0.0000E+00  0.0000E+00  0.0000E+00  0.0000E+00  0.0000E+00  0.0000E+00  0.0000E+00  0.0000E+00  0.0000E+00
    -14.130  0.4596E-02  0.3956E-02  0.2961E-04  0.2833E-04  0.1392E-04  0.1195E-04  0.7614E-04  0.7079E-04  0.3413E-07  0.1480E-07  0.1482E-07  0.1317E-07  0.7252E-06  0.6714E-06  0.9576E-08  0.2157E-07  0.1357E-05  0.1178E-05
    -14.040  0.7547E-02  0.6441E-02  0.1484E-03  0.1428E-03  0.6550E-04  0.5659E-04  0.3392E-03  0.3167E-03  0.2399E-06  0.1190E-06  0.6146E-07  0.6184E-07  0.8998E-05  0.8404E-05  0.6230E-07  0.8848E-07  0.1626E-04  0.1407E-04
    -13.951  0.9573E-02  0.8066E-02  0.3219E-03  0.3143E-03  0.1462E-03  0.1280E-03  0.7510E-03  0.7021E-03  0.6932E-06  0.3874E-06  0.1605E-06  0.1418E-06  0.3442E-04  0.3271E-04  0.2149E-06  0.2349E-06  0.6219E-04  0.5380E-04
    -13.862  0.1125E-01  0.9267E-02  0.5550E-03  0.5561E-03  0.2695E-03  0.2430E-03  0.1289E-02  0.1211E-02  0.1480E-05  0.8777E-06  0.3576E-06  0.2947E-06  0.8676E-04  0.8519E-04  0.5364E-06  0.4978E-06  0.1646E-03  0.1426E-03
    -13.772  0.1319E-01  0.9961E-02  0.8799E-03  0.9785E-03  0.4284E-03  0.4632E-03  0.1968E-02  0.1921E-02  0.2872E-05  0.1711E-05  0.8413E-06  0.5471E-06  0.1857E-03  0.1967E-03  0.1158E-05  0.8717E-06  0.3661E-03  0.3215E-03
    -13.683  0.1337E-01  0.1058E-01  0.1353E-02  0.1363E-02  0.8115E-03  0.6646E-03  0.2780E-02  0.2531E-02  0.4212E-05  0.2902E-05  0.1339E-05  0.1146E-05  0.3590E-03  0.4173E-03  0.1602E-05  0.1476E-05  0.7302E-03  0.6419E-03
    -13.593  0.1359E-01  0.1196E-01  0.2170E-02  0.1946E-02  0.1787E-02  0.1375E-02  0.3602E-02  0.3100E-02  0.5475E-05  0.4019E-05  0.3109E-05  0.2571E-05  0.8658E-03  0.8225E-03  0.2552E-05  0.2267E-05  0.1362E-02  0.1126E-02
    -13.504  0.1381E-01  0.1254E-01  0.3224E-02  0.2834E-02  0.3204E-02  0.2639E-02  0.4366E-02  0.3748E-02  0.6656E-05  0.4893E-05  0.5807E-05  0.4489E-05  0.2078E-02  0.1722E-02  0.3863E-05  0.3131E-05  0.2381E-02  0.1872E-02
    -13.415  0.1377E-01  0.1274E-01  0.4943E-02  0.4327E-02  0.5256E-02  0.4579E-02  0.5413E-02  0.4696E-02  0.7817E-05  0.5740E-05  0.9331E-05  0.7008E-05  0.4819E-02  0.3709E-02  0.5340E-05  0.4092E-05  0.4315E-02  0.3280E-02
    -13.325  0.1361E-01  0.1250E-01  0.8438E-02  0.7493E-02  0.8930E-02  0.8191E-02  0.7128E-02  0.6457E-02  0.8860E-05  0.6435E-05  0.1399E-04  0.1043E-04  0.1312E-01  0.9799E-02  0.6653E-05  0.4883E-05  0.8511E-02  0.6122E-02
    -13.236  0.1079E-01  0.1078E-01  0.2293E-01  0.1919E-01  0.1987E-01  0.1859E-01  0.1724E-01  0.1536E-01  0.9419E-05  0.7070E-05  0.2012E-04  0.1527E-04  0.5117E-01  0.4023E-01  0.6705E-05  0.5027E-05  0.1697E-01  0.1233E-01
    -13.146  0.0000E+00  0.0000E+00  0.0000E+00  0.0000E+00  0.0000E+00  0.0000E+00  0.0000E+00  0.0000E+00  0.0000E+00  0.0000E+00  0.0000E+00  0.0000E+00  0.0000E+00  0.0000E+00  0.0000E+00  0.0000E+00  0.0000E+00  0.0000E+00
    -13.057  0.0000E+00  0.0000E+00  0.0000E+00  0.0000E+00  0.0000E+00  0.0000E+00  0.0000E+00  0.0000E+00  0.0000E+00  0.0000E+00  0.0000E+00  0.0000E+00  0.0000E+00  0.0000E+00  0.0000E+00  0.0000E+00  0.0000E+00  0.0000E+00
    -12.968  0.0000E+00  0.0000E+00  0.0000E+00  0.0000E+00  0.0000E+00  0.0000E+00  0.0000E+00  0.0000E+00  0.0000E+00  0.0000E+00  0.0000E+00  0.0000E+00  0.0000E+00  0.0000E+00  0.0000E+00  0.0000E+00  0.0000E+00  0.0000E+00
    -12.878  0.0000E+00  0.0000E+00  0.0000E+00  0.0000E+00  0.0000E+00  0.0000E+00  0.0000E+00  0.0000E+00  0.0000E+00  0.0000E+00  0.0000E+00  0.0000E+00  0.0000E+00  0.0000E+00  0.0000E+00  0.0000E+00  0.0000E+00  0.0000E+00
    -12.789  0.0000E+00  0.0000E+00  0.0000E+00  0.0000E+00  0.0000E+00  0.0000E+00  0.0000E+00  0.0000E+00  0.0000E+00  0.0000E+00  0.0000E+00  0.0000E+00  0.0000E+00  0.0000E+00  0.0000E+00  0.0000E+00  0.0000E+00  0.0000E+00
    -12.699  0.0000E+00  0.0000E+00  0.0000E+00  0.0000E+00  0.0000E+00  0.0000E+00  0.0000E+00  0.0000E+00  0.0000E+00  0.0000E+00  0.0000E+00  0.0000E+00  0.0000E+00  0.0000E+00  0.0000E+00  0.0000E+00  0.0000E+00  0.0000E+00
    -12.610  0.0000E+00  0.0000E+00  0.0000E+00  0.0000E+00  0.0000E+00  0.0000E+00  0.0000E+00  0.0000E+00  0.0000E+00  0.0000E+00  0.0000E+00  0.0000E+00  0.0000E+00  0.0000E+00  0.0000E+00  0.0000E+00  0.0000E+00  0.0000E+00
    -12.521  0.0000E+00  0.0000E+00  0.0000E+00  0.0000E+00  0.0000E+00  0.0000E+00  0.0000E+00  0.0000E+00  0.0000E+00  0.0000E+00  0.0000E+00  0.0000E+00  0.0000E+00  0.0000E+00  0.0000E+00  0.0000E+00  0.0000E+00  0.0000E+00
    -12.431  0.0000E+00  0.0000E+00  0.0000E+00  0.0000E+00  0.0000E+00  0.0000E+00  0.0000E+00  0.0000E+00  0.0000E+00  0.0000E+00  0.0000E+00  0.0000E+00  0.0000E+00  0.0000E+00  0.0000E+00  0.0000E+00  0.0000E+00  0.0000E+00
    -12.342  0.0000E+00  0.0000E+00  0.0000E+00  0.0000E+00  0.0000E+00  0.0000E+00  0.0000E+00  0.0000E+00  0.0000E+00  0.0000E+00  0.0000E+00  0.0000E+00  0.0000E+00  0.0000E+00  0.0000E+00  0.0000E+00  0.0000E+00  0.0000E+00
    -12.252  0.0000E+00  0.0000E+00  0.0000E+00  0.0000E+00  0.0000E+00  0.0000E+00  0.0000E+00  0.0000E+00  0.0000E+00  0.0000E+00  0.0000E+00  0.0000E+00  0.0000E+00  0.0000E+00  0.0000E+00  0.0000E+00  0.0000E+00  0.0000E+00
    -12.163  0.0000E+00  0.0000E+00  0.0000E+00  0.0000E+00  0.0000E+00  0.0000E+00  0.0000E+00  0.0000E+00  0.0000E+00  0.0000E+00  0.0000E+00  0.0000E+00  0.0000E+00  0.0000E+00  0.0000E+00  0.0000E+00  0.0000E+00  0.0000E+00
    -12.074  0.0000E+00  0.0000E+00  0.0000E+00  0.0000E+00  0.0000E+00  0.0000E+00  0.0000E+00  0.0000E+00  0.0000E+00  0.0000E+00  0.0000E+00  0.0000E+00  0.0000E+00  0.0000E+00  0.0000E+00  0.0000E+00  0.0000E+00  0.0000E+00
    -11.984  0.0000E+00  0.0000E+00  0.0000E+00  0.0000E+00  0.0000E+00  0.0000E+00  0.0000E+00  0.0000E+00  0.0000E+00  0.0000E+00  0.0000E+00  0.0000E+00  0.0000E+00  0.0000E+00  0.0000E+00  0.0000E+00  0.0000E+00  0.0000E+00
    -11.895  0.0000E+00  0.0000E+00  0.0000E+00  0.0000E+00  0.0000E+00  0.0000E+00  0.0000E+00  0.0000E+00  0.0000E+00  0.0000E+00  0.0000E+00  0.0000E+00  0.0000E+00  0.0000E+00  0.0000E+00  0.0000E+00  0.0000E+00  0.0000E+00
    -11.805  0.0000E+00  0.0000E+00  0.0000E+00  0.0000E+00  0.0000E+00  0.0000E+00  0.0000E+00  0.0000E+00  0.0000E+00  0.0000E+00  0.0000E+00  0.0000E+00  0.0000E+00  0.0000E+00  0.0000E+00  0.0000E+00  0.0000E+00  0.0000E+00
    -11.716  0.0000E+00  0.0000E+00  0.0000E+00  0.0000E+00  0.0000E+00  0.0000E+00  0.0000E+00  0.0000E+00  0.0000E+00  0.0000E+00  0.0000E+00  0.0000E+00  0.0000E+00  0.0000E+00  0.0000E+00  0.0000E+00  0.0000E+00  0.0000E+00