    4    4    1    2
  0.1098546E+02  0.5445216E-09  0.5445216E-09  0.5445216E-09  0.5000000E-15
  1.000000000000000E-004
  CAR 
 MnO double cell                         
     26    770     17
 
  0.2500000E-01  0.2500000E-01  0.2500000E-01  0.2500000E-03
    1      -14.185961    -14.185961   1.000000   1.000000
    2      -13.228938    -13.228938   1.000000   1.000000
    3       -2.007092     -2.007092   1.000000   1.000000
    4        0.223361      0.223361   1.000000   1.000000
    5        0.223361      0.223361   1.000000   1.000000
    6        2.252102      2.252102   1.000000   1.000000
    7        2.259408      2.259408   1.000000   1.000000
    8        2.259408      2.259408   1.000000   1.000000
    9        3.083821      3.083821   1.000000   1.000000
   10        3.083821      3.083821   1.000000   1.000000
   11        3.282314      3.282314   1.000000   1.000000
   12        4.385943      4.385943   1.000000   1.000000
   13        4.385943      4.385943   1.000000   1.000000
   14        5.983152      5.983152   0.000000   0.000000
   15        7.102835      7.102835   0.000000   0.000000
   16        7.102963      7.104247   0.000000   0.000000
   17        7.114522      7.117306   0.000000   0.000000
 
  0.7500000E-01  0.2500000E-01  0.2500000E-01  0.7500000E-03
    1      -14.164402    -14.164402   1.000000   1.000000
    2      -13.231167    -13.231168   1.000000   1.000000
    3       -1.962342     -1.962342   1.000000   1.000000
    4        0.211335      0.211334   1.000000   1.000000
    5        0.228057      0.228057   1.000000   1.000000
    6        1.990124      1.990123   1.000000   1.000000
    7        2.185006      2.185006   1.000000   1.000000
    8        2.196308      2.196308   1.000000   1.000000
    9        3.105447      3.105447   1.000000   1.000000
   10        3.151451      3.151451   1.000000   1.000000
   11        3.316650      3.316650   1.000000   1.000000
   12        4.386940      4.386940   1.000000   1.000000
   13        4.471603      4.471603   1.000000   1.000000
   14        6.164146      6.164146   0.000000   0.000000
   15        7.080687      7.080827   0.000000   0.000000
   16        7.115941      7.115370   0.000000   0.000000
   17        7.116522      7.116248   0.000000   0.000000
 
  0.1250000E+00  0.2500000E-01  0.2500000E-01  0.7500000E-03
    1      -14.105536    -14.105536   1.000000   1.000000
    2      -13.228611    -13.228611   1.000000   1.000000
    3       -1.844065     -1.844065   1.000000   1.000000
    4        0.168917      0.168917   1.000000   1.000000
    5        0.249054      0.249054   1.000000   1.000000
    6        1.466986      1.466986   1.000000   1.000000
    7        2.010054      2.010054   1.000000   1.000000
    8        2.034062      2.034062   1.000000   1.000000
    9        3.110749      3.110749   1.000000   1.000000
   10        3.284427      3.284427   1.000000   1.000000
   11        3.407641      3.407641   1.000000   1.000000
   12        4.417954      4.417954   1.000000   1.000000
   13        4.582462      4.582462   1.000000   1.000000
   14        6.592421      6.592418   0.000000   0.000000
   15        7.019872      7.019889   0.000000   0.000000
   16        7.152451      7.152679   0.000000   0.000000
   17        7.163556      7.163316   0.000000   0.000000
 
  0.1750000E+00  0.2500000E-01  0.2500000E-01  0.7500000E-03
    1      -14.015903    -14.015903   1.000000   1.000000
    2      -13.223365    -13.223365   1.000000   1.000000
    3       -1.664481     -1.664481   1.000000   1.000000
    4        0.089418      0.089418   1.000000   1.000000
    5        0.279351      0.279351   1.000000   1.000000
    6        0.878675      0.878675   1.000000   1.000000
    7        1.803054      1.803054   1.000000   1.000000
    8        1.813210      1.813210   1.000000   1.000000
    9        3.084995      3.084995   1.000000   1.000000
   10        3.414443      3.414443   1.000000   1.000000
   11        3.515838      3.515838   1.000000   1.000000
   12        4.477737      4.477737   1.000000   1.000000
   13        4.647665      4.647665   1.000000   1.000000
   14        6.864187      6.864209   0.000000   0.000000
   15        7.035383      7.035511   0.000000   0.000000
   16        7.239475      7.239575   0.000000   0.000000
   17        7.332987      7.390031   0.000000   0.000000
 
  0.2250000E+00  0.2500000E-01  0.2500000E-01  0.7500000E-03
    1      -13.902044    -13.902044   1.000000   1.000000
    2      -13.215274    -13.215274   1.000000   1.000000
    3       -1.442332     -1.442332   1.000000   1.000000
    4       -0.028403     -0.028403   1.000000   1.000000
    5        0.314223      0.314223   1.000000   1.000000
    6        0.319049      0.319049   1.000000   1.000000
    7        1.559801      1.559801   1.000000   1.000000
    8        1.598520      1.598520   1.000000   1.000000
    9        3.045599      3.045599   1.000000   1.000000
   10        3.514992      3.514992   1.000000   1.000000
   11        3.626221      3.626221   1.000000   1.000000
   12        4.563989      4.563989   1.000000   1.000000
   13        4.665899      4.665899   1.000000   1.000000
   14        6.778159      6.778159   0.000000   0.000000
   15        7.170871      7.170873   0.000000   0.000000
   16        7.342497      7.342329   0.000000   0.000000
   17        7.554962      7.546035   0.000000   0.000000
 
  0.2750000E+00  0.2500000E-01  0.2500000E-01  0.7500000E-03
    1      -13.773281    -13.773281   1.000000   1.000000
    2      -13.203217    -13.203217   1.000000   1.000000
    3       -1.205019     -1.205019   1.000000   1.000000
    4       -0.229744     -0.229744   1.000000   1.000000
    5       -0.105831     -0.105831   1.000000   1.000000
    6        0.347516      0.347516   1.000000   1.000000
    7        1.291813      1.291813   1.000000   1.000000
    8        1.414360      1.414360   1.000000   1.000000
    9        3.002409      3.002409   1.000000   1.000000
   10        3.584104      3.584104   1.000000   1.000000
   11        3.738429      3.738429   1.000000   1.000000
   12        4.655258      4.655258   1.000000   1.000000
   13        4.666039      4.666039   1.000000   1.000000
   14        6.658368      6.658368   0.000000   0.000000
   15        7.323095      7.323099   0.000000   0.000000
   16        7.461051      7.461031   0.000000   0.000000
   17        7.618192      7.622051   0.000000   0.000000
 
  0.3250000E+00  0.2500000E-01  0.2500000E-01  0.7500000E-03
    1      -13.640694    -13.640694   1.000000   1.000000
    2      -13.192845    -13.192845   1.000000   1.000000
    3       -0.997954     -0.997954   1.000000   1.000000
    4       -0.604814     -0.604814   1.000000   1.000000
    5       -0.260699     -0.260699   1.000000   1.000000
    6        0.371329      0.371329   1.000000   1.000000
    7        1.026355      1.026354   1.000000   1.000000
    8        1.261112      1.261112   1.000000   1.000000
    9        2.960861      2.960861   1.000000   1.000000
   10        3.629364      3.629364   1.000000   1.000000
   11        3.837535      3.837535   1.000000   1.000000
   12        4.650799      4.650799   1.000000   1.000000
   13        4.771428      4.771428   1.000000   1.000000
   14        6.533969      6.533969   0.000000   0.000000
   15        7.499944      7.499942   0.000000   0.000000
   16        7.581450      7.581461   0.000000   0.000000
   17        7.706185      7.742984   0.000000   0.000000
 
  0.3750000E+00  0.2500000E-01  0.2500000E-01  0.7500000E-03
    1      -13.513156    -13.513156   1.000000   1.000000
    2      -13.185605    -13.185605   1.000000   1.000000
    3       -0.939207     -0.939207   1.000000   1.000000
    4       -0.854872     -0.854872   1.000000   1.000000
    5       -0.312964     -0.312964   1.000000   1.000000
    6        0.386106      0.386106   1.000000   1.000000
    7        0.783883      0.783883   1.000000   1.000000
    8        1.144407      1.144407   1.000000   1.000000
    9        2.925591      2.925591   1.000000   1.000000
   10        3.660894      3.660894   1.000000   1.000000
   11        3.903231      3.903231   1.000000   1.000000
   12        4.692880      4.692880   1.000000   1.000000
   13        4.869718      4.869718   1.000000   1.000000
   14        6.419068      6.419068   0.000000   0.000000
   15        7.649383      7.649324   0.000000   0.000000
   16        7.690604      7.690736   0.000000   0.000000
   17        7.845327      7.904123   0.000000   0.000000
 
  0.4250000E+00  0.2500000E-01  0.2500000E-01  0.7500000E-03
    1      -13.401603    -13.401603   1.000000   1.000000
    2      -13.187377    -13.187377   1.000000   1.000000
    3       -1.119770     -1.119770   1.000000   1.000000
    4       -0.900241     -0.900241   1.000000   1.000000
    5       -0.249946     -0.249946   1.000000   1.000000
    6        0.392508      0.392508   1.000000   1.000000
    7        0.578447      0.578447   1.000000   1.000000
    8        1.063161      1.063162   1.000000   1.000000
    9        2.899418      2.899418   1.000000   1.000000
   10        3.682900      3.682900   1.000000   1.000000
   11        3.930238      3.930238   1.000000   1.000000
   12        4.778246      4.778246   1.000000   1.000000
   13        4.949875      4.949875   1.000000   1.000000
   14        6.325199      6.325199   0.000000   0.000000
   15        7.736447      7.736449   0.000000   0.000000
   16        7.775804      7.775784   0.000000   0.000000
   17        8.029271      8.029795   0.000000   0.000000
 
  0.4750000E+00  0.2500000E-01  0.2500000E-01  0.7500000E-03
    1      -13.312263    -13.312263   1.000000   1.000000
    2      -13.205108    -13.205107   1.000000   1.000000
    3       -1.235217     -1.235217   1.000000   1.000000
    4       -0.956799     -0.956799   1.000000   1.000000
    5       -0.157960     -0.157960   1.000000   1.000000
    6        0.396044      0.396044   1.000000   1.000000
    7        0.425366      0.425366   1.000000   1.000000
    8        1.011998      1.011998   1.000000   1.000000
    9        2.885122      2.885122   1.000000   1.000000
   10        3.696648      3.696648   1.000000   1.000000
   11        3.936408      3.936408   1.000000   1.000000
   12        4.862792      4.862792   1.000000   1.000000
   13        5.005410      5.005410   1.000000   1.000000
   14        6.261928      6.261928   0.000000   0.000000
   15        7.784366      7.784574   0.000000   0.000000
   16        7.829184      7.829204   0.000000   0.000000
   17        8.173366      8.357571   0.000000   0.000000
 
 -0.4750000E+00  0.2500000E-01  0.2500000E-01  0.7500000E-03
    1      -13.254110    -13.254110   1.000000   1.000000
    2      -13.239209    -13.239209   1.000000   1.000000
    3       -1.284246     -1.284246   1.000000   1.000000
    4       -0.956614     -0.956614   1.000000   1.000000
    5       -0.117373     -0.117373   1.000000   1.000000
    6        0.347498      0.347498   1.000000   1.000000
    7        0.401109      0.401109   1.000000   1.000000
    8        0.987464      0.987464   1.000000   1.000000
    9        2.884490      2.884490   1.000000   1.000000
   10        3.701628      3.701628   1.000000   1.000000
   11        3.936399      3.936399   1.000000   1.000000
   12        4.900986      4.900986   1.000000   1.000000
   13        5.030431      5.030431   1.000000   1.000000
   14        6.236150      6.236150   0.000000   0.000000
   15        7.803401      7.803432   0.000000   0.000000
   16        7.846962      7.846984   0.000000   0.000000
   17        8.228228      8.265314   0.000000   0.000000
 
 -0.4250000E+00  0.2500000E-01  0.2500000E-01  0.7500000E-03
    1      -13.311186    -13.311186   1.000000   1.000000
    2      -13.207301    -13.207301   1.000000   1.000000
    3       -1.261861     -1.261861   1.000000   1.000000
    4       -0.882205     -0.882205   1.000000   1.000000
    5       -0.179279     -0.179279   1.000000   1.000000
    6        0.381614      0.381614   1.000000   1.000000
    7        0.409345      0.409345   1.000000   1.000000
    8        0.990059      0.990059   1.000000   1.000000
    9        2.897075      2.897075   1.000000   1.000000
   10        3.696969      3.696969   1.000000   1.000000
   11        3.933160      3.933160   1.000000   1.000000
   12        4.878694      4.878694   1.000000   1.000000
   13        5.022764      5.022764   1.000000   1.000000
   14        6.250594      6.250594   0.000000   0.000000
   15        7.793714      7.793747   0.000000   0.000000
   16        7.828457      7.828426   0.000000   0.000000
   17        8.201215      8.234157   0.000000   0.000000
 
 -0.3750000E+00  0.2500000E-01  0.2500000E-01  0.7500000E-03
    1      -13.402251    -13.402251   1.000000   1.000000
    2      -13.187020    -13.187020   1.000000   1.000000
    3       -1.148855     -1.148855   1.000000   1.000000
    4       -0.770250     -0.770250   1.000000   1.000000
    5       -0.316516     -0.316516   1.000000   1.000000
    6        0.417122      0.417122   1.000000   1.000000
    7        0.512827      0.512827   1.000000   1.000000
    8        1.025027      1.025027   1.000000   1.000000
    9        2.921275      2.921275   1.000000   1.000000
   10        3.682759      3.682759   1.000000   1.000000
   11        3.919930      3.919930   1.000000   1.000000
   12        4.818970      4.818970   1.000000   1.000000
   13        4.985467      4.985467   1.000000   1.000000
   14        6.303966      6.303966   0.000000   0.000000
   15        7.746983      7.746974   0.000000   0.000000
   16        7.775325      7.775322   0.000000   0.000000
   17        8.070961      8.071914   0.000000   0.000000
 
 -0.3250000E+00  0.2500000E-01  0.2500000E-01  0.7500000E-03
    1      -13.517118    -13.517118   1.000000   1.000000
    2      -13.182232    -13.182232   1.000000   1.000000
    3       -0.932037     -0.932037   1.000000   1.000000
    4       -0.740088     -0.740088   1.000000   1.000000
    5       -0.405376     -0.405376   1.000000   1.000000
    6        0.415138      0.415138   1.000000   1.000000
    7        0.708619      0.708619   1.000000   1.000000
    8        1.096533      1.096533   1.000000   1.000000
    9        2.954430      2.954430   1.000000   1.000000
   10        3.658199      3.658199   1.000000   1.000000
   11        3.881044      3.881044   1.000000   1.000000
   12        4.765008      4.765008   1.000000   1.000000
   13        4.919464      4.919464   1.000000   1.000000
   14        6.390428      6.390428   0.000000   0.000000
   15        7.648294      7.648288   0.000000   0.000000
   16        7.690995      7.690989   0.000000   0.000000
   17        7.948595      7.936972   0.000000   0.000000
 
 -0.2750000E+00  0.2500000E-01  0.2500000E-01  0.7500000E-03
    1      -13.646782    -13.646782   1.000000   1.000000
    2      -13.186039    -13.186039   1.000000   1.000000
    3       -0.933776     -0.933776   1.000000   1.000000
    4       -0.595554     -0.595553   1.000000   1.000000
    5       -0.310843     -0.310843   1.000000   1.000000
    6        0.398641      0.398641   1.000000   1.000000
    7        0.950643      0.950643   1.000000   1.000000
    8        1.212737      1.212737   1.000000   1.000000
    9        2.993753      2.993753   1.000000   1.000000
   10        3.622092      3.622092   1.000000   1.000000
   11        3.806371      3.806371   1.000000   1.000000
   12        4.749885      4.749885   1.000000   1.000000
   13        4.833572      4.833572   1.000000   1.000000
   14        6.500993      6.500993   0.000000   0.000000
   15        7.499060      7.499060   0.000000   0.000000
   16        7.584424      7.584064   0.000000   0.000000
   17        7.817054      7.822927   0.000000   0.000000
 
 -0.2250000E+00  0.2500000E-01  0.2500000E-01  0.7500000E-03
    1      -13.781522    -13.781522   1.000000   1.000000
    2      -13.194064    -13.194064   1.000000   1.000000
    3       -1.192975     -1.192975   1.000000   1.000000
    4       -0.194529     -0.194529   1.000000   1.000000
    5       -0.133274     -0.133274   1.000000   1.000000
    6        0.369192      0.369191   1.000000   1.000000
    7        1.219623      1.219623   1.000000   1.000000
    8        1.371004      1.371004   1.000000   1.000000
    9        3.035936      3.035936   1.000000   1.000000
   10        3.570244      3.570244   1.000000   1.000000
   11        3.705010      3.705010   1.000000   1.000000
   12        4.735196      4.735196   1.000000   1.000000
   13        4.760526      4.760526   1.000000   1.000000
   14        6.623762      6.623763   0.000000   0.000000
   15        7.335723      7.336492   0.000000   0.000000
   16        7.466258      7.467271   0.000000   0.000000
   17        7.765595      7.967168   0.000000   0.000000
 
 -0.1750000E+00  0.2500000E-01  0.2500000E-01  0.7500000E-03
    1      -13.911016    -13.911016   1.000000   1.000000
    2      -13.204886    -13.204886   1.000000   1.000000
    3       -1.455730     -1.455730   1.000000   1.000000
    4       -0.041738     -0.041738   1.000000   1.000000
    5        0.329363      0.329363   1.000000   1.000000
    6        0.370979      0.370980   1.000000   1.000000
    7        1.498338      1.498338   1.000000   1.000000
    8        1.563442      1.563442   1.000000   1.000000
    9        3.077182      3.077182   1.000000   1.000000
   10        3.494827      3.494827   1.000000   1.000000
   11        3.593598      3.593598   1.000000   1.000000
   12        4.633067      4.633067   1.000000   1.000000
   13        4.757148      4.757148   1.000000   1.000000
   14        6.745216      6.745216   0.000000   0.000000
   15        7.190038      7.190045   0.000000   0.000000
   16        7.350178      7.350235   0.000000   0.000000
   17        7.656407      7.642084   0.000000   0.000000
 
 -0.1250000E+00  0.2500000E-01  0.2500000E-01  0.7500000E-03
    1      -14.024499    -14.024499   1.000000   1.000000
    2      -13.213243    -13.213243   1.000000   1.000000
    3       -1.686422     -1.686422   1.000000   1.000000
    4        0.070963      0.070963   1.000000   1.000000
    5        0.288854      0.288853   1.000000   1.000000
    6        0.956197      0.956197   1.000000   1.000000
    7        1.767729      1.767729   1.000000   1.000000
    8        1.777496      1.777496   1.000000   1.000000
    9        3.112462      3.112462   1.000000   1.000000
   10        3.391366      3.391366   1.000000   1.000000
   11        3.484851      3.484851   1.000000   1.000000
   12        4.539192      4.539192   1.000000   1.000000
   13        4.704713      4.704713   1.000000   1.000000
   14        6.836400      6.836400   0.000000   0.000000
   15        7.026669      7.026668   0.000000   0.000000
   16        7.249373      7.248861   0.000000   0.000000
   17        7.336409      7.341202   0.000000   0.000000
 
 -0.7500000E-01  0.2500000E-01  0.2500000E-01  0.7500000E-03
    1      -14.112107    -14.112107   1.000000   1.000000
    2      -13.220695    -13.220695   1.000000   1.000000
    3       -1.864458     -1.864458   1.000000   1.000000
    4        0.152142      0.152142   1.000000   1.000000
    5        0.254352      0.254351   1.000000   1.000000
    6        1.552196      1.552196   1.000000   1.000000
    7        1.994892      1.994892   1.000000   1.000000
    8        2.009622      2.009622   1.000000   1.000000
    9        3.131960      3.131960   1.000000   1.000000
   10        3.263405      3.263405   1.000000   1.000000
   11        3.383061      3.383061   1.000000   1.000000
   12        4.463042      4.463042   1.000000   1.000000
   13        4.590825      4.590825   1.000000   1.000000
   14        6.535090      6.535090   0.000000   0.000000
   15        6.998679      6.998708   0.000000   0.000000
   16        7.170735      7.170757   0.000000   0.000000
   17        7.175866      7.172635   0.000000   0.000000
 
 -0.2500000E-01  0.2500000E-01  0.2500000E-01  0.7500000E-03
    1      -14.167814    -14.167814   1.000000   1.000000
    2      -13.226542    -13.226542   1.000000   1.000000
    3       -1.974105     -1.974105   1.000000   1.000000
    4        0.201086      0.201086   1.000000   1.000000
    5        0.231233      0.231233   1.000000   1.000000
    6        2.051786      2.051787   1.000000   1.000000
    7        2.178923      2.178923   1.000000   1.000000
    8        2.190975      2.190976   1.000000   1.000000
    9        3.117407      3.117407   1.000000   1.000000
   10        3.138526      3.138526   1.000000   1.000000
   11        3.306595      3.306595   1.000000   1.000000
   12        4.411056      4.411056   1.000000   1.000000
   13        4.444129      4.444129   1.000000   1.000000
   14        6.130298      6.130298   0.000000   0.000000
   15        7.071559      7.071556   0.000000   0.000000
   16        7.124760      7.121282   0.000000   0.000000
   17        7.127820      7.128740   0.000000   0.000000
 
  0.7500000E-01  0.7500000E-01  0.2500000E-01  0.7500000E-03
    1      -14.160908    -14.160908   1.000000   1.000000
    2      -13.235292    -13.235292   1.000000   1.000000
    3       -1.950127     -1.950127   1.000000   1.000000
    4        0.203677      0.203677   1.000000   1.000000
    5        0.246412      0.246412   1.000000   1.000000
    6        2.003137      2.003137   1.000000   1.000000
    7        2.136073      2.136072   1.000000   1.000000
    8        2.166281      2.166281   1.000000   1.000000
    9        3.127298      3.127298   1.000000   1.000000
   10        3.128520      3.128520   1.000000   1.000000
   11        3.317951      3.317951   1.000000   1.000000
   12        4.432814      4.432814   1.000000   1.000000
   13        4.469166      4.469166   1.000000   1.000000
   14        6.188099      6.188099   0.000000   0.000000
   15        7.054602      7.054670   0.000000   0.000000
   16        7.122830      7.125620   0.000000   0.000000
   17        7.127998      7.127566   0.000000   0.000000
 
  0.1250000E+00  0.7500000E-01  0.2500000E-01  0.1500000E-02
    1      -14.118781    -14.118781   1.000000   1.000000
    2      -13.236739    -13.236739   1.000000   1.000000
    3       -1.863431     -1.863431   1.000000   1.000000
    4        0.179809      0.179809   1.000000   1.000000
    5        0.262386      0.262386   1.000000   1.000000
    6        1.612807      1.612807   1.000000   1.000000
    7        1.999746      1.999746   1.000000   1.000000
    8        2.060768      2.060768   1.000000   1.000000
    9        3.149064      3.149064   1.000000   1.000000
   10        3.208291      3.208291   1.000000   1.000000
   11        3.382051      3.382051   1.000000   1.000000
   12        4.446901      4.446901   1.000000   1.000000
   13        4.577277      4.577277   1.000000   1.000000
   14        6.504913      6.504913   0.000000   0.000000
   15        7.024405      7.024399   0.000000   0.000000
   16        7.092642      7.092759   0.000000   0.000000
   17        7.190569      7.191231   0.000000   0.000000
 
  0.1750000E+00  0.7500000E-01  0.2500000E-01  0.1500000E-02
    1      -14.043375    -14.043375   1.000000   1.000000
    2      -13.234440    -13.234440   1.000000   1.000000
    3       -1.712567     -1.712567   1.000000   1.000000
    4        0.129371      0.129371   1.000000   1.000000
    5        0.278344      0.278344   1.000000   1.000000
    6        1.069440      1.069440   1.000000   1.000000
    7        1.802591      1.802591   1.000000   1.000000
    8        1.902968      1.902968   1.000000   1.000000
    9        3.130428      3.130428   1.000000   1.000000
   10        3.341449      3.341449   1.000000   1.000000
   11        3.484750      3.484750   1.000000   1.000000
   12        4.455077      4.455077   1.000000   1.000000
   13        4.656435      4.656435   1.000000   1.000000
   14        6.903159      6.903160   0.000000   0.000000
   15        7.020644      7.020642   0.000000   0.000000
   16        7.081700      7.081706   0.000000   0.000000
   17        7.320472      7.330602   0.000000   0.000000
 
  0.2250000E+00  0.7500000E-01  0.2500000E-01  0.1500000E-02
    1      -13.941511    -13.941511   1.000000   1.000000
    2      -13.227771    -13.227771   1.000000   1.000000
    3       -1.514687     -1.514687   1.000000   1.000000
    4        0.040148      0.040148   1.000000   1.000000
    5        0.290899      0.290899   1.000000   1.000000
    6        0.525512      0.525512   1.000000   1.000000
    7        1.592106      1.592105   1.000000   1.000000
    8        1.701068      1.701067   1.000000   1.000000
    9        3.093222      3.093222   1.000000   1.000000
   10        3.465517      3.465517   1.000000   1.000000
   11        3.593372      3.593372   1.000000   1.000000
   12        4.471953      4.471953   1.000000   1.000000
   13        4.694893      4.694893   1.000000   1.000000
   14        6.884511      6.884511   0.000000   0.000000
   15        7.094170      7.094183   0.000000   0.000000
   16        7.252756      7.252756   0.000000   0.000000
   17        7.499957      7.499581   0.000000   0.000000
 
  0.2750000E+00  0.7500000E-01  0.2500000E-01  0.1500000E-02
    1      -13.820351    -13.820351   1.000000   1.000000
    2      -13.216880    -13.216880   1.000000   1.000000
    3       -1.294312     -1.294312   1.000000   1.000000
    4       -0.118325     -0.118325   1.000000   1.000000
    5        0.044353      0.044353   1.000000   1.000000
    6        0.332855      0.332855   1.000000   1.000000
    7        1.383873      1.383873   1.000000   1.000000
    8        1.483162      1.483162   1.000000   1.000000
    9        3.050232      3.050232   1.000000   1.000000
   10        3.556155      3.556155   1.000000   1.000000
   11        3.703951      3.703951   1.000000   1.000000
   12        4.498784      4.498784   1.000000   1.000000
   13        4.716496      4.716496   1.000000   1.000000
   14        6.774904      6.774904   0.000000   0.000000
   15        7.206760      7.206759   0.000000   0.000000
   16        7.393433      7.393492   0.000000   0.000000
   17        7.596808      7.604558   0.000000   0.000000
 
  0.3250000E+00  0.7500000E-01  0.2500000E-01  0.1500000E-02
    1      -13.690603    -13.690603   1.000000   1.000000
    2      -13.203299    -13.203298   1.000000   1.000000
    3       -1.090229     -1.090229   1.000000   1.000000
    4       -0.461077     -0.461077   1.000000   1.000000
    5       -0.154917     -0.154917   1.000000   1.000000
    6        0.345770      0.345770   1.000000   1.000000
    7        1.163761      1.163762   1.000000   1.000000
    8        1.290440      1.290439   1.000000   1.000000
    9        3.008475      3.008475   1.000000   1.000000
   10        3.614400      3.614400   1.000000   1.000000
   11        3.808574      3.808573   1.000000   1.000000
   12        4.528063      4.528063   1.000000   1.000000
   13        4.756127      4.756127   1.000000   1.000000
   14        6.653668      6.653668   0.000000   0.000000
   15        7.352366      7.352378   0.000000   0.000000
   16        7.540190      7.540217   0.000000   0.000000
   17        7.679130      7.687960   0.000000   0.000000
 
  0.3750000E+00  0.7500000E-01  0.2500000E-01  0.1500000E-02
    1      -13.562623    -13.562623   1.000000   1.000000
    2      -13.191473    -13.191473   1.000000   1.000000
    3       -0.963834     -0.963834   1.000000   1.000000
    4       -0.775962     -0.775962   1.000000   1.000000
    5       -0.244577     -0.244577   1.000000   1.000000
    6        0.356634      0.356634   1.000000   1.000000
    7        0.930753      0.930753   1.000000   1.000000
    8        1.147893      1.147893   1.000000   1.000000
    9        2.971950      2.971950   1.000000   1.000000
   10        3.651191      3.651191   1.000000   1.000000
   11        3.884819      3.884819   1.000000   1.000000
   12        4.579557      4.579557   1.000000   1.000000
   13        4.822227      4.822227   1.000000   1.000000
   14        6.534781      6.534781   0.000000   0.000000
   15        7.497409      7.497288   0.000000   0.000000
   16        7.704983      7.703236   0.000000   0.000000
   17        7.759399      7.771837   0.000000   0.000000
 
  0.4250000E+00  0.7500000E-01  0.2500000E-01  0.1500000E-02
    1      -13.446144    -13.446144   1.000000   1.000000
    2      -13.185501    -13.185501   1.000000   1.000000
    3       -1.038912     -1.038912   1.000000   1.000000
    4       -0.914796     -0.914796   1.000000   1.000000
    5       -0.235375     -0.235375   1.000000   1.000000
    6        0.363696      0.363696   1.000000   1.000000
    7        0.711901      0.711901   1.000000   1.000000
    8        1.046789      1.046789   1.000000   1.000000
    9        2.944311      2.944311   1.000000   1.000000
   10        3.675674      3.675674   1.000000   1.000000
   11        3.919965      3.919965   1.000000   1.000000
   12        4.676206      4.676206   1.000000   1.000000
   13        4.892733      4.892733   1.000000   1.000000
   14        6.430527      6.430527   0.000000   0.000000
   15        7.619489      7.619506   0.000000   0.000000
   16        7.787343      7.787341   0.000000   0.000000
   17        7.951801      7.934499   0.000000   0.000000
 
  0.4750000E+00  0.7500000E-01  0.2500000E-01  0.1500000E-02
    1      -13.348673    -13.348673   1.000000   1.000000
    2      -13.192848    -13.192848   1.000000   1.000000
    3       -1.184144     -1.184144   1.000000   1.000000
    4       -0.961920     -0.961920   1.000000   1.000000
    5       -0.166626     -0.166626   1.000000   1.000000
    6        0.370128      0.370128   1.000000   1.000000