       N       E                     dE             d eps       ncg     rms          rms(c)
DAV:   1     0.211184543995E+03    0.21118E+03   -0.10522E+04 52904   0.150E+03
DAV:   2     0.286400013355E+01   -0.20832E+03   -0.20489E+03 52448   0.386E+02
DAV:   3    -0.316989408359E+02   -0.34563E+02   -0.33440E+02 95202   0.145E+02
DAV:   4    -0.327951479985E+02   -0.10962E+01   -0.10907E+01 71926   0.309E+01
DAV:   5    -0.328225343346E+02   -0.27386E-01   -0.27351E-01 85686   0.427E+00
DAV:   6    -0.328228706174E+02   -0.33628E-03   -0.33614E-03 76279   0.464E-01
DAV:   7    -0.328228771992E+02   -0.65819E-05   -0.65781E-05 65389   0.663E-02
   1 F= -.32822877E+02 E0= -.32822877E+02  d E =0.000000E+00  mag=    -0.0000
