 running on    1 total cores
 distrk:  each k-point on    1 cores,    1 groups
 distr:  one band on    1 cores,    1 groups
 using from now: INCAR     
 vasp.5.4.4.18Apr17-6-g9f103f2a35 (build May 20 2018 16:52:39) complex          
  
 POSCAR found type information on POSCAR  Ni O 
 POSCAR found :  2 types and       4 ions
 scaLAPACK will be used
 WARNING: type information on POSCAR and POTCAR are incompatible
 POTCAR overwrites the type information in POSCAR
 typ   1 type information:  Ni Mn
 LDA part: xc-table for Ceperly-Alder, standard interpolation
 WARNING: stress and forces are not correct
 POSCAR, INCAR and KPOINTS ok, starting setup
 FFT: planning ...
 WAVECAR not read
 reading imaginary part of occupancies ...
 charge-density read from file: MnO                                     
 reading imaginary part of occupancies ...
 magnetization density read from file 1
 entering main loop
       N       E                     dE             d eps       ncg     rms          rms(c)
DAV:   1     0.211184543995E+03    0.21118E+03   -0.10522E+04 52904   0.150E+03
DAV:   2     0.286400013355E+01   -0.20832E+03   -0.20489E+03 52448   0.386E+02
DAV:   3    -0.316989408359E+02   -0.34563E+02   -0.33440E+02 95202   0.145E+02
DAV:   4    -0.327951479985E+02   -0.10962E+01   -0.10907E+01 71926   0.309E+01
DAV:   5    -0.328225343346E+02   -0.27386E-01   -0.27351E-01 85686   0.427E+00
DAV:   6    -0.328228706174E+02   -0.33628E-03   -0.33614E-03 76279   0.464E-01
DAV:   7    -0.328228771992E+02   -0.65819E-05   -0.65781E-05 65389   0.663E-02
   1 F= -.32822877E+02 E0= -.32822877E+02  d E =0.000000E+00  mag=    -0.0000
