monolayer MoS2                          
   1.00000000000000     
     3.190316    0.000000    0.000000
    -1.595158    2.762894    0.000000
     0.000000    0.000000   29.758000
   Mo   S 
     1     2
Direct
  0.333333  0.666667  0.125000
  0.666667  0.333333  0.177587
  0.666667  0.333333  0.072413
 
   28   28  252
 0.40715     0.41192     0.42618     0.44974     0.48221     0.52292     0.57084     0.62440     0.68138     0.73883    
 0.79321     0.84066     0.87754     0.90093     0.90893     0.90093     0.87754     0.84066     0.79321     0.73883    
 0.68138     0.62440     0.57084     0.52293     0.48221     0.44974     0.42618     0.41192     0.41192     0.41192    
 0.42359     0.44691     0.48173     0.52756     0.58341     0.64765     0.71778     0.79045     0.86143     0.92601    
 0.97945      1.0176      1.0375      1.0375      1.0176     0.97945     0.92601     0.86143     0.79045     0.71780    
 0.64766     0.58342     0.52756     0.48173     0.44692     0.42359     0.42618     0.41930     0.42618     0.44691    
 0.48158     0.53000     0.59144     0.66434     0.74613     0.83315     0.92070      1.0033      1.0752      1.1310    
  1.1663      1.1784      1.1663      1.1310      1.0752      1.0033     0.92071     0.83316     0.74614     0.66435    
 0.59145     0.53000     0.48158     0.44692     0.44974     0.43386     0.43386     0.44974     0.48173     0.53000    
 0.59420     0.67307     0.76415     0.86370     0.96671      1.0671      1.1583      1.2337      1.2875      1.3156    
  1.3156      1.2875      1.2337      1.1583      1.0671     0.96673     0.86372     0.76417     0.67308     0.59421    
 0.53000     0.48173     0.48221     0.45529     0.44639     0.45529     0.48220     0.52755     0.59144     0.67307    
 0.77034     0.87964     0.99590      1.1127      1.2228      1.3186      1.3929      1.4401      1.4562      1.4401    
  1.3929      1.3186      1.2228      1.1127     0.99592     0.87967     0.77036     0.67308     0.59145     0.52756    
 0.52293     0.48308     0.46341     0.46340     0.48308     0.52292     0.58341     0.66433     0.76415     0.87964    
  1.0059      1.1365      1.2637      1.3792      1.4748      1.5431      1.5787      1.5787      1.5431      1.4748    
  1.3792      1.2637      1.1365      1.0059     0.87967     0.76417     0.66435     0.58342     0.57084     0.51655    
 0.48446     0.47388     0.48446     0.51654     0.57083     0.64764     0.74613     0.86370     0.99590      1.1365    
  1.2777      1.4108      1.5267      1.6167      1.6739      1.6934      1.6739      1.6167      1.5267      1.4108    
  1.2777      1.1365     0.99592     0.86372     0.74614     0.64766     0.62440     0.55476     0.50902     0.48648    
 0.48648     0.50901     0.55475     0.62438     0.71778     0.83315     0.96671      1.1127      1.2637      1.4108    
  1.5445      1.6551      1.7343      1.7756      1.7756      1.7343      1.6551      1.5445      1.4108      1.2637    
  1.1127     0.96673     0.83316     0.71780     0.68138     0.59637     0.53636     0.50094     0.48927     0.50094    
 0.53636     0.59636     0.68137     0.79044     0.92070      1.0671      1.2228      1.3792      1.5267      1.6551    
  1.7550      1.8184      1.8401      1.8184      1.7550      1.6551      1.5267      1.3792      1.2228      1.0671    
 0.92071     0.79045     0.73883     0.63954     0.56549     0.51685     0.49289     0.49288     0.51685     0.56548    
 0.63954     0.73883     0.86143      1.0033      1.1583      1.3186      1.4748      1.6167      1.7343      1.8184    
  1.8623      1.8623      1.8184      1.7343      1.6167      1.4748      1.3186      1.1583      1.0033     0.86143    
 0.79321     0.68187     0.59500     0.53359     0.49730     0.48534     0.49731     0.53360     0.59500     0.68188    
 0.79321     0.92602      1.0752      1.2337      1.3930      1.5431      1.6739      1.7756      1.8401      1.8623    
  1.8401      1.7756      1.6739      1.5431      1.3929      1.2337      1.0752     0.92601     0.84066     0.72055    
 0.62310     0.55026     0.50232     0.47866     0.47866     0.50233     0.55027     0.62311     0.72056     0.84067    
 0.97946      1.1310      1.2876      1.4401      1.5787      1.6935      1.7756      1.8184      1.8184      1.7756    
  1.6934      1.5787      1.4401      1.2875      1.1310     0.97945     0.87754     0.75267     0.64777     0.56571    
 0.50755     0.47309     0.46171     0.47310     0.50756     0.56572     0.64779     0.75268     0.87756      1.0176    
  1.1663      1.3156      1.4562      1.5787      1.6739      1.7343      1.7550      1.7343      1.6739      1.5787    
  1.4562      1.3156      1.1663      1.0176     0.90093     0.77565     0.66703     0.57867     0.51244     0.46871    
 0.44708     0.44708     0.46872     0.51245     0.57869     0.66705     0.77567     0.90095      1.0375      1.1784    
  1.3156      1.4401      1.5431      1.6167      1.6551      1.6551      1.6167      1.5431      1.4401      1.3156    
  1.1784      1.0375     0.90893     0.78764     0.67927     0.58802     0.51642     0.46551     0.43526     0.42526    
 0.43527     0.46552     0.51643     0.58804     0.67929     0.78766     0.90895      1.0375      1.1663      1.2876    
  1.3930      1.4748      1.5267      1.5445      1.5267      1.4748      1.3929      1.2875      1.1663      1.0375    
 0.90093     0.78764     0.68347     0.59291     0.51902     0.46343     0.42661     0.40835     0.40836     0.42662    
 0.46344     0.51903     0.59293     0.68349     0.78766     0.90095      1.0176      1.1310      1.2337      1.3186    
  1.3792      1.4108      1.4108      1.3792      1.3186      1.2337      1.1310      1.0176     0.87754     0.77566    
 0.67928     0.59292     0.51992     0.46241     0.42134     0.39686     0.38874     0.39686     0.42135     0.46242    
 0.51993     0.59293     0.67929     0.77567     0.87756     0.97946      1.0752      1.1583      1.2228      1.2637    
  1.2777      1.2637      1.2228      1.1583      1.0752     0.97945     0.84066     0.75267     0.66704     0.58803    
 0.51902     0.46241     0.41958     0.39105     0.37685     0.37685     0.39105     0.41958     0.46242     0.51903    
 0.58804     0.66705     0.75268     0.84067     0.92602      1.0033      1.0671      1.1127      1.1365      1.1365    
  1.1127      1.0671      1.0033     0.92601     0.79321     0.72056     0.64778     0.57868     0.51643     0.46344    
 0.42135     0.39105     0.37287     0.36682     0.37287     0.39105     0.42135     0.46344     0.51643     0.57869    
 0.64779     0.72056     0.79321     0.86143     0.92070     0.96671     0.99590      1.0059     0.99590     0.96671    
 0.92070     0.86143     0.73883     0.68188     0.62312     0.56572     0.51245     0.46552     0.42662     0.39686    
 0.37685     0.36682     0.36682     0.37685     0.39686     0.42662     0.46552     0.51245     0.56572     0.62311    
 0.68188     0.73883     0.79044     0.83315     0.86370     0.87964     0.87964     0.86370     0.83315     0.79045    
 0.68138     0.63955     0.59501     0.55028     0.50757     0.46872     0.43527     0.40836     0.38874     0.37685    
 0.37287     0.37685     0.38874     0.40836     0.43527     0.46872     0.50756     0.55027     0.59500     0.63954    
 0.68137     0.71778     0.74613     0.76415     0.77034     0.76415     0.74613     0.71778     0.62440     0.59638    
 0.56550     0.53361     0.50234     0.47311     0.44709     0.42527     0.40836     0.39686     0.39105     0.39105    
 0.39686     0.40835     0.42526     0.44708     0.47310     0.50233     0.53360     0.56548     0.59636     0.62438    
 0.64764     0.66433     0.67307     0.67307     0.66434     0.64765     0.57084     0.55476     0.53638     0.51687    
 0.49732     0.47868     0.46172     0.44709     0.43527     0.42662     0.42135     0.41958     0.42134     0.42661    
 0.43526     0.44708     0.46171     0.47866     0.49731     0.51685     0.53636     0.55475     0.57083     0.58341    
 0.59144     0.59420     0.59144     0.58341     0.52292     0.51656     0.50903     0.50096     0.49290     0.48535    
 0.47868     0.47311     0.46872     0.46552     0.46344     0.46241     0.46241     0.46343     0.46551     0.46871    
 0.47309     0.47866     0.48534     0.49288     0.50094     0.50901     0.51654     0.52292     0.52755     0.53000    
 0.53000     0.52756     0.48221     0.48309     0.48447     0.48650     0.48928     0.49290     0.49732     0.50234    
 0.50757     0.51245     0.51643     0.51902     0.51992     0.51902     0.51642     0.51244     0.50755     0.50232    
 0.49730     0.49289     0.48927     0.48648     0.48446     0.48308     0.48220     0.48173     0.48158     0.48173    
 0.44974     0.45530     0.46341     0.47389     0.48650     0.50096     0.51687     0.53361     0.55028     0.56572    
 0.57868     0.58803     0.59292     0.59291     0.58802     0.57867     0.56571     0.55026     0.53359     0.51685    
 0.50094     0.48648     0.47388     0.46340     0.45529     0.44974     0.44691     0.44691     0.42618     0.43387    
 0.44640     0.46341     0.48447     0.50903     0.53638     0.56550     0.59501     0.62312     0.64778     0.66704    
 0.67928     0.68347     0.67927     0.66703     0.64777     0.62310     0.59500     0.56549     0.53636     0.50902    
 0.48446     0.46341     0.44639     0.43386     0.42618     0.42359     0.41192     0.41930     0.43387     0.45530    
 0.48309     0.51656     0.55476     0.59638     0.63955     0.68188     0.72056     0.75267     0.77566     0.78764    
 0.78764     0.77565     0.75267     0.72055     0.68187     0.63954     0.59637     0.55476     0.51655     0.48308    
 0.45529     0.43386     0.41930     0.41192     0.54040     0.54723     0.56787     0.60264     0.65168     0.71458    
 0.79003     0.87557     0.96744      1.0606      1.1490      1.2263      1.2865      1.3246      1.3377      1.3246    
  1.2865      1.2263      1.1490      1.0606     0.96744     0.87557     0.79003     0.71458     0.65168     0.60263    
 0.56787     0.54723     0.54723     0.54723     0.56453     0.59949     0.65252     0.72346     0.81120     0.91324    
  1.0256      1.1425      1.2570      1.3614      1.4477      1.5094      1.5416      1.5416      1.5094      1.4477    
  1.3614      1.2570      1.1425      1.0256     0.91326     0.81120     0.72346     0.65252     0.59950     0.56453    
 0.56787     0.55741     0.56787     0.59949     0.65286     0.72821     0.82481     0.94042      1.0709      1.2104    
  1.3511      1.4839      1.5996      1.6894      1.7463      1.7658      1.7463      1.6894      1.5997      1.4840    
  1.3511      1.2104      1.0710     0.94043     0.82483     0.72822     0.65286     0.59950     0.60263     0.57798    
 0.57798     0.60263     0.65251     0.72821     0.82951     0.95466      1.0999      1.2591      1.4242      1.5853    
  1.7318      1.8528      1.9393      1.9843      1.9843      1.9393      1.8528      1.7318      1.5853      1.4242    
  1.2591      1.0999     0.95468     0.82953     0.72822     0.65252     0.65168     0.60914     0.59509     0.60914    
 0.65167     0.72345     0.82481     0.95466      1.1098      1.2845      1.4706      1.6578      1.8343      1.9879    
  2.1072      2.1827      2.2086      2.1827      2.1072      1.9880      1.8344      1.6578      1.4706      1.2845    
  1.1098     0.95468     0.82483     0.72346     0.71458     0.65090     0.61941     0.61940     0.65089     0.71457    
 0.81119     0.94041      1.0999      1.2845      1.4865      1.6955      1.8994      2.0845      2.2375      2.3469    
  2.4039      2.4039      2.3469      2.2376      2.0845      1.8994      1.6956      1.4865      1.2845      1.0999    
 0.94043     0.81120     0.79003     0.70271     0.65094     0.63382     0.65093     0.70269     0.79002     0.91324    
  1.0709      1.2591      1.4706      1.6955      1.9216      2.1348      2.3202      2.4642      2.5555      2.5868    
  2.5556      2.4642      2.3202      2.1348      1.9217      1.6956      1.4706      1.2591      1.0710     0.91326    
 0.87557     0.76331     0.68926     0.65264     0.65264     0.68926     0.76330     0.87555      1.0256      1.2104    
  1.4242      1.6578      1.8994      2.1348      2.3485      2.5254      2.6518      2.7176      2.7176      2.6518    
  2.5254      2.3486      2.1348      1.8994      1.6578      1.4242      1.2104      1.0256     0.96744     0.83051    
 0.73337     0.67574     0.65668     0.67573     0.73336     0.83050     0.96744      1.1425      1.3511      1.5853    
  1.8343      2.0845      2.3202      2.5254      2.6847      2.7858      2.8205      2.7858      2.6847      2.5254    
  2.3202      2.0845      1.8344      1.5853      1.3511      1.1425      1.0606     0.90104     0.78148     0.70252    
 0.66343     0.66343     0.70251     0.78147     0.90104      1.0606      1.2570      1.4839      1.7318      1.9880    
  2.2375      2.4642      2.6518      2.7858      2.8557      2.8557      2.7858      2.6518      2.4642      2.2376    
  1.9880      1.7318      1.4840      1.2570      1.1490     0.97069     0.83099     0.73175     0.67281     0.65330    
 0.67281     0.73176     0.83099     0.97069      1.1490      1.3614      1.5997      1.8529      2.1072      2.3469    
  2.5556      2.7177      2.8205      2.8557      2.8205      2.7176      2.5556      2.3469      2.1072      1.8528    
  1.5997      1.3614      1.2263      1.0346     0.87862     0.76161     0.68424     0.64590     0.64591     0.68425    
 0.76162     0.87863      1.0346      1.2264      1.4477      1.6895      1.9393      2.1827      2.4039      2.5868    
  2.7177      2.7858      2.7858      2.7176      2.5868      2.4039      2.1827      1.9393      1.6894      1.4477    
  1.2865      1.0878     0.92071     0.78976     0.69664     0.64129     0.62296     0.64129     0.69665     0.78977    
 0.92073      1.0878      1.2865      1.5095      1.7463      1.9843      2.2086      2.4039      2.5556      2.6518    
  2.6847      2.6518      2.5555      2.4039      2.2086      1.9843      1.7463      1.5094      1.3246      1.1259    
 0.95373     0.81369     0.70859     0.63906     0.60460     0.60460     0.63907     0.70860     0.81371     0.95376    
  1.1259      1.3246      1.5416      1.7658      1.9843      2.1827      2.3469      2.4642      2.5254      2.5254    
  2.4642      2.3469      2.1827      1.9843      1.7658      1.5416      1.3377      1.1458     0.97480     0.83111    
 0.71852     0.63850     0.59094     0.57520     0.59095     0.63851     0.71854     0.83113     0.97482      1.1458    
  1.3377      1.5416      1.7463      1.9393      2.1072      2.2375      2.3202      2.3485      2.3202      2.2375    
  2.1072      1.9393      1.7463      1.5416      1.3246      1.1458     0.98204     0.84028     0.72510     0.63875    
 0.58171     0.55347     0.55347     0.58172     0.63876     0.72511     0.84030     0.98206      1.1458      1.3246    
  1.5095      1.6895      1.8529      1.9880      2.0845      2.1348      2.1348      2.0845      1.9879      1.8528    
  1.6894      1.5094      1.2865      1.1259     0.97480     0.84028     0.72740     0.63909     0.57645     0.53930    
 0.52701     0.53930     0.57646     0.63910     0.72741     0.84030     0.97482      1.1259      1.2865      1.4477    
  1.5997      1.7318      1.8343      1.8994      1.9216      1.8994      1.8343      1.7318      1.5996      1.4477    
  1.2263      1.0878     0.95374     0.83112     0.72510     0.63909     0.57475     0.53234     0.51138     0.51138    
 0.53234     0.57476     0.63910     0.72511     0.83113     0.95376      1.0878      1.2264      1.3614      1.4839    
  1.5853      1.6578      1.6955      1.6955      1.6578      1.5853      1.4839      1.3614      1.1490      1.0346    
 0.92072     0.81371     0.71853     0.63876     0.57646     0.53234     0.50622     0.49760     0.50622     0.53234    
 0.57646     0.63876     0.71854     0.81371     0.92073      1.0346      1.1490      1.2570      1.3511      1.4242    
  1.4706      1.4865      1.4706      1.4242      1.3511      1.2570      1.0606     0.97070     0.87863     0.78978    
 0.70860     0.63851     0.58172     0.53930     0.51138     0.49760     0.49760     0.51138     0.53930     0.58172    
 0.63851     0.70860     0.78977     0.87863     0.97069      1.0606      1.1425      1.2104      1.2591      1.2845    
  1.2845      1.2591      1.2104      1.1425     0.96744     0.90105     0.83100     0.76163     0.69666     0.63908    
 0.59095     0.55347     0.52701     0.51138     0.50622     0.51138     0.52701     0.55347     0.59095     0.63907    
 0.69665     0.76162     0.83099     0.90104     0.96744      1.0256      1.0709      1.0999      1.1098      1.0999    
  1.0709      1.0256     0.87557     0.83052     0.78149     0.73177     0.68426     0.64131     0.60461     0.57521    
 0.55347     0.53930     0.53234     0.53234     0.53930     0.55347     0.57520     0.60460     0.64129     0.68425    
 0.73176     0.78147     0.83050     0.87555     0.91324     0.94041     0.95466     0.95466     0.94042     0.91324    
 0.79003     0.76332     0.73339     0.70254     0.67283     0.64592     0.62298     0.60461     0.59095     0.58172    
 0.57646     0.57475     0.57645     0.58171     0.59094     0.60460     0.62296     0.64591     0.67281     0.70251    
 0.73336     0.76330     0.79002     0.81119     0.82481     0.82951     0.82481     0.81120     0.71458     0.70271    
 0.68928     0.67575     0.66345     0.65332     0.64592     0.64131     0.63908     0.63851     0.63876     0.63909    
 0.63909     0.63875     0.63850     0.63906     0.64129     0.64590     0.65330     0.66343     0.67573     0.68926    
 0.70269     0.71457     0.72345     0.72821     0.72821     0.72346     0.65168     0.65090     0.65095     0.65265    
 0.65670     0.66345     0.67283     0.68426     0.69666     0.70860     0.71853     0.72510     0.72740     0.72510    
 0.71852     0.70859     0.69664     0.68424     0.67281     0.66343     0.65668     0.65264     0.65093     0.65089    
 0.65167     0.65251     0.65286     0.65252     0.60264     0.60915     0.61941     0.63384     0.65265     0.67575    
 0.70254     0.73177     0.76163     0.78978     0.81371     0.83112     0.84028     0.84028     0.83111     0.81369    
 0.78976     0.76161     0.73175     0.70252     0.67574     0.65264     0.63382     0.61940     0.60914     0.60263    
 0.59949     0.59949     0.56787     0.57798     0.59509     0.61941     0.65095     0.68928     0.73339     0.78149    
 0.83100     0.87863     0.92072     0.95374     0.97480     0.98204     0.97480     0.95373     0.92071     0.87862    
 0.83099     0.78148     0.73337     0.68926     0.65094     0.61941     0.59509     0.57798     0.56787     0.56453    
 0.54723     0.55742     0.57798     0.60915     0.65090     0.70271     0.76332     0.83052     0.90105     0.97070    
  1.0346      1.0878      1.1259      1.1458      1.1458      1.1259      1.0878      1.0346     0.97069     0.90104    
 0.83051     0.76331     0.70271     0.65090     0.60914     0.57798     0.55741     0.54723     0.70975     0.72021    
 0.75196     0.80584     0.88250     0.98155      1.1010      1.2368      1.3827      1.5306      1.6710      1.7936    
  1.8890      1.9496      1.9704      1.9496      1.8890      1.7936      1.6710      1.5306      1.3827      1.2368    
  1.1010     0.98155     0.88250     0.80584     0.75196     0.72021     0.72021     0.72021     0.74737     0.80234    
 0.88582     0.99767      1.1361      1.2972      1.4743      1.6587      1.8392      2.0038      2.1402      2.2377    
  2.2886      2.2886      2.2377      2.1402      2.0038      1.8392      1.6587      1.4744      1.2972      1.1361    
 0.99768     0.88582     0.80234     0.74738     0.75196     0.73527     0.75196     0.80234     0.88710      1.0064    
  1.1589      1.3409      1.5460      1.7650      1.9861      2.1954      2.3780      2.5202      2.6105      2.6414    
  2.6105      2.5202      2.3780      2.1954      1.9861      1.7651      1.5460      1.3409      1.1589      1.0064    
 0.88711     0.80234     0.80584     0.76611     0.76611     0.80584     0.88581      1.0064      1.1667      1.3638    
  1.5917      1.8413      2.1005      2.3543      2.5860      2.7784      2.9164      2.9884      2.9884      2.9164    
  2.7784      2.5860      2.3544      2.1005      1.8413      1.5917      1.3638      1.1668      1.0064     0.88582    
 0.88250     0.81371     0.79086     0.81370     0.88249     0.99767      1.1589      1.3638      1.6074      1.8811    
  2.1732      2.4682      2.7481      2.9933      3.1847      3.3067      3.3485      3.3067      3.1848      2.9933    
  2.7481      2.4683      2.1732      1.8812      1.6074      1.3638      1.1589     0.99768     0.98155     0.87862    
 0.82734     0.82733     0.87861     0.98154      1.1361      1.3409      1.5917      1.8811      2.1981      2.5277    
  2.8513      3.1476      3.3947      3.5724      3.6655      3.6655      3.5724      3.3947      3.1476      2.8513    
  2.5277      2.1982      1.8812      1.5917      1.3409      1.1361      1.1010     0.96039     0.87620     0.84820    
 0.87619     0.96038      1.1010      1.2972      1.5460      1.8413      2.1732      2.5277      2.8867      3.2283    
  3.5285      3.7638      3.9140      3.9656      3.9140      3.7638      3.5286      3.2283      2.8867      2.5277    
  2.1732      1.8413      1.5460      1.2972      1.2368      1.0570     0.93712     0.87729     0.87729     0.93712    
  1.0570      1.2367      1.4743      1.7650      2.1005      2.4682      2.8513      3.2283      3.5745      3.8640    
  4.0727      4.1821      4.1821      4.0727      3.8640      3.5745      3.2283      2.8513      2.4683      2.1005    
  1.7651      1.4744      1.3827      1.1648      1.0085     0.91473     0.88352     0.91472      1.0085      1.1648    
  1.3827      1.6587      1.9861      2.3543      2.7481      3.1476      3.5285      3.8640      4.1273      4.2956    
  4.3536      4.2956      4.1273      3.8640      3.5286      3.1476      2.7481      2.3544      1.9861      1.6587    
  1.5306      1.2783      1.0872     0.95948     0.89571     0.89571     0.95947      1.0872      1.2783      1.5306    
  1.8392      2.1954      2.5860      2.9933      3.3947      3.7638      4.0727      4.2956      4.4125      4.4125    
  4.2956      4.0727      3.7638      3.3947      2.9933      2.5860      2.1954      1.8392      1.6710      1.3903    
  1.1686      1.0093     0.91367     0.88183     0.91367      1.0093      1.1686      1.3903      1.6710      2.0038    
  2.3780      2.7784      3.1848      3.5724      3.9140      4.1821      4.3536      4.4125      4.3536      4.1821    
  3.9140      3.5724      3.1848      2.7784      2.3780      2.0038      1.7936      1.4931      1.2472      1.0608    
 0.93613     0.87383     0.87383     0.93614      1.0608      1.2472      1.4931      1.7936      2.1402      2.5202    
  2.9164      3.3067      3.6655      3.9657      4.1821      4.2956      4.2956      4.1821      3.9656      3.6655    
  3.3067      2.9164      2.5202      2.1402      1.8890      1.5787      1.3168      1.1097     0.96081     0.87141    
 0.84164     0.87142     0.96083      1.1097      1.3168      1.5787      1.8891      2.2378      2.6105      2.9884    
  3.3486      3.6655      3.9140      4.0727      4.1273      4.0727      3.9140      3.6655      3.3485      2.9884    
  2.6105      2.2377      1.9496      1.6400      1.3714      1.1515     0.98478     0.87331     0.81761     0.81761    
 0.87332     0.98479      1.1515      1.3715      1.6401      1.9496      2.2886      2.6415      2.9884      3.3067    
  3.5724      3.7638      3.8640      3.8640      3.7638      3.5724      3.3067      2.9884      2.6414      2.2886    
  1.9704      1.6721      1.4063      1.1821      1.0048     0.87758     0.80124     0.77582     0.80124     0.87759    
  1.0049      1.1821      1.4064      1.6721      1.9704      2.2886      2.6105      2.9164      3.1848      3.3947    
  3.5285      3.5745      3.5285      3.3947      3.1847      2.9164      2.6105      2.2886      1.9496      1.6721    
  1.4183      1.1982      1.0182     0.88203     0.79123     0.74595     0.74595     0.79124     0.88204      1.0182    
  1.1982      1.4184      1.6721      1.9496      2.2378      2.5202      2.7784      2.9933      3.1476      3.2283    
  3.2283      3.1476      2.9933      2.7784      2.5202      2.2377      1.8890      1.6400      1.4063      1.1982    
  1.0229     0.88480     0.78607     0.72707     0.70748     0.72707     0.78607     0.88480      1.0229      1.1982    
  1.4064      1.6401      1.8891      2.1402      2.3780      2.5860      2.7481      2.8513      2.8867      2.8513    
  2.7481      2.5860      2.3780      2.1402      1.7936      1.5787      1.3714      1.1821      1.0182     0.88480    
 0.78450     0.71802     0.68501     0.68501     0.71802     0.78451     0.88480      1.0182      1.1821      1.3715    
  1.5787      1.7936      2.0038      2.1954      2.3543      2.4682      2.5277      2.5277      2.4682      2.3543    
  2.1954      2.0038      1.6710      1.4931      1.3168      1.1515      1.0048     0.88204     0.78607     0.71802    
 0.67765     0.66430     0.67765     0.71802     0.78607     0.88204      1.0049      1.1515      1.3168      1.4931    
  1.6710      1.8392      1.9861      2.1005      2.1732      2.1981      2.1732      2.1005      1.9861      1.8392    
  1.5306      1.3904      1.2472      1.1097     0.98479     0.87759     0.79124     0.72707     0.68501     0.66430    
 0.66430     0.68501     0.72707     0.79124     0.87759     0.98479      1.1097      1.2472      1.3903      1.5306    
  1.6587      1.7650      1.8413      1.8811      1.8811      1.8413      1.7650      1.6587      1.3827      1.2783    
  1.1686      1.0608     0.96084     0.87333     0.80125     0.74596     0.70748     0.68501     0.67765     0.68501    
 0.70748     0.74595     0.80124     0.87332     0.96083      1.0608      1.1686      1.2783      1.3827      1.4743    
  1.5460      1.5917      1.6074      1.5917      1.5460      1.4743      1.2368      1.1648      1.0872      1.0093    
 0.93615     0.87143     0.81762     0.77583     0.74596     0.72707     0.71802     0.71802     0.72707     0.74595    
 0.77582     0.81761     0.87142     0.93614      1.0093      1.0872      1.1648      1.2367      1.2972      1.3409    
  1.3638      1.3638      1.3409      1.2972      1.1010      1.0570      1.0085     0.95950     0.91370     0.87385    
 0.84165     0.81762     0.80125     0.79124     0.78607     0.78450     0.78607     0.79123     0.80124     0.81761    
 0.84164     0.87383     0.91367     0.95947      1.0085      1.0570      1.1010      1.1361      1.1589      1.1667    
  1.1589      1.1361     0.98155     0.96040     0.93714     0.91474     0.89573     0.88185     0.87385     0.87143    
 0.87333     0.87759     0.88204     0.88480     0.88480     0.88203     0.87758     0.87331     0.87141     0.87383    
 0.88183     0.89571     0.91472     0.93712     0.96038     0.98154     0.99767      1.0064      1.0064     0.99767    
 0.88250     0.87863     0.87621     0.87730     0.88354     0.89573     0.91370     0.93615     0.96084     0.98479    
  1.0048      1.0182      1.0229      1.0182      1.0048     0.98478     0.96081     0.93613     0.91367     0.89571    
 0.88352     0.87729     0.87619     0.87861     0.88249     0.88581     0.88710     0.88582     0.80584     0.81371    
 0.82734     0.84821     0.87730     0.91474     0.95950      1.0093      1.0608      1.1097      1.1515      1.1821    
  1.1982      1.1982      1.1821      1.1515      1.1097      1.0608      1.0093     0.95948     0.91473     0.87729    
 0.84820     0.82733     0.81370     0.80584     0.80234     0.80234     0.75196     0.76612     0.79087     0.82734    
 0.87621     0.93714      1.0085      1.0872      1.1686      1.2472      1.3168      1.3714      1.4063      1.4183    
  1.4063      1.3714      1.3168      1.2472      1.1686      1.0872      1.0085     0.93712     0.87620     0.82734    
 0.79086     0.76611     0.75196     0.74737     0.72021     0.73528     0.76612     0.81371     0.87863     0.96040    
  1.0570      1.1648      1.2783      1.3904      1.4931      1.5787      1.6400      1.6721      1.6721      1.6400    
  1.5787      1.4931      1.3903      1.2783      1.1648      1.0570     0.96039     0.87862     0.81371     0.76611    
 0.73527     0.72021     0.92774     0.94424     0.99424      1.0788      1.1986      1.3527      1.5379      1.7479    
  1.9732      2.2014      2.4180      2.6075      2.7553      2.8493      2.8816      2.8493      2.7553      2.6075    
  2.4180      2.2014      1.9732      1.7479      1.5380      1.3527      1.1986      1.0788     0.99424     0.94424    
 0.94424     0.94424     0.98734      1.0741      1.2049      1.3789      1.5932      1.8414      2.1140      2.3977    
  2.6761      2.9307      3.1426      3.2948      3.3743      3.3743      3.2948      3.1426      2.9307      2.6761    
  2.3977      2.1140      1.8414      1.5932      1.3789      1.2049      1.0741     0.98734     0.99424     0.96767    
 0.99424      1.0741      1.2073      1.3932      1.6290      1.9090      2.2241      2.5610      2.9023      3.2271    
  3.5124      3.7357      3.8782      3.9272      3.8782      3.7357      3.5124      3.2271      2.9023      2.5610    
  2.2241      1.9090      1.6290      1.3932      1.2073      1.0741      1.0788      1.0157      1.0157      1.0788    
  1.2049      1.3932      1.6414      1.9445      2.2943      2.6783      3.0791      3.4744      3.8382      4.1428    