monolayer MoS2                          
   1.00000000000000     
     3.190316    0.000000    0.000000
    -1.595158    2.762894    0.000000
     0.000000    0.000000   29.758000
   Mo   S 
     1     2
Direct
  0.333333  0.666667  0.125000
  0.666667  0.333333  0.177587
  0.666667  0.333333  0.072413
 
   28   28  252
 0.40715114654E+00 0.41192386400E+00 0.42618431243E+00 0.44974132483E+00 0.48220905717E+00
 0.52292422014E+00 0.57084101599E+00 0.62439726903E+00 0.68137500031E+00 0.73883237814E+00
 0.79320940225E+00 0.84065932287E+00 0.87754280605E+00 0.90092589805E+00 0.90893448688E+00
 0.90092761422E+00 0.87754393142E+00 0.84065828874E+00 0.79320738723E+00 0.73883177311E+00
 0.68137662393E+00 0.62439990003E+00 0.57084323851E+00 0.52292568100E+00 0.48220984681E+00
 0.44974120447E+00 0.42618325493E+00 0.41192277183E+00 0.41192277163E+00 0.41192328572E+00
 0.42359372031E+00 0.44691485080E+00 0.48172843673E+00 0.52755571669E+00 0.58341408351E+00
 0.64764876738E+00 0.71778495858E+00 0.79044651530E+00 0.86143007764E+00 0.92600812340E+00
 0.97944663294E+00 0.10176106316E+01 0.10374825913E+01 0.10374849413E+01 0.10176156187E+01
 0.97945078874E+00 0.92601102872E+00 0.86143460347E+00 0.79045477966E+00 0.71779550212E+00
 0.64765824196E+00 0.58342058092E+00 0.52755950288E+00 0.48173026254E+00 0.44691503223E+00
 0.42359290685E+00 0.42618325407E+00 0.41929515820E+00 0.42618319151E+00 0.44691423032E+00
 0.48157555604E+00 0.52999688714E+00 0.59143916003E+00 0.66433875700E+00 0.74612849293E+00
 0.83314838895E+00 0.92069751879E+00 0.10032958848E+01 0.10751808483E+01 0.11309667840E+01
 0.11663092564E+01 0.11784128987E+01 0.11663156938E+01 0.11309762059E+01 0.10751900663E+01
 0.10033049381E+01 0.92070859070E+00 0.83316242260E+00 0.74614362865E+00 0.66435193292E+00
 0.59144849192E+00 0.53000234849E+00 0.48157812035E+00 0.44691503250E+00 0.44974120420E+00
 0.43386495533E+00 0.43386388492E+00 0.44973845503E+00 0.48172616265E+00 0.52999559466E+00
 0.59419867804E+00 0.67306770513E+00 0.76415154762E+00 0.86370158168E+00 0.96670913963E+00
 0.10671275306E+01 0.11583176924E+01 0.12337039452E+01 0.12875333717E+01 0.13155684232E+01
 0.13155723075E+01 0.12875435956E+01 0.12337172733E+01 0.11583314886E+01 0.10671415862E+01
 0.96672512566E+00 0.86372041183E+00 0.76417132692E+00 0.67308467191E+00 0.59421028853E+00
 0.53000234924E+00 0.48173026491E+00 0.48220985042E+00 0.45529412696E+00 0.44639100908E+00
 0.45528985899E+00 0.48220327377E+00 0.52755113912E+00 0.59143600677E+00 0.67306608208E+00
 0.77033702741E+00 0.87964390844E+00 0.99589736657E+00 0.11127158482E+01 0.12228102059E+01
 0.13185877654E+01 0.13929394256E+01 0.14400744323E+01 0.14562229656E+01 0.14400796038E+01
 0.13929499059E+01 0.13186024287E+01 0.12228268721E+01 0.11127335922E+01 0.99591734832E+00
 0.87966669724E+00 0.77035991196E+00 0.67308466892E+00 0.59144848920E+00 0.52755950636E+00
 0.52292568890E+00 0.48308466578E+00 0.46340595508E+00 0.46340333194E+00 0.48307749582E+00
 0.52291502718E+00 0.58340640718E+00 0.66433374718E+00 0.76415004438E+00 0.87964484898E+00
 0.10059031908E+01 0.11364723272E+01 0.12636916705E+01 0.13792186947E+01 0.14747802605E+01
 0.15430784831E+01 0.15786766850E+01 0.15786782627E+01 0.15430838885E+01 0.14747903463E+01
 0.13792328403E+01 0.12637082564E+01 0.11364905780E+01 0.10059234346E+01 0.87966670186E+00
 0.76417132599E+00 0.66435192457E+00 0.58342057950E+00 0.57084324371E+00 0.51655356489E+00
 0.48446428908E+00 0.47387753864E+00 0.48445999581E+00 0.51654357493E+00 0.57082769183E+00
 0.64763998288E+00 0.74612569147E+00 0.86370340795E+00 0.99590056309E+00 0.11364746742E+01
 0.12777001260E+01 0.14108136625E+01 0.15266859995E+01 0.16167215572E+01 0.16738552219E+01
 0.16934419257E+01 0.16738608791E+01 0.16167298676E+01 0.15266947687E+01 0.14108237537E+01
 0.12777132890E+01 0.11364905754E+01 0.99591735710E+00 0.86372042206E+00 0.74614362261E+00
 0.64765823126E+00 0.62439989329E+00 0.55475739444E+00 0.50902150918E+00 0.48648418056E+00
 0.48648229989E+00 0.50901489523E+00 0.55474525765E+00 0.62438441190E+00 0.71778035251E+00
 0.83314905481E+00 0.96671237243E+00 0.11127211979E+01 0.12636982887E+01 0.14108172144E+01
 0.15444744497E+01 0.16551177763E+01 0.17342685510E+01 0.17755570785E+01 0.17755612810E+01
 0.17342778104E+01 0.16551261792E+01 0.15444803174E+01 0.14108237499E+01 0.12637082410E+01
 0.11127335887E+01 0.96672514200E+00 0.83316242982E+00 0.71779548816E+00 0.68137660580E+00
 0.59636749902E+00 0.53636283903E+00 0.50094251034E+00 0.48926640551E+00 0.50093827666E+00
 0.53635580653E+00 0.59635917212E+00 0.68136749176E+00 0.79044485239E+00 0.92069856029E+00
 0.10671329961E+01 0.12228208185E+01 0.13792286201E+01 0.15266902577E+01 0.16551199283E+01
 0.17549828325E+01 0.18183955698E+01 0.18401434622E+01 0.18184003354E+01 0.17549898231E+01
 0.16551261899E+01 0.15266947817E+01 0.13792328285E+01 0.12228268504E+01 0.10671415904E+01
 0.92070860972E+00 0.79045477596E+00 0.73883175720E+00 0.63954008536E+00 0.56548676625E+00
 0.51685156168E+00 0.49288504906E+00 0.49288358906E+00 0.51684856171E+00 0.56548443728E+00
 0.63953850602E+00 0.73882916952E+00 0.86143043342E+00 0.10033009922E+01 0.11583296356E+01
 0.13186022062E+01 0.14747897161E+01 0.16167278497E+01 0.17342753507E+01 0.18183987166E+01
 0.18622913938E+01 0.18622918811E+01 0.18184003234E+01 0.17342778112E+01 0.16167298940E+01
 0.14747903609E+01 0.13186024095E+01 0.11583314730E+01 0.10033049535E+01 0.86143461666E+00
 0.79320738749E+00 0.68187426161E+00 0.59499784358E+00 0.53359342996E+00 0.49730482976E+00
 0.48533573412E+00 0.49730568945E+00 0.53359580041E+00 0.59500200267E+00 0.68187943615E+00
 0.79321231850E+00 0.92601508884E+00 0.10751935252E+01 0.12337208032E+01 0.13929539018E+01
 0.15430882521E+01 0.16738651785E+01 0.17755648762E+01 0.18401455739E+01 0.18622913990E+01
 0.18401434443E+01 0.17755612531E+01 0.16738608840E+01 0.15430839176E+01 0.13929499097E+01
 0.12337172518E+01 0.10751900652E+01 0.92601104973E+00 0.84065830465E+00 0.72055142746E+00
 0.62310235690E+00 0.55026464554E+00 0.50232379808E+00 0.47866188476E+00 0.47866382324E+00
 0.50232962028E+00 0.55027399487E+00 0.62311403987E+00 0.72056374617E+00 0.84066988934E+00
 0.97946095996E+00 0.11309847031E+01 0.12875507329E+01 0.14400864831E+01 0.15786862136E+01
 0.16934509581E+01 0.17755648815E+01 0.18183987422E+01 0.18183955818E+01 0.17755570521E+01
 0.16934418993E+01 0.15786782737E+01 0.14400796230E+01 0.12875435855E+01 0.11309761905E+01
 0.97945080123E+00 0.87754394909E+00 0.75266752913E+00 0.64777058936E+00 0.56570928771E+00
 0.50754670717E+00 0.47308936990E+00 0.46170911388E+00 0.47309526109E+00 0.50755807602E+00
 0.56572462935E+00 0.64778748725E+00 0.75268399104E+00 0.87755919369E+00 0.10176293368E+01
 0.11663272864E+01 0.13155816984E+01 0.14562315417E+01 0.15786862015E+01 0.16738651606E+01
 0.17342753628E+01 0.17549828683E+01 0.17342685616E+01 0.16738551991E+01 0.15786766733E+01
 0.14562229797E+01 0.13155723116E+01 0.11663156770E+01 0.10176156151E+01 0.90092762117E+00
 0.77565396499E+00 0.66703039411E+00 0.57867392665E+00 0.51243530070E+00 0.46870869377E+00
 0.44707918831E+00 0.44708245811E+00 0.46871781861E+00 0.51244878146E+00 0.57869037449E+00
 0.66704869673E+00 0.77567281643E+00 0.90094552363E+00 0.10375009753E+01 0.11784272601E+01
 0.13155817092E+01 0.14400864838E+01 0.15430882240E+01 0.16167278233E+01 0.16551199391E+01
 0.16551178035E+01 0.16167215607E+01 0.15430784713E+01 0.14400744360E+01 0.13155684340E+01
 0.11784128913E+01 0.10374849281E+01 0.90893448254E+00 0.78763512073E+00 0.67927417731E+00
 0.58802184248E+00 0.51642027683E+00 0.46550897238E+00 0.43526411414E+00 0.42525893605E+00
 0.43526884843E+00 0.46551759287E+00 0.51643234604E+00 0.58803762086E+00 0.67929323336E+00
 0.78765548546E+00 0.90895405127E+00 0.10375009714E+01 0.11663272997E+01 0.12875507595E+01
 0.13929539063E+01 0.14747896893E+01 0.15266902352E+01 0.15444744537E+01 0.15266860090E+01
 0.14747802576E+01 0.13929394249E+01 0.12875333822E+01 0.11663092599E+01 0.10374825803E+01
 0.90092589011E+00 0.78763548381E+00 0.68347318794E+00 0.59291493416E+00 0.51902040193E+00
 0.46343041621E+00 0.42661176925E+00 0.40835451171E+00 0.40835566501E+00 0.42661553553E+00
 0.46343758245E+00 0.51903176571E+00 0.59293056505E+00 0.68349196048E+00 0.78765548262E+00
 0.90094550748E+00 0.10176293250E+01 0.11309847186E+01 0.12337208324E+01 0.13186022164E+01
 0.13792286082E+01 0.14108172034E+01 0.14108136599E+01 0.13792186903E+01 0.13185877607E+01
 0.12337039505E+01 0.11309667925E+01 0.10176106286E+01 0.87754280088E+00 0.77565541199E+00
 0.67927662404E+00 0.59291636766E+00 0.51992370961E+00 0.46241049492E+00 0.42134314871E+00
 0.39685862853E+00 0.38874088450E+00 0.39685919603E+00 0.42134581296E+00 0.46241687414E+00
 0.51993430166E+00 0.59293057039E+00 0.67929324288E+00 0.77567281209E+00 0.87755917084E+00
 0.97946094144E+00 0.10751935301E+01 0.11583296541E+01 0.12228208315E+01 0.12636982928E+01
 0.12777001260E+01 0.12636916652E+01 0.12228101972E+01 0.11583176901E+01 0.10751808544E+01
 0.97944663576E+00 0.84065932155E+00 0.75267086822E+00 0.66703575954E+00 0.58802689684E+00
 0.51902396788E+00 0.46241229185E+00 0.41957583503E+00 0.39105072529E+00 0.37684995225E+00
 0.37684940017E+00 0.39105012988E+00 0.41957723691E+00 0.46241687020E+00 0.51903176490E+00
 0.58803763297E+00 0.66704871368E+00 0.75268399355E+00 0.84066987309E+00 0.92601506895E+00
 0.10033009828E+01 0.10671329987E+01 0.11127212081E+01 0.11364746860E+01 0.11364723324E+01
 0.11127158436E+01 0.10671275245E+01 0.10032958857E+01 0.92600812716E+00 0.79320940315E+00
 0.72055724900E+00 0.64777963014E+00 0.57868406143E+00 0.51642873907E+00 0.46343627073E+00
 0.42134611919E+00 0.39105138065E+00 0.37286996705E+00 0.36681865575E+00 0.37286883503E+00
 0.39105013108E+00 0.42134580868E+00 0.46343757196E+00 0.51643234078E+00 0.57869038395E+00
 0.64778750580E+00 0.72056375953E+00 0.79321231782E+00 0.86143042001E+00 0.92069854303E+00
 0.96671236314E+00 0.99590056737E+00 0.10059032012E+01 0.99589737106E+00 0.96670913682E+00
 0.92069751702E+00 0.86143007997E+00 0.73883237988E+00 0.68188226896E+00 0.62311531000E+00
 0.56572490529E+00 0.51244954488E+00 0.46551955288E+00 0.42661796665E+00 0.39686090274E+00
 0.37685001639E+00 0.36681872654E+00 0.36681865654E+00 0.37684940492E+00 0.39685920038E+00
 0.42661553156E+00 0.46551758032E+00 0.51244876925E+00 0.56572462724E+00 0.62311405134E+00
 0.68187945560E+00 0.73882918369E+00 0.79044485021E+00 0.83314903982E+00 0.86370339569E+00
 0.87964484855E+00 0.87964391344E+00 0.86370158303E+00 0.83314838767E+00 0.79044651630E+00
 0.68137500207E+00 0.63954896658E+00 0.59501346409E+00 0.55028393608E+00 0.50756556066E+00
 0.46872361617E+00 0.43527361512E+00 0.40835894030E+00 0.38874219193E+00 0.37685001490E+00
 0.37286996438E+00 0.37684995332E+00 0.38874089143E+00 0.40835567319E+00 0.43526885101E+00
 0.46871781141E+00 0.50755806011E+00 0.55027397919E+00 0.59500200065E+00 0.63953852168E+00
 0.68136751165E+00 0.71778035949E+00 0.74612568451E+00 0.76415003623E+00 0.77033702557E+00
 0.76415154814E+00 0.74612849203E+00 0.71778495853E+00 0.62439726999E+00 0.59637556598E+00
 0.56550253731E+00 0.53361312293E+00 0.50234436326E+00 0.47310700125E+00 0.44709158643E+00
 0.42526572137E+00 0.40835894150E+00 0.39686090290E+00 0.39105137716E+00 0.39105072035E+00
 0.39685862686E+00 0.40835451583E+00 0.42525894587E+00 0.44708247013E+00 0.47309526587E+00
 0.50232960896E+00 0.53359577823E+00 0.56548442291E+00 0.59635917698E+00 0.62438442703E+00
 0.64763999241E+00 0.66433374742E+00 0.67306607976E+00 0.67306770393E+00 0.66433875557E+00
 0.64764876620E+00 0.57084101568E+00 0.55476354897E+00 0.53637661087E+00 0.51686914634E+00
 0.49732446756E+00 0.47868049932E+00 0.46172379067E+00 0.44709158601E+00 0.43527361657E+00
 0.42661796977E+00 0.42134612039E+00 0.41957583232E+00 0.42134314321E+00 0.42661176266E+00
 0.43526411009E+00 0.44707919386E+00 0.46170913122E+00 0.47866384050E+00 0.49730568998E+00
 0.51684854439E+00 0.53635578805E+00 0.55474525226E+00 0.57082769731E+00 0.58340641367E+00
 0.59143601004E+00 0.59419867913E+00 0.59143915947E+00 0.58341408192E+00 0.52292421907E+00
 0.51655779585E+00 0.50903285513E+00 0.50095775277E+00 0.49290295494E+00 0.48535465337E+00
 0.47868049900E+00 0.47310699948E+00 0.46872361486E+00 0.46551955448E+00 0.46343627431E+00
 0.46241229500E+00 0.46241049646E+00 0.46343041384E+00 0.46550896264E+00 0.46870867995E+00
 0.47308936498E+00 0.47866189782E+00 0.48533575636E+00 0.49288360162E+00 0.50093827166E+00
 0.50901488184E+00 0.51654356547E+00 0.52291502514E+00 0.52755114131E+00 0.52999559761E+00
 0.52999688866E+00 0.52755571609E+00 0.48220905641E+00 0.48308770299E+00 0.48447395269E+00
 0.48649825290E+00 0.48928320064E+00 0.49290295555E+00 0.49732446862E+00 0.50234436276E+00
 0.50756555814E+00 0.51244954267E+00 0.51642873892E+00 0.51902396965E+00 0.51992371402E+00
 0.51902040941E+00 0.51642028192E+00 0.51243529420E+00 0.50754668873E+00 0.50232378171E+00
 0.49730483026E+00 0.49288506543E+00 0.48926642288E+00 0.48648230617E+00 0.48445999136E+00
 0.48307748838E+00 0.48220326940E+00 0.48172616246E+00 0.48157555766E+00 0.48172843738E+00
 0.44974132482E+00 0.45529666461E+00 0.46341418656E+00 0.47389074503E+00 0.48649825244E+00
 0.50095775268E+00 0.51686914772E+00 0.53361312479E+00 0.55028393632E+00 0.56572490359E+00
 0.57868405889E+00 0.58802689377E+00 0.59291636503E+00 0.59291493641E+00 0.58802185326E+00
 0.57867394052E+00 0.56570929153E+00 0.55026463235E+00 0.53359340874E+00 0.51685154917E+00
 0.50094251423E+00 0.48648419383E+00 0.47387754913E+00 0.46340333404E+00 0.45528985571E+00
 0.44973845197E+00 0.44691422985E+00 0.44691485148E+00 0.42618431269E+00 0.43386715812E+00
 0.44639704822E+00 0.46341418671E+00 0.48447395219E+00 0.50903285392E+00 0.53637661031E+00
 0.56550253842E+00 0.59501346611E+00 0.62311531159E+00 0.64777963078E+00 0.66703575836E+00
 0.67927661912E+00 0.68347317983E+00 0.67927417269E+00 0.66703040119E+00 0.64777060727E+00
 0.62310237264E+00 0.59499784354E+00 0.56548675045E+00 0.53636282112E+00 0.50902150227E+00
 0.48446429400E+00 0.46340596310E+00 0.44639101292E+00 0.43386388448E+00 0.42618319038E+00
 0.42359372025E+00 0.41192386407E+00 0.41929673567E+00 0.43386715820E+00 0.45529666515E+00
 0.48308770352E+00 0.51655779541E+00 0.55476354753E+00 0.59637556466E+00 0.63954896640E+00
 0.68188227011E+00 0.72055725146E+00 0.75267087182E+00 0.77565541466E+00 0.78763548100E+00
 0.78763510986E+00 0.77565395163E+00 0.75266752534E+00 0.72055144008E+00 0.68187428273E+00
 0.63954009837E+00 0.59636749516E+00 0.55475738060E+00 0.51655355430E+00 0.48308466420E+00
 0.45529413029E+00 0.43386495783E+00 0.41929515859E+00 0.41192328557E+00 0.54040480130E+00
 0.54723146025E+00 0.56786711124E+00 0.60263550312E+00 0.65168103685E+00 0.71458262184E+00
 0.79002891414E+00 0.87556701928E+00 0.96744169981E+00 0.10606113730E+01 0.11490471733E+01
 0.12263367870E+01 0.12864748853E+01 0.13246294053E+01 0.13377024369E+01 0.13246309126E+01
 0.12864756051E+01 0.12263350058E+01 0.11490440654E+01 0.10606099950E+01 0.96744382708E+00
 0.87557134773E+00 0.79003241076E+00 0.71458332780E+00 0.65167941698E+00 0.60263339655E+00
 0.56786584028E+00 0.54723106929E+00 0.54723106909E+00 0.54722989160E+00 0.56452715964E+00
 0.59949476626E+00 0.65251600830E+00 0.72345985132E+00 0.81119625854E+00 0.91324367802E+00
 0.10255564064E+01 0.11424874725E+01 0.12570217432E+01 0.13613502300E+01 0.14477309064E+01
 0.15094402462E+01 0.15415773818E+01 0.15415782942E+01 0.15094427395E+01 0.14477344263E+01
 0.13613545368E+01 0.12570275984E+01 0.11424961880E+01 0.10255679644E+01 0.91325543751E+00
 0.81120451158E+00 0.72346320170E+00 0.65251666875E+00 0.59949589599E+00 0.56452933349E+00
 0.56786583938E+00 0.55741161159E+00 0.56786520923E+00 0.59949421083E+00 0.65285865343E+00
 0.72821031510E+00 0.82481388314E+00 0.94041661097E+00 0.10709420691E+01 0.12104033134E+01
 0.13510663355E+01 0.14839432702E+01 0.15996405970E+01 0.16894345524E+01 0.17463200366E+01
 0.17657998336E+01 0.17463278269E+01 0.16894460551E+01 0.15996516153E+01 0.14839530810E+01
 0.13510772768E+01 0.12104173399E+01 0.10709582437E+01 0.94043182650E+00 0.82482541838E+00
 0.72821746011E+00 0.65286237255E+00 0.59949589627E+00 0.60263339625E+00 0.57797613173E+00
 0.57797643660E+00 0.60263292573E+00 0.65251278903E+00 0.72820871115E+00 0.82951451251E+00
 0.95466446939E+00 0.10998526004E+01 0.12590623935E+01 0.14241685122E+01 0.15853337553E+01
 0.17317693370E+01 0.18528327109E+01 0.19392628766E+01 0.19842690931E+01 0.19842750395E+01
 0.19392769514E+01 0.18528477675E+01 0.17317821474E+01 0.15853468357E+01 0.14241853314E+01
 0.12590827366E+01 0.10998731469E+01 0.95468218784E+00 0.82952804952E+00 0.72821746090E+00
 0.65251667122E+00 0.65167942074E+00 0.60914431483E+00 0.59508728850E+00 0.60914069395E+00
 0.65167312969E+00 0.72345418899E+00 0.82481205462E+00 0.95466349154E+00 0.11097824509E+01
 0.12844672175E+01 0.14705647376E+01 0.16577846674E+01 0.18343359318E+01 0.19879432115E+01
 0.21071587015E+01 0.21827088318E+01 0.22085850505E+01 0.21827123875E+01 0.21071673656E+01
 0.19879575911E+01 0.18343544402E+01 0.16578052489E+01 0.14705867028E+01 0.12844903249E+01
 0.11098048700E+01 0.95468218470E+00 0.82482541553E+00 0.72346320536E+00 0.71458333612E+00
 0.65089563280E+00 0.61940702125E+00 0.61940327108E+00 0.65088633631E+00 0.71457147358E+00
 0.81119002485E+00 0.94041281941E+00 0.10998503738E+01 0.12844675403E+01 0.14864705484E+01
 0.16955424771E+01 0.18993607719E+01 0.20844684627E+01 0.22375411085E+01 0.23468861152E+01
 0.24038506432E+01 0.24038502850E+01 0.23468882233E+01 0.22375507954E+01 0.20844858094E+01
 0.18993810125E+01 0.16955623229E+01 0.14864911263E+01 0.12844903297E+01 0.10998731460E+01
 0.94043181773E+00 0.81120451012E+00 0.79003241627E+00 0.70270572129E+00 0.65093566985E+00
 0.63382243781E+00 0.65093113598E+00 0.70269492919E+00 0.79001543002E+00 0.91323538543E+00
 0.10709382239E+01 0.12590631592E+01 0.14705671963E+01 0.16955447358E+01 0.19216404605E+01
 0.21347634440E+01 0.23202192872E+01 0.24642273484E+01 0.25555442352E+01 0.25868349899E+01
 0.25555524569E+01 0.24642382872E+01 0.23202286915E+01 0.21347727443E+01 0.19216535234E+01
 0.16955623201E+01 0.14705867121E+01 0.12590827474E+01 0.10709582373E+01 0.91325542626E+00
 0.87557134066E+00 0.76331095437E+00 0.68926181921E+00 0.65263699368E+00 0.65263613622E+00
 0.68925654162E+00 0.76329800810E+00 0.87555353611E+00 0.10255514684E+01 0.12104037484E+01
 0.14241711097E+01 0.16577896608E+01 0.18993692696E+01 0.21347681909E+01 0.23485474789E+01
 0.25253830093E+01 0.26517669591E+01 0.27176433270E+01 0.27176497616E+01 0.26517798725E+01
 0.25253916488E+01 0.23485502041E+01 0.21347727403E+01 0.18993809963E+01 0.16578052453E+01
 0.14241853486E+01 0.12104173475E+01 0.10255679496E+01 0.96744380797E+00 0.83050807920E+00
 0.73336824228E+00 0.67573944062E+00 0.65668144277E+00 0.67573367689E+00 0.73335999920E+00
 0.83049999561E+00 0.96743548463E+00 0.11424863608E+01 0.13510669882E+01 0.15853386811E+01
 0.18343492404E+01 0.20844814769E+01 0.23202228857E+01 0.25253845481E+01 0.26847435253E+01
 0.27858288845E+01 0.28204721585E+01 0.27858322777E+01 0.26847497084E+01 0.25253916601E+01
 0.23202287051E+01 0.20844857970E+01 0.18343544173E+01 0.15853468402E+01 0.13510772968E+01
 0.11424961841E+01 0.10606099782E+01 0.90104298908E+00 0.78147621243E+00 0.70251846762E+00
 0.66343039093E+00 0.66342677636E+00 0.70251220872E+00 0.78147419546E+00 0.90104432638E+00
 0.10606080967E+01 0.12570210833E+01 0.14839483502E+01 0.17317837672E+01 0.19879611113E+01
 0.22375489856E+01 0.24642313677E+01 0.26517745854E+01 0.27858319265E+01 0.28557088504E+01
 0.28557079283E+01 0.27858322650E+01 0.26517798734E+01 0.24642383151E+01 0.22375508108E+01
 0.19879575709E+01 0.17317821311E+01 0.14839530973E+01 0.12570276123E+01 0.11490440657E+01
 0.97068667767E+00 0.83099053437E+00 0.73175434148E+00 0.67280898125E+00 0.65330381422E+00
 0.67281098839E+00 0.73175773932E+00 0.83099458297E+00 0.97069091667E+00 0.11490482735E+01
 0.13613585637E+01 0.15996553492E+01 0.18528514082E+01 0.21071712765E+01 0.23468924143E+01
 0.25555563884E+01 0.27176527309E+01 0.28204737266E+01 0.28557088559E+01 0.28204721396E+01
 0.27176497322E+01 0.25555524621E+01 0.23468882540E+01 0.21071673697E+01 0.18528477449E+01
 0.15996516142E+01 0.13613545589E+01 0.12263350226E+01 0.10345708219E+01 0.87862021284E+00
 0.76160833364E+00 0.68423755179E+00 0.64590348188E+00 0.64590803016E+00 0.68424738934E+00
 0.76161744700E+00 0.87862842430E+00 0.10345823833E+01 0.12263501729E+01 0.14477471447E+01
 0.16894518370E+01 0.19392795229E+01 0.21827192389E+01 0.24038633751E+01 0.25868491032E+01
 0.27176527365E+01 0.27858319535E+01 0.27858288971E+01 0.27176432992E+01 0.25868349621E+01
 0.24038502967E+01 0.21827124077E+01 0.19392769408E+01 0.16894460389E+01 0.14477344395E+01
 0.12864756236E+01 0.10877565148E+01 0.92071082496E+00 0.78975791902E+00 0.69664204469E+00
 0.64128708987E+00 0.62296284001E+00 0.64129327983E+00 0.69665358442E+00 0.78977347264E+00
 0.92072883781E+00 0.10877751919E+01 0.12864929742E+01 0.15094572092E+01 0.17463393120E+01
 0.19842852545E+01 0.22085962128E+01 0.24038633624E+01 0.25555563696E+01 0.26517745981E+01
 0.26847435630E+01 0.26517669702E+01 0.25555442112E+01 0.24038506309E+01 0.22085850654E+01
 0.19842750439E+01 0.17463278092E+01 0.15094427357E+01 0.13246309199E+01 0.11258956169E+01
 0.95373479895E+00 0.81369369022E+00 0.70858606775E+00 0.63906114457E+00 0.60460171278E+00
 0.60460343749E+00 0.63906830379E+00 0.70860112446E+00 0.81371446737E+00 0.95375570940E+00
 0.11259137925E+01 0.13246485232E+01 0.15415979144E+01 0.17658198499E+01 0.19842852658E+01
 0.21827192396E+01 0.23468923847E+01 0.24642313399E+01 0.25253845595E+01 0.25253830380E+01
 0.24642273522E+01 0.23468861028E+01 0.21827088356E+01 0.19842691045E+01 0.17657998259E+01
 0.15415782803E+01 0.13377024324E+01 0.11457996387E+01 0.97480052802E+00 0.83111231073E+00
 0.71852299867E+00 0.63849957806E+00 0.59094277829E+00 0.57520228552E+00 0.59094751867E+00
 0.63850909116E+00 0.71853701290E+00 0.83112995787E+00 0.97482046405E+00 0.11458205439E+01
 0.13377234308E+01 0.15415979104E+01 0.17463393260E+01 0.19392795510E+01 0.21071712813E+01
 0.22375489575E+01 0.23202228620E+01 0.23485474831E+01 0.23202192973E+01 0.22375411055E+01
 0.21071587006E+01 0.19392628876E+01 0.17463200403E+01 0.15415773702E+01 0.13246293969E+01
 0.11457990453E+01 0.98203766706E+00 0.84028181917E+00 0.72509696369E+00 0.63875392652E+00
 0.58171321966E+00 0.55346972182E+00 0.55347140554E+00 0.58171779802E+00 0.63876110803E+00
 0.72510798469E+00 0.84029818071E+00 0.98205841782E+00 0.11458205409E+01 0.13246485062E+01
 0.15094571968E+01 0.16894518532E+01 0.18528514389E+01 0.19879611221E+01 0.20844814644E+01
 0.21347681792E+01 0.21347634413E+01 0.20844684582E+01 0.19879432066E+01 0.18528327165E+01
 0.16894345612E+01 0.15094402431E+01 0.12864748799E+01 0.11258952353E+01 0.97480331505E+00
 0.84028372351E+00 0.72739574412E+00 0.63909191384E+00 0.57645294294E+00 0.53929533874E+00
 0.52700946122E+00 0.53929545527E+00 0.57645519440E+00 0.63909825375E+00 0.72740653388E+00
 0.84029818631E+00 0.97482047405E+00 0.11259137880E+01 0.12864929502E+01 0.14477471252E+01
 0.15996553544E+01 0.17317837867E+01 0.18343492541E+01 0.18993692739E+01 0.19216404605E+01
 0.18993607663E+01 0.18343359226E+01 0.17317693346E+01 0.15996406033E+01 0.14477309093E+01
 0.12263367856E+01 0.10877589179E+01 0.95374069184E+00 0.83111870455E+00 0.72510052961E+00
 0.63909388487E+00 0.57475412892E+00 0.53234224056E+00 0.51137837315E+00 0.51137809823E+00
 0.53234222568E+00 0.57475586786E+00 0.63909824963E+00 0.72510798383E+00 0.83112997058E+00
 0.95375572722E+00 0.10877751945E+01 0.12263501558E+01 0.13613585428E+01 0.14839483403E+01
 0.15853386839E+01 0.16577896715E+01 0.16955447482E+01 0.16955424825E+01 0.16577846625E+01
 0.15853337489E+01 0.14839432711E+01 0.13613502339E+01 0.11490471742E+01 0.10345769872E+01
 0.92071991379E+00 0.81370572449E+00 0.71853190916E+00 0.63876009688E+00 0.57645608740E+00
 0.53234285052E+00 0.50622415345E+00 0.49759914044E+00 0.50622416947E+00 0.53234222694E+00
 0.57645518992E+00 0.63876109703E+00 0.71853700736E+00 0.81371447729E+00 0.92072885733E+00
 0.10345823974E+01 0.11490482728E+01 0.12570210691E+01 0.13510669700E+01 0.14241711000E+01
 0.14705672008E+01 0.14864705594E+01 0.14705647423E+01 0.14241685093E+01 0.13510663337E+01
 0.12570217457E+01 0.10606113748E+01 0.97069539608E+00 0.87863217112E+00 0.78977542489E+00
 0.70860202502E+00 0.63851038147E+00 0.58171992724E+00 0.53929764846E+00 0.51137950368E+00
 0.49759957951E+00 0.49759914126E+00 0.51137810319E+00 0.53929545983E+00 0.58171779388E+00
 0.63850907799E+00 0.70860111159E+00 0.78977347039E+00 0.87862843639E+00 0.97069093715E+00
 0.10606081116E+01 0.11424863584E+01 0.12104037327E+01 0.12590631463E+01 0.12844675398E+01
 0.12844672228E+01 0.12590623950E+01 0.12104033121E+01 0.11424874735E+01 0.96744170162E+00
 0.90105251256E+00 0.83100496276E+00 0.76162898102E+00 0.69666427245E+00 0.63907645438E+00
 0.59095279131E+00 0.55347462443E+00 0.52701152431E+00 0.51137950212E+00 0.50622415067E+00
 0.51137837425E+00 0.52700946846E+00 0.55347141414E+00 0.59094752141E+00 0.63906829621E+00
 0.69665356764E+00 0.76161743050E+00 0.83099458088E+00 0.90104434288E+00 0.96743550554E+00
 0.10255514758E+01 0.10709382166E+01 0.10998503652E+01 0.11097824490E+01 0.10998526010E+01
 0.10709420682E+01 0.10255564063E+01 0.87556702025E+00 0.83051730536E+00 0.78149258027E+00
 0.73177477668E+00 0.68426210218E+00 0.64130578379E+00 0.60461382623E+00 0.57521012942E+00
 0.55347462567E+00 0.53929764864E+00 0.53234284689E+00 0.53234223540E+00 0.53929533696E+00
 0.55346972611E+00 0.57520229586E+00 0.60460345015E+00 0.64129328484E+00 0.68424737740E+00
 0.73175771600E+00 0.78147418035E+00 0.83050000071E+00 0.87555355204E+00 0.91323539549E+00
 0.94041281967E+00 0.95466348904E+00 0.95466446811E+00 0.94041660951E+00 0.91324367681E+00
 0.79002891383E+00 0.76331899275E+00 0.73338512845E+00 0.70253647648E+00 0.67283106377E+00
 0.64592388765E+00 0.62297631199E+00 0.60461382579E+00 0.59095279281E+00 0.58171993048E+00
 0.57645608867E+00 0.57475412612E+00 0.57645293718E+00 0.58171321271E+00 0.59094277402E+00
 0.60460171863E+00 0.62296285825E+00 0.64590804830E+00 0.67281098894E+00 0.70251219051E+00
 0.73335997975E+00 0.76329800240E+00 0.79001543581E+00 0.81119003173E+00 0.82481205806E+00
 0.82951451360E+00 0.82481388253E+00 0.81119625692E+00 0.71458262075E+00 0.70271156267E+00
 0.68927672336E+00 0.67575499844E+00 0.66344796641E+00 0.65332473836E+00 0.64592388732E+00
 0.64130578195E+00 0.63907645302E+00 0.63851038312E+00 0.63876010060E+00 0.63909388819E+00
 0.63909191549E+00 0.63875392403E+00 0.63849956780E+00 0.63906113004E+00 0.64128708471E+00
 0.64590349561E+00 0.65330383761E+00 0.66342678960E+00 0.67573367163E+00 0.68925652749E+00
 0.70269491921E+00 0.71457147147E+00 0.72345419134E+00 0.72820871424E+00 0.72821031665E+00
 0.72345985069E+00 0.65168103605E+00 0.65089913789E+00 0.65094640500E+00 0.65265113599E+00
 0.65669632387E+00 0.66344796704E+00 0.67283106487E+00 0.68426210166E+00 0.69666426985E+00
 0.70860202273E+00 0.71853190897E+00 0.72510053144E+00 0.72739574876E+00 0.72509697156E+00
 0.71852300401E+00 0.70858606090E+00 0.69664202531E+00 0.68423753457E+00 0.67280898175E+00
 0.66343040815E+00 0.65668146108E+00 0.65263614283E+00 0.65093113125E+00 0.65088632844E+00
 0.65167312513E+00 0.65251278887E+00 0.65285865512E+00 0.65251600895E+00 0.60263550310E+00
 0.60914690113E+00 0.61941344713E+00 0.63383527270E+00 0.65265113552E+00 0.67575499835E+00
 0.70253647791E+00 0.73177477860E+00 0.76162898127E+00 0.78977542314E+00 0.81370572185E+00
 0.83111870130E+00 0.84028372074E+00 0.84028182154E+00 0.83111232206E+00 0.81369370479E+00
 0.78975792303E+00 0.76160831978E+00 0.73175431915E+00 0.70251845443E+00 0.67573944473E+00
 0.65263700768E+00 0.63382244886E+00 0.61940327325E+00 0.60914069046E+00 0.60263292253E+00
 0.59949421037E+00 0.59949476698E+00 0.56786711150E+00 0.57797935775E+00 0.59509116607E+00
 0.61941344728E+00 0.65094640447E+00 0.68927672211E+00 0.73338512787E+00 0.78149258141E+00
 0.83100496483E+00 0.87863217278E+00 0.92071991448E+00 0.95374069062E+00 0.97480330986E+00
 0.98203765853E+00 0.97480052317E+00 0.95373480638E+00 0.92071084378E+00 0.87862022941E+00
 0.83099053434E+00 0.78147619579E+00 0.73336822340E+00 0.68926181194E+00 0.65093567507E+00
 0.61940702970E+00 0.59508729251E+00 0.57797643612E+00 0.56786520805E+00 0.56452715959E+00
 0.54723146032E+00 0.55741507490E+00 0.57797935784E+00 0.60914690170E+00 0.65089913842E+00
 0.70271156219E+00 0.76331899127E+00 0.83051730401E+00 0.90105251236E+00 0.97069539725E+00
 0.10345769898E+01 0.10877589217E+01 0.11258952381E+01 0.11457990424E+01 0.11457996273E+01
 0.11258956028E+01 0.10877565108E+01 0.10345708352E+01 0.97068669990E+00 0.90104300280E+00
 0.83050807511E+00 0.76331093976E+00 0.70270571014E+00 0.65089563117E+00 0.60914431835E+00
 0.57797613434E+00 0.55741161199E+00 0.54722989145E+00 0.70975183166E+00 0.72020917651E+00
 0.75195742843E+00 0.80584461965E+00 0.88250157612E+00 0.98155246155E+00 0.11009822354E+01
 0.12367561401E+01 0.13826950130E+01 0.15306402667E+01 0.16709877493E+01 0.17936106659E+01
 0.18890344902E+01 0.19495987625E+01 0.19703566834E+01 0.19496020259E+01 0.18890375460E+01
 0.17936100249E+01 0.16709835073E+01 0.15306362446E+01 0.13826950750E+01 0.12367602992E+01
 0.11009866387E+01 0.98155333800E+00 0.88249886094E+00 0.80584137198E+00 0.75195609499E+00
 0.72020933289E+00 0.72020933269E+00 0.72020759813E+00 0.74737238189E+00 0.80234363537E+00
 0.88581935705E+00 0.99767458519E+00 0.11361287542E+01 0.12971790014E+01 0.14743410321E+01
 0.16586863155E+01 0.18392331216E+01 0.20037831610E+01 0.21401776436E+01 0.22377451820E+01
 0.22886100113E+01 0.22886103804E+01 0.22377473292E+01 0.21401828850E+01 0.20037907280E+01
 0.18392412914E+01 0.16586951664E+01 0.14743518778E+01 0.12971908540E+01 0.11361376383E+01
 0.99767785851E+00 0.88581927771E+00 0.80234462647E+00 0.74737536787E+00 0.75195609404E+00
 0.73527192170E+00 0.75195590179E+00 0.80234310629E+00 0.88710445579E+00 0.10063965307E+01