   3   3   0   0
  0.8743401E+02  0.3190316E-09  0.3190315E-09  0.2975800E-08  0.5000000E-15
  1.000000000000000E-004
  CAR 
 monolayer MoS2                          
      3.06578850    -19.66724987  301     -3.65940202      1.00000000
    -19.667  0.0000E+00  0.0000E+00
    -19.591  0.0000E+00  0.0000E+00
    -19.516  0.0000E+00  0.0000E+00
    -19.440  0.0000E+00  0.0000E+00
    -19.364  0.0000E+00  0.0000E+00
    -19.288  0.0000E+00  0.0000E+00
    -19.213  0.0000E+00  0.0000E+00
    -19.137  0.0000E+00  0.0000E+00
    -19.061  0.0000E+00  0.0000E+00
    -18.985  0.0000E+00  0.0000E+00
    -18.909  0.0000E+00  0.0000E+00
    -18.834  0.0000E+00  0.0000E+00
    -18.758  0.0000E+00  0.0000E+00
    -18.682  0.0000E+00  0.0000E+00
    -18.606  0.0000E+00  0.0000E+00
    -18.531  0.0000E+00  0.0000E+00
    -18.455  0.0000E+00  0.0000E+00
    -18.379  0.0000E+00  0.0000E+00
    -18.303  0.0000E+00  0.0000E+00
    -18.227  0.0000E+00  0.0000E+00
    -18.152  0.0000E+00  0.0000E+00
    -18.076  0.0000E+00  0.0000E+00
    -18.000  0.0000E+00  0.0000E+00
    -17.924  0.0000E+00  0.0000E+00
    -17.849  0.0000E+00  0.0000E+00
    -17.773  0.0000E+00  0.0000E+00
    -17.697  0.0000E+00  0.0000E+00
    -17.621  0.2893E+00  0.6650E-02
    -17.545  0.7661E+00  0.4664E-01
    -17.470  0.4958E+00  0.8835E-01
    -17.394  0.5437E+00  0.1277E+00
    -17.318  0.5916E+00  0.1708E+00
    -17.242  0.6162E+00  0.2171E+00
    -17.167  0.5934E+00  0.2629E+00
    -17.091  0.6055E+00  0.3080E+00
    -17.015  0.6322E+00  0.3549E+00
    -16.939  0.6590E+00  0.4038E+00
    -16.864  0.6857E+00  0.4547E+00
    -16.788  0.7125E+00  0.5077E+00
    -16.712  0.7459E+00  0.5629E+00
    -16.636  0.7793E+00  0.6207E+00
    -16.560  0.8148E+00  0.6811E+00
    -16.485  0.8516E+00  0.7442E+00
    -16.409  0.2427E+01  0.8531E+00
    -16.333  0.2083E+01  0.1008E+01
    -16.257  0.2404E+01  0.1180E+01
    -16.182  0.2547E+01  0.1366E+01
    -16.106  0.2811E+01  0.1569E+01
    -16.030  0.3175E+01  0.1796E+01
    -15.954  0.3576E+01  0.2051E+01
    -15.878  0.4408E+01  0.2423E+01
    -15.803  0.4144E+01  0.2742E+01
    -15.727  0.4426E+01  0.3057E+01
    -15.651  0.4325E+01  0.3443E+01
    -15.575  0.3094E+01  0.3792E+01
    -15.500  0.0000E+00  0.4000E+01
    -15.424  0.0000E+00  0.4000E+01
    -15.348  0.0000E+00  0.4000E+01
    -15.272  0.0000E+00  0.4000E+01
    -15.196  0.0000E+00  0.4000E+01
    -15.121  0.0000E+00  0.4000E+01
    -15.045  0.0000E+00  0.4000E+01
    -14.969  0.0000E+00  0.4000E+01
    -14.893  0.0000E+00  0.4000E+01
    -14.818  0.0000E+00  0.4000E+01
    -14.742  0.0000E+00  0.4000E+01
    -14.666  0.0000E+00  0.4000E+01
    -14.590  0.0000E+00  0.4000E+01
    -14.514  0.0000E+00  0.4000E+01
    -14.439  0.0000E+00  0.4000E+01
    -14.363  0.0000E+00  0.4000E+01
    -14.287  0.0000E+00  0.4000E+01
    -14.211  0.0000E+00  0.4000E+01
    -14.136  0.0000E+00  0.4000E+01
    -14.060  0.0000E+00  0.4000E+01
    -13.984  0.0000E+00  0.4000E+01
    -13.908  0.0000E+00  0.4000E+01
    -13.832  0.0000E+00  0.4000E+01
    -13.757  0.0000E+00  0.4000E+01
    -13.681  0.0000E+00  0.4000E+01
    -13.605  0.0000E+00  0.4000E+01
    -13.529  0.0000E+00  0.4000E+01
    -13.454  0.0000E+00  0.4000E+01
    -13.378  0.0000E+00  0.4000E+01
    -13.302  0.0000E+00  0.4000E+01
    -13.226  0.0000E+00  0.4000E+01
    -13.150  0.0000E+00  0.4000E+01
    -13.075  0.0000E+00  0.4000E+01
    -12.999  0.0000E+00  0.4000E+01
    -12.923  0.0000E+00  0.4000E+01
    -12.847  0.0000E+00  0.4000E+01
    -12.772  0.0000E+00  0.4000E+01
    -12.696  0.0000E+00  0.4000E+01
    -12.620  0.0000E+00  0.4000E+01
    -12.544  0.0000E+00  0.4000E+01
    -12.468  0.0000E+00  0.4000E+01
    -12.393  0.0000E+00  0.4000E+01
    -12.317  0.0000E+00  0.4000E+01
    -12.241  0.0000E+00  0.4000E+01
    -12.165  0.0000E+00  0.4000E+01
    -12.090  0.0000E+00  0.4000E+01
    -12.014  0.0000E+00  0.4000E+01
    -11.938  0.0000E+00  0.4000E+01
    -11.862  0.0000E+00  0.4000E+01
    -11.786  0.0000E+00  0.4000E+01
    -11.711  0.0000E+00  0.4000E+01
    -11.635  0.0000E+00  0.4000E+01
    -11.559  0.0000E+00  0.4000E+01
    -11.483  0.0000E+00  0.4000E+01
    -11.408  0.0000E+00  0.4000E+01
    -11.332  0.0000E+00  0.4000E+01
    -11.256  0.0000E+00  0.4000E+01
    -11.180  0.0000E+00  0.4000E+01
    -11.104  0.0000E+00  0.4000E+01
    -11.029  0.0000E+00  0.4000E+01
    -10.953  0.0000E+00  0.4000E+01
    -10.877  0.0000E+00  0.4000E+01
    -10.801  0.0000E+00  0.4000E+01
    -10.726  0.0000E+00  0.4000E+01
    -10.650  0.0000E+00  0.4000E+01
    -10.574  0.0000E+00  0.4000E+01
    -10.498  0.0000E+00  0.4000E+01
    -10.422  0.0000E+00  0.4000E+01
    -10.347  0.0000E+00  0.4000E+01
    -10.271  0.0000E+00  0.4000E+01
    -10.195  0.0000E+00  0.4000E+01
    -10.119  0.0000E+00  0.4000E+01
    -10.044  0.0000E+00  0.4000E+01
     -9.968  0.0000E+00  0.4000E+01
     -9.892  0.0000E+00  0.4000E+01
     -9.816  0.0000E+00  0.4000E+01
     -9.740  0.0000E+00  0.4000E+01
     -9.665  0.0000E+00  0.4000E+01
     -9.589  0.0000E+00  0.4000E+01
     -9.513  0.0000E+00  0.4000E+01
     -9.437  0.0000E+00  0.4000E+01
     -9.362  0.0000E+00  0.4000E+01
     -9.286  0.5937E+00  0.4020E+01
     -9.210  0.1268E+01  0.4090E+01
     -9.134  0.1440E+01  0.4205E+01
     -9.058  0.1912E+01  0.4331E+01
     -8.983  0.1954E+01  0.4478E+01
     -8.907  0.3401E+01  0.4664E+01
     -8.831  0.4685E+01  0.4969E+01
     -8.755  0.3456E+01  0.5296E+01
     -8.680  0.4410E+01  0.5577E+01
     -8.604  0.4250E+01  0.5941E+01
     -8.528  0.1771E+01  0.6212E+01
     -8.452  0.2248E+01  0.6405E+01
     -8.377  0.1488E+01  0.6603E+01
     -8.301  0.1307E+01  0.6709E+01
     -8.225  0.1126E+01  0.6801E+01
     -8.149  0.9629E+00  0.6879E+01
     -8.073  0.8928E+00  0.6950E+01
     -7.998  0.8226E+00  0.7015E+01
     -7.922  0.7935E+00  0.7075E+01
     -7.846  0.8536E+00  0.7137E+01
     -7.770  0.8769E+00  0.7203E+01
     -7.695  0.8612E+00  0.7269E+01
     -7.619  0.4022E+01  0.7438E+01
     -7.543  0.4313E+01  0.7770E+01
     -7.467  0.4882E+01  0.8147E+01
     -7.391  0.5036E+01  0.8550E+01
     -7.316  0.2173E+01  0.8937E+01
     -7.240  0.1942E+01  0.9093E+01
     -7.164  0.1692E+01  0.9231E+01
     -7.088  0.1378E+01  0.9339E+01
     -7.013  0.1491E+01  0.9448E+01
     -6.937  0.1719E+01  0.9570E+01
     -6.861  0.4521E+01  0.9804E+01
     -6.785  0.8907E+01  0.1031E+02
     -6.709  0.3158E+01  0.1074E+02
     -6.634  0.1976E+01  0.1092E+02
     -6.558  0.2555E+01  0.1111E+02
     -6.482  0.2380E+01  0.1130E+02
     -6.406  0.2240E+01  0.1147E+02
     -6.331  0.1976E+01  0.1164E+02
     -6.255  0.1458E+01  0.1176E+02
     -6.179  0.1788E+01  0.1188E+02
     -6.103  0.2146E+01  0.1203E+02
     -6.027  0.1052E+01  0.1212E+02
     -5.952  0.2661E+01  0.1228E+02
     -5.876  0.1452E+01  0.1247E+02
     -5.800  0.1257E+01  0.1254E+02
     -5.724  0.2153E+01  0.1267E+02
     -5.649  0.3576E+01  0.1292E+02
     -5.573  0.3349E+01  0.1318E+02
     -5.497  0.3975E+01  0.1344E+02
     -5.421  0.8305E+01  0.1391E+02
     -5.345  0.3369E+01  0.1420E+02
     -5.270  0.2978E+01  0.1444E+02
     -5.194  0.1919E+01  0.1463E+02
     -5.118  0.2563E+01  0.1478E+02
     -5.042  0.2419E+01  0.1497E+02
     -4.967  0.2274E+01  0.1514E+02
     -4.891  0.2130E+01  0.1531E+02
     -4.815  0.2122E+01  0.1547E+02
     -4.739  0.3907E+01  0.1568E+02
     -4.663  0.2074E+01  0.1591E+02
     -4.588  0.2090E+00  0.1600E+02
     -4.512  0.2038E+01  0.1606E+02
     -4.436  0.2727E+01  0.1626E+02
     -4.360  0.2712E+01  0.1665E+02
     -4.285  0.2840E+01  0.1686E+02
     -4.209  0.2857E+01  0.1708E+02
     -4.133  0.2486E+01  0.1729E+02
     -4.057  0.2116E+01  0.1746E+02
     -3.981  0.1758E+01  0.1761E+02
     -3.906  0.1391E+01  0.1773E+02
     -3.830  0.1511E+01  0.1784E+02
     -3.754  0.5337E+00  0.1794E+02
     -3.678  0.1599E+00  0.1800E+02
     -3.603  0.0000E+00  0.1800E+02
     -3.527  0.0000E+00  0.1800E+02
     -3.451  0.0000E+00  0.1800E+02
     -3.375  0.0000E+00  0.1800E+02
     -3.299  0.0000E+00  0.1800E+02
     -3.224  0.0000E+00  0.1800E+02
     -3.148  0.0000E+00  0.1800E+02
     -3.072  0.0000E+00  0.1800E+02
     -2.996  0.0000E+00  0.1800E+02
     -2.921  0.0000E+00  0.1800E+02
     -2.845  0.0000E+00  0.1800E+02
     -2.769  0.0000E+00  0.1800E+02
     -2.693  0.0000E+00  0.1800E+02
     -2.617  0.0000E+00  0.1800E+02
     -2.542  0.0000E+00  0.1800E+02
     -2.466  0.0000E+00  0.1800E+02
     -2.390  0.0000E+00  0.1800E+02
     -2.314  0.0000E+00  0.1800E+02
     -2.239  0.0000E+00  0.1800E+02
     -2.163  0.0000E+00  0.1800E+02
     -2.087  0.0000E+00  0.1800E+02
     -2.011  0.0000E+00  0.1800E+02
     -1.935  0.0000E+00  0.1800E+02
     -1.860  0.6210E+00  0.1804E+02
     -1.784  0.7050E+00  0.1809E+02
     -1.708  0.7889E+00  0.1815E+02
     -1.632  0.4861E+01  0.1839E+02
     -1.557  0.8051E+01  0.1883E+02
     -1.481  0.9432E+01  0.1965E+02
     -1.405  0.1132E+01  0.1979E+02
     -1.329  0.2229E+01  0.1992E+02
     -1.253  0.7295E+01  0.2017E+02
     -1.178  0.3971E+01  0.2069E+02
     -1.102  0.3710E+01  0.2098E+02
     -1.026  0.7364E+01  0.2139E+02
     -0.950  0.3871E+01  0.2188E+02
     -0.875  0.2687E+01  0.2212E+02
     -0.799  0.2486E+01  0.2232E+02
     -0.723  0.2174E+01  0.2250E+02
     -0.647  0.2324E+01  0.2272E+02
     -0.571  0.2237E+01  0.2297E+02
     -0.496  0.2285E+01  0.2311E+02
     -0.420  0.2765E+01  0.2330E+02
     -0.344  0.6333E+01  0.2356E+02
     -0.268  0.1604E+01  0.2372E+02
     -0.193  0.1545E+01  0.2384E+02
     -0.117  0.1498E+01  0.2395E+02
     -0.041  0.1463E+01  0.2407E+02
      0.035  0.1428E+01  0.2417E+02
      0.110  0.2085E+01  0.2434E+02
      0.186  0.1241E+01  0.2446E+02
      0.262  0.7963E+00  0.2453E+02
      0.338  0.1304E+01  0.2462E+02
      0.414  0.1445E+01  0.2472E+02
      0.489  0.1587E+01  0.2484E+02
      0.565  0.2676E+01  0.2528E+02
      0.641  0.1941E+01  0.2543E+02
      0.717  0.1806E+01  0.2557E+02
      0.792  0.1608E+01  0.2570E+02
      0.868  0.1254E+01  0.2580E+02
      0.944  0.9743E+00  0.2589E+02
      1.020  0.6943E+00  0.2595E+02
      1.096  0.0000E+00  0.2600E+02
      1.171  0.0000E+00  0.2600E+02
      1.247  0.0000E+00  0.2600E+02
      1.323  0.0000E+00  0.2600E+02
      1.399  0.0000E+00  0.2600E+02
      1.474  0.0000E+00  0.2600E+02
      1.550  0.0000E+00  0.2600E+02
      1.626  0.0000E+00  0.2600E+02
      1.702  0.0000E+00  0.2600E+02
      1.778  0.0000E+00  0.2600E+02
      1.853  0.0000E+00  0.2600E+02
      1.929  0.0000E+00  0.2600E+02
      2.005  0.0000E+00  0.2600E+02
      2.081  0.0000E+00  0.2600E+02
      2.156  0.0000E+00  0.2600E+02
      2.232  0.0000E+00  0.2600E+02
      2.308  0.0000E+00  0.2600E+02
      2.384  0.0000E+00  0.2600E+02
      2.460  0.0000E+00  0.2600E+02
      2.535  0.0000E+00  0.2600E+02
      2.611  0.0000E+00  0.2600E+02
      2.687  0.0000E+00  0.2600E+02
      2.763  0.0000E+00  0.2600E+02
      2.838  0.0000E+00  0.2600E+02
      2.914  0.0000E+00  0.2600E+02
      2.990  0.0000E+00  0.2600E+02
      3.066  0.0000E+00  0.2600E+02
