    3    3    1    1
  0.8743401E+02  0.3190316E-09  0.3190315E-09  0.2975800E-08  0.5000000E-15
  1.000000000000000E-004
  CAR 
 monolayer MoS2                          
     18     14     13
 
  0.0000000E+00  0.0000000E+00  0.0000000E+00  0.1000000E-01
    1      -17.667250   1.000000
    2      -16.464675   1.000000
    3       -9.188786   1.000000
    4       -6.250330   1.000000
    5       -6.250297   1.000000
    6       -5.388030   1.000000
    7       -5.145536   1.000000
    8       -5.145510   1.000000
    9       -3.669878   1.000000
   10       -0.900543   0.000000
   11       -0.900445   0.000000
   12       -0.683834   0.000000
   13       -0.683815   0.000000
 
  0.1000000E+00  0.0000000E+00  0.0000000E+00  0.6000000E-01
    1      -17.529152   1.000000
    2      -16.398687   1.000000
    3       -9.027636   1.000000
    4       -6.558605   1.000000
    5       -6.098246   1.000000
    6       -6.005830   1.000000
    7       -5.370720   1.000000
    8       -4.755625   1.000000
    9       -3.749602   1.000000
   10       -1.075764   0.000000
   11       -1.047526   0.000000
   12       -0.842085   0.000000
   13       -0.661914   0.000000
 
  0.2000000E+00  0.1387779E-16  0.0000000E+00  0.6000000E-01
    1      -17.144333   1.000000
    2      -16.216057   1.000000
    3       -8.672039   1.000000
    4       -7.189881   1.000000
    5       -6.782337   1.000000
    6       -5.859648   1.000000
    7       -5.688484   1.000000
    8       -4.786087   1.000000
    9       -4.111812   1.000000
   10       -1.473764   0.000000
   11       -1.178269   0.000000
   12       -1.019151   0.000000
   13       -0.167327   0.000000
 
  0.3000000E+00  0.2775558E-16  0.0000000E+00  0.6000000E-01
    1      -16.608303   1.000000
    2      -15.966497   1.000000
    3       -8.682859   1.000000
    4       -7.551774   1.000000
    5       -7.502786   1.000000
    6       -6.343901   1.000000
    7       -5.167091   1.000000
    8       -5.146622   1.000000
    9       -4.566404   1.000000
   10       -1.448064   0.000000
   11       -1.440435   0.000000
   12       -0.491031   0.000000
   13        0.261310   0.000000
 
  0.4000000E+00  0.2775558E-16  0.0000000E+00  0.6000000E-01
    1      -16.103127   1.000000
    2      -15.739533   1.000000
    3       -9.130860   1.000000
    4       -8.161669   1.000000
    5       -7.587899   1.000000
    6       -6.675000   1.000000
    7       -5.421391   1.000000
    8       -4.754977   1.000000
    9       -4.492129   1.000000
   10       -1.520972   0.000000
   11       -1.164476   0.000000
   12        0.037058   0.000000
   13        0.503221   0.000000
 
  0.5000000E+00  0.0000000E+00  0.0000000E+00  0.3000000E-01
    1      -15.885695   1.000000
    2      -15.645366   1.000000
    3       -9.352519   1.000000
    4       -8.398811   1.000000
    5       -7.684084   1.000000
    6       -6.791349   1.000000
    7       -5.510769   1.000000
    8       -4.607985   1.000000
    9       -4.275735   1.000000
   10       -1.500538   0.000000
   11       -0.985686   0.000000
   12        0.229331   0.000000
   13        0.575682   0.000000
 
  0.1000000E+00  0.1000000E+00  0.0000000E+00  0.6000000E-01
    1      -17.267324   1.000000
    2      -16.274000   1.000000
    3       -8.758451   1.000000
    4       -7.014345   1.000000
    5       -6.493952   1.000000
    6       -5.908122   1.000000
    7       -5.837705   1.000000
    8       -4.578450   1.000000
    9       -3.975554   1.000000
   10       -1.417568   0.000000
   11       -1.211408   0.000000
   12       -1.096681   0.000000
   13       -0.230718   0.000000
 
  0.2000000E+00  0.1000000E+00  0.0000000E+00  0.1200000E+00
    1      -16.803928   1.000000
    2      -16.055016   1.000000
    3       -8.537523   1.000000
    4       -7.430279   1.000000
    5       -7.162149   1.000000
    6       -6.518290   1.000000
    7       -5.513828   1.000000
    8       -4.734552   1.000000
    9       -4.397585   1.000000
   10       -1.666729   0.000000
   11       -1.263603   0.000000
   12       -0.985627   0.000000
   13        0.279699   0.000000
 
  0.3000000E+00  0.1000000E+00  0.0000000E+00  0.1200000E+00
    1      -16.273178   1.000000
    2      -15.808983   1.000000
    3       -8.834268   1.000000
    4       -7.945702   1.000000
    5       -7.459819   1.000000
    6       -6.754177   1.000000
    7       -5.410570   1.000000
    8       -5.144304   1.000000
    9       -4.430575   1.000000
   10       -1.576854   0.000000
   11       -1.218503   0.000000
   12       -0.436159   0.000000
   13        0.554071   0.000000
 
  0.4000000E+00  0.1000000E+00  0.0000000E+00  0.1200000E+00
    1      -15.896187   1.000000
    2      -15.639223   1.000000
    3       -9.160637   1.000000
    4       -8.440184   1.000000
    5       -7.602500   1.000000
    6       -6.802377   1.000000
    7       -5.452306   1.000000
    8       -5.291036   1.000000
    9       -4.140045   1.000000
   10       -1.475740   0.000000
   11       -0.980361   0.000000
   12        0.062563   0.000000
   13        0.505332   0.000000
 
  0.2000000E+00  0.2000000E+00  0.0000000E+00  0.6000000E-01
    1      -16.338156   1.000000
    2      -15.833118   1.000000
    3       -8.637870   1.000000
    4       -7.807103   1.000000
    5       -7.332919   1.000000
    6       -6.935067   1.000000
    7       -5.864687   1.000000
    8       -4.886016   1.000000
    9       -4.428253   1.000000
   10       -1.659572   0.000000
   11       -1.185913   0.000000
   12       -0.814826   0.000000
   13        0.662918   0.000000
 
  0.3000000E+00  0.2000000E+00  0.0000000E+00  0.1200000E+00
    1      -15.912880   1.000000
    2      -15.629224   1.000000
    3       -8.782714   1.000000
    4       -8.499993   1.000000
    5       -7.342327   1.000000
    6       -6.847621   1.000000
    7       -6.289146   1.000000
    8       -5.313413   1.000000
    9       -4.159330   1.000000
   10       -1.515316   0.000000
   11       -0.929892   0.000000
   12       -0.503954   0.000000
   13        0.811722   0.000000
 
  0.4000000E+00  0.2000000E+00  0.0000000E+00  0.6000000E-01
    1      -15.735583   1.000000
    2      -15.543939   1.000000
    3       -8.807320   1.000000
    4       -8.767870   1.000000
    5       -7.537042   1.000000
    6       -6.720290   1.000000
    7       -6.347120   1.000000
    8       -5.574632   1.000000
    9       -3.910429   1.000000
   10       -1.686280   0.000000
   11       -0.567942   0.000000
   12       -0.364940   0.000000
   13        0.836940   0.000000
 
  0.3000000E+00  0.3000000E+00  0.0000000E+00  0.6000000E-01
    1      -15.676823   1.000000
    2      -15.503606   1.000000
    3       -8.915130   1.000000
    4       -8.417410   1.000000
    5       -7.425334   1.000000
    6       -7.103343   1.000000
    7       -6.609231   1.000000
    8       -5.683111   1.000000
    9       -3.792202   1.000000
   10       -1.890878   0.000000
   11       -0.599183   0.000000
   12       -0.341388   0.000000
   13        1.065789   0.000000
