<?xml version="1.0" encoding="ISO-8859-1"?>
<modeling>
 <generator>
  <i name="program" type="string">vasp </i>
  <i name="version" type="string">5.4.4.18Apr17-6-g9f103f2a35  </i>
  <i name="subversion" type="string">(build May 20 2018 16:52:39) complex            parallel </i>
  <i name="platform" type="string">LinuxIFC </i>
  <i name="date" type="string">2022 11 14 </i>
  <i name="time" type="string">12:12:32 </i>
 </generator>
 <incar>
  <i type="string" name="SYSTEM"> monolayer MoS2</i>
  <i type="string" name="PREC">normal</i>
  <i name="EDIFF">      0.00000100</i>
  <i type="int" name="ISMEAR">    -5</i>
  <i type="logical" name="LWAVE"> F  </i>
  <v type="int" name="KPOINT_BSE">    -1     0     0     0</v>
 </incar>
 <structure name="primitive_cell" >
  <crystal>
   <varray name="basis" >
    <v>       3.19031600       0.00000000       0.00000000 </v>
    <v>      -1.59515800       2.76289400       0.00000000 </v>
    <v>       0.00000000       0.00000000      29.75800000 </v>
   </varray>
   <i name="volume">    262.30203784 </i>
   <varray name="rec_basis" >
    <v>       0.31344857       0.18096966       0.00000000 </v>
    <v>       0.00000000       0.36193933       0.00000000 </v>
    <v>       0.00000000       0.00000000       0.03360441 </v>
   </varray>
  </crystal>
  <varray name="positions" >
   <v>       0.33333300      -0.33333300       0.12500000 </v>
   <v>      -0.33333300       0.33333300       0.17758700 </v>
   <v>      -0.33333300       0.33333300       0.07241300 </v>
  </varray>
 </structure>
 <varray name="primitive_index" >
  <v type="int" >        1 </v>
  <v type="int" >        2 </v>
  <v type="int" >        3 </v>
 </varray>
 <kpoints>
  <generation param="Gamma">
   <v type="int" name="divisions">      10       10        1 </v>
   <v name="usershift">      0.00000000       0.00000000       0.00000000 </v>
   <v name="genvec1">      0.10000000      -0.00000000       0.00000000 </v>
   <v name="genvec2">      0.00000000       0.10000000       0.00000000 </v>
   <v name="genvec3">      0.00000000       0.00000000       1.00000000 </v>
   <v name="shift">      0.00000000       0.00000000       0.00000000 </v>
  </generation>
  <varray name="kpointlist" >
   <v>       0.00000000       0.00000000       0.00000000 </v>
   <v>       0.10000000       0.00000000       0.00000000 </v>
   <v>       0.20000000       0.00000000       0.00000000 </v>
   <v>       0.30000000       0.00000000       0.00000000 </v>
   <v>       0.40000000       0.00000000       0.00000000 </v>
   <v>       0.50000000       0.00000000       0.00000000 </v>
   <v>       0.10000000       0.10000000       0.00000000 </v>
   <v>       0.20000000       0.10000000       0.00000000 </v>
   <v>       0.30000000       0.10000000       0.00000000 </v>
   <v>       0.40000000       0.10000000       0.00000000 </v>
   <v>       0.20000000       0.20000000       0.00000000 </v>
   <v>       0.30000000       0.20000000       0.00000000 </v>
   <v>       0.40000000       0.20000000       0.00000000 </v>
   <v>       0.30000000       0.30000000       0.00000000 </v>
  </varray>
  <varray name="weights" >
   <v>       0.01000000 </v>
   <v>       0.06000000 </v>
   <v>       0.06000000 </v>
   <v>       0.06000000 </v>
   <v>       0.06000000 </v>
   <v>       0.03000000 </v>
   <v>       0.06000000 </v>
   <v>       0.12000000 </v>
   <v>       0.12000000 </v>
   <v>       0.12000000 </v>
   <v>       0.06000000 </v>
   <v>       0.12000000 </v>
   <v>       0.06000000 </v>
   <v>       0.06000000 </v>
  </varray>
  <varray name="tetrahedronlist"  type="int" >
   <v type="int" >       12        2        2        2        7 </v>
   <v type="int" >       12        1        2        2        2 </v>
   <v type="int" >        6        1        1        2        2 </v>
   <v type="int" >        6        2        2        7        7 </v>
   <v type="int" >       12        3        7        7        8 </v>
   <v type="int" >       12        2        3        7        7 </v>
   <v type="int" >       12        2        2        3        7 </v>
   <v type="int" >       12        3        7        8        8 </v>
   <v type="int" >       12        3        3        7        8 </v>
   <v type="int" >       12        2        3        3        7 </v>
   <v type="int" >       12        4        8        8        9 </v>
   <v type="int" >       12        3        4        8        8 </v>
   <v type="int" >       12        3        3        4        8 </v>
   <v type="int" >       12        4        8        9        9 </v>
   <v type="int" >       12        4        4        8        9 </v>
   <v type="int" >       12        3        4        4        8 </v>
   <v type="int" >       12        5        9        9       10 </v>
   <v type="int" >       12        4        5        9        9 </v>
   <v type="int" >       12        4        4        5        9 </v>
   <v type="int" >       12        5        9       10       10 </v>
   <v type="int" >       12        5        5        9       10 </v>
   <v type="int" >       12        4        5        5        9 </v>
   <v type="int" >       12        6       10       10       10 </v>
   <v type="int" >       12        5        6       10       10 </v>
   <v type="int" >       12        5        5        6       10 </v>
   <v type="int" >        6        6        6       10       10 </v>
   <v type="int" >       12        5        6        6       10 </v>
   <v type="int" >       12        8        8        8       11 </v>
   <v type="int" >       12        7        8        8        8 </v>
   <v type="int" >        6        7        7        8        8 </v>
   <v type="int" >        6        8        8       11       11 </v>
   <v type="int" >       12        9       11       11       12 </v>
   <v type="int" >       12        8        9       11       11 </v>
   <v type="int" >       12        8        8        9       11 </v>
   <v type="int" >       12        9       11       12       12 </v>
   <v type="int" >       12        9        9       11       12 </v>
   <v type="int" >       12        8        9        9       11 </v>
   <v type="int" >       12       10       12       12       13 </v>
   <v type="int" >       12        9       10       12       12 </v>
   <v type="int" >       12        9        9       10       12 </v>
   <v type="int" >       12       10       12       13       13 </v>
   <v type="int" >       12       10       10       12       13 </v>
   <v type="int" >       12        9       10       10       12 </v>
   <v type="int" >        6       10       10       13       13 </v>
   <v type="int" >       12       10       10       10       13 </v>
   <v type="int" >       12       12       12       12       14 </v>
   <v type="int" >       12       11       12       12       12 </v>
   <v type="int" >        6       11       11       12       12 </v>
   <v type="int" >        6       12       12       14       14 </v>
   <v type="int" >       12       13       14       14       14 </v>
   <v type="int" >       12       12       13       14       14 </v>
   <v type="int" >       12       12       12       13       14 </v>
   <v type="int" >        6       13       13       14       14 </v>
   <v type="int" >       12       12       13       13       14 </v>
   <v type="int" >        6       14       14       14       14 </v>
  </varray>
  <i name="volumeweight">      0.00166667 </i>
 </kpoints>
 <parameters>
  <separator name="general" >
   <i type="string" name="SYSTEM">monolayer MoS2</i>
   <i type="logical" name="LCOMPAT"> F  </i>
  </separator>
  <separator name="electronic" >
   <i type="string" name="PREC">normal</i>
   <i name="ENMAX">    280.00000000</i>
   <i name="ENAUG">    345.27800000</i>
   <i name="EDIFF">      0.00000100</i>
   <i type="int" name="IALGO">    38</i>
   <i type="int" name="IWAVPR">    10</i>
   <i type="int" name="NBANDS">    13</i>
   <i name="NELECT">     18.00000000</i>
   <i type="int" name="TURBO">     0</i>
   <i type="int" name="IRESTART">     0</i>
   <i type="int" name="NREBOOT">     0</i>
   <i type="int" name="NMIN">     0</i>
   <i name="EREF">      0.00000000</i>
   <separator name="electronic smearing" >
    <i type="int" name="ISMEAR">    -5</i>
    <i name="SIGMA">      0.20000000</i>
    <i name="KSPACING">      0.50000000</i>
    <i type="logical" name="KGAMMA"> T  </i>
   </separator>
   <separator name="electronic projectors" >
    <i type="logical" name="LREAL"> F  </i>
    <v name="ROPT">      0.00000000      0.00000000</v>
    <i type="int" name="LMAXPAW">  -100</i>
    <i type="int" name="LMAXMIX">     2</i>
    <i type="logical" name="NLSPLINE"> F  </i>
   </separator>
   <separator name="electronic startup" >
    <i type="int" name="ISTART">     0</i>
    <i type="int" name="ICHARG">     2</i>
    <i type="int" name="INIWAV">     1</i>
   </separator>
   <separator name="electronic spin" >
    <i type="int" name="ISPIN">     1</i>
    <i type="logical" name="LNONCOLLINEAR"> F  </i>
    <v name="MAGMOM">      1.00000000      1.00000000      1.00000000</v>
    <i name="NUPDOWN">     -1.00000000</i>
    <i type="logical" name="LSORBIT"> F  </i>
    <v name="SAXIS">      0.00000000      0.00000000      1.00000000</v>
    <i type="logical" name="LSPIRAL"> F  </i>
    <v name="QSPIRAL">      0.00000000      0.00000000      0.00000000</v>
    <i type="logical" name="LZEROZ"> F  </i>
   </separator>
   <separator name="electronic exchange-correlation" >
    <i type="logical" name="LASPH"> F  </i>
    <i type="logical" name="LMETAGGA"> F  </i>
   </separator>
   <separator name="electronic convergence" >
    <i type="int" name="NELM">    60</i>
    <i type="int" name="NELMDL">    -5</i>
    <i type="int" name="NELMIN">     2</i>
    <i name="ENINI">    280.00000000</i>
    <separator name="electronic convergence detail" >
     <i type="logical" name="LDIAG"> T  </i>
     <i type="logical" name="LSUBROT"> F  </i>
     <i name="WEIMIN">      0.00000000</i>
     <i name="EBREAK">      0.00000002</i>
     <i name="DEPER">      0.30000000</i>
     <i type="int" name="NRMM">     4</i>
     <i name="TIME">      0.40000000</i>
    </separator>
   </separator>
   <separator name="electronic mixer" >
    <i name="AMIX">      0.40000000</i>
    <i name="BMIX">      1.00000000</i>
    <i name="AMIN">      0.10000000</i>
    <i name="AMIX_MAG">      1.60000000</i>
    <i name="BMIX_MAG">      1.00000000</i>
    <separator name="electronic mixer details" >
     <i type="int" name="IMIX">     4</i>
     <i type="logical" name="MIXFIRST"> F  </i>
     <i type="int" name="MAXMIX">   -45</i>
     <i name="WC">    100.00000000</i>
     <i type="int" name="INIMIX">     1</i>
     <i type="int" name="MIXPRE">     1</i>
     <i type="int" name="MREMOVE">     5</i>
    </separator>
   </separator>
   <separator name="electronic dipolcorrection" >
    <i type="logical" name="LDIPOL"> F  </i>
    <i type="logical" name="LMONO"> F  </i>
    <i type="int" name="IDIPOL">     0</i>
    <i name="EPSILON">      1.00000000</i>
    <v name="DIPOL">   -100.00000000   -100.00000000   -100.00000000</v>
    <i name="EFIELD">      0.00000000</i>
   </separator>
  </separator>
  <separator name="grids" >
   <i type="int" name="NGX">    14</i>
   <i type="int" name="NGY">    14</i>
   <i type="int" name="NGZ">   126</i>
   <i type="int" name="NGXF">    28</i>
   <i type="int" name="NGYF">    28</i>
   <i type="int" name="NGZF">   252</i>
   <i type="logical" name="ADDGRID"> F  </i>
  </separator>
  <separator name="ionic" >
   <i type="int" name="NSW">     0</i>
   <i type="int" name="IBRION">    -1</i>
   <i type="int" name="MDALGO">     0</i>
   <i type="int" name="ISIF">     2</i>
   <i name="PSTRESS">      0.00000000</i>
   <i name="EDIFFG">      0.00001000</i>
   <i type="int" name="NFREE">     0</i>
   <i name="POTIM">      0.50000000</i>
   <i name="SMASS">     -3.00000000</i>
   <i name="SCALEE">      1.00000000</i>
  </separator>
  <separator name="ionic md" >
   <i name="TEBEG">      0.00010000</i>
   <i name="TEEND">      0.00010000</i>
   <i type="int" name="NBLOCK">     1</i>
   <i type="int" name="KBLOCK">     1</i>
   <i type="int" name="NPACO">   256</i>
   <i name="APACO">     16.00000000</i>
  </separator>
  <separator name="symmetry" >
   <i type="int" name="ISYM">     2</i>
   <i name="SYMPREC">      0.00001000</i>
  </separator>
  <separator name="dos" >
   <i type="int" name="LORBIT">     0</i>
   <v name="RWIGS">     -1.00000000     -1.00000000</v>
   <i type="int" name="NEDOS">   301</i>
   <i name="EMIN">     10.00000000</i>
   <i name="EMAX">    -10.00000000</i>
   <i name="EFERMI">      0.00000000</i>
  </separator>
  <separator name="writing" >
   <i type="int" name="NWRITE">     2</i>
   <i type="logical" name="LWAVE"> F  </i>
   <i type="logical" name="LDOWNSAMPLE"> F  </i>
   <i type="logical" name="LCHARG"> T  </i>
   <i type="logical" name="LPARD"> F  </i>
   <i type="logical" name="LVTOT"> F  </i>
   <i type="logical" name="LVHAR"> F  </i>
   <i type="logical" name="LELF"> F  </i>
   <i type="logical" name="LOPTICS"> F  </i>
   <v name="STM">      0.00000000      0.00000000      0.00000000      0.00000000      0.00000000      0.00000000      0.00000000</v>
  </separator>
  <separator name="performance" >
   <i type="int" name="NPAR">     1</i>
   <i type="int" name="NSIM">     4</i>
   <i type="int" name="NBLK">    -1</i>
   <i type="logical" name="LPLANE"> T  </i>
   <i type="logical" name="LSCALAPACK"> T  </i>
   <i type="logical" name="LSCAAWARE"> F  </i>
   <i type="logical" name="LSCALU"> F  </i>
   <i type="logical" name="LASYNC"> F  </i>
   <i type="logical" name="LORBITALREAL"> F  </i>
  </separator>
  <separator name="miscellaneous" >
   <i type="int" name="IDIOT">     3</i>
   <i type="int" name="ISPECIAL">     0</i>
   <i type="logical" name="LMUSIC"> F  </i>
   <v name="POMASS">     95.94000000     32.06600000</v>
   <v name="DARWINR">      0.00000000      0.00000000</v>
   <v name="DARWINV">      1.00000000      1.00000000</v>
   <i type="logical" name="LCORR"> T  </i>
  </separator>
  <i type="logical" name="GGA_COMPAT"> T  </i>
  <i type="logical" name="LBERRY"> F  </i>
  <i type="int" name="ICORELEVEL">     0</i>
  <i type="logical" name="LDAU"> F  </i>
  <i type="int" name="I_CONSTRAINED_M">     0</i>
  <separator name="electronic exchange-correlation" >
   <i type="string" name="GGA">--</i>
   <i type="int" name="VOSKOWN">     0</i>
   <i type="logical" name="LHFCALC"> F  </i>
   <i type="string" name="PRECFOCK"></i>
   <i type="logical" name="LSYMGRAD"> F  </i>
   <i type="logical" name="LHFONE"> F  </i>
   <i type="logical" name="LRHFCALC"> F  </i>
   <i type="logical" name="LTHOMAS"> F  </i>
   <i type="logical" name="LMODELHF"> F  </i>
   <i name="ENCUT4O">     -1.00000000</i>
   <i type="int" name="EXXOEP">     0</i>
   <i type="int" name="FOURORBIT">     0</i>
   <i name="AEXX">      0.00000000</i>
   <i name="HFALPHA">      0.00000000</i>
   <i name="MCALPHA">      0.00000000</i>
   <i name="ALDAX">      1.00000000</i>
   <i name="AGGAX">      1.00000000</i>
   <i name="ALDAC">      1.00000000</i>
   <i name="AGGAC">      1.00000000</i>
   <i type="int" name="NKREDX">     1</i>
   <i type="int" name="NKREDY">     1</i>
   <i type="int" name="NKREDZ">     1</i>
   <i type="logical" name="SHIFTRED"> F  </i>
   <i type="logical" name="ODDONLY"> F  </i>
   <i type="logical" name="EVENONLY"> F  </i>
   <i type="int" name="LMAXFOCK">     0</i>
   <i type="int" name="NMAXFOCKAE">     0</i>
   <i type="logical" name="LFOCKAEDFT"> F  </i>
   <i name="HFSCREEN">      0.00000000</i>
   <i name="HFSCREENC">      0.00000000</i>
   <i type="int" name="NBANDSGWLOW">     0</i>
  </separator>
  <separator name="vdW DFT" >
   <i type="logical" name="LUSE_VDW"> F  </i>
   <i name="Zab_VDW">     -0.84910000</i>
   <i name="PARAM1">      0.12340000</i>
   <i name="PARAM2">      1.00000000</i>
   <i name="PARAM3">      0.00000000</i>
  </separator>
  <separator name="model GW" >
   <i type="int" name="MODEL_GW">     0</i>
   <i name="MODEL_EPS0">     52.46040757</i>
   <i name="MODEL_ALPHA">      1.00000000</i>
  </separator>
  <separator name="linear response parameters" >
   <i type="logical" name="LEPSILON"> F  </i>
   <i type="logical" name="LRPA"> F  </i>
   <i type="logical" name="LNABLA"> F  </i>
   <i type="logical" name="LVEL"> F  </i>
   <i type="int" name="KINTER">     0</i>
   <i name="CSHIFT">      0.10000000</i>
   <i name="OMEGAMAX">     -1.00000000</i>
   <i name="DEG_THRESHOLD">      0.00200000</i>
   <i name="RTIME">     -0.10000000</i>
   <i name="WPLASMAI">      0.00000000</i>
   <v name="DFIELD">      0.00000000      0.00000000      0.00000000</v>
   <v name="WPLASMA">      0.00000000      0.00000000      0.00000000      0.00000000      0.00000000      0.00000000      0.00000000      0.00000000      0.00000000</v>
  </separator>
  <separator name="orbital magnetization" >
   <i type="logical" name="NUCIND"> F  </i>
   <v name="MAGPOS">      0.00000000      0.00000000      0.00000000</v>
   <i type="logical" name="LNICSALL"> T  </i>
   <i type="logical" name="ORBITALMAG"> F  </i>
   <i type="logical" name="LMAGBLOCH"> F  </i>
   <i type="logical" name="LCHIMAG"> F  </i>
   <i type="logical" name="LGAUGE"> T  </i>
   <i type="int" name="MAGATOM">     0</i>
   <v name="MAGDIPOL">      0.00000000      0.00000000      0.00000000</v>
   <v name="AVECCONST">      0.00000000      0.00000000      0.00000000</v>
  </separator>
  <separator name="response functions" >
   <i type="logical" name="LADDER"> F  </i>
   <i type="logical" name="LRPAFORCE"> F  </i>
   <i type="logical" name="LFXC"> F  </i>
   <i type="logical" name="LHARTREE"> T  </i>
   <i type="int" name="IBSE">     0</i>
   <v type="int" name="KPOINT">    -1     0     0     0</v>
   <i type="logical" name="LTCTE"> F  </i>
   <i type="logical" name="LTETE"> F  </i>
   <i type="logical" name="LTRIPLET"> F  </i>
   <i type="logical" name="LFXCEPS"> F  </i>
   <i type="logical" name="LFXHEG"> F  </i>
   <i type="int" name="NATURALO">     2</i>
   <i type="logical" name="L2ORDER"> F  </i>
   <i type="logical" name="LMP2LT"> F  </i>
   <i type="logical" name="LUSEW"> F  </i>
   <i name="ENCUTGW">     -2.00000000</i>
   <i name="ENCUTGWSOFT">     -2.00000000</i>
   <i name="ENCUTLF">     -1.00000000</i>
   <i type="int" name="LMAXMP2">    -1</i>
   <i name="SCISSOR">      0.00000000</i>
   <i type="int" name="NOMEGA">     0</i>
   <i type="int" name="NOMEGAR">     0</i>
   <i type="int" name="NBANDSGW">    -1</i>
   <i type="int" name="NBANDSO">    -1</i>
   <i type="int" name="NBANDSV">    -1</i>
   <i type="int" name="NELM">     1</i>
   <i type="int" name="NELMHF">     1</i>
   <i type="int" name="DIM">     3</i>
   <i type="int" name="ANTIRES">     0</i>
   <i name="OMEGAMAX">    -30.00000000</i>
   <i name="OMEGAMIN">    -30.00000000</i>
   <i name="OMEGATL">   -200.00000000</i>
   <i type="int" name="OMEGAGRID">   140</i>
   <i name="CSHIFT">     -0.10000000</i>
   <i type="logical" name="SELFENERGY"> F  </i>
   <i type="logical" name="LSPECTRAL"> F  </i>
   <i type="logical" name="LSPECTRALGW"> F  </i>
   <i type="logical" name="LSINGLES"> F  </i>
   <i type="logical" name="LFERMIGW"> F  </i>
   <i type="logical" name="ODDONLYGW"> F  </i>
   <i type="logical" name="EVENONLYGW"> F  </i>
   <i type="int" name="NKREDLFX">     1</i>
   <i type="int" name="NKREDLFY">     1</i>
   <i type="int" name="NKREDLFZ">     1</i>
   <i type="int" name="MAXMEM">  2800</i>
   <i type="int" name="TELESCOPE">     0</i>
   <i type="int" name="TAUPAR">     1</i>
   <i type="int" name="OMEGAPAR">    -1</i>
   <i name="LAMBDA">      1.00000000</i>
  </separator>
  <separator name="External order field" >
   <i name="OFIELD_KAPPA">      0.00000000</i>
   <v name="OFIELD_K">      0.00000000      0.00000000      0.00000000</v>
   <i name="OFIELD_Q6_NEAR">      0.00000000</i>
   <i name="OFIELD_Q6_FAR">      0.00000000</i>
   <i name="OFIELD_A">      0.00000000</i>
  </separator>
 </parameters>
 <atominfo>
  <atoms>       3 </atoms>
  <types>       2 </types>
  <array name="atoms" >
   <dimension dim="1">ion</dimension>
   <field type="string">element</field>
   <field type="int">atomtype</field>
   <set>
    <rc><c>Mo</c><c>   1</c></rc>
    <rc><c>S </c><c>   2</c></rc>
    <rc><c>S </c><c>   2</c></rc>
   </set>
  </array>
  <array name="atomtypes" >
   <dimension dim="1">type</dimension>
   <field type="int">atomspertype</field>
   <field type="string">element</field>
   <field>mass</field>
   <field>valence</field>
   <field type="string">pseudopotential</field>
   <set>
    <rc><c>   1</c><c>Mo</c><c>     95.94000000</c><c>      6.00000000</c><c> PAW_GGA Mo 08Jan2002                   </c></rc>
    <rc><c>   2</c><c>S </c><c>     32.06600000</c><c>      6.00000000</c><c> PAW_GGA S 21Jan2003                    </c></rc>
   </set>
  </array>
 </atominfo>
 <structure name="initialpos" >
  <crystal>
   <varray name="basis" >
    <v>       3.19031600       0.00000000       0.00000000 </v>
    <v>      -1.59515800       2.76289400       0.00000000 </v>
    <v>       0.00000000       0.00000000      29.75800000 </v>
   </varray>
   <i name="volume">    262.30203784 </i>
   <varray name="rec_basis" >
    <v>       0.31344857       0.18096966       0.00000000 </v>
    <v>       0.00000000       0.36193933       0.00000000 </v>
    <v>       0.00000000       0.00000000       0.03360441 </v>
   </varray>
  </crystal>
  <varray name="positions" >
   <v>       0.33333300       0.66666700       0.12500000 </v>
   <v>       0.66666700       0.33333300       0.17758700 </v>
   <v>       0.66666700       0.33333300       0.07241300 </v>
  </varray>
 </structure>
 <calculation>
  <scstep>
   <time name="dav">    0.94    0.94</time>
   <time name="total">    1.11    1.12</time>
   <energy>
    <i name="alphaZ">     10.00292264 </i>
    <i name="ewald">   5064.60431233 </i>
    <i name="hartreedc">  -5740.44040128 </i>
    <i name="XCdc">    -37.02287067 </i>
    <i name="pawpsdc">    408.00268931 </i>
    <i name="pawaedc">   -330.16966160 </i>
    <i name="eentropy">      0.00000000 </i>
    <i name="bandstr">    -38.27460402 </i>
    <i name="atom">    772.51394549 </i>
    <i name="e_fr_energy">    109.21633219 </i>
    <i name="e_wo_entrp">    109.21633219 </i>
    <i name="e_0_energy">    109.21633219 </i>
   </energy>
  </scstep>
  <scstep>
   <time name="dav">    1.49    1.50</time>
   <time name="total">    1.49    1.50</time>
   <energy>
    <i name="e_fr_energy">     -9.99068607 </i>
    <i name="e_wo_entrp">     -9.99068607 </i>
    <i name="e_0_energy">     -9.99068607 </i>
   </energy>
  </scstep>
  <scstep>
   <time name="dav">    1.23    1.24</time>
   <time name="total">    1.23    1.24</time>
   <energy>
    <i name="e_fr_energy">    -23.08850450 </i>
    <i name="e_wo_entrp">    -23.08850450 </i>
    <i name="e_0_energy">    -23.08850450 </i>
   </energy>
  </scstep>
  <scstep>
   <time name="dav">    1.18    1.19</time>
   <time name="total">    1.18    1.20</time>
   <energy>
    <i name="e_fr_energy">    -23.33580835 </i>
    <i name="e_wo_entrp">    -23.33580835 </i>
    <i name="e_0_energy">    -23.33580835 </i>
   </energy>
  </scstep>
  <scstep>
   <time name="dav">    1.08    1.09</time>
   <time name="total">    1.17    1.18</time>
   <energy>
    <i name="e_fr_energy">    -23.34349101 </i>
    <i name="e_wo_entrp">    -23.34349101 </i>
    <i name="e_0_energy">    -23.34349101 </i>
   </energy>
  </scstep>
  <scstep>
   <time name="dav">    1.00    1.00</time>
   <time name="total">    1.27    1.27</time>
   <energy>
    <i name="e_fr_energy">    -22.18626669 </i>
    <i name="e_wo_entrp">    -22.18626669 </i>
    <i name="e_0_energy">    -22.18626669 </i>
   </energy>
  </scstep>
  <scstep>
   <time name="dav">    1.01    1.01</time>
   <time name="total">    1.27    1.27</time>
   <energy>
    <i name="e_fr_energy">    -21.82419070 </i>
    <i name="e_wo_entrp">    -21.82419070 </i>
    <i name="e_0_energy">    -21.82419070 </i>
   </energy>
  </scstep>
  <scstep>
   <time name="dav">    1.03    1.04</time>
   <time name="total">    1.29    1.29</time>
   <energy>
    <i name="e_fr_energy">    -21.75252872 </i>
    <i name="e_wo_entrp">    -21.75252872 </i>
    <i name="e_0_energy">    -21.75252872 </i>
   </energy>
  </scstep>
  <scstep>
   <time name="dav">    1.09    1.09</time>
   <time name="total">    1.37    1.37</time>
   <energy>
    <i name="e_fr_energy">    -21.75015527 </i>
    <i name="e_wo_entrp">    -21.75015527 </i>
    <i name="e_0_energy">    -21.75015527 </i>
   </energy>
  </scstep>
  <scstep>
   <time name="dav">    1.13    1.13</time>
   <time name="total">    1.42    1.42</time>
   <energy>
    <i name="e_fr_energy">    -21.74755934 </i>
    <i name="e_wo_entrp">    -21.74755934 </i>
    <i name="e_0_energy">    -21.74755934 </i>
   </energy>
  </scstep>
  <scstep>
   <time name="dav">    0.92    0.94</time>
   <time name="total">    1.20    1.23</time>
   <energy>
    <i name="e_fr_energy">    -21.74709820 </i>
    <i name="e_wo_entrp">    -21.74709820 </i>
    <i name="e_0_energy">    -21.74709820 </i>
   </energy>
  </scstep>
  <scstep>
   <time name="dav">    1.00    1.00</time>
   <time name="total">    1.21    1.21</time>
   <energy>
    <i name="e_fr_energy">    -21.74553074 </i>
    <i name="e_wo_entrp">    -21.74553074 </i>
    <i name="e_0_energy">    -21.74553074 </i>
   </energy>
  </scstep>
  <scstep>
   <time name="dav">    0.90    0.91</time>
   <time name="total">    1.14    1.15</time>
   <energy>
    <i name="e_fr_energy">    -21.74549207 </i>
    <i name="e_wo_entrp">    -21.74549207 </i>
    <i name="e_0_energy">    -21.74549207 </i>
   </energy>
  </scstep>
  <scstep>
   <time name="dav">    0.83    0.84</time>
   <time name="total">    1.05    1.05</time>
   <energy>
    <i name="e_fr_energy">    -21.74577760 </i>
    <i name="e_wo_entrp">    -21.74577760 </i>
    <i name="e_0_energy">    -21.74577760 </i>
   </energy>
  </scstep>
  <scstep>
   <time name="dav">    0.89    0.89</time>
   <time name="total">    1.11    1.11</time>
   <energy>
    <i name="e_fr_energy">    -21.74583511 </i>
    <i name="e_wo_entrp">    -21.74583511 </i>
    <i name="e_0_energy">    -21.74583511 </i>
   </energy>
  </scstep>
  <scstep>
   <time name="dav">    0.98    0.98</time>
   <time name="total">    1.25    1.27</time>
   <energy>
    <i name="e_fr_energy">    -21.74597046 </i>
    <i name="e_wo_entrp">    -21.74597046 </i>
    <i name="e_0_energy">    -21.74597046 </i>
   </energy>
  </scstep>
  <scstep>
   <time name="dav">    0.90    0.91</time>
   <time name="total">    1.16    1.17</time>
   <energy>
    <i name="e_fr_energy">    -21.74601220 </i>
    <i name="e_wo_entrp">    -21.74601220 </i>
    <i name="e_0_energy">    -21.74601220 </i>
   </energy>
  </scstep>
  <scstep>
   <time name="dav">    0.97    0.99</time>
   <time name="total">    1.23    1.25</time>
   <energy>
    <i name="e_fr_energy">    -21.74603948 </i>
    <i name="e_wo_entrp">    -21.74603948 </i>
    <i name="e_0_energy">    -21.74603948 </i>
   </energy>
  </scstep>
  <scstep>
   <time name="dav">    0.79    0.79</time>
   <time name="total">    1.04    1.04</time>
   <energy>
    <i name="e_fr_energy">    -21.74604379 </i>
    <i name="e_wo_entrp">    -21.74604379 </i>
    <i name="e_0_energy">    -21.74604379 </i>
   </energy>
  </scstep>
  <scstep>
   <time name="dav">    0.64    0.64</time>
   <time name="total">    0.86    0.87</time>
   <energy>
    <i name="e_fr_energy">    -21.74604620 </i>
    <i name="e_wo_entrp">    -21.74604620 </i>
    <i name="e_0_energy">    -21.74604620 </i>
   </energy>
  </scstep>
  <scstep>
   <time name="dav">    0.57    0.57</time>
   <time name="total">    0.72    0.72</time>
   <energy>
    <i name="alphaZ">     10.00292264 </i>
    <i name="ewald">   5064.60431233 </i>
    <i name="hartreedc">  -5753.49017203 </i>
    <i name="XCdc">    -35.90684301 </i>
    <i name="pawpsdc">    477.54071435 </i>
    <i name="pawaedc">   -401.46387988 </i>
    <i name="eentropy">      0.00000000 </i>
    <i name="bandstr">   -155.54704672 </i>
    <i name="atom">    772.51394549 </i>
    <i name="e_fr_energy">    -21.74604684 </i>
    <i name="e_wo_entrp">    -21.74604684 </i>
    <i name="e_0_energy">    -21.74604684 </i>
   </energy>
  </scstep>
  <structure>
   <crystal>
    <varray name="basis" >
     <v>       3.19031600       0.00000000       0.00000000 </v>
     <v>      -1.59515800       2.76289400       0.00000000 </v>
     <v>       0.00000000       0.00000000      29.75800000 </v>
    </varray>
    <i name="volume">    262.30203784 </i>
    <varray name="rec_basis" >
     <v>       0.31344857       0.18096966       0.00000000 </v>
     <v>       0.00000000       0.36193933       0.00000000 </v>
     <v>       0.00000000       0.00000000       0.03360441 </v>
    </varray>
   </crystal>
   <varray name="positions" >
    <v>       0.33333300       0.66666700       0.12500000 </v>
    <v>       0.66666700       0.33333300       0.17758700 </v>
    <v>       0.66666700       0.33333300       0.07241300 </v>
   </varray>
  </structure>
  <varray name="forces" >
   <v>      -0.00000000       0.00000000       0.00000000 </v>
   <v>       0.00000000      -0.00000000       0.00018762 </v>
   <v>       0.00000000       0.00000000      -0.00018762 </v>
  </varray>
  <varray name="stress" >
   <v>      -1.79813290       0.00000000       0.00000000 </v>
   <v>       0.00000000      -1.79813199       0.00000000 </v>
   <v>       0.00000000       0.00000000      -1.99269166 </v>
  </varray>
  <energy>
   <i name="e_fr_energy">    -21.74604684 </i>
   <i name="e_wo_entrp">    -21.74604684 </i>
   <i name="e_0_energy">      0.00000000 </i>
  </energy>
  <time name="totalsc">   26.17   26.37</time>
  <eigenvalues>
   <array>
    <dimension dim="1">band</dimension>
    <dimension dim="2">kpoint</dimension>
    <dimension dim="3">spin</dimension>
    <field>eigene</field>
    <field>occ</field>
    <set>
     <set comment="spin 1">
      <set comment="kpoint 1">
       <r>  -17.6672    1.0000 </r>
       <r>  -16.4647    1.0000 </r>
       <r>   -9.1888    1.0000 </r>
       <r>   -6.2503    1.0000 </r>
       <r>   -6.2503    1.0000 </r>
       <r>   -5.3880    1.0000 </r>
       <r>   -5.1455    1.0000 </r>
       <r>   -5.1455    1.0000 </r>
       <r>   -3.6699    1.0000 </r>
       <r>   -0.9005    0.0000 </r>
       <r>   -0.9004    0.0000 </r>
       <r>   -0.6838    0.0000 </r>
       <r>   -0.6838    0.0000 </r>
      </set>
      <set comment="kpoint 2">
       <r>  -17.5292    1.0000 </r>
       <r>  -16.3987    1.0000 </r>
       <r>   -9.0276    1.0000 </r>
       <r>   -6.5586    1.0000 </r>
       <r>   -6.0982    1.0000 </r>
       <r>   -6.0058    1.0000 </r>
       <r>   -5.3707    1.0000 </r>
       <r>   -4.7556    1.0000 </r>
       <r>   -3.7496    1.0000 </r>
       <r>   -1.0758    0.0000 </r>
       <r>   -1.0475    0.0000 </r>
       <r>   -0.8421    0.0000 </r>
       <r>   -0.6619    0.0000 </r>
      </set>
      <set comment="kpoint 3">
       <r>  -17.1443    1.0000 </r>
       <r>  -16.2161    1.0000 </r>
       <r>   -8.6720    1.0000 </r>
       <r>   -7.1899    1.0000 </r>
       <r>   -6.7823    1.0000 </r>
       <r>   -5.8596    1.0000 </r>
       <r>   -5.6885    1.0000 </r>
       <r>   -4.7861    1.0000 </r>
       <r>   -4.1118    1.0000 </r>
       <r>   -1.4738    0.0000 </r>
       <r>   -1.1783    0.0000 </r>
       <r>   -1.0192    0.0000 </r>
       <r>   -0.1673    0.0000 </r>
      </set>
      <set comment="kpoint 4">
       <r>  -16.6083    1.0000 </r>
       <r>  -15.9665    1.0000 </r>
       <r>   -8.6829    1.0000 </r>
       <r>   -7.5518    1.0000 </r>
       <r>   -7.5028    1.0000 </r>
       <r>   -6.3439    1.0000 </r>
       <r>   -5.1671    1.0000 </r>
       <r>   -5.1466    1.0000 </r>
       <r>   -4.5664    1.0000 </r>
       <r>   -1.4481    0.0000 </r>
       <r>   -1.4404    0.0000 </r>
       <r>   -0.4910    0.0000 </r>
       <r>    0.2613    0.0000 </r>
      </set>
      <set comment="kpoint 5">
       <r>  -16.1031    1.0000 </r>
       <r>  -15.7395    1.0000 </r>
       <r>   -9.1309    1.0000 </r>
       <r>   -8.1617    1.0000 </r>
       <r>   -7.5879    1.0000 </r>
       <r>   -6.6750    1.0000 </r>
       <r>   -5.4214    1.0000 </r>
       <r>   -4.7550    1.0000 </r>
       <r>   -4.4921    1.0000 </r>
       <r>   -1.5210    0.0000 </r>
       <r>   -1.1645    0.0000 </r>
       <r>    0.0371    0.0000 </r>
       <r>    0.5032    0.0000 </r>
      </set>
      <set comment="kpoint 6">
       <r>  -15.8857    1.0000 </r>
       <r>  -15.6454    1.0000 </r>
       <r>   -9.3525    1.0000 </r>
       <r>   -8.3988    1.0000 </r>
       <r>   -7.6841    1.0000 </r>
       <r>   -6.7913    1.0000 </r>
       <r>   -5.5108    1.0000 </r>
       <r>   -4.6080    1.0000 </r>
       <r>   -4.2757    1.0000 </r>
       <r>   -1.5005    0.0000 </r>
       <r>   -0.9857    0.0000 </r>
       <r>    0.2293    0.0000 </r>
       <r>    0.5757    0.0000 </r>
      </set>
      <set comment="kpoint 7">
       <r>  -17.2673    1.0000 </r>
       <r>  -16.2740    1.0000 </r>
       <r>   -8.7585    1.0000 </r>
       <r>   -7.0143    1.0000 </r>
       <r>   -6.4940    1.0000 </r>
       <r>   -5.9081    1.0000 </r>
       <r>   -5.8377    1.0000 </r>
       <r>   -4.5784    1.0000 </r>
       <r>   -3.9756    1.0000 </r>
       <r>   -1.4176    0.0000 </r>
       <r>   -1.2114    0.0000 </r>
       <r>   -1.0967    0.0000 </r>
       <r>   -0.2307    0.0000 </r>
      </set>
      <set comment="kpoint 8">
       <r>  -16.8039    1.0000 </r>
       <r>  -16.0550    1.0000 </r>
       <r>   -8.5375    1.0000 </r>
       <r>   -7.4303    1.0000 </r>
       <r>   -7.1621    1.0000 </r>
       <r>   -6.5183    1.0000 </r>
       <r>   -5.5138    1.0000 </r>
       <r>   -4.7346    1.0000 </r>
       <r>   -4.3976    1.0000 </r>
       <r>   -1.6667    0.0000 </r>
       <r>   -1.2636    0.0000 </r>
       <r>   -0.9856    0.0000 </r>
       <r>    0.2797    0.0000 </r>
      </set>
      <set comment="kpoint 9">
       <r>  -16.2732    1.0000 </r>
       <r>  -15.8090    1.0000 </r>
       <r>   -8.8343    1.0000 </r>
       <r>   -7.9457    1.0000 </r>
       <r>   -7.4598    1.0000 </r>
       <r>   -6.7542    1.0000 </r>
       <r>   -5.4106    1.0000 </r>
       <r>   -5.1443    1.0000 </r>
       <r>   -4.4306    1.0000 </r>
       <r>   -1.5769    0.0000 </r>
       <r>   -1.2185    0.0000 </r>
       <r>   -0.4362    0.0000 </r>
       <r>    0.5541    0.0000 </r>
      </set>
      <set comment="kpoint 10">
       <r>  -15.8962    1.0000 </r>
       <r>  -15.6392    1.0000 </r>
       <r>   -9.1606    1.0000 </r>
       <r>   -8.4402    1.0000 </r>
       <r>   -7.6025    1.0000 </r>
       <r>   -6.8024    1.0000 </r>
       <r>   -5.4523    1.0000 </r>
       <r>   -5.2910    1.0000 </r>
       <r>   -4.1400    1.0000 </r>
       <r>   -1.4757    0.0000 </r>
       <r>   -0.9804    0.0000 </r>
       <r>    0.0626    0.0000 </r>
       <r>    0.5053    0.0000 </r>
      </set>
      <set comment="kpoint 11">
       <r>  -16.3382    1.0000 </r>
       <r>  -15.8331    1.0000 </r>
       <r>   -8.6379    1.0000 </r>
       <r>   -7.8071    1.0000 </r>
       <r>   -7.3329    1.0000 </r>
       <r>   -6.9351    1.0000 </r>
       <r>   -5.8647    1.0000 </r>
       <r>   -4.8860    1.0000 </r>
       <r>   -4.4283    1.0000 </r>
       <r>   -1.6596    0.0000 </r>
       <r>   -1.1859    0.0000 </r>
       <r>   -0.8148    0.0000 </r>
       <r>    0.6629    0.0000 </r>
      </set>
      <set comment="kpoint 12">
       <r>  -15.9129    1.0000 </r>
       <r>  -15.6292    1.0000 </r>
       <r>   -8.7827    1.0000 </r>
       <r>   -8.5000    1.0000 </r>
       <r>   -7.3423    1.0000 </r>
       <r>   -6.8476    1.0000 </r>
       <r>   -6.2891    1.0000 </r>
       <r>   -5.3134    1.0000 </r>
       <r>   -4.1593    1.0000 </r>
       <r>   -1.5153    0.0000 </r>
       <r>   -0.9299    0.0000 </r>
       <r>   -0.5040    0.0000 </r>
       <r>    0.8117    0.0000 </r>
      </set>
      <set comment="kpoint 13">
       <r>  -15.7356    1.0000 </r>
       <r>  -15.5439    1.0000 </r>
       <r>   -8.8073    1.0000 </r>
       <r>   -8.7679    1.0000 </r>
       <r>   -7.5370    1.0000 </r>
       <r>   -6.7203    1.0000 </r>
       <r>   -6.3471    1.0000 </r>
       <r>   -5.5746    1.0000 </r>
       <r>   -3.9104    1.0000 </r>
       <r>   -1.6863    0.0000 </r>
       <r>   -0.5679    0.0000 </r>
       <r>   -0.3649    0.0000 </r>
       <r>    0.8369    0.0000 </r>
      </set>
      <set comment="kpoint 14">
       <r>  -15.6768    1.0000 </r>
       <r>  -15.5036    1.0000 </r>
       <r>   -8.9151    1.0000 </r>
       <r>   -8.4174    1.0000 </r>
       <r>   -7.4253    1.0000 </r>
       <r>   -7.1033    1.0000 </r>
       <r>   -6.6092    1.0000 </r>
       <r>   -5.6831    1.0000 </r>
       <r>   -3.7922    1.0000 </r>
       <r>   -1.8909    0.0000 </r>
       <r>   -0.5992    0.0000 </r>
       <r>   -0.3414    0.0000 </r>
       <r>    1.0658    0.0000 </r>
      </set>
     </set>
    </set>
   </array>
  </eigenvalues>
  <separator name="orbital magnetization" >
   <v name="MAGDIPOLOUT">      0.00000000      0.00000000      0.00000000</v>
  </separator>
  <dos>
   <i name="efermi">     -3.65940202 </i>
   <total>
    <array>
     <dimension dim="1">gridpoints</dimension>
     <dimension dim="2">spin</dimension>
     <field>energy</field>
     <field>total</field>
     <field>integrated</field>
     <set>
      <set comment="spin 1">
       <r>   -19.6672     0.0000     0.0000 </r>
       <r>   -19.5915     0.0000     0.0000 </r>
       <r>   -19.5157     0.0000     0.0000 </r>
       <r>   -19.4399     0.0000     0.0000 </r>
       <r>   -19.3641     0.0000     0.0000 </r>
       <r>   -19.2884     0.0000     0.0000 </r>
       <r>   -19.2126     0.0000     0.0000 </r>
       <r>   -19.1368     0.0000     0.0000 </r>
       <r>   -19.0610     0.0000     0.0000 </r>
       <r>   -18.9853     0.0000     0.0000 </r>
       <r>   -18.9095     0.0000     0.0000 </r>
       <r>   -18.8337     0.0000     0.0000 </r>
       <r>   -18.7579     0.0000     0.0000 </r>
       <r>   -18.6822     0.0000     0.0000 </r>
       <r>   -18.6064     0.0000     0.0000 </r>
       <r>   -18.5306     0.0000     0.0000 </r>
       <r>   -18.4548     0.0000     0.0000 </r>
       <r>   -18.3790     0.0000     0.0000 </r>
       <r>   -18.3033     0.0000     0.0000 </r>
       <r>   -18.2275     0.0000     0.0000 </r>
       <r>   -18.1517     0.0000     0.0000 </r>
       <r>   -18.0759     0.0000     0.0000 </r>
       <r>   -18.0002     0.0000     0.0000 </r>
       <r>   -17.9244     0.0000     0.0000 </r>
       <r>   -17.8486     0.0000     0.0000 </r>
       <r>   -17.7728     0.0000     0.0000 </r>
       <r>   -17.6971     0.0000     0.0000 </r>
       <r>   -17.6213     0.2893     0.0066 </r>
       <r>   -17.5455     0.7661     0.0466 </r>
       <r>   -17.4697     0.4958     0.0884 </r>
       <r>   -17.3939     0.5437     0.1277 </r>
       <r>   -17.3182     0.5916     0.1708 </r>
       <r>   -17.2424     0.6162     0.2171 </r>
       <r>   -17.1666     0.5934     0.2629 </r>
       <r>   -17.0908     0.6055     0.3080 </r>
       <r>   -17.0151     0.6322     0.3549 </r>
       <r>   -16.9393     0.6590     0.4038 </r>
       <r>   -16.8635     0.6857     0.4547 </r>
       <r>   -16.7877     0.7125     0.5077 </r>
       <r>   -16.7120     0.7459     0.5629 </r>
       <r>   -16.6362     0.7793     0.6207 </r>
       <r>   -16.5604     0.8148     0.6811 </r>
       <r>   -16.4846     0.8516     0.7442 </r>
       <r>   -16.4088     2.4270     0.8531 </r>
       <r>   -16.3331     2.0828     1.0081 </r>
       <r>   -16.2573     2.4044     1.1805 </r>
       <r>   -16.1815     2.5474     1.3660 </r>
       <r>   -16.1057     2.8113     1.5690 </r>
       <r>   -16.0300     3.1749     1.7955 </r>
       <r>   -15.9542     3.5761     2.0512 </r>
       <r>   -15.8784     4.4082     2.4234 </r>
       <r>   -15.8026     4.1437     2.7415 </r>
       <r>   -15.7269     4.4259     3.0565 </r>
       <r>   -15.6511     4.3249     3.4427 </r>
       <r>   -15.5753     3.0940     3.7920 </r>
       <r>   -15.4995     0.0000     4.0000 </r>
       <r>   -15.4237     0.0000     4.0000 </r>
       <r>   -15.3480     0.0000     4.0000 </r>
       <r>   -15.2722     0.0000     4.0000 </r>
       <r>   -15.1964     0.0000     4.0000 </r>
       <r>   -15.1206     0.0000     4.0000 </r>
       <r>   -15.0449     0.0000     4.0000 </r>
       <r>   -14.9691     0.0000     4.0000 </r>
       <r>   -14.8933     0.0000     4.0000 </r>
       <r>   -14.8175     0.0000     4.0000 </r>
       <r>   -14.7418     0.0000     4.0000 </r>
       <r>   -14.6660     0.0000     4.0000 </r>
       <r>   -14.5902     0.0000     4.0000 </r>
       <r>   -14.5144     0.0000     4.0000 </r>
       <r>   -14.4387     0.0000     4.0000 </r>
       <r>   -14.3629     0.0000     4.0000 </r>
       <r>   -14.2871     0.0000     4.0000 </r>
       <r>   -14.2113     0.0000     4.0000 </r>
       <r>   -14.1355     0.0000     4.0000 </r>
       <r>   -14.0598     0.0000     4.0000 </r>
       <r>   -13.9840     0.0000     4.0000 </r>
       <r>   -13.9082     0.0000     4.0000 </r>
       <r>   -13.8324     0.0000     4.0000 </r>
       <r>   -13.7567     0.0000     4.0000 </r>
       <r>   -13.6809     0.0000     4.0000 </r>
       <r>   -13.6051     0.0000     4.0000 </r>
       <r>   -13.5293     0.0000     4.0000 </r>
       <r>   -13.4536     0.0000     4.0000 </r>
       <r>   -13.3778     0.0000     4.0000 </r>
       <r>   -13.3020     0.0000     4.0000 </r>
       <r>   -13.2262     0.0000     4.0000 </r>
       <r>   -13.1504     0.0000     4.0000 </r>
       <r>   -13.0747     0.0000     4.0000 </r>
       <r>   -12.9989     0.0000     4.0000 </r>
       <r>   -12.9231     0.0000     4.0000 </r>
       <r>   -12.8473     0.0000     4.0000 </r>
       <r>   -12.7716     0.0000     4.0000 </r>
       <r>   -12.6958     0.0000     4.0000 </r>
       <r>   -12.6200     0.0000     4.0000 </r>
       <r>   -12.5442     0.0000     4.0000 </r>
       <r>   -12.4685     0.0000     4.0000 </r>
       <r>   -12.3927     0.0000     4.0000 </r>
       <r>   -12.3169     0.0000     4.0000 </r>
       <r>   -12.2411     0.0000     4.0000 </r>
       <r>   -12.1653     0.0000     4.0000 </r>
       <r>   -12.0896     0.0000     4.0000 </r>
       <r>   -12.0138     0.0000     4.0000 </r>
       <r>   -11.9380     0.0000     4.0000 </r>
       <r>   -11.8622     0.0000     4.0000 </r>
       <r>   -11.7865     0.0000     4.0000 </r>
       <r>   -11.7107     0.0000     4.0000 </r>
       <r>   -11.6349     0.0000     4.0000 </r>
       <r>   -11.5591     0.0000     4.0000 </r>
       <r>   -11.4834     0.0000     4.0000 </r>
       <r>   -11.4076     0.0000     4.0000 </r>
       <r>   -11.3318     0.0000     4.0000 </r>
       <r>   -11.2560     0.0000     4.0000 </r>
       <r>   -11.1802     0.0000     4.0000 </r>
       <r>   -11.1045     0.0000     4.0000 </r>
       <r>   -11.0287     0.0000     4.0000 </r>
       <r>   -10.9529     0.0000     4.0000 </r>
       <r>   -10.8771     0.0000     4.0000 </r>
       <r>   -10.8014     0.0000     4.0000 </r>
       <r>   -10.7256     0.0000     4.0000 </r>
       <r>   -10.6498     0.0000     4.0000 </r>
       <r>   -10.5740     0.0000     4.0000 </r>
       <r>   -10.4983     0.0000     4.0000 </r>
       <r>   -10.4225     0.0000     4.0000 </r>
       <r>   -10.3467     0.0000     4.0000 </r>
       <r>   -10.2709     0.0000     4.0000 </r>
       <r>   -10.1952     0.0000     4.0000 </r>
       <r>   -10.1194     0.0000     4.0000 </r>
       <r>   -10.0436     0.0000     4.0000 </r>
       <r>    -9.9678     0.0000     4.0000 </r>
       <r>    -9.8920     0.0000     4.0000 </r>
       <r>    -9.8163     0.0000     4.0000 </r>
       <r>    -9.7405     0.0000     4.0000 </r>
       <r>    -9.6647     0.0000     4.0000 </r>
       <r>    -9.5889     0.0000     4.0000 </r>
       <r>    -9.5132     0.0000     4.0000 </r>
       <r>    -9.4374     0.0000     4.0000 </r>
       <r>    -9.3616     0.0000     4.0000 </r>
       <r>    -9.2858     0.5937     4.0198 </r>
       <r>    -9.2101     1.2682     4.0903 </r>
       <r>    -9.1343     1.4401     4.2052 </r>
       <r>    -9.0585     1.9125     4.3308 </r>
       <r>    -8.9827     1.9543     4.4778 </r>
       <r>    -8.9069     3.4007     4.6640 </r>
       <r>    -8.8312     4.6849     4.9685 </r>
       <r>    -8.7554     3.4556     5.2959 </r>
       <r>    -8.6796     4.4096     5.5768 </r>
       <r>    -8.6038     4.2502     5.9409 </r>
       <r>    -8.5281     1.7710     6.2124 </r>
       <r>    -8.4523     2.2485     6.4046 </r>
       <r>    -8.3765     1.4883     6.6027 </r>
       <r>    -8.3007     1.3071     6.7086 </r>
       <r>    -8.2250     1.1259     6.8008 </r>
       <r>    -8.1492     0.9629     6.8793 </r>
       <r>    -8.0734     0.8928     6.9496 </r>
       <r>    -7.9976     0.8226     7.0146 </r>
       <r>    -7.9218     0.7935     7.0748 </r>
       <r>    -7.8461     0.8536     7.1372 </r>
       <r>    -7.7703     0.8769     7.2035 </r>
       <r>    -7.6945     0.8612     7.2693 </r>
       <r>    -7.6187     4.0221     7.4378 </r>
       <r>    -7.5430     4.3134     7.7703 </r>
       <r>    -7.4672     4.8815     8.1470 </r>
       <r>    -7.3914     5.0357     8.5499 </r>
       <r>    -7.3156     2.1732     8.9367 </r>
       <r>    -7.2399     1.9422     9.0927 </r>
       <r>    -7.1641     1.6916     9.2308 </r>
       <r>    -7.0883     1.3778     9.3394 </r>
       <r>    -7.0125     1.4906     9.4480 </r>
       <r>    -6.9367     1.7188     9.5696 </r>
       <r>    -6.8610     4.5210     9.8039 </r>
       <r>    -6.7852     8.9073    10.3101 </r>
       <r>    -6.7094     3.1575    10.7447 </r>
       <r>    -6.6336     1.9756    10.9172 </r>
       <r>    -6.5579     2.5554    11.1090 </r>
       <r>    -6.4821     2.3804    11.2973 </r>
       <r>    -6.4063     2.2398    11.4723 </r>
       <r>    -6.3305     1.9760    11.6357 </r>
       <r>    -6.2548     1.4583    11.7610 </r>
       <r>    -6.1790     1.7876    11.8830 </r>
       <r>    -6.1032     2.1458    12.0320 </r>
       <r>    -6.0274     1.0523    12.1181 </r>
       <r>    -5.9517     2.6610    12.2797 </r>
       <r>    -5.8759     1.4518    12.4677 </r>
       <r>    -5.8001     1.2572    12.5421 </r>
       <r>    -5.7243     2.1533    12.6713 </r>
       <r>    -5.6485     3.5756    12.9154 </r>
       <r>    -5.5728     3.3494    13.1773 </r>
       <r>    -5.4970     3.9751    13.4361 </r>
       <r>    -5.4212     8.3048    13.9119 </r>
       <r>    -5.3454     3.3687    14.1978 </r>
       <r>    -5.2697     2.9782    14.4428 </r>
       <r>    -5.1939     1.9195    14.6284 </r>
       <r>    -5.1181     2.5630    14.7777 </r>
       <r>    -5.0423     2.4186    14.9664 </r>
       <r>    -4.9666     2.2743    15.1442 </r>
       <r>    -4.8908     2.1299    15.3111 </r>
       <r>    -4.8150     2.1223    15.4719 </r>
       <r>    -4.7392     3.9073    15.6843 </r>
       <r>    -4.6634     2.0741    15.9140 </r>
       <r>    -4.5877     0.2090    15.9990 </r>
       <r>    -4.5119     2.0379    16.0555 </r>
       <r>    -4.4361     2.7269    16.2573 </r>
       <r>    -4.3603     2.7125    16.6497 </r>
       <r>    -4.2846     2.8403    16.8601 </r>
       <r>    -4.2088     2.8573    17.0765 </r>
       <r>    -4.1330     2.4856    17.2897 </r>
       <r>    -4.0572     2.1160    17.4637 </r>
       <r>    -3.9815     1.7581    17.6105 </r>
       <r>    -3.9057     1.3912    17.7288 </r>
       <r>    -3.8299     1.5112    17.8388 </r>
       <r>    -3.7541     0.5337    17.9376 </r>
       <r>    -3.6783     0.1599    17.9993 </r>
       <r>    -3.6026     0.0000    18.0000 </r>
       <r>    -3.5268     0.0000    18.0000 </r>
       <r>    -3.4510     0.0000    18.0000 </r>
       <r>    -3.3752     0.0000    18.0000 </r>
       <r>    -3.2995     0.0000    18.0000 </r>
       <r>    -3.2237     0.0000    18.0000 </r>
       <r>    -3.1479     0.0000    18.0000 </r>
       <r>    -3.0721     0.0000    18.0000 </r>
       <r>    -2.9964     0.0000    18.0000 </r>
       <r>    -2.9206     0.0000    18.0000 </r>
       <r>    -2.8448     0.0000    18.0000 </r>
       <r>    -2.7690     0.0000    18.0000 </r>
       <r>    -2.6932     0.0000    18.0000 </r>
       <r>    -2.6175     0.0000    18.0000 </r>
       <r>    -2.5417     0.0000    18.0000 </r>
       <r>    -2.4659     0.0000    18.0000 </r>
       <r>    -2.3901     0.0000    18.0000 </r>
       <r>    -2.3144     0.0000    18.0000 </r>
       <r>    -2.2386     0.0000    18.0000 </r>
       <r>    -2.1628     0.0000    18.0000 </r>
       <r>    -2.0870     0.0000    18.0000 </r>
       <r>    -2.0113     0.0000    18.0000 </r>
       <r>    -1.9355     0.0000    18.0000 </r>
       <r>    -1.8597     0.6210    18.0388 </r>
       <r>    -1.7839     0.7050    18.0891 </r>
       <r>    -1.7081     0.7889    18.1457 </r>
       <r>    -1.6324     4.8607    18.3852 </r>
       <r>    -1.5566     8.0515    18.8301 </r>
       <r>    -1.4808     9.4325    19.6529 </r>
       <r>    -1.4050     1.1321    19.7940 </r>
       <r>    -1.3293     2.2289    19.9213 </r>
       <r>    -1.2535     7.2954    20.1713 </r>
       <r>    -1.1777     3.9714    20.6853 </r>
       <r>    -1.1019     3.7100    20.9767 </r>
       <r>    -1.0262     7.3643    21.3906 </r>
       <r>    -0.9504     3.8710    21.8845 </r>
       <r>    -0.8746     2.6870    22.1218 </r>
       <r>    -0.7988     2.4855    22.3185 </r>
       <r>    -0.7231     2.1744    22.4950 </r>
       <r>    -0.6473     2.3238    22.7153 </r>
       <r>    -0.5715     2.2365    22.9655 </r>
       <r>    -0.4957     2.2853    23.1068 </r>
       <r>    -0.4199     2.7646    23.2966 </r>
       <r>    -0.3442     6.3333    23.5615 </r>
       <r>    -0.2684     1.6036    23.7185 </r>
       <r>    -0.1926     1.5448    23.8379 </r>
       <r>    -0.1168     1.4984    23.9530 </r>
       <r>    -0.0411     1.4631    24.0652 </r>
       <r>     0.0347     1.4278    24.1747 </r>
       <r>     0.1105     2.0854    24.3368 </r>
       <r>     0.1863     1.2413    24.4628 </r>
       <r>     0.2620     0.7963    24.5312 </r>
       <r>     0.3378     1.3037    24.6207 </r>
       <r>     0.4136     1.4451    24.7249 </r>
       <r>     0.4894     1.5866    24.8398 </r>
       <r>     0.5652     2.6757    25.2767 </r>
       <r>     0.6409     1.9413    25.4271 </r>
       <r>     0.7167     1.8057    25.5707 </r>
       <r>     0.7925     1.6079    25.7001 </r>
       <r>     0.8683     1.2543    25.8043 </r>
       <r>     0.9440     0.9743    25.8888 </r>
       <r>     1.0198     0.6943    25.9520 </r>
       <r>     1.0956     0.0000    26.0000 </r>
       <r>     1.1714     0.0000    26.0000 </r>
       <r>     1.2471     0.0000    26.0000 </r>
       <r>     1.3229     0.0000    26.0000 </r>
       <r>     1.3987     0.0000    26.0000 </r>
       <r>     1.4745     0.0000    26.0000 </r>
       <r>     1.5503     0.0000    26.0000 </r>
       <r>     1.6260     0.0000    26.0000 </r>
       <r>     1.7018     0.0000    26.0000 </r>
       <r>     1.7776     0.0000    26.0000 </r>
       <r>     1.8534     0.0000    26.0000 </r>
       <r>     1.9291     0.0000    26.0000 </r>
       <r>     2.0049     0.0000    26.0000 </r>
       <r>     2.0807     0.0000    26.0000 </r>
       <r>     2.1565     0.0000    26.0000 </r>
       <r>     2.2322     0.0000    26.0000 </r>
       <r>     2.3080     0.0000    26.0000 </r>
       <r>     2.3838     0.0000    26.0000 </r>
       <r>     2.4596     0.0000    26.0000 </r>
       <r>     2.5354     0.0000    26.0000 </r>
       <r>     2.6111     0.0000    26.0000 </r>
       <r>     2.6869     0.0000    26.0000 </r>
       <r>     2.7627     0.0000    26.0000 </r>
       <r>     2.8385     0.0000    26.0000 </r>
       <r>     2.9142     0.0000    26.0000 </r>
       <r>     2.9900     0.0000    26.0000 </r>
       <r>     3.0658     0.0000    26.0000 </r>
      </set>
     </set>
    </array>
   </total>
  </dos>
 </calculation>
 <structure name="finalpos" >
  <crystal>
   <varray name="basis" >
    <v>       3.19031600       0.00000000       0.00000000 </v>
    <v>      -1.59515800       2.76289400       0.00000000 </v>
    <v>       0.00000000       0.00000000      29.75800000 </v>
   </varray>
   <i name="volume">    262.30203784 </i>
   <varray name="rec_basis" >
    <v>       0.31344857       0.18096966       0.00000000 </v>
    <v>       0.00000000       0.36193933       0.00000000 </v>
    <v>       0.00000000       0.00000000       0.03360441 </v>
   </varray>
  </crystal>
  <varray name="positions" >
   <v>       0.33333300       0.66666700       0.12500000 </v>
   <v>       0.66666700       0.33333300       0.17758700 </v>
   <v>       0.66666700       0.33333300       0.07241300 </v>
  </varray>
 </structure>
</modeling>
