 running on    1 total cores
 distrk:  each k-point on    1 cores,    1 groups
 distr:  one band on    1 cores,    1 groups
 using from now: INCAR     
 vasp.5.4.4.18Apr17-6-g9f103f2a35 (build May 20 2018 16:52:39) complex          
  
 POSCAR found type information on POSCAR  Mo S 
 POSCAR found :  2 types and       3 ions
 scaLAPACK will be used
 LDA part: xc-table for Ceperly-Alder, standard interpolation
 POSCAR, INCAR and KPOINTS ok, starting setup
 FFT: planning ...
 WAVECAR not read
 entering main loop
       N       E                     dE             d eps       ncg     rms          rms(c)
DAV:   1     0.109216332194E+03    0.10922E+03   -0.44383E+03   380   0.598E+02
DAV:   2    -0.999068607032E+01   -0.11921E+03   -0.11348E+03   646   0.156E+02
DAV:   3    -0.230885044962E+02   -0.13098E+02   -0.12984E+02   494   0.671E+01
DAV:   4    -0.233358083529E+02   -0.24730E+00   -0.24547E+00   482   0.114E+01
DAV:   5    -0.233434910127E+02   -0.76827E-02   -0.76784E-02   449   0.195E+00    0.688E+00
DAV:   6    -0.221862666882E+02    0.11572E+01   -0.54933E+00   419   0.187E+01    0.287E+00
DAV:   7    -0.218241906987E+02    0.36208E+00   -0.15523E+00   419   0.116E+01    0.170E+00
DAV:   8    -0.217525287175E+02    0.71662E-01   -0.20482E-01   429   0.358E+00    0.314E-01
DAV:   9    -0.217501552719E+02    0.23734E-02   -0.15950E-02   444   0.106E+00    0.167E-01
DAV:  10    -0.217475593424E+02    0.25959E-02   -0.36772E-03   442   0.397E-01    0.506E-02
DAV:  11    -0.217470982031E+02    0.46114E-03   -0.58725E-04   468   0.193E-01    0.272E-02
DAV:  12    -0.217455307376E+02    0.15675E-02   -0.15996E-03   479   0.180E-01    0.321E-02
DAV:  13    -0.217454920745E+02    0.38663E-04   -0.18009E-04   429   0.114E-01    0.151E-02
DAV:  14    -0.217457776014E+02   -0.28553E-03   -0.11345E-04   429   0.806E-02    0.713E-03
DAV:  15    -0.217458351147E+02   -0.57513E-04   -0.14820E-05   473   0.225E-02    0.392E-03
DAV:  16    -0.217459704602E+02   -0.13535E-03   -0.64318E-05   450   0.364E-02    0.224E-03
DAV:  17    -0.217460121952E+02   -0.41735E-04   -0.62821E-06   401   0.123E-02    0.809E-04
DAV:  18    -0.217460394783E+02   -0.27283E-04   -0.55463E-06   442   0.104E-02    0.107E-03
DAV:  19    -0.217460437922E+02   -0.43138E-05   -0.59290E-07   342   0.409E-03    0.354E-04
DAV:  20    -0.217460462007E+02   -0.24086E-05   -0.36726E-07   275   0.292E-03    0.253E-04
DAV:  21    -0.217460468351E+02   -0.63435E-06   -0.60611E-08   182   0.143E-03
   1 F= -.21746047E+02 E0= -.21746047E+02  d E =0.000000E+00
