AuAl2                                   
   6.00000000000000     
     0.000000    0.500000    0.500000
     0.500000    0.000000    0.500000
     0.500000    0.500000    0.000000
   Au   Al
     1     2
Direct
  0.000000  0.000000  0.000000
  0.250000  0.250000  0.250000
  0.750000  0.750000  0.750000
 
   32   32   32
  247.59      236.62      208.95      175.07      141.70      109.48      78.372      51.703      33.527      23.693    
  18.101      14.495      12.327      11.287      10.655      9.9863      9.6437      9.9863      10.655      11.287    
  12.327      14.495      18.101      23.693      33.527      51.703      78.372      109.48      141.70      175.07    
  208.95      236.62      236.62      217.63      187.43      154.70      122.77      91.511      62.711      40.606    
  27.392      20.391      16.058      13.255      11.696      10.946      10.338      9.7934      9.7636      10.299    
  10.962      11.741      13.254      16.014      20.377      27.428      40.638      62.726      91.566      122.84    
  154.61      187.03      217.11      236.38      208.95      187.43      159.49      129.92      100.08      71.368    
  47.384      31.398      22.692      17.620      14.389      12.374      11.294      10.638      10.059      9.7806    
  10.051      10.637      11.302      12.375      14.381      17.619      22.699      31.395      47.383      71.423    
  100.20      129.96      159.29      187.02      208.61      217.11      175.07      154.70      129.92      103.07    
  76.073      52.204      34.922      24.834      19.076      15.476      13.157      11.772      10.967      10.340    
  9.8942      9.9084      10.361      10.962      11.748      13.150      15.499      19.096      24.812      34.872    
  52.179      76.108      103.14      129.98      154.72      175.06      187.02      187.03      141.70      122.77    
  100.08      76.073      53.945      36.979      26.384      20.241      16.414      13.922      12.289      11.287    
  10.603      10.069      9.8419      10.068      10.603      11.289      12.289      13.919      16.415      20.249    
  26.383      36.947      53.879      76.011      100.09      122.86      141.84      154.72      159.29      154.61    
  109.48      91.511      71.368      52.204      36.979      26.952      20.868      17.014      14.526      12.804    
  11.608      10.781      10.183      9.8224      9.8155      10.172      10.784      11.621      12.807      14.512    
  17.007      20.898      27.008      36.999      52.130      71.218      91.373      109.43      122.86      129.98    
  129.96      122.84      78.372      62.711      47.384      34.922      26.384      20.868      17.209      14.823    
  13.158      11.907      10.942      10.211      9.7310      9.5622      9.7354      10.212      10.938      11.907    
  13.161      14.818      17.205      20.900      26.470      35.015      47.395      62.594      78.170      91.373    
  100.09      103.14      100.20      91.566      51.703      40.606      31.398      24.834      20.241      17.014    
  14.823      13.272      12.070      11.063      10.223      9.5992      9.2659      9.2697      9.6040      10.220    
  11.058      12.073      13.276      14.804      16.971      20.220      24.904      31.570      40.784      51.750    
  62.594      71.218      76.011      76.108      71.423      62.726      33.527      27.392      22.692      19.076    
  16.414      14.526      13.158      12.070      11.104      10.224      9.4875      8.9935      8.8186      8.9921    
  9.4873      10.225      11.106      12.075      13.157      14.492      16.332      18.990      22.694      27.536    
  33.741      40.784      47.395      52.130      53.879      52.179      47.383      40.638      23.693      20.391    
  17.620      15.476      13.922      12.804      11.907      11.063      10.224      9.4424      8.8257      8.4801    
  8.4765      8.8223      9.4460      10.227      11.062      11.919      12.839      13.940      15.411      17.466    
  20.239      23.657      27.536      31.570      35.015      36.999      36.947      34.872      31.395      27.428    
  18.101      16.058      14.389      13.157      12.289      11.608      10.942      10.223      9.4875      8.8257    
  8.3533      8.1763      8.3470      8.8251      9.4919      10.219      10.937      11.640      12.375      13.242    
  14.380      15.917      17.900      20.239      22.694      24.904      26.470      27.008      26.383      24.812    
  22.699      20.377      14.495      13.255      12.374      11.772      11.287      10.781      10.211      9.5992    
  8.9935      8.4801      8.1763      8.1741      8.4772      8.9946      9.5993      10.197      10.752      11.278    
  11.834      12.510      13.392      14.530      15.917      17.466      18.990      20.220      20.900      20.898    
  20.249      19.096      17.619      16.014      12.327      11.696      11.294      10.967      10.603      10.183    
  9.7310      9.2659      8.8186      8.4765      8.3470      8.4772      8.8194      9.2692      9.7301      10.151    
  10.523      10.881      11.296      11.834      12.532      13.392      14.380      15.411      16.332      16.971    
  17.205      17.007      16.415      15.499      14.381      13.254      11.287      10.946      10.638      10.340    
  10.069      9.8224      9.5622      9.2697      8.9921      8.8223      8.8251      8.9946      9.2692      9.5723    
  9.8475      10.074      10.275      10.506      10.825      11.266      11.834      12.510      13.242      13.940    
  14.492      14.804      14.818      14.512      13.919      13.150      12.375      11.741      10.655      10.338    
  10.059      9.8942      9.8419      9.8155      9.7354      9.6040      9.4873      9.4460      9.4919      9.5993    
  9.7301      9.8475      9.9276      9.9800      10.052      10.200      10.456      10.825      11.296      11.834    
  12.375      12.839      13.157      13.276      13.161      12.807      12.289      11.748      11.302      10.962    
  9.9863      9.7934      9.7806      9.9084      10.068      10.172      10.212      10.220      10.225      10.227    
  10.219      10.197      10.151      10.074      9.9800      9.9068      9.9016      9.9960      10.200      10.506    
  10.881      11.278      11.640      11.919      12.075      12.073      11.907      11.621      11.289      10.962    
  10.637      10.299      9.6437      9.7636      10.051      10.361      10.603      10.784      10.938      11.058    
  11.106      11.062      10.937      10.752      10.523      10.275      10.052      9.9016      9.8489      9.9016    
  10.052      10.275      10.523      10.752      10.937      11.062      11.106      11.058      10.938      10.784    
  10.603      10.361      10.051      9.7636      9.9863      10.299      10.637      10.962      11.289      11.621    
  11.907      12.073      12.075      11.919      11.640      11.278      10.881      10.506      10.200      9.9960    
  9.9016      9.9068      9.9800      10.074      10.151      10.197      10.219      10.227      10.225      10.220    
  10.212      10.172      10.068      9.9084      9.7806      9.7934      10.655      10.962      11.302      11.748    
  12.289      12.807      13.161      13.276      13.157      12.839      12.375      11.834      11.296      10.825    
  10.456      10.200      10.052      9.9800      9.9276      9.8475      9.7301      9.5993      9.4919      9.4460    
  9.4873      9.6040      9.7354      9.8155      9.8419      9.8942      10.059      10.338      11.287      11.741    
  12.375      13.150      13.919      14.512      14.818      14.804      14.492      13.940      13.242      12.510    
  11.834      11.266      10.825      10.506      10.275      10.074      9.8475      9.5723      9.2692      8.9946    
  8.8251      8.8223      8.9921      9.2697      9.5622      9.8224      10.069      10.340      10.638      10.946    
  12.327      13.254      14.381      15.499      16.415      17.007      17.205      16.971      16.332      15.411    
  14.380      13.392      12.532      11.834      11.296      10.881      10.523      10.151      9.7301      9.2692    
  8.8194      8.4772      8.3470      8.4765      8.8186      9.2659      9.7310      10.183      10.603      10.967    
  11.294      11.696      14.495      16.014      17.619      19.096      20.249      20.898      20.900      20.220    
  18.990      17.466      15.917      14.530      13.392      12.510      11.834      11.278      10.752      10.197    
  9.5993      8.9946      8.4772      8.1741      8.1763      8.4801      8.9935      9.5992      10.211      10.781    
  11.287      11.772      12.374      13.255      18.101      20.377      22.699      24.812      26.383      27.008    
  26.470      24.904      22.694      20.239      17.900      15.917      14.380      13.242      12.375      11.640    
  10.937      10.219      9.4919      8.8251      8.3470      8.1763      8.3533      8.8257      9.4875      10.223    
  10.942      11.608      12.289      13.157      14.389      16.058      23.693      27.428      31.395      34.872    
  36.947      36.999      35.015      31.570      27.536      23.657      20.239      17.466      15.411      13.940    
  12.839      11.919      11.062      10.227      9.4460      8.8223      8.4765      8.4801      8.8257      9.4424    
  10.224      11.063      11.907      12.804      13.922      15.476      17.620      20.391      33.527      40.638    
  47.383      52.179      53.879      52.130      47.395      40.784      33.741      27.536      22.694      18.990    
  16.332      14.492      13.157      12.075      11.106      10.225      9.4873      8.9921      8.8186      8.9935    
  9.4875      10.224      11.104      12.070      13.158      14.526      16.414      19.076      22.692      27.392    
  51.703      62.726      71.423      76.108      76.011      71.218      62.594      51.750      40.784      31.570    
  24.904      20.220      16.971      14.804      13.276      12.073      11.058      10.220      9.6040      9.2697    
  9.2659      9.5992      10.223      11.063      12.070      13.272      14.823      17.014      20.241      24.834    
  31.398      40.606      78.372      91.566      100.20      103.14      100.09      91.373      78.170      62.594    
  47.395      35.015      26.470      20.900      17.205      14.818      13.161      11.907      10.938      10.212    
  9.7354      9.5622      9.7310      10.211      10.942      11.907      13.158      14.823      17.209      20.868    
  26.384      34.922      47.384      62.711      109.48      122.84      129.96      129.98      122.86      109.43    
  91.373      71.218      52.130      36.999      27.008      20.898      17.007      14.512      12.807      11.621    
  10.784      10.172      9.8155      9.8224      10.183      10.781      11.608      12.804      14.526      17.014    
  20.868      26.952      36.979      52.204      71.368      91.511      141.70      154.61      159.29      154.72    
  141.84      122.86      100.09      76.011      53.879      36.947      26.383      20.249      16.415      13.919    
  12.289      11.289      10.603      10.068      9.8419      10.069      10.603      11.287      12.289      13.922    
  16.414      20.241      26.384      36.979      53.945      76.073      100.08      122.77      175.07      187.03    
  187.02      175.06      154.72      129.98      103.14      76.108      52.179      34.872      24.812      19.096    
  15.499      13.150      11.748      10.962      10.361      9.9084      9.8942      10.340      10.967      11.772    
  13.157      15.476      19.076      24.834      34.922      52.204      76.073      103.07      129.92      154.70    
  208.95      217.11      208.61      187.02      159.29      129.96      100.20      71.423      47.383      31.395    
  22.699      17.619      14.381      12.375      11.302      10.637      10.051      9.7806      10.059      10.638    
  11.294      12.374      14.389      17.620      22.692      31.398      47.384      71.368      100.08      129.92    
  159.49      187.43      236.62      236.38      217.11      187.03      154.61      122.84      91.566      62.726    
  40.638      27.428      20.377      16.014      13.254      11.741      10.962      10.299      9.7636      9.7934    
  10.338      10.946      11.696      13.255      16.058      20.391      27.392      40.606      62.711      91.511    
  122.77      154.70      187.43      217.63      236.62      217.63      187.43      154.70      122.77      91.511    
  62.711      40.606      27.392      20.391      16.058      13.255      11.696      10.946      10.338      9.7934    
  9.7636      10.299      10.962      11.741      13.254      16.014      20.377      27.428      40.638      62.726    
  91.566      122.84      154.61      187.03      217.11      236.38      217.63      194.06      164.02      133.16    
  102.71      73.505      48.879      32.275      23.225      18.000      14.667      12.593      11.499      10.841    
  10.245      9.9508      10.233      10.841      11.512      12.595      14.655      17.999      23.234      32.269    
  48.887      73.613      102.90      133.20      163.63      193.31      217.01      226.55      187.43      164.02    
  136.84      108.61      80.612      55.546      37.002      26.055      19.928      16.099      13.638      12.194    
  11.376      10.724      10.240      10.254      10.746      11.373      12.169      13.628      16.123      19.950    
  26.027      36.951      55.571      80.763      108.78      136.81      163.72      187.03      201.33      201.52    
  154.70      133.16      108.61      83.117      59.285      40.448      28.423      21.623      17.432      14.706    
  12.940      11.894      11.185      10.597      10.333      10.591      11.185      11.900      12.940      14.699    
  17.434      21.632      28.407      40.392      59.238      83.152      108.74      133.31      154.80      170.22    
  175.94      170.19      122.77      102.71      80.612      59.285      41.743      29.831      22.780      18.418    
  15.629      13.711      12.405      11.527      10.873      10.450      10.437      10.855      11.534      12.426    
  13.710      15.609      18.416      22.806      29.836      41.679      59.182      80.563      102.78      122.93    
  138.46      146.99      146.93      138.29      91.511      73.505      55.546      40.448      29.831      23.213    
  18.943      16.202      14.310      12.901      11.829      11.011      10.448      10.240      10.451      11.011    
  11.826      12.902      14.312      16.199      18.946      23.246      29.889      40.470      55.475      73.362    
  91.391      106.67      116.84      120.38      116.82      106.71      62.711      48.879      37.002      28.423    
  22.780      18.943      16.400      14.619      13.233      12.073      11.093      10.338      9.9198      9.9266    
  10.347      11.089      12.064      13.235      14.624      16.389      18.935      22.824      28.531      37.108    
  48.888      62.597      75.915      86.381      92.123      92.176      86.523      76.088      40.606      32.275    
  26.055      21.623      18.418      16.202      14.619      13.350      12.202      11.126      10.197      9.5553    
  9.3254      9.5554      10.196      11.125      12.203      13.354      14.614      16.169      18.363      21.600    
  26.133      32.454      40.783      50.155      58.825      64.966      67.233      65.078      58.915      50.103    
  27.392      23.225      19.928      17.432      15.629      14.310      13.233      12.202      11.136      10.097    
  9.2553      8.7808      8.7789      9.2528      10.098      11.138      12.206      13.242      14.309      15.581    
  17.326      19.826      23.229      27.537      32.792      38.383      43.165      45.948      45.954      43.136    
  38.254      32.595      20.391      18.000      16.099      14.706      13.711      12.901      12.073      11.126    
  10.097      9.1405      8.4515      8.1958      8.4455      9.1395      10.102      11.125      12.074      12.928    
  13.762      14.724      16.020      17.836      20.242      23.106      26.176      29.106      31.263      32.028    
  31.164      28.964      26.086      23.142      16.058      14.667      13.638      12.940      12.405      11.829    
  11.093      10.197      9.2553      8.4515      7.9797      7.9754      8.4463      9.2571      10.196      11.080    
  11.827      12.457      13.049      13.734      14.658      15.920      17.524      19.359      21.189      22.681    
  23.505      23.468      22.617      21.192      19.481      17.712      13.255      12.593      12.194      11.894    
  11.527      11.011      10.338      9.5553      8.7808      8.1958      7.9754      8.1942      8.7798      9.5556    
  10.332      10.985      11.488      11.884      12.266      12.742      13.394      14.253      15.297      16.427    
  17.464      18.193      18.456      18.216      17.540      16.547      15.381      14.221      11.696      11.499    
  11.376      11.185      10.873      10.448      9.9198      9.3254      8.7789      8.4455      8.4463      8.7798    
  9.3284      9.9290      10.447      10.825      11.080      11.276      11.505      11.836      12.302      12.903    
  13.597      14.291      14.856      15.175      15.194      14.910      14.353      13.596      12.787      12.114    
  10.946      10.841      10.724      10.597      10.450      10.240      9.9266      9.5554      9.2528      9.1395    
  9.2571      9.5556      9.9290      10.264      10.488      10.599      10.645      10.699      10.827      11.061    
  11.410      11.851      12.328      12.758      13.060      13.175      13.070      12.745      12.260      11.744    
  11.332      11.081      10.338      10.245      10.240      10.333      10.437      10.451      10.347      10.196    
  10.098      10.102      10.196      10.332      10.447      10.488      10.441      10.337      10.238      10.202    
  10.265      10.436      10.704      11.028      11.350      11.608      11.758      11.760      11.594      11.295    
  10.964      10.707      10.555      10.450      9.7934      9.9508      10.254      10.591      10.855      11.011    
  11.089      11.125      11.138      11.125      11.080      10.985      10.825      10.599      10.337      10.088    
  9.9032      9.8138      9.8337      9.9542      10.143      10.353      10.543      10.680      10.731      10.678    
  10.536      10.359      10.197      10.057      9.9192      9.8054      9.7636      10.233      10.746      11.185    
  11.534      11.826      12.064      12.203      12.206      12.074      11.827      11.488      11.080      10.645    
  10.238      9.9032      9.6690      9.5462      9.5272      9.5816      9.6688      9.7587      9.8347      9.8798    
  9.8777      9.8338      9.7767      9.7205      9.6425      9.5259      9.4299      9.4805      10.299      10.841    
  11.373      11.900      12.426      12.902      13.235      13.354      13.242      12.928      12.457      11.884    
  11.276      10.699      10.202      9.8138      9.5462      9.3896      9.3106      9.2678      9.2352      9.2084    
  9.1901      9.1814      9.1868      9.2124      9.2477      9.2651      9.2598      9.2908      9.4552      9.8054    
  10.962      11.512      12.169      12.940      13.710      14.312      14.624      14.614      14.309      13.762    
  13.049      12.266      11.505      10.827      10.265      9.8337      9.5272      9.3106      9.1365      8.9741    
  8.8220      8.6968      8.6210      8.6175      8.6947      8.8252      8.9596      9.0820      9.2464      9.5313    
  9.9533      10.450      11.741      12.595      13.628      14.699      15.609      16.199      16.389      16.169    
  15.581      14.724      13.734      12.742      11.836      11.061      10.436      9.9542      9.5816      9.2678    
  8.9741      8.6914      8.4386      8.2537      8.1819      8.2501      8.4386      8.6907      8.9629      9.2621    
  9.6236      10.057      10.542      11.081      13.254      14.655      16.123      17.434      18.416      18.946    
  18.935      18.363      17.326      16.020      14.658      13.394      12.302      11.410      10.704      10.143    
  9.6688      9.2352      8.8220      8.4386      8.1245      7.9419      7.9427      8.1256      8.4372      8.8215    
  9.2531      9.7204      10.203      10.702      11.293      12.114      16.014      17.999      19.950      21.632    
  22.806      23.246      22.824      21.600      19.826      17.836      15.920      14.253      12.903      11.851    
  11.028      10.353      9.7587      9.2084      8.6968      8.2537      7.9419      7.8305      7.9459      8.2539    
  8.6925      9.2117      9.7761      10.362      10.985      11.744      12.787      14.221      20.377      23.234    
  26.027      28.407      29.836      29.889      28.531      26.133      23.229      20.242      17.524      15.297    
  13.597      12.328      11.350      10.543      9.8347      9.1901      8.6210      8.1819      7.9427      7.9459    
  8.1844      8.6166      9.1874      9.8375      10.529      11.295      12.264      13.602      15.419      17.712    
  27.428      32.269      36.951      40.392      41.679      40.470      37.108      32.454      27.537      23.106    
  19.359      16.427      14.291      12.758      11.608      10.680      9.8798      9.1814      8.6175      8.2501    
  8.1256      8.2539      8.6166      9.1768      9.8801      10.679      11.591      12.743      14.333      16.548    
  19.494      23.142      40.638      48.887      55.571      59.238      59.182      55.475      48.888      40.783    
  32.792      26.176      21.189      17.464      14.856      13.060      11.758      10.731      9.8777      9.1868    
  8.6947      8.4386      8.4372      8.6925      9.1874      9.8801      10.730      11.757      13.079      14.910    
  17.526      21.186      26.054      32.595      62.726      73.613      80.763      83.152      80.563      73.362    
  62.597      50.155      38.383      29.106      22.681      18.193      15.175      13.175      11.760      10.678    
  9.8338      9.2124      8.8252      8.6907      8.8215      9.2117      9.8375      10.679      11.757      13.182    
  15.200      18.208      22.633      28.972      38.228      50.103      91.566      102.90      108.78      108.74    
  102.78      91.391      75.915      58.825      43.165      31.263      23.505      18.456      15.194      13.070    
  11.594      10.536      9.7767      9.2477      8.9596      8.9629      9.2531      9.7761      10.529      11.591    
  13.079      15.200      18.433      23.442      31.199      43.165      58.926      76.088      122.84      133.20    
  136.81      133.31      122.93      106.67      86.381      64.966      45.948      32.028      23.468      18.216    
  14.910      12.745      11.295      10.359      9.7205      9.2651      9.0820      9.2621      9.7204      10.362    
  11.295      12.743      14.910      18.208      23.442      32.007      45.990      65.094      86.521      106.71    
  154.61      163.63      163.72      154.80      138.46      116.84      92.123      67.233      45.954      31.164    
  22.617      17.540      14.353      12.260      10.964      10.197      9.6425      9.2598      9.2464      9.6236    
  10.203      10.985      12.264      14.333      17.526      22.633      31.199      45.990      67.265      92.131    
  116.77      138.29      187.03      193.31      187.03      170.22      146.99      120.38      92.176      65.078    
  43.136      28.964      21.192      16.547      13.596      11.744      10.707      10.057      9.5259      9.2908    
  9.5313      10.057      10.702      11.744      13.602      16.548      21.186      28.972      43.165      65.094    
  92.131      120.28      146.90      170.19      217.11      217.01      201.33      175.94      146.93      116.82    
  86.523      58.915      38.254      26.086      19.481      15.381      12.787      11.332      10.555      9.9192    
  9.4299      9.4552      9.9533      10.542      11.293      12.787      15.419      19.494      26.054      38.228    
  58.926      86.521      116.77      146.90      176.04      201.52      236.38      226.55      201.52      170.19    
  138.29      106.71      76.088      50.103      32.595      23.142      17.712      14.221      12.114      11.081    
  10.450      9.8054      9.4805      9.8054      10.450      11.081      12.114      14.221      17.712      23.142    
  32.595      50.103      76.088      106.71      138.29      170.19      201.52      226.55      208.95      187.43    
  159.49      129.92      100.08      71.368      47.384      31.398      22.692      17.620      14.389      12.374    
  11.294      10.638      10.059      9.7806      10.051      10.637      11.302      12.375      14.381      17.619    
  22.699      31.395      47.383      71.423      100.20      129.96      159.29      187.02      208.61      217.11    
  187.43      164.02      136.84      108.61      80.612      55.546      37.002      26.055      19.928      16.099    
  13.638      12.194      11.376      10.724      10.240      10.254      10.746      11.373      12.169      13.628    
  16.123      19.950      26.027      36.951      55.571      80.763      108.78      136.81      163.72      187.03    
  201.33      201.52      159.49      136.84      111.52      85.496      61.117      41.672      29.157      22.117    
  17.793      14.981      13.168      12.106      11.388      10.780      10.504      10.774      11.388      12.113    
  13.167      14.973      17.793      22.122      29.136      41.626      61.114      85.600      111.69      136.96    
  159.48      175.98      182.20      176.04      129.92      108.61      85.496      63.111      44.381      31.441    
  23.831      19.191      16.229      14.196      12.831      11.927      11.240      10.782      10.766      11.219    
  11.935      12.855      14.195      16.205      19.187      23.852      31.429      44.293      63.009      85.512    
  108.81      130.25      147.19      156.71      156.60      146.90      100.08      80.612      61.117      44.381    
  32.318      24.832      20.121      17.124      15.071      13.550      12.407      11.530      10.907      10.669    
  10.907      11.529      12.405      13.551      15.072      17.126      20.130      24.845      32.306      44.307    
  61.001      80.555      100.19      117.01      128.38      132.33      128.18      116.77      71.368      55.546    
  41.672      31.441      24.832      20.471      17.610      15.630      14.094      12.813      11.720      10.858    
  10.368      10.377      10.868      11.713      12.800      14.097      15.639      17.606      20.470      24.872    
  31.512      41.692      55.459      71.221      86.419      98.356      104.89      104.88      98.377      86.521    
  47.384      37.002      29.157      23.831      20.121      17.610      15.833      14.391      13.071      11.817    
  10.713      9.9333      9.6515      9.9362      10.712      11.813      13.071      14.393      15.823      17.589    
  20.122      23.891      29.267      37.094      47.387      58.826      69.293      76.634      79.305      76.735    
  69.437      58.926      31.398      26.055      22.117      19.191      17.124      15.630      14.391      13.167    
  11.859      10.561      9.4939      8.8892      8.8880      9.4921      10.560      11.859      13.168      14.393    
  15.620      17.083      19.128      22.091      26.131      31.563      38.379      45.624      51.779      55.350    
  55.387      51.830      45.582      38.228      22.692      19.928      17.793      16.229      15.071      14.094    
  13.071      11.859      10.501      9.2194      8.2964      7.9586      8.2939      9.2188      10.502      11.859    
  13.078      14.111      15.072      16.170      17.675      19.827      22.698      26.178      30.157      34.071    
  36.998      38.085      36.966      33.973      30.003      26.054      17.620      16.099      14.981      14.196    
  13.550      12.813      11.817      10.561      9.2194      8.0746      7.4084      7.4048      8.0706      9.2221    
  10.562      11.811      12.817      13.590      14.256      14.998      16.020      17.471      19.364      21.552    
  23.744      25.592      26.655      26.613      25.498      23.679      21.585      19.494      14.389      13.638    
  13.168      12.831      12.407      11.720      10.713      9.4939      8.2964      7.4084      7.0768      7.4049    
  8.2963      9.4950      10.703      11.699      12.407      12.892      13.282      13.734      14.384      15.302    
  16.465      17.759      18.969      19.827      20.119      19.792      18.968      17.850      16.619      15.419    
  12.374      12.194      12.106      11.927      11.530      10.858      9.9333      8.8892      7.9586      7.4048    
  7.4049      7.9585      8.8897      9.9338      10.848      11.495      11.878      12.094      12.266      12.513    
  12.906      13.468      14.163      14.890      15.498      15.845      15.856      15.543      14.967      14.223    
  13.443      12.787      11.294      11.376      11.388      11.240      10.907      10.368      9.6515      8.8880    
  8.2939      8.0706      8.2963      8.8897      9.6583      10.384      10.908      11.182      11.271      11.276    