AuAl2                                   
   6.00000000000000     
     0.000000    0.500000    0.500000
     0.500000    0.000000    0.500000
     0.500000    0.500000    0.000000
   Au   Al
     1     2
Direct
  0.000000  0.000000  0.000000
  0.250000  0.250000  0.250000
  0.750000  0.750000  0.750000
 
   32   32   32
 0.24758975495E+03 0.23662228499E+03 0.20895019641E+03 0.17507282359E+03 0.14169793858E+03
 0.10948200352E+03 0.78371575378E+02 0.51703305834E+02 0.33526617510E+02 0.23692800097E+02
 0.18100966993E+02 0.14495010829E+02 0.12326843754E+02 0.11286561087E+02 0.10655347220E+02
 0.99863453505E+01 0.96436742689E+01 0.99863453505E+01 0.10655347220E+02 0.11286561087E+02
 0.12326843754E+02 0.14495010829E+02 0.18100966993E+02 0.23692800097E+02 0.33526617510E+02
 0.51703305834E+02 0.78371575378E+02 0.10948200352E+03 0.14169793858E+03 0.17507282359E+03
 0.20895019641E+03 0.23662228499E+03 0.23662228499E+03 0.21762952838E+03 0.18742925261E+03
 0.15470240332E+03 0.12276606287E+03 0.91510997383E+02 0.62710854765E+02 0.40605774878E+02
 0.27392389404E+02 0.20391330857E+02 0.16057550757E+02 0.13255249294E+02 0.11695853217E+02
 0.10945898905E+02 0.10338278671E+02 0.97933943791E+01 0.97635846279E+01 0.10298523326E+02
 0.10962223201E+02 0.11740694266E+02 0.13254405718E+02 0.16013962462E+02 0.20377397240E+02
 0.27428326207E+02 0.40638035015E+02 0.62726464551E+02 0.91566482735E+02 0.12283803891E+03
 0.15460828012E+03 0.18703338485E+03 0.21710809793E+03 0.23637706201E+03 0.20895019641E+03
 0.18742925259E+03 0.15948614275E+03 0.12992079104E+03 0.10008445456E+03 0.71367740185E+02
 0.47383972399E+02 0.31397583152E+02 0.22691644588E+02 0.17620401577E+02 0.14389169899E+02
 0.12373569325E+02 0.11293932707E+02 0.10637828813E+02 0.10059333988E+02 0.97805504102E+01
 0.10051075014E+02 0.10637237336E+02 0.11302287822E+02 0.12374597778E+02 0.14380650926E+02
 0.17619288264E+02 0.22699134320E+02 0.31394789069E+02 0.47383073567E+02 0.71422835660E+02
 0.10019695472E+03 0.12995920715E+03 0.15928828776E+03 0.18702216366E+03 0.20860643213E+03
 0.21710809796E+03 0.17507282359E+03 0.15470240327E+03 0.12992079100E+03 0.10307032669E+03
 0.76073234994E+02 0.52203678648E+02 0.34921924355E+02 0.24833606373E+02 0.19075991569E+02
 0.15475946180E+02 0.13157170274E+02 0.11772481981E+02 0.10966699845E+02 0.10339735806E+02
 0.98942124289E+01 0.99084446579E+01 0.10360834357E+02 0.10962169967E+02 0.11748100713E+02
 0.13149846034E+02 0.15499006147E+02 0.19095633990E+02 0.24812474058E+02 0.34872231892E+02
 0.52178850897E+02 0.76108068048E+02 0.10314344642E+03 0.12997987434E+03 0.15471698066E+03
 0.17505686515E+03 0.18702216375E+03 0.18703338492E+03 0.14169793858E+03 0.12276606280E+03
 0.10008445449E+03 0.76073234965E+02 0.53945417291E+02 0.36979289163E+02 0.26384009117E+02
 0.20241088339E+02 0.16414064110E+02 0.13921929106E+02 0.12289279234E+02 0.11286701858E+02
 0.10602789291E+02 0.10069300652E+02 0.98418799078E+01 0.10067772327E+02 0.10602932776E+02
 0.11288633499E+02 0.12289045258E+02 0.13919137696E+02 0.16415228424E+02 0.20248642598E+02
 0.26383379417E+02 0.36947035893E+02 0.53878947543E+02 0.76010835777E+02 0.10008523661E+03
 0.12285834472E+03 0.14184256443E+03 0.15471698080E+03 0.15928828794E+03 0.15460828024E+03
 0.10948200352E+03 0.91510997320E+02 0.71367740125E+02 0.52203678624E+02 0.36979289163E+02
 0.26951736960E+02 0.20867899657E+02 0.17014484273E+02 0.14525760805E+02 0.12803568851E+02
 0.11607695874E+02 0.10781216805E+02 0.10182719300E+02 0.98224048762E+01 0.98155176984E+01
 0.10172439977E+02 0.10783754702E+02 0.11620587855E+02 0.12806830380E+02 0.14511742349E+02
 0.17007364603E+02 0.20898346018E+02 0.27008269231E+02 0.36999224692E+02 0.52130367303E+02
 0.71218439051E+02 0.91372780987E+02 0.10942876586E+03 0.12285834486E+03 0.12997987458E+03
 0.12995920738E+03 0.12283803903E+03 0.78371575378E+02 0.62710854729E+02 0.47383972374E+02
 0.34921924360E+02 0.26384009139E+02 0.20867899677E+02 0.17209046058E+02 0.14822523385E+02
 0.13157797667E+02 0.11906998913E+02 0.10941571074E+02 0.10211209527E+02 0.97310284389E+01
 0.95621783724E+01 0.97354418972E+01 0.10211694847E+02 0.10937796963E+02 0.11907183278E+02
 0.13160632473E+02 0.14817544805E+02 0.17204847732E+02 0.20900021423E+02 0.26470147104E+02
 0.35014725191E+02 0.47395209979E+02 0.62594137698E+02 0.78169764451E+02 0.91372781080E+02
 0.10008523681E+03 0.10314344666E+03 0.10019695491E+03 0.91566482826E+02 0.51703305834E+02
 0.40605774873E+02 0.31397583168E+02 0.24833606414E+02 0.20241088392E+02 0.17014484320E+02
 0.14822523410E+02 0.13272406586E+02 0.12070227152E+02 0.11063417117E+02 0.10223040140E+02
 0.95991585851E+01 0.92659350121E+01 0.92697182794E+01 0.96039873408E+01 0.10220445206E+02
 0.11058213773E+02 0.12072920924E+02 0.13276407682E+02 0.14804246355E+02 0.16970543567E+02
 0.20219710955E+02 0.24904413056E+02 0.31570124226E+02 0.40784305717E+02 0.51750400442E+02
 0.62594137724E+02 0.71218439139E+02 0.76010835921E+02 0.76108068200E+02 0.71422835767E+02
 0.62726464593E+02 0.33526617510E+02 0.27392389424E+02 0.22691644637E+02 0.19075991641E+02
 0.16414064189E+02 0.14525760872E+02 0.13157797709E+02 0.12070227167E+02 0.11104465111E+02
 0.10223575454E+02 0.94874859836E+01 0.89934563409E+01 0.88185928942E+01 0.89921184502E+01
 0.94872895791E+01 0.10224648723E+02 0.11106409695E+02 0.12074626031E+02 0.13156576956E+02
 0.14492358691E+02 0.16332476151E+02 0.18989557143E+02 0.22694371649E+02 0.27536021944E+02
 0.33741492150E+02 0.40784305695E+02 0.47395209963E+02 0.52130367311E+02 0.53878947572E+02
 0.52178850927E+02 0.47383073581E+02 0.40638035013E+02 0.23692800097E+02 0.20391330894E+02
 0.17620401648E+02 0.15475946270E+02 0.13921929195E+02 0.12803568921E+02 0.11906998952E+02
 0.11063417128E+02 0.10223575450E+02 0.94424192082E+01 0.88257334180E+01 0.84800842060E+01
 0.84765469439E+01 0.88223090953E+01 0.94459870896E+01 0.10226508315E+02 0.11062013043E+02
 0.11919114250E+02 0.12839071500E+02 0.13940321930E+02 0.15411017568E+02 0.17466105309E+02
 0.20239454176E+02 0.23657066768E+02 0.27536021899E+02 0.31570124148E+02 0.35014725097E+02
 0.36999224597E+02 0.36947035808E+02 0.34872231819E+02 0.31394789014E+02 0.27428326175E+02
 0.18100966993E+02 0.16057550803E+02 0.14389169976E+02 0.13157170363E+02 0.12289279311E+02
 0.11607695924E+02 0.10941571090E+02 0.10223040126E+02 0.94874859560E+01 0.88257333945E+01
 0.83532841932E+01 0.81763129245E+01 0.83469510101E+01 0.88250542407E+01 0.94918781969E+01
 0.10219293334E+02 0.10937286151E+02 0.11640121671E+02 0.12375115394E+02 0.13242449541E+02
 0.14380367145E+02 0.15917086271E+02 0.17899782793E+02 0.20239454123E+02 0.22694371545E+02
 0.24904412908E+02 0.26470146926E+02 0.27008269045E+02 0.26383379244E+02 0.24812473916E+02
 0.22699134220E+02 0.20377397190E+02 0.14495010829E+02 0.13255249340E+02 0.12373569396E+02
 0.11772482051E+02 0.11286701906E+02 0.10781216818E+02 0.10211209502E+02 0.95991585316E+01
 0.89934562728E+01 0.84800841420E+01 0.81763128841E+01 0.81741421409E+01 0.84771616854E+01
 0.89945736191E+01 0.95993383611E+01 0.10196865508E+02 0.10752427007E+02 0.11278223275E+02
 0.11833954698E+02 0.12509718875E+02 0.13391761846E+02 0.14530027084E+02 0.15917086216E+02
 0.17466105193E+02 0.18989556966E+02 0.20219710725E+02 0.20900021161E+02 0.20898345753E+02
 0.20248642361E+02 0.19095633802E+02 0.17619288138E+02 0.16013962402E+02 0.12326843754E+02
 0.11695853257E+02 0.11293932761E+02 0.10966699886E+02 0.10602789300E+02 0.10182719267E+02
 0.97310283647E+01 0.92659349060E+01 0.88185927718E+01 0.84765468254E+01 0.83469509167E+01
 0.84771616345E+01 0.88193862394E+01 0.92692433368E+01 0.97300790004E+01 0.10150867650E+02
 0.10522913865E+02 0.10881461631E+02 0.11295776650E+02 0.11833684405E+02 0.12531832149E+02
 0.13391761795E+02 0.14380367031E+02 0.15411017381E+02 0.16332475893E+02 0.16970543254E+02
 0.17204847394E+02 0.17007364277E+02 0.16415228142E+02 0.15499005932E+02 0.14380650790E+02
 0.13254405657E+02 0.11286561087E+02 0.10945898935E+02 0.10637828844E+02 0.10339735812E+02
 0.10069300615E+02 0.98224047899E+01 0.95621782388E+01 0.92697181092E+01 0.89921182618E+01
 0.88223089127E+01 0.88250540886E+01 0.89945735157E+01 0.92692432882E+01 0.95722571357E+01
 0.98475196480E+01 0.10074284933E+02 0.10274670676E+02 0.10505598446E+02 0.10825106690E+02
 0.11266003957E+02 0.11833684364E+02 0.12509718775E+02 0.13242449366E+02 0.13940321671E+02
 0.14492358357E+02 0.14804245972E+02 0.14817544412E+02 0.14511741987E+02 0.13919137396E+02
 0.13149845815E+02 0.12374597645E+02 0.11740694209E+02 0.10655347220E+02 0.10338278688E+02
 0.10059333992E+02 0.98942123947E+01 0.98418798196E+01 0.98155175506E+01 0.97354416943E+01
 0.96039870970E+01 0.94872893179E+01 0.94459868407E+01 0.94918779891E+01 0.95993382128E+01
 0.97300789147E+01 0.98475196140E+01 0.99276099854E+01 0.99799604139E+01 0.10052375612E+02
 0.10200379393E+02 0.10456070414E+02 0.10825106662E+02 0.11295776575E+02 0.11833954555E+02
 0.12375115165E+02 0.12839071184E+02 0.13156576569E+02 0.13276407260E+02 0.13160632060E+02
 0.12806830014E+02 0.12289044968E+02 0.11748100511E+02 0.11302287704E+02 0.10962223154E+02
 0.99863453505E+01 0.97933943805E+01 0.97805503825E+01 0.99084445776E+01 0.10067772180E+02
 0.10172439761E+02 0.10211694570E+02 0.10220444887E+02 0.10224648392E+02 0.10226508009E+02
 0.10219293084E+02 0.10196865330E+02 0.10150867544E+02 0.10074284881E+02 0.99799603972E+01
 0.99068413773E+01 0.99015693253E+01 0.99959828230E+01 0.10200379378E+02 0.10505598400E+02
 0.10881461533E+02 0.11278223101E+02 0.11640121409E+02 0.11919113903E+02 0.12074625626E+02
 0.12072920503E+02 0.11907182882E+02 0.11620587519E+02 0.11288633242E+02 0.10962169796E+02
 0.10637237243E+02 0.10298523293E+02 0.96436742689E+01 0.97635846117E+01 0.10051074952E+02
 0.10360834229E+02 0.10602932570E+02 0.10783754419E+02 0.10937796616E+02 0.11058213389E+02
 0.11106409312E+02 0.11062012701E+02 0.10937285880E+02 0.10752426820E+02 0.10522913755E+02
 0.10274670622E+02 0.10052375592E+02 0.99015693208E+01 0.98488806019E+01 0.99015693208E+01
 0.10052375592E+02 0.10274670622E+02 0.10522913755E+02 0.10752426820E+02 0.10937285880E+02
 0.11062012701E+02 0.11106409312E+02 0.11058213389E+02 0.10937796616E+02 0.10783754419E+02
 0.10602932570E+02 0.10360834229E+02 0.10051074952E+02 0.97635846117E+01 0.99863453505E+01
 0.10298523293E+02 0.10637237243E+02 0.10962169796E+02 0.11288633242E+02 0.11620587519E+02
 0.11907182882E+02 0.12072920503E+02 0.12074625626E+02 0.11919113903E+02 0.11640121409E+02
 0.11278223101E+02 0.10881461533E+02 0.10505598400E+02 0.10200379378E+02 0.99959828230E+01
 0.99015693253E+01 0.99068413773E+01 0.99799603972E+01 0.10074284881E+02 0.10150867544E+02
 0.10196865330E+02 0.10219293084E+02 0.10226508009E+02 0.10224648392E+02 0.10220444887E+02
 0.10211694570E+02 0.10172439761E+02 0.10067772180E+02 0.99084445776E+01 0.97805503825E+01
 0.97933943805E+01 0.10655347220E+02 0.10962223154E+02 0.11302287704E+02 0.11748100511E+02
 0.12289044968E+02 0.12806830014E+02 0.13160632060E+02 0.13276407260E+02 0.13156576569E+02
 0.12839071184E+02 0.12375115165E+02 0.11833954555E+02 0.11295776575E+02 0.10825106662E+02
 0.10456070414E+02 0.10200379393E+02 0.10052375612E+02 0.99799604139E+01 0.99276099854E+01
 0.98475196140E+01 0.97300789147E+01 0.95993382128E+01 0.94918779891E+01 0.94459868407E+01
 0.94872893179E+01 0.96039870970E+01 0.97354416943E+01 0.98155175506E+01 0.98418798196E+01
 0.98942123947E+01 0.10059333992E+02 0.10338278688E+02 0.11286561087E+02 0.11740694209E+02
 0.12374597645E+02 0.13149845815E+02 0.13919137396E+02 0.14511741987E+02 0.14817544412E+02
 0.14804245972E+02 0.14492358357E+02 0.13940321671E+02 0.13242449366E+02 0.12509718775E+02
 0.11833684364E+02 0.11266003957E+02 0.10825106690E+02 0.10505598446E+02 0.10274670676E+02
 0.10074284933E+02 0.98475196480E+01 0.95722571357E+01 0.92692432882E+01 0.89945735157E+01
 0.88250540886E+01 0.88223089127E+01 0.89921182618E+01 0.92697181092E+01 0.95621782388E+01
 0.98224047899E+01 0.10069300615E+02 0.10339735812E+02 0.10637828844E+02 0.10945898935E+02
 0.12326843754E+02 0.13254405657E+02 0.14380650790E+02 0.15499005932E+02 0.16415228142E+02
 0.17007364277E+02 0.17204847394E+02 0.16970543254E+02 0.16332475893E+02 0.15411017381E+02
 0.14380367031E+02 0.13391761795E+02 0.12531832149E+02 0.11833684405E+02 0.11295776650E+02
 0.10881461631E+02 0.10522913865E+02 0.10150867650E+02 0.97300790004E+01 0.92692433368E+01
 0.88193862394E+01 0.84771616345E+01 0.83469509167E+01 0.84765468254E+01 0.88185927718E+01
 0.92659349060E+01 0.97310283647E+01 0.10182719267E+02 0.10602789300E+02 0.10966699886E+02
 0.11293932761E+02 0.11695853257E+02 0.14495010829E+02 0.16013962402E+02 0.17619288138E+02
 0.19095633802E+02 0.20248642361E+02 0.20898345753E+02 0.20900021161E+02 0.20219710725E+02
 0.18989556966E+02 0.17466105193E+02 0.15917086216E+02 0.14530027084E+02 0.13391761846E+02
 0.12509718875E+02 0.11833954698E+02 0.11278223275E+02 0.10752427007E+02 0.10196865508E+02
 0.95993383611E+01 0.89945736191E+01 0.84771616854E+01 0.81741421409E+01 0.81763128841E+01
 0.84800841420E+01 0.89934562728E+01 0.95991585316E+01 0.10211209502E+02 0.10781216818E+02
 0.11286701906E+02 0.11772482051E+02 0.12373569396E+02 0.13255249340E+02 0.18100966993E+02
 0.20377397190E+02 0.22699134220E+02 0.24812473916E+02 0.26383379244E+02 0.27008269045E+02
 0.26470146926E+02 0.24904412908E+02 0.22694371545E+02 0.20239454123E+02 0.17899782793E+02
 0.15917086271E+02 0.14380367145E+02 0.13242449541E+02 0.12375115394E+02 0.11640121671E+02
 0.10937286151E+02 0.10219293334E+02 0.94918781969E+01 0.88250542407E+01 0.83469510101E+01
 0.81763129245E+01 0.83532841932E+01 0.88257333945E+01 0.94874859560E+01 0.10223040126E+02
 0.10941571090E+02 0.11607695924E+02 0.12289279311E+02 0.13157170363E+02 0.14389169976E+02
 0.16057550803E+02 0.23692800097E+02 0.27428326175E+02 0.31394789014E+02 0.34872231819E+02
 0.36947035808E+02 0.36999224597E+02 0.35014725097E+02 0.31570124148E+02 0.27536021899E+02
 0.23657066768E+02 0.20239454176E+02 0.17466105309E+02 0.15411017568E+02 0.13940321930E+02
 0.12839071500E+02 0.11919114250E+02 0.11062013043E+02 0.10226508315E+02 0.94459870896E+01
 0.88223090953E+01 0.84765469439E+01 0.84800842060E+01 0.88257334180E+01 0.94424192082E+01
 0.10223575450E+02 0.11063417128E+02 0.11906998952E+02 0.12803568921E+02 0.13921929195E+02
 0.15475946270E+02 0.17620401648E+02 0.20391330894E+02 0.33526617510E+02 0.40638035013E+02
 0.47383073581E+02 0.52178850927E+02 0.53878947572E+02 0.52130367311E+02 0.47395209963E+02
 0.40784305695E+02 0.33741492150E+02 0.27536021944E+02 0.22694371649E+02 0.18989557143E+02
 0.16332476151E+02 0.14492358691E+02 0.13156576956E+02 0.12074626031E+02 0.11106409695E+02
 0.10224648723E+02 0.94872895791E+01 0.89921184502E+01 0.88185928942E+01 0.89934563409E+01
 0.94874859836E+01 0.10223575454E+02 0.11104465111E+02 0.12070227167E+02 0.13157797709E+02
 0.14525760872E+02 0.16414064189E+02 0.19075991641E+02 0.22691644637E+02 0.27392389424E+02
 0.51703305834E+02 0.62726464593E+02 0.71422835767E+02 0.76108068200E+02 0.76010835921E+02
 0.71218439139E+02 0.62594137724E+02 0.51750400442E+02 0.40784305717E+02 0.31570124226E+02
 0.24904413056E+02 0.20219710955E+02 0.16970543567E+02 0.14804246355E+02 0.13276407682E+02
 0.12072920924E+02 0.11058213773E+02 0.10220445206E+02 0.96039873408E+01 0.92697182794E+01
 0.92659350121E+01 0.95991585851E+01 0.10223040140E+02 0.11063417117E+02 0.12070227152E+02
 0.13272406586E+02 0.14822523410E+02 0.17014484320E+02 0.20241088392E+02 0.24833606414E+02
 0.31397583168E+02 0.40605774873E+02 0.78371575378E+02 0.91566482826E+02 0.10019695491E+03
 0.10314344666E+03 0.10008523681E+03 0.91372781080E+02 0.78169764451E+02 0.62594137698E+02
 0.47395209979E+02 0.35014725191E+02 0.26470147104E+02 0.20900021423E+02 0.17204847732E+02
 0.14817544805E+02 0.13160632473E+02 0.11907183278E+02 0.10937796963E+02 0.10211694847E+02
 0.97354418972E+01 0.95621783724E+01 0.97310284389E+01 0.10211209527E+02 0.10941571074E+02
 0.11906998913E+02 0.13157797667E+02 0.14822523385E+02 0.17209046058E+02 0.20867899677E+02
 0.26384009139E+02 0.34921924360E+02 0.47383972374E+02 0.62710854729E+02 0.10948200352E+03
 0.12283803903E+03 0.12995920738E+03 0.12997987458E+03 0.12285834486E+03 0.10942876586E+03
 0.91372780987E+02 0.71218439051E+02 0.52130367303E+02 0.36999224692E+02 0.27008269231E+02
 0.20898346018E+02 0.17007364603E+02 0.14511742349E+02 0.12806830380E+02 0.11620587855E+02
 0.10783754702E+02 0.10172439977E+02 0.98155176984E+01 0.98224048762E+01 0.10182719300E+02
 0.10781216805E+02 0.11607695874E+02 0.12803568851E+02 0.14525760805E+02 0.17014484273E+02
 0.20867899657E+02 0.26951736960E+02 0.36979289163E+02 0.52203678624E+02 0.71367740125E+02
 0.91510997320E+02 0.14169793858E+03 0.15460828024E+03 0.15928828794E+03 0.15471698080E+03
 0.14184256443E+03 0.12285834472E+03 0.10008523661E+03 0.76010835777E+02 0.53878947543E+02
 0.36947035893E+02 0.26383379417E+02 0.20248642598E+02 0.16415228424E+02 0.13919137696E+02
 0.12289045258E+02 0.11288633499E+02 0.10602932776E+02 0.10067772327E+02 0.98418799078E+01
 0.10069300652E+02 0.10602789291E+02 0.11286701858E+02 0.12289279234E+02 0.13921929106E+02
 0.16414064110E+02 0.20241088339E+02 0.26384009117E+02 0.36979289163E+02 0.53945417291E+02
 0.76073234965E+02 0.10008445449E+03 0.12276606280E+03 0.17507282359E+03 0.18703338492E+03
 0.18702216375E+03 0.17505686515E+03 0.15471698066E+03 0.12997987434E+03 0.10314344642E+03
 0.76108068048E+02 0.52178850897E+02 0.34872231892E+02 0.24812474058E+02 0.19095633990E+02
 0.15499006147E+02 0.13149846034E+02 0.11748100713E+02 0.10962169967E+02 0.10360834357E+02
 0.99084446579E+01 0.98942124289E+01 0.10339735806E+02 0.10966699845E+02 0.11772481981E+02
 0.13157170274E+02 0.15475946180E+02 0.19075991569E+02 0.24833606373E+02 0.34921924355E+02
 0.52203678648E+02 0.76073234994E+02 0.10307032669E+03 0.12992079100E+03 0.15470240327E+03
 0.20895019641E+03 0.21710809796E+03 0.20860643213E+03 0.18702216366E+03 0.15928828776E+03
 0.12995920715E+03 0.10019695472E+03 0.71422835660E+02 0.47383073567E+02 0.31394789069E+02
 0.22699134320E+02 0.17619288264E+02 0.14380650926E+02 0.12374597778E+02 0.11302287822E+02
 0.10637237336E+02 0.10051075014E+02 0.97805504102E+01 0.10059333988E+02 0.10637828813E+02
 0.11293932707E+02 0.12373569325E+02 0.14389169899E+02 0.17620401577E+02 0.22691644588E+02
 0.31397583152E+02 0.47383972399E+02 0.71367740185E+02 0.10008445456E+03 0.12992079104E+03
 0.15948614275E+03 0.18742925259E+03 0.23662228499E+03 0.23637706201E+03 0.21710809793E+03
 0.18703338485E+03 0.15460828012E+03 0.12283803891E+03 0.91566482735E+02 0.62726464551E+02
 0.40638035015E+02 0.27428326207E+02 0.20377397240E+02 0.16013962462E+02 0.13254405718E+02
 0.11740694266E+02 0.10962223201E+02 0.10298523326E+02 0.97635846279E+01 0.97933943791E+01
 0.10338278671E+02 0.10945898905E+02 0.11695853217E+02 0.13255249294E+02 0.16057550757E+02
 0.20391330857E+02 0.27392389404E+02 0.40605774878E+02 0.62710854765E+02 0.91510997383E+02
 0.12276606287E+03 0.15470240332E+03 0.18742925261E+03 0.21762952838E+03 0.23662228499E+03
 0.21762952838E+03 0.18742925259E+03 0.15470240327E+03 0.12276606280E+03 0.91510997320E+02
 0.62710854729E+02 0.40605774873E+02 0.27392389424E+02 0.20391330894E+02 0.16057550803E+02
 0.13255249340E+02 0.11695853257E+02 0.10945898935E+02 0.10338278688E+02 0.97933943805E+01
 0.97635846117E+01 0.10298523293E+02 0.10962223154E+02 0.11740694209E+02 0.13254405657E+02
 0.16013962402E+02 0.20377397190E+02 0.27428326175E+02 0.40638035013E+02 0.62726464593E+02
 0.91566482826E+02 0.12283803903E+03 0.15460828024E+03 0.18703338492E+03 0.21710809796E+03
 0.23637706201E+03 0.21762952838E+03 0.19405597370E+03 0.16401995454E+03 0.13315736297E+03
 0.10271034352E+03 0.73504539077E+02 0.48878912332E+02 0.32275105329E+02 0.23224682249E+02
 0.18000362610E+02 0.14667136229E+02 0.12593464650E+02 0.11499460865E+02 0.10841381785E+02
 0.10245155872E+02 0.99508446275E+01 0.10233020341E+02 0.10840618579E+02 0.11511745368E+02
 0.12594969430E+02 0.14655193097E+02 0.17999096708E+02 0.23233671593E+02 0.32269031100E+02
 0.48886598392E+02 0.73612769491E+02 0.10290263406E+03 0.13319524679E+03 0.16363252602E+03
 0.19331066963E+03 0.21701226558E+03 0.22655220137E+03 0.18742925261E+03 0.16401995454E+03
 0.13683669536E+03 0.10860785795E+03 0.80611643938E+02 0.55546492835E+02 0.37002239650E+02
 0.26054728072E+02 0.19928327269E+02 0.16099010860E+02 0.13637925743E+02 0.12193513017E+02
 0.11376313533E+02 0.10724449162E+02 0.10240034965E+02 0.10253668100E+02 0.10745690436E+02
 0.11373480175E+02 0.12168791542E+02 0.13628047430E+02 0.16122640673E+02 0.19949704615E+02
 0.26027287300E+02 0.36951167744E+02 0.55570810591E+02 0.80763366211E+02 0.10877733051E+03
 0.13681475279E+03 0.16371898291E+03 0.18702730127E+03 0.20133439594E+03 0.20152086206E+03
 0.15470240332E+03 0.13315736297E+03 0.10860785794E+03 0.83117170352E+02 0.59285457360E+02
 0.40447666237E+02 0.28422903467E+02 0.21622526493E+02 0.17432072787E+02 0.14706148250E+02
 0.12939938072E+02 0.11893739554E+02 0.11185405912E+02 0.10596976115E+02 0.10332544908E+02
 0.10591090429E+02 0.11185410786E+02 0.11899953042E+02 0.12939523401E+02 0.14698779200E+02
 0.17433721316E+02 0.21631648785E+02 0.28407405403E+02 0.40392334596E+02 0.59238224541E+02
 0.83152076911E+02 0.10873697774E+03 0.13330898228E+03 0.15479944055E+03 0.17022186352E+03
 0.17593732210E+03 0.17018895504E+03 0.12276606287E+03 0.10271034352E+03 0.80611643920E+02
 0.59285457351E+02 0.41743143471E+02 0.29831478203E+02 0.22780039704E+02 0.18417860496E+02
 0.15628732596E+02 0.13710533627E+02 0.12405393543E+02 0.11527315113E+02 0.10872596303E+02
 0.10450425155E+02 0.10437133755E+02 0.10854564216E+02 0.11534313547E+02 0.12425992663E+02
 0.13710469878E+02 0.15608763380E+02 0.18415645309E+02 0.22805802586E+02 0.29836124390E+02
 0.41678600817E+02 0.59181698017E+02 0.80563445632E+02 0.10278381188E+03 0.12293313344E+03
 0.13845774769E+03 0.14699212913E+03 0.14692549179E+03 0.13829421007E+03 0.91510997383E+02
 0.73504539077E+02 0.55546492822E+02 0.40447666235E+02 0.29831478208E+02 0.23213149425E+02
 0.18943353401E+02 0.16201637167E+02 0.14309792113E+02 0.12901184898E+02 0.11829471280E+02
 0.11010969361E+02 0.10447618227E+02 0.10240383836E+02 0.10451046861E+02 0.11010956026E+02
 0.11826329700E+02 0.12901775278E+02 0.14312193418E+02 0.16198595370E+02 0.18945751286E+02
 0.23246232311E+02 0.29889094090E+02 0.40469664853E+02 0.55475013471E+02 0.73362349779E+02
 0.91391192523E+02 0.10667054817E+03 0.11683630462E+03 0.12038126280E+03 0.11682045771E+03
 0.10670603521E+03 0.62710854765E+02 0.48878912332E+02 0.37002239651E+02 0.28422903481E+02
 0.22780039724E+02 0.18943353416E+02 0.16399791498E+02 0.14619371634E+02 0.13233097656E+02
 0.12073024713E+02 0.11093318289E+02 0.10338385798E+02 0.99198202522E+01 0.99266460333E+01
 0.10346786396E+02 0.11088552378E+02 0.12063920869E+02 0.13235203869E+02 0.14623969473E+02
 0.16389052910E+02 0.18935330163E+02 0.22824163454E+02 0.28531455322E+02 0.37107887593E+02
 0.48888289790E+02 0.62597376755E+02 0.75914823952E+02 0.86380993131E+02 0.92122793428E+02
 0.92175509068E+02 0.86522900985E+02 0.76088098710E+02 0.40605774878E+02 0.32275105329E+02
 0.26054728087E+02 0.21622526525E+02 0.18417860535E+02 0.16201637199E+02 0.14619371649E+02
 0.13350288610E+02 0.12202212901E+02 0.11126272096E+02 0.10197027185E+02 0.95552823713E+01
 0.93254231068E+01 0.95554250987E+01 0.10196463445E+02 0.11125177536E+02 0.12203339413E+02
 0.13353990575E+02 0.14614011871E+02 0.16168805431E+02 0.18363399328E+02 0.21600473095E+02
 0.26133037344E+02 0.32454209006E+02 0.40783305159E+02 0.50154769770E+02 0.58824841683E+02
 0.64966246983E+02 0.67232580890E+02 0.65078124230E+02 0.58915340905E+02 0.50103186417E+02
 0.27392389404E+02 0.23224682249E+02 0.19928327295E+02 0.17432072833E+02 0.15628732646E+02
 0.14309792152E+02 0.13233097675E+02 0.12202212905E+02 0.11135517385E+02 0.10097444708E+02
 0.92552504988E+01 0.87808269721E+01 0.87788714353E+01 0.92528179623E+01 0.10098153721E+02
 0.11137667485E+02 0.12206460223E+02 0.13242456472E+02 0.14309134464E+02 0.15581083010E+02
 0.17325771385E+02 0.19826345498E+02 0.23229239783E+02 0.27536876317E+02 0.32792346201E+02
 0.38382821560E+02 0.43165128201E+02 0.45948045127E+02 0.45953523292E+02 0.43135752808E+02
 0.38253723684E+02 0.32594772261E+02 0.20391330857E+02 0.18000362610E+02 0.16099010892E+02
 0.14706148299E+02 0.13710533674E+02 0.12901184928E+02 0.12073024721E+02 0.11126272085E+02
 0.10097444695E+02 0.91405028507E+01 0.84514819751E+01 0.81957678471E+01 0.84455215327E+01
 0.91395441955E+01 0.10101579406E+02 0.11125200499E+02 0.12073507746E+02 0.12928286113E+02
 0.13762017730E+02 0.14724052451E+02 0.16019530638E+02 0.17836345149E+02 0.20241792362E+02
 0.23105811817E+02 0.26176277542E+02 0.29106272423E+02 0.31262982683E+02 0.32028496290E+02
 0.31163777792E+02 0.28964388649E+02 0.26085998897E+02 0.23141636576E+02 0.16057550757E+02
 0.14667136229E+02 0.13637925773E+02 0.12939938113E+02 0.12405393573E+02 0.11829471286E+02
 0.11093318268E+02 0.10197027145E+02 0.92552504551E+01 0.84514819448E+01 0.79797380527E+01
 0.79753923210E+01 0.84462960252E+01 0.92570514748E+01 0.10195820321E+02 0.11079740820E+02
 0.11826785754E+02 0.12456777016E+02 0.13048674597E+02 0.13734090027E+02 0.14658028250E+02
 0.15919664811E+02 0.17524312606E+02 0.19359357128E+02 0.21188813598E+02 0.22681161056E+02
 0.23505306577E+02 0.23468290040E+02 0.22616628917E+02 0.21192003165E+02 0.19480504535E+02
 0.17711765466E+02 0.13255249294E+02 0.12593464650E+02 0.12193513041E+02 0.11893739577E+02
 0.11527315116E+02 0.11010969334E+02 0.10338385740E+02 0.95552822920E+01 0.87808268861E+01
 0.81957677730E+01 0.79753922772E+01 0.81941658519E+01 0.87797539487E+01 0.95555806639E+01
 0.10332341753E+02 0.10985274322E+02 0.11487602053E+02 0.11883882347E+02 0.12265728193E+02
 0.12741818491E+02 0.13393504182E+02 0.14253333226E+02 0.15296978162E+02 0.16426671347E+02
 0.17463660137E+02 0.18193164473E+02 0.18456267036E+02 0.18215502904E+02 0.17539834805E+02
 0.16547391506E+02 0.15381437799E+02 0.14221099629E+02 0.11695853217E+02 0.11499460865E+02
 0.11376313546E+02 0.11185405914E+02 0.10872596275E+02 0.10447618163E+02 0.99198201511E+01
 0.93254229787E+01 0.87788712968E+01 0.84455214052E+01 0.84462959296E+01 0.87797538994E+01
 0.93283548915E+01 0.99289632202E+01 0.10447394310E+02 0.10825037177E+02 0.11079661835E+02
 0.11276256116E+02 0.11504603613E+02 0.11835739621E+02 0.12302437571E+02 0.12902957405E+02
 0.13596827261E+02 0.14291351060E+02 0.14855985822E+02 0.15175421745E+02 0.15193851151E+02
 0.14909810447E+02 0.14352836956E+02 0.13596377028E+02 0.12787470404E+02 0.12114077229E+02
 0.10945898905E+02 0.10841381785E+02 0.10724449164E+02 0.10596976093E+02 0.10450425094E+02
 0.10240383729E+02 0.99266458811E+01 0.95554249127E+01 0.92528177632E+01 0.91395440096E+01
 0.92570513272E+01 0.95555805694E+01 0.99289631791E+01 0.10263663847E+02 0.10488091035E+02
 0.10599487864E+02 0.10644911878E+02 0.10699372492E+02 0.10826741947E+02 0.11061121138E+02
 0.11409552668E+02 0.11850784444E+02 0.12328022270E+02 0.12758099769E+02 0.13059868893E+02
 0.13174997642E+02 0.13070014660E+02 0.12744855065E+02 0.12260337022E+02 0.11743974297E+02
 0.11331759600E+02 0.11081215721E+02 0.10338278671E+02 0.10245155872E+02 0.10240034953E+02
 0.10332544859E+02 0.10437133656E+02 0.10451046704E+02 0.10346786184E+02 0.10196463194E+02
 0.10098153458E+02 0.10101579165E+02 0.10195820130E+02 0.10332341626E+02 0.10447394244E+02
 0.10488091012E+02 0.10441300974E+02 0.10336966929E+02 0.10237583149E+02 0.10202180232E+02
 0.10264780477E+02 0.10435933794E+02 0.10703748616E+02 0.11028423004E+02 0.11349535692E+02
 0.11608045713E+02 0.11757643979E+02 0.11759792182E+02 0.11594133400E+02 0.11295087535E+02
 0.10963634744E+02 0.10707302627E+02 0.10555117295E+02 0.10450125201E+02 0.97933943791E+01
 0.99508446275E+01 0.10253668072E+02 0.10591090350E+02 0.10854564072E+02 0.11010955813E+02
 0.11088552103E+02 0.11125177222E+02 0.11137667167E+02 0.11125200216E+02 0.11079740603E+02
 0.10985274182E+02 0.10825037104E+02 0.10599487837E+02 0.10336966925E+02 0.10088419019E+02
 0.99031888593E+01 0.98138248746E+01 0.98336811110E+01 0.99541792240E+01 0.10142694674E+02
 0.10353115812E+02 0.10543284994E+02 0.10679605186E+02 0.10731038720E+02 0.10677742957E+02
 0.10535721028E+02 0.10358868787E+02 0.10197301316E+02 0.10056828918E+02 0.99192345900E+01
 0.98053869162E+01 0.97635846279E+01 0.10233020341E+02 0.10745690392E+02 0.11185410676E+02
 0.11534313360E+02 0.11826329435E+02 0.12063920541E+02 0.12203339053E+02 0.12206459873E+02
 0.12073507449E+02 0.11826785536E+02 0.11487601920E+02 0.11079661773E+02 0.10644911862E+02
 0.10237583153E+02 0.99031888671E+01 0.96689809667E+01 0.95461782343E+01 0.95271585971E+01
 0.95815819215E+01 0.96687814884E+01 0.97586831764E+01 0.98346670178E+01 0.98797547818E+01
 0.98776693176E+01 0.98338492681E+01 0.97766537028E+01 0.97205046526E+01 0.96424537350E+01
 0.95259214175E+01 0.94299422531E+01 0.94805232782E+01 0.10298523326E+02 0.10840618579E+02
 0.11373480116E+02 0.11899952905E+02 0.12425992441E+02 0.12901774976E+02 0.13235203511E+02
 0.13353990199E+02 0.13242456125E+02 0.12928285834E+02 0.12456776825E+02 0.11883882243E+02
 0.11276256079E+02 0.10699372496E+02 0.10202180254E+02 0.98138248988E+01 0.95461782507E+01
 0.93895896904E+01 0.93106401448E+01 0.92678119260E+01 0.92352420633E+01 0.92084300528E+01
 0.91901140113E+01 0.91813645440E+01 0.91868149170E+01 0.92124273195E+01 0.92477245653E+01
 0.92650578232E+01 0.92598082943E+01 0.92907725785E+01 0.94551520929E+01 0.98053869508E+01
 0.10962223201E+02 0.11511745368E+02 0.12168791472E+02 0.12939523247E+02 0.13710469638E+02
 0.14312193106E+02 0.14623969119E+02 0.14614011518E+02 0.14309134156E+02 0.13762017500E+02
 0.13048674457E+02 0.12265728132E+02 0.11504603611E+02 0.10826741979E+02 0.10264780525E+02
 0.98336811618E+01 0.95271586412E+01 0.93106401729E+01 0.91365366707E+01 0.89741139773E+01
 0.88219998867E+01 0.86968030844E+01 0.86209583019E+01 0.86174991662E+01 0.86946783019E+01
 0.88252387346E+01 0.89596021658E+01 0.90819749822E+01 0.92463912733E+01 0.95312787225E+01