   3   3   0   0
  0.1800000E+02  0.4242641E-09  0.4242641E-09  0.4242641E-09  0.5000000E-15
  1.000000000000000E-004
  CAR 
 AuAl2                                   
     19.98382039     -4.91356171  301      7.61621795      1.00000000
     -4.914  0.0000E+00  0.0000E+00
     -4.831  0.0000E+00  0.0000E+00
     -4.748  0.0000E+00  0.0000E+00
     -4.665  0.0000E+00  0.0000E+00
     -4.582 -0.6798E-31 -0.5641E-32
     -4.499 -0.5529E-28 -0.4595E-29
     -4.416 -0.3176E-25 -0.2641E-26
     -4.333 -0.1290E-22 -0.1073E-23
     -4.250 -0.3699E-20 -0.3080E-21
     -4.167 -0.7494E-18 -0.6250E-19
     -4.084 -0.1046E-15 -0.8739E-17
     -4.001 -0.1047E-13 -0.8777E-15
     -3.918 -0.7424E-12 -0.6249E-13
     -3.835 -0.3709E-10 -0.3140E-11
     -3.752 -0.1305E-08 -0.1114E-09
     -3.669 -0.3228E-07 -0.2790E-08
     -3.586 -0.5611E-06 -0.4936E-07
     -3.503 -0.6834E-05 -0.6165E-06
     -3.420 -0.5804E-04 -0.5433E-05
     -3.337 -0.3401E-03 -0.3366E-04
     -3.254 -0.1341E-02 -0.1450E-03
     -3.171 -0.3313E-02 -0.4199E-03
     -3.088 -0.3724E-02 -0.7290E-03
     -3.005  0.5342E-02 -0.2856E-03
     -2.922  0.3249E-01  0.2411E-02
     -2.839  0.7614E-01  0.8730E-02
     -2.756  0.1244E+00  0.1906E-01
     -2.673  0.1670E+00  0.3292E-01
     -2.590  0.1985E+00  0.4939E-01
     -2.507  0.2210E+00  0.6773E-01
     -2.424  0.2478E+00  0.8830E-01
     -2.341  0.2794E+00  0.1115E+00
     -2.258  0.2975E+00  0.1362E+00
     -2.175  0.3052E+00  0.1615E+00
     -2.092  0.3271E+00  0.1886E+00
     -2.009  0.3664E+00  0.2191E+00
     -1.926  0.4014E+00  0.2524E+00
     -1.843  0.4096E+00  0.2864E+00
     -1.760  0.3983E+00  0.3194E+00
     -1.677  0.4161E+00  0.3539E+00
     -1.594  0.4840E+00  0.3941E+00
     -1.511  0.5453E+00  0.4394E+00
     -1.428  0.5510E+00  0.4851E+00
     -1.345  0.5364E+00  0.5296E+00
     -1.262  0.5555E+00  0.5757E+00
     -1.179  0.6159E+00  0.6268E+00
     -1.096  0.7156E+00  0.6862E+00
     -1.013  0.8532E+00  0.7570E+00
     -0.930  0.9696E+00  0.8375E+00
     -0.847  0.9970E+00  0.9202E+00
     -0.764  0.9524E+00  0.9993E+00
     -0.681  0.9020E+00  0.1074E+01
     -0.598  0.9153E+00  0.1150E+01
     -0.515  0.1012E+01  0.1234E+01
     -0.432  0.1080E+01  0.1324E+01
     -0.349  0.9911E+00  0.1406E+01
     -0.266  0.8126E+00  0.1473E+01
     -0.183  0.7576E+00  0.1536E+01
     -0.100  0.9418E+00  0.1614E+01
     -0.017  0.1278E+01  0.1720E+01
      0.066  0.1676E+01  0.1860E+01
      0.149  0.2397E+01  0.2058E+01
      0.232  0.3892E+01  0.2381E+01
      0.315  0.5833E+01  0.2866E+01
      0.398  0.6864E+01  0.3435E+01
      0.481  0.6241E+01  0.3953E+01
      0.564  0.4889E+01  0.4359E+01
      0.647  0.4007E+01  0.4691E+01
      0.730  0.3709E+01  0.4999E+01
      0.813  0.3527E+01  0.5292E+01
      0.896  0.3196E+01  0.5557E+01
      0.979  0.2623E+01  0.5775E+01
      1.062  0.1766E+01  0.5921E+01
      1.145  0.7916E+00  0.5987E+01
      1.228  0.5582E-01  0.5992E+01
      1.311 -0.1185E+00  0.5982E+01
      1.394  0.5320E+00  0.6026E+01
      1.477  0.2145E+01  0.6204E+01
      1.560  0.4317E+01  0.6562E+01
      1.643  0.5973E+01  0.7058E+01
      1.726  0.6219E+01  0.7574E+01
      1.809  0.5490E+01  0.8030E+01
      1.892  0.5177E+01  0.8459E+01
      1.975  0.5664E+01  0.8930E+01
      2.058  0.5688E+01  0.9402E+01
      2.141  0.4461E+01  0.9772E+01
      2.224  0.3270E+01  0.1004E+02
      2.307  0.3830E+01  0.1036E+02
      2.390  0.5707E+01  0.1083E+02
      2.473  0.6593E+01  0.1138E+02
      2.556  0.5186E+01  0.1181E+02
      2.639  0.2698E+01  0.1204E+02
      2.722  0.1032E+01  0.1212E+02
      2.805  0.6419E+00  0.1218E+02
      2.888  0.8247E+00  0.1224E+02
      2.971  0.1056E+01  0.1233E+02
      3.054  0.1292E+01  0.1244E+02
      3.137  0.1469E+01  0.1256E+02
      3.220  0.1422E+01  0.1268E+02
      3.303  0.1207E+01  0.1278E+02
      3.386  0.1047E+01  0.1287E+02
      3.469  0.1008E+01  0.1295E+02
      3.552  0.9564E+00  0.1303E+02
      3.635  0.8068E+00  0.1310E+02
      3.718  0.6513E+00  0.1315E+02
      3.801  0.6439E+00  0.1320E+02
      3.884  0.7715E+00  0.1327E+02
      3.967  0.8494E+00  0.1334E+02
      4.049  0.7909E+00  0.1340E+02
      4.132  0.6979E+00  0.1346E+02
      4.215  0.6871E+00  0.1352E+02
      4.298  0.7947E+00  0.1358E+02
      4.381  0.9537E+00  0.1366E+02
      4.464  0.9987E+00  0.1375E+02
      4.547  0.8557E+00  0.1382E+02
      4.630  0.6950E+00  0.1387E+02
      4.713  0.7241E+00  0.1393E+02
      4.796  0.9087E+00  0.1401E+02
      4.879  0.1050E+01  0.1410E+02
      4.962  0.1038E+01  0.1418E+02
      5.045  0.9213E+00  0.1426E+02
      5.128  0.7977E+00  0.1433E+02
      5.211  0.6957E+00  0.1438E+02
      5.294  0.6352E+00  0.1444E+02
      5.377  0.7302E+00  0.1450E+02
      5.460  0.1027E+01  0.1458E+02
      5.543  0.1326E+01  0.1469E+02
      5.626  0.1392E+01  0.1481E+02
      5.709  0.1266E+01  0.1491E+02
      5.792  0.1147E+01  0.1501E+02
      5.875  0.1087E+01  0.1510E+02
      5.958  0.1095E+01  0.1519E+02
      6.041  0.1254E+01  0.1529E+02
      6.124  0.1486E+01  0.1542E+02
      6.207  0.1517E+01  0.1554E+02
      6.290  0.1267E+01  0.1565E+02
      6.373  0.9870E+00  0.1573E+02
      6.456  0.9312E+00  0.1581E+02
      6.539  0.1076E+01  0.1590E+02
      6.622  0.1221E+01  0.1600E+02
      6.705  0.1251E+01  0.1610E+02
      6.788  0.1193E+01  0.1620E+02
      6.871  0.1077E+01  0.1629E+02
      6.954  0.9547E+00  0.1637E+02
      7.037  0.9455E+00  0.1645E+02
      7.120  0.1073E+01  0.1654E+02
      7.203  0.1171E+01  0.1663E+02
      7.286  0.1090E+01  0.1672E+02
      7.369  0.9124E+00  0.1680E+02
      7.452  0.8115E+00  0.1687E+02
      7.535  0.7997E+00  0.1693E+02
      7.618  0.8214E+00  0.1700E+02
      7.701  0.9281E+00  0.1708E+02
      7.784  0.1073E+01  0.1717E+02
      7.867  0.1022E+01  0.1725E+02
      7.950  0.7325E+00  0.1731E+02
      8.033  0.4687E+00  0.1735E+02
      8.116  0.4196E+00  0.1739E+02
      8.199  0.5116E+00  0.1743E+02
      8.282  0.6178E+00  0.1748E+02
      8.365  0.6799E+00  0.1754E+02
      8.448  0.6548E+00  0.1759E+02
      8.531  0.5336E+00  0.1764E+02
      8.614  0.3835E+00  0.1767E+02
      8.697  0.2858E+00  0.1769E+02
      8.780  0.2680E+00  0.1771E+02
      8.863  0.3187E+00  0.1774E+02
      8.946  0.4129E+00  0.1777E+02
      9.029  0.5041E+00  0.1782E+02
      9.112  0.5625E+00  0.1786E+02
      9.195  0.6329E+00  0.1792E+02
      9.278  0.7458E+00  0.1798E+02
      9.361  0.8405E+00  0.1805E+02
      9.444  0.8742E+00  0.1812E+02
      9.527  0.8734E+00  0.1819E+02
      9.610  0.8991E+00  0.1827E+02
      9.693  0.1024E+01  0.1835E+02
      9.776  0.1211E+01  0.1845E+02
      9.859  0.1320E+01  0.1856E+02
      9.942  0.1352E+01  0.1867E+02
     10.025  0.1410E+01  0.1879E+02
     10.108  0.1479E+01  0.1891E+02
     10.191  0.1505E+01  0.1904E+02
     10.274  0.1571E+01  0.1917E+02
     10.357  0.1784E+01  0.1932E+02
     10.440  0.2011E+01  0.1948E+02
     10.523  0.2004E+01  0.1965E+02
     10.606  0.1795E+01  0.1980E+02
     10.689  0.1610E+01  0.1993E+02
     10.772  0.1430E+01  0.2005E+02
     10.855  0.1113E+01  0.2014E+02
     10.938  0.7477E+00  0.2021E+02
     11.021  0.5259E+00  0.2025E+02
     11.104  0.5074E+00  0.2029E+02
     11.187  0.6866E+00  0.2035E+02
     11.270  0.1040E+01  0.2043E+02
     11.353  0.1492E+01  0.2056E+02
     11.436  0.1950E+01  0.2072E+02
     11.519  0.2262E+01  0.2091E+02
     11.602  0.2263E+01  0.2110E+02
     11.685  0.2012E+01  0.2126E+02
     11.768  0.1781E+01  0.2141E+02
     11.851  0.1699E+01  0.2155E+02
     11.934  0.1682E+01  0.2169E+02
     12.017  0.1704E+01  0.2183E+02
     12.100  0.1758E+01  0.2198E+02
     12.183  0.1709E+01  0.2212E+02
     12.266  0.1585E+01  0.2225E+02
     12.349  0.1642E+01  0.2239E+02
     12.432  0.1894E+01  0.2255E+02
     12.515  0.2060E+01  0.2272E+02
     12.598  0.2027E+01  0.2288E+02
     12.681  0.1938E+01  0.2305E+02
     12.764  0.1934E+01  0.2321E+02
     12.847  0.2063E+01  0.2338E+02
     12.930  0.2223E+01  0.2356E+02
     13.013  0.2222E+01  0.2375E+02
     13.096  0.2066E+01  0.2392E+02
     13.179  0.1935E+01  0.2408E+02
     13.262  0.1873E+01  0.2423E+02
     13.345  0.1818E+01  0.2438E+02
     13.428  0.1799E+01  0.2453E+02
     13.511  0.1837E+01  0.2469E+02
     13.593  0.1848E+01  0.2484E+02
     13.676  0.1776E+01  0.2499E+02
     13.759  0.1681E+01  0.2513E+02
     13.842  0.1632E+01  0.2526E+02
     13.925  0.1652E+01  0.2540E+02
     14.008  0.1754E+01  0.2554E+02
     14.091  0.1835E+01  0.2570E+02
     14.174  0.1741E+01  0.2584E+02
     14.257  0.1516E+01  0.2597E+02
     14.340  0.1329E+01  0.2608E+02
     14.423  0.1272E+01  0.2618E+02
     14.506  0.1387E+01  0.2630E+02
     14.589  0.1673E+01  0.2644E+02
     14.672  0.1958E+01  0.2660E+02
     14.755  0.1985E+01  0.2676E+02
     14.838  0.1732E+01  0.2691E+02
     14.921  0.1469E+01  0.2703E+02
     15.004  0.1413E+01  0.2715E+02
     15.087  0.1493E+01  0.2727E+02
     15.170  0.1518E+01  0.2740E+02
     15.253  0.1446E+01  0.2752E+02
     15.336  0.1336E+01  0.2763E+02
     15.419  0.1244E+01  0.2773E+02
     15.502  0.1237E+01  0.2783E+02
     15.585  0.1308E+01  0.2794E+02
     15.668  0.1349E+01  0.2805E+02
     15.751  0.1333E+01  0.2817E+02
     15.834  0.1361E+01  0.2828E+02
     15.917  0.1456E+01  0.2840E+02
     16.000  0.1505E+01  0.2852E+02
     16.083  0.1447E+01  0.2864E+02
     16.166  0.1336E+01  0.2875E+02
     16.249  0.1245E+01  0.2886E+02
     16.332  0.1181E+01  0.2896E+02
     16.415  0.1133E+01  0.2905E+02
     16.498  0.1180E+01  0.2915E+02
     16.581  0.1327E+01  0.2926E+02
     16.664  0.1349E+01  0.2937E+02
     16.747  0.1094E+01  0.2946E+02
     16.830  0.7547E+00  0.2952E+02
     16.913  0.6003E+00  0.2957E+02
     16.996  0.6370E+00  0.2963E+02
     17.079  0.6862E+00  0.2968E+02
     17.162  0.6424E+00  0.2974E+02
     17.245  0.5504E+00  0.2978E+02
     17.328  0.4862E+00  0.2982E+02
     17.411  0.4226E+00  0.2986E+02
     17.494  0.2934E+00  0.2988E+02
     17.577  0.1503E+00  0.2989E+02
     17.660  0.1104E+00  0.2990E+02
     17.743  0.1860E+00  0.2992E+02
     17.826  0.2789E+00  0.2994E+02
     17.909  0.3011E+00  0.2997E+02
     17.992  0.2389E+00  0.2999E+02
     18.075  0.1338E+00  0.3000E+02
     18.158  0.4264E-01  0.3000E+02
     18.241 -0.2304E-02  0.3000E+02
     18.324 -0.9938E-02  0.3000E+02
     18.407 -0.5208E-02  0.3000E+02
     18.490 -0.1516E-02  0.3000E+02
     18.573 -0.2828E-03  0.3000E+02
     18.656 -0.3536E-04  0.3000E+02
     18.739 -0.3025E-05  0.3000E+02
     18.822 -0.1790E-06  0.3000E+02
     18.905 -0.7373E-08  0.3000E+02
     18.988 -0.2123E-09  0.3000E+02
     19.071 -0.4286E-11  0.3000E+02
     19.154 -0.6080E-13  0.3000E+02
     19.237 -0.6100E-15  0.3000E+02
     19.320  0.0000E+00  0.3000E+02
     19.403  0.0000E+00  0.3000E+02
     19.486  0.0000E+00  0.3000E+02
     19.569  0.0000E+00  0.3000E+02
     19.652  0.0000E+00  0.3000E+02
     19.735  0.0000E+00  0.3000E+02
     19.818  0.0000E+00  0.3000E+02
     19.901  0.0000E+00  0.3000E+02
     19.984  0.0000E+00  0.3000E+02
