    3    3    1    1
  0.1800000E+02  0.4242641E-09  0.4242641E-09  0.4242641E-09  0.5000000E-15
  1.000000000000000E-004
  CAR 
 AuAl2                                   
     17    670     30
 
  0.5000000E-01  0.5000000E-01  0.5000000E-01  0.5000000E-03
    1       -2.913562
    2       -2.912807
    3        0.420522
    4        0.420731
    5        0.424212
    6        0.425919
    7        1.445848
    8        1.446543
    9        2.198908
   10        2.200839
   11        2.210188
   12        2.212128
   13        9.250209
   14        9.250535
   15        9.690613
   16        9.692776
   17       10.498086
   18       10.498522
   19       10.720399
   20       10.720645
   21       11.661231
   22       11.662526
   23       11.701223
   24       11.702516
   25       12.174811
   26       12.175762
   27       13.142334
   28       13.143377
   29       13.247897
   30       13.265322
 
  0.5000000E-01  0.0000000E+00  0.0000000E+00  0.1500000E-02
    1       -2.913562
    2       -2.912806
    3        0.420272
    4        0.421349
    5        0.424553
    6        0.425192
    7        1.445880
    8        1.446519
    9        2.199289
   10        2.199980
   11        2.211067
   12        2.211746
   13        9.250214
   14        9.250539
   15        9.690620
   16        9.692759
   17       10.498121
   18       10.498471
   19       10.720479
   20       10.720561
   21       11.661632
   22       11.662165
   23       11.701647
   24       11.702078
   25       12.174636
   26       12.175911
   27       13.142623
   28       13.143110
   29       13.247261
   30       13.256440
 
  0.1500000E+00  0.5000000E-01  0.5000000E-01  0.1500000E-02
    1       -2.739889
    2       -2.739136
    3        0.410148
    4        0.411060
    5        0.446257
    6        0.447263
    7        1.459459
    8        1.460171
    9        2.161980
   10        2.162788
   11        2.231578
   12        2.232463
   13        8.122257
   14        8.122902
   15        9.073656
   16        9.074456
   17       10.067393
   18       10.068388
   19       10.504042
   20       10.504458
   21       11.697780
   22       11.699536
   23       12.356086
   24       12.357710
   25       12.692787
   26       12.694327
   27       12.781831
   28       12.783193
   29       13.221567
   30       13.222367
 
  0.5000000E-01  0.0000000E+00 -0.1000000E+00  0.1500000E-02
    1       -2.739890
    2       -2.739136
    3        0.410074
    4        0.411291
    5        0.446428
    6        0.446892
    7        1.459561
    8        1.460096
    9        2.161734
   10        2.162854
   11        2.231577
   12        2.232705
   13        8.122231
   14        8.122931
   15        9.073551
   16        9.074557
   17       10.067253
   18       10.068483
   19       10.503911
   20       10.504503
   21       11.697905
   22       11.699584
   23       12.356032
   24       12.357651
   25       12.692799
   26       12.694367
   27       12.781834
   28       12.783227
   29       13.221088
   30       13.222412
 
  0.1500000E+00  0.1000000E+00  0.1000000E+00  0.1500000E-02
    1       -2.739889
    2       -2.739135
    3        0.410229
    4        0.410844
    5        0.446160
    6        0.447542
    7        1.459372
    8        1.460232
    9        2.161600
   10        2.163323
   11        2.231039
   12        2.232792
   13        8.122280
   14        8.122892
   15        9.073662
   16        9.074456
   17       10.067399
   18       10.068367
   19       10.503990
   20       10.504441
   21       11.697929
   22       11.699617
   23       12.356141
   24       12.357694
   25       12.692766
   26       12.694327
   27       12.781763
   28       12.783192
   29       13.221302
   30       13.222360
 
  0.5000000E-01 -0.1000000E+00  0.0000000E+00  0.1500000E-02
    1       -2.739890
    2       -2.739136
    3        0.410074
    4        0.411291
    5        0.446428
    6        0.446892
    7        1.459561
    8        1.460096
    9        2.161734
   10        2.162854
   11        2.231577
   12        2.232705
   13        8.122231
   14        8.122931
   15        9.073551
   16        9.074557
   17       10.067253
   18       10.068483
   19       10.503911
   20       10.504503
   21       11.697905
   22       11.699584
   23       12.356032
   24       12.357651
   25       12.692799
   26       12.694367
   27       12.781834
   28       12.783227
   29       13.221156
   30       13.222415
 
  0.2500000E+00  0.5000000E-01  0.5000000E-01  0.1500000E-02
    1       -2.320818
    2       -2.320065
    3        0.394467
    4        0.395630
    5        0.481274
    6        0.482078
    7        1.511203
    8        1.511912
    9        2.084533
   10        2.084965
   11        2.292084
   12        2.292665
   13        6.174476
   14        6.175473
   15        8.409684
   16        8.410220
   17        9.546027
   18        9.546137
   19       10.443043
   20       10.445003
   21       11.744146
   22       11.745483
   23       11.947492
   24       11.948966
   25       12.910162
   26       12.911877
   27       13.145572
   28       13.146315
   29       13.321565
   30       13.322999
 
  0.5000000E-01  0.0000000E+00 -0.2000000E+00  0.1500000E-02
    1       -2.320818
    2       -2.320065
    3        0.394399
    4        0.395796
    5        0.481337
    6        0.481841
    7        1.511349
    8        1.511799
    9        2.084237
   10        2.085150
   11        2.292015
   12        2.292946
   13        6.174468
   14        6.175469
   15        8.409642
   16        8.410269
   17        9.545955
   18        9.546072
   19       10.443054
   20       10.445008
   21       11.744544
   22       11.745293
   23       11.947726
   24       11.948658
   25       12.910195
   26       12.911781
   27       13.145600
   28       13.146236
   29       13.321526
   30       13.323125
 
  0.2500000E+00  0.2000000E+00  0.2000000E+00  0.1500000E-02
    1       -2.320817
    2       -2.320062
    3        0.394557
    4        0.395368
    5        0.481084
    6        0.482646
    7        1.510878
    8        1.512154
    9        2.083883
   10        2.085753
   11        2.291217
   12        2.293122
   13        6.174498
   14        6.175475
   15        8.409672
   16        8.410225
   17        9.545878
   18        9.546111
   19       10.443065
   20       10.445020
   21       11.744200
   22       11.745994
   23       11.947332
   24       11.949360
   25       12.910256
   26       12.911895
   27       13.145246
   28       13.146416
   29       13.321330
   30       13.323158
 
  0.5000000E-01 -0.2000000E+00  0.0000000E+00  0.1500000E-02
    1       -2.320818
    2       -2.320065
    3        0.394399
    4        0.395796
    5        0.481337
    6        0.481841
    7        1.511349
    8        1.511799
    9        2.084237
   10        2.085150
   11        2.292015
   12        2.292946
   13        6.174468
   14        6.175469
   15        8.409642
   16        8.410269
   17        9.545955
   18        9.546071
   19       10.443054
   20       10.445008
   21       11.744544
   22       11.745293
   23       11.947726
   24       11.948658
   25       12.910195
   26       12.911781
   27       13.145600
   28       13.146236
   29       13.321526
   30       13.323125
 
  0.3500000E+00  0.5000000E-01  0.5000000E-01  0.1500000E-02
    1       -1.716002
    2       -1.715225
    3        0.412768
    4        0.413884
    5        0.517212
    6        0.517911
    7        1.595497
    8        1.596205
    9        1.993215
   10        1.993535
   11        2.387231
   12        2.387689
   13        4.356059
   14        4.357219
   15        7.875889
   16        7.876230
   17        8.797909
   18        8.797987
   19       10.633889
   20       10.636157
   21       11.344695
   22       11.346251
   23       11.629018
   24       11.630363
   25       12.433463
   26       12.435452
   27       14.221511
   28       14.222472
   29       14.440689
   30       14.441747
 
  0.5000000E-01  0.0000000E+00 -0.3000000E+00  0.1500000E-02
    1       -1.716000
    2       -1.715224
    3        0.412667
    4        0.414102
    5        0.517170
    6        0.517735
    7        1.595612
    8        1.596119
    9        1.992927
   10        1.993763
   11        2.387116
   12        2.387994
   13        4.356036
   14        4.357202
   15        7.875869
   16        7.876276
   17        8.797848
   18        8.797917
   19       10.633933
   20       10.636202
   21       11.344534
   22       11.346116
   23       11.629191
   24       11.630524
   25       12.433451
   26       12.435426
   27       14.221828
   28       14.222141
   29       14.440848
   30       14.441573
 
  0.3500000E+00  0.3000000E+00  0.3000000E+00  0.1500000E-02
    1       -1.715998
    2       -1.715220
    3        0.412809
    4        0.413824
    5        0.516989
    6        0.518550
    7        1.595003
    8        1.596645
    9        1.992436
   10        1.994321
   11        2.386186
   12        2.388168
   13        4.356090
   14        4.357216
   15        7.875870
   16        7.876253
   17        8.797754
   18        8.797965
   19       10.633963
   20       10.636219
   21       11.344422
   22       11.346653
   23       11.628931
   24       11.631142
   25       12.433557
   26       12.435599
   27       14.221274
   28       14.222596
   29       14.440425
   30       14.441912
 
  0.5000000E-01 -0.3000000E+00  0.0000000E+00  0.1500000E-02
    1       -1.716000
    2       -1.715224
    3        0.412667
    4        0.414102
    5        0.517170
    6        0.517735
    7        1.595612
    8        1.596119
    9        1.992927
   10        1.993763
   11        2.387116
   12        2.387994
   13        4.356036
   14        4.357202
   15        7.875869
   16        7.876276
   17        8.797848
   18        8.797917
   19       10.633933
   20       10.636202
   21       11.344534
   22       11.346116
   23       11.629191
   24       11.630524
   25       12.433451
   26       12.435426
   27       14.221828
   28       14.222141
   29       14.440848
   30       14.441573
 
  0.4500000E+00  0.5000000E-01  0.5000000E-01  0.1500000E-02
    1       -1.123715
    2       -1.122811
    3        0.502210
    4        0.502629
    5        0.673366
    6        0.674588
    7        1.624711
    8        1.625277
    9        1.836531
   10        1.836789
   11        2.478132
   12        2.478314
   13        2.974911
   14        2.976163
   15        7.538653
   16        7.538822
   17        8.257137
   18        8.257197
   19       10.660722
   20       10.662982
   21       11.208563
   22       11.210690
   23       11.489039
   24       11.490515
   25       12.053321
   26       12.055237
   27       15.421013
   28       15.421843
   29       15.810536
   30       15.811595
 
  0.5000000E-01  0.0000000E+00 -0.4000000E+00  0.1500000E-02
    1       -1.123711
    2       -1.122808
    3        0.502122
    4        0.502809
    5        0.673386
    6        0.674351
    7        1.624760
    8        1.625294
    9        1.836301
   10        1.837045
   11        2.477841
   12        2.478767
   13        2.974815
   14        2.976140
   15        7.538643
   16        7.538875
   17        8.257097
   18        8.257159
   19       10.660720
   20       10.662974
   21       11.208335
   22       11.210570
   23       11.489224
   24       11.490774
   25       12.053284
   26       12.055173
   27       15.421369
   28       15.421469
   29       15.810691
   30       15.811424
 
  0.4500000E+00  0.4000000E+00  0.4000000E+00  0.1500000E-02
    1       -1.123701
    2       -1.122806
    3        0.501935
    4        0.503632
    5        0.673450
    6        0.674215
    7        1.624078
    8        1.625666
    9        1.835950
   10        1.837662
   11        2.476869
   12        2.478890
   13        2.974971
   14        2.975973
   15        7.538629
   16        7.538860
   17        8.257027
   18        8.257201
   19       10.660817
   20       10.663093
   21       11.208357
   22       11.210860
   23       11.489068
   24       11.491274
   25       12.053363
   26       12.055505
   27       15.420968
   28       15.421887
   29       15.810463
   30       15.811663
 
  0.5000000E-01 -0.4000000E+00  0.0000000E+00  0.1500000E-02
    1       -1.123711
    2       -1.122808
    3        0.502122
    4        0.502809
    5        0.673386
    6        0.674351
    7        1.624760
    8        1.625294
    9        1.836301
   10        1.837045
   11        2.477841
   12        2.478767
   13        2.974815
   14        2.976140
   15        7.538643
   16        7.538875
   17        8.257097
   18        8.257159
   19       10.660720
   20       10.662974
   21       11.208335
   22       11.210570
   23       11.489224
   24       11.490774
   25       12.053284
   26       12.055173
   27       15.421369
   28       15.421469
   29       15.810691
   30       15.811424
 
 -0.4500000E+00  0.5000000E-01  0.5000000E-01  0.1500000E-02
    1       -0.933650
    2       -0.932643
    3        0.513286
    4        0.513839
    5        1.016840
    6        1.017424
    7        1.380756
    8        1.381259
    9        1.744422
   10        1.745125
   11        2.515879
   12        2.516966
   13        2.590978
   14        2.592078
   15        7.479033
   16        7.479104
   17        8.073322
   18        8.073394
   19       10.576036
   20       10.578345
   21       11.334379
   22       11.337014
   23       11.475116
   24       11.476485
   25       11.870318
   26       11.871736
   27       15.877382
   28       15.877910
   29       16.545150
   30       16.545472
 
  0.5000000E-01  0.0000000E+00  0.5000000E+00  0.1500000E-02
    1       -0.933652
    2       -0.932646
    3        0.513243
    4        0.513872
    5        1.016715
    6        1.017656
    7        1.380668
    8        1.381238
    9        1.744464
   10        1.745084
   11        2.516100
   12        2.516591
   13        2.591015
   14        2.592195
   15        7.479029
   16        7.479154
   17        8.073320
   18        8.073401
   19       10.575913
   20       10.578232
   21       11.334362
   22       11.336981
   23       11.475320
   24       11.476658
   25       11.870229
   26       11.871650
   27       15.877292
   28       15.878001
   29       16.545192
   30       16.545502
 
 -0.4500000E+00  0.5000000E+00  0.5000000E+00  0.1500000E-02
    1       -0.933633
    2       -0.932647
    3        0.513036
    4        0.514838
    5        1.016588
    6        1.017481
    7        1.380273
    8        1.381099
    9        1.744192
   10        1.746141
   11        2.514924
   12        2.516996
   13        2.591275
   14        2.591621
   15        7.478997
   16        7.479152
   17        8.073247
   18        8.073441
   19       10.576086
   20       10.578422
   21       11.334396
   22       11.336989
   23       11.475158
   24       11.477229
   25       11.870117
   26       11.872299
   27       15.877251
   28       15.878146
   29       16.545088
   30       16.545763
 
  0.5000000E-01  0.5000000E+00  0.0000000E+00  0.1500000E-02
    1       -0.933652
    2       -0.932646
    3        0.513243
    4        0.513872
    5        1.016715
    6        1.017656
    7        1.380668
    8        1.381238
    9        1.744464
   10        1.745084
   11        2.516100
   12        2.516591
   13        2.591015
   14        2.592195
   15        7.479029
   16        7.479154
   17        8.073320
   18        8.073401
   19       10.575913
   20       10.578232
   21       11.334362
   22       11.336981
   23       11.475320
   24       11.476658
   25       11.870229
   26       11.871650
   27       15.877292
   28       15.878001
   29       16.545192
   30       16.545502
 
 -0.3500000E+00  0.5000000E-01  0.5000000E-01  0.1500000E-02
    1       -1.296383
    2       -1.295538
    3        0.479113
    4        0.479857
    5        0.575891
    6        0.576196
    7        1.633130
    8        1.633666
    9        1.910000
   10        1.910906
   11        2.452370
   12        2.453403
   13        3.352124
   14        3.353411
   15        7.707442
   16        7.707556
   17        8.300671
   18        8.300810
   19       10.536928
   20       10.539299
   21       11.377233
   22       11.379312
   23       11.721822
   24       11.722457
   25       11.956337
   26       11.957385
   27       14.722018
   28       14.723291
   29       15.903833
   30       15.904526
 
  0.5000000E-01  0.0000000E+00  0.4000000E+00  0.1500000E-02
    1       -1.296386
    2       -1.295542
    3        0.479001
    4        0.479829
    5        0.575642
    6        0.576682
    7        1.633078
    8        1.633683
    9        1.910213
   10        1.910681
   11        2.452554
   12        2.453079
   13        3.352170
   14        3.353435
   15        7.707481
   16        7.707545
   17        8.300718
   18        8.300866
   19       10.536767
   20       10.539150
   21       11.377313
   22       11.379374
   23       11.721808
   24       11.722678
   25       11.956165
   26       11.957363
   27       14.722008
   28       14.723331
   29       15.904116
   30       15.904298
 
 -0.3500000E+00 -0.4000000E+00 -0.4000000E+00  0.1500000E-02
    1       -1.296378
    2       -1.295536
    3        0.478924
    4        0.480349
    5        0.575650
    6        0.576720
    7        1.632483
    8        1.634201
    9        1.909557
   10        1.911366
   11        2.451433
   12        2.453469
   13        3.352237
   14        3.353370
   15        7.707405
   16        7.707587
   17        8.300596
   18        8.300901
   19       10.536943
   20       10.539315
   21       11.377259
   22       11.379596
   23       11.721347
   24       11.723447
   25       11.955912
   26       11.958105
   27       14.721959
   28       14.723302
   29       15.903895
   30       15.904749
 
  0.5000000E-01  0.4000000E+00  0.0000000E+00  0.1500000E-02
    1       -1.296386
    2       -1.295542
    3        0.479001
    4        0.479829
    5        0.575642
    6        0.576682
    7        1.633078
    8        1.633683
    9        1.910213
   10        1.910681
   11        2.452554
   12        2.453079
   13        3.352170
   14        3.353435
   15        7.707481
   16        7.707545
   17        8.300718
   18        8.300866
   19       10.536767
   20       10.539150
   21       11.377313
   22       11.379374
   23       11.721808
   24       11.722678
   25       11.956165
   26       11.957363
   27       14.722008
   28       14.723331
   29       15.904112
   30       15.904295
 
 -0.2500000E+00  0.5000000E-01  0.5000000E-01  0.1500000E-02
    1       -1.930313
    2       -1.929550
    3        0.394479
    4        0.395927
    5        0.506992
    6        0.507423
    7        1.566940
    8        1.567363
    9        2.025667
   10        2.026624
   11        2.352748
   12        2.353740
   13        4.928905
   14        4.930015
   15        8.178826
   16        8.179098
   17        8.836916
   18        8.837234
   19       10.495265
   20       10.497437
   21       11.470955
   22       11.473017
   23       12.148507
   24       12.149911
   25       12.290392
   26       12.292111
   27       13.462282
   28       13.463880
   29       14.720551
   30       14.721270
 
  0.5000000E-01  0.0000000E+00  0.3000000E+00  0.1500000E-02
    1       -1.930314
    2       -1.929551
    3        0.394514
    4        0.395837
    5        0.506941
    6        0.507626
    7        1.566833
    8        1.567449
    9        2.025900
   10        2.026454
   11        2.352847
   12        2.353487
   13        4.928920
   14        4.930027
   15        8.178889
   16        8.179040
   17        8.837002
   18        8.837315
   19       10.495168
   20       10.497350
   21       11.470915
   22       11.472978
   23       12.148709
   24       12.150014
   25       12.290330
   26       12.291994
   27       13.462265
   28       13.463887
   29       14.720643
   30       14.721192
 
 -0.2500000E+00 -0.3000000E+00 -0.3000000E+00  0.1500000E-02
    1       -1.930311
    2       -1.929547
    3        0.394610
    4        0.395607
    5        0.506741
    6        0.508335
    7        1.566328
    8        1.567867
    9        2.025271
   10        2.027170
   11        2.351882
   12        2.353853
   13        4.928953
   14        4.930036
   15        8.178820
   16        8.179079
   17        8.836836
   18        8.837344
   19       10.495265
   20       10.497433
   21       11.471064
   22       11.473215
   23       12.148540
   24       12.150458
   25       12.290250
   26       12.292363
   27       13.462181
   28       13.463809
   29       14.720375
   30       14.721581
 
  0.5000000E-01  0.3000000E+00  0.0000000E+00  0.1500000E-02
    1       -1.930314
    2       -1.929551
    3        0.394514
    4        0.395837
    5        0.506941
    6        0.507626
    7        1.566833
    8        1.567449
    9        2.025900
   10        2.026454
   11        2.352847
   12        2.353487
   13        4.928920
   14        4.930027
   15        8.178889
   16        8.179040
   17        8.837002
   18        8.837315
   19       10.495168
   20       10.497350
   21       11.470915
   22       11.472978
   23       12.148709
   24       12.150014
   25       12.290330
   26       12.291994
   27       13.462265
   28       13.463887
   29       14.720645
   30       14.721193
 
 -0.1500000E+00  0.5000000E-01  0.5000000E-01  0.1500000E-02
    1       -2.485251
    2       -2.484498
    3        0.396771
    4        0.398110
    5        0.471915
    6        0.472309
    7        1.488805
    8        1.489223
    9        2.113250
   10        2.114338
   11        2.266601
   12        2.267708
   13        6.828102
   14        6.829044
   15        8.819680
   16        8.820139
   17        9.444520
   18        9.445371
   19       10.416775
   20       10.418068
   21       11.741071
   22       11.743028
   23       12.447741
   24       12.449327
   25       12.660243
   26       12.661810
   27       12.873608
   28       12.875599
   29       13.629799
   30       13.630229
 
  0.5000000E-01  0.0000000E+00  0.2000000E+00  0.1500000E-02
    1       -2.485251
    2       -2.484498
    3        0.396799
    4        0.398008
    5        0.471807
    6        0.472539
    7        1.488699
    8        1.489306
    9        2.113493
   10        2.114186
   11        2.266684
   12        2.267470
   13        6.828104
   14        6.829041
   15        8.819814
   16        8.820006
   17        9.444617
   18        9.445394
   19       10.416767
   20       10.418085
   21       11.740919
   22       11.742901
   23       12.447715
   24       12.449416
   25       12.660442
   26       12.661852
   27       12.873602
   28       12.875460
   29       13.629657
   30       13.630394
 
 -0.1500000E+00 -0.2000000E+00 -0.2000000E+00  0.1500000E-02
    1       -2.485249
    2       -2.484496
    3        0.396913
    4        0.397690
    5        0.471618
    6        0.473112
    7        1.488397
    8        1.489527
    9        2.113007
   10        2.114893
   11        2.265894
   12        2.267817
   13        6.828129
   14        6.829042
   15        8.819787
   16        8.820020
   17        9.444470
   18        9.445446
   19       10.416771
   20       10.418121
   21       11.741172
   22       11.743113
   23       12.447649
   24       12.449299
   25       12.660524
   26       12.662007
   27       12.873697
   28       12.875416
   29       13.629385
   30       13.630553
 
  0.5000000E-01  0.2000000E+00  0.0000000E+00  0.1500000E-02
    1       -2.485251
    2       -2.484498
    3        0.396799
    4        0.398008
    5        0.471807
    6        0.472539
    7        1.488699
    8        1.489306
    9        2.113493
   10        2.114186
   11        2.266684
   12        2.267470
   13        6.828104
   14        6.829041
   15        8.819814
   16        8.820006
   17        9.444617
   18        9.445394
   19       10.416767
   20       10.418085
   21       11.740919
   22       11.742901
   23       12.447715
   24       12.449416
   25       12.660442
   26       12.661852
   27       12.873602
   28       12.875460
   29       13.629647
   30       13.630392
 
 -0.5000000E-01  0.5000000E-01  0.5000000E-01  0.1500000E-02
    1       -2.826216
    2       -2.825462
    3        0.410873
    4        0.411966
    5        0.440022
    6        0.440606
    7        1.451828
    8        1.452409
    9        2.180720
   10        2.182240
   11        2.219344
   12        2.220894
   13        8.708788
   14        8.709280
   15        9.517511
   16        9.519133
   17        9.889259
   18        9.890211
   19       10.438311
   20       10.438662
   21       11.714941
   22       11.716902
   23       12.379958
   24       12.380807
   25       12.587150
   26       12.589113
   27       12.810342
   28       12.811362
   29       13.287462
   30       13.287812
 
  0.5000000E-01  0.0000000E+00  0.1000000E+00  0.1500000E-02
    1       -2.826215
    2       -2.825461
    3        0.410900
    4        0.411877
    5        0.439939
    6        0.440774
    7        1.451794
    8        1.452436
    9        2.180895
   10        2.182171
   11        2.219390
   12        2.220724
   13        8.708802
   14        8.709260
   15        9.517554
   16        9.519097
   17        9.889425
   18        9.890036
   19       10.438484
   20       10.438581
   21       11.714878
   22       11.716838
   23       12.380044
   24       12.380761
   25       12.587180
   26       12.589066
   27       12.810412
   28       12.811371
   29       13.287619
   30       13.290473
 
 -0.5000000E-01 -0.1000000E+00 -0.1000000E+00  0.1500000E-02
    1       -2.826215
    2       -2.825460
    3        0.410965
    4        0.411686
    5        0.439844
    6        0.441026
    7        1.451730
    8        1.452482
    9        2.180715
   10        2.182572
   11        2.218975
   12        2.220879
   13        8.708834
   14        8.709234
   15        9.517568
   16        9.519093
   17        9.889453
   18        9.890011
   19       10.438425
   20       10.438649
   21       11.714911
   22       11.716842
   23       12.380092
   24       12.380732
   25       12.587166
   26       12.589071
   27       12.810475
   28       12.811310
   29       13.287707
   30       13.294346
 
  0.5000000E-01  0.1000000E+00  0.0000000E+00  0.1500000E-02
    1       -2.826215
    2       -2.825461
    3        0.410900
    4        0.411877
    5        0.439939
    6        0.440774
    7        1.451794
    8        1.452436
    9        2.180895
   10        2.182171
   11        2.219390
   12        2.220724
   13        8.708802
   14        8.709260
   15        9.517554
   16        9.519097
   17        9.889425
   18        9.890036
   19       10.438484
   20       10.438581
   21       11.714878
   22       11.716838
   23       12.380045
   24       12.380761
   25       12.587180
   26       12.589066
   27       12.810412
   28       12.811371
   29       13.287698
   30       13.290495
 
  0.1500000E+00  0.1500000E+00  0.5000000E-01  0.1500000E-02
    1       -2.652259
    2       -2.651506
    3        0.388354
    4        0.389321
    5        0.472555
    6        0.473603
    7        1.467284
    8        1.468086
    9        2.149449
   10        2.151261
   11        2.237217
   12        2.239179
   13        8.038997
   14        8.039352
   15        8.939052
   16        8.939180
   17        9.358556
   18        9.359799
   19        9.874655
   20        9.875779
   21       11.840167
   22       11.842226
   23       12.181433
   24       12.183282
   25       13.124504
   26       13.125357
   27       13.521061
   28       13.522155
   29       13.585124
   30       13.586254
 
  0.1500000E+00  0.1000000E+00  0.0000000E+00  0.1500000E-02
    1       -2.652259
    2       -2.651507
    3        0.388324
    4        0.389397
    5        0.472614
    6        0.473446
    7        1.467374
    8        1.468020
    9        2.149523
   10        2.151055
   11        2.237444
   12        2.239141
   13        8.038945
   14        8.039397
   15        8.938911
   16        8.939301
   17        9.358627
   18        9.359796
   19        9.874641
   20        9.875688
   21       11.840157
   22       11.842242
   23       12.181404
   24       12.183308
   25       13.124518
   26       13.125280
   27       13.520977
   28       13.522248
   29       13.585036
   30       13.586381
 
  0.1500000E+00  0.0000000E+00  0.1000000E+00  0.1500000E-02
    1       -2.652259
    2       -2.651507
    3        0.388324
    4        0.389397
    5        0.472614
    6        0.473446
    7        1.467374
    8        1.468020
    9        2.149523
   10        2.151055
   11        2.237444
   12        2.239141
   13        8.038945
   14        8.039397
   15        8.938911
   16        8.939301
   17        9.358627
   18        9.359796
   19        9.874641
   20        9.875688
   21       11.840157
   22       11.842242
   23       12.181404
   24       12.183308
   25       13.124518
   26       13.125280
   27       13.520978
   28       13.522251
   29       13.585027
   30       13.586353
 
  0.5000000E-01 -0.1000000E+00 -0.1000000E+00  0.1500000E-02
    1       -2.652259
    2       -2.651507
    3        0.388310
    4        0.389455