 vasp.5.3.5 31Mar14 (build Dec 14 2018 19:18:10) complex                        
  
 executed on             LinuxIFC date 2022.11.17  20:42:13
 serial version


--------------------------------------------------------------------------------------------------------


 INCAR:
 POTCAR:    PAW Au 04Oct2007                      
 POTCAR:   PAW Al 17Apr2000                       
 POTCAR:    PAW Au 04Oct2007                      
   VRHFIN =Au: s1d10                                                            
   LEXCH  = CA                                                                  
   EATOM  =   929.4200 eV,   68.3104 Ry                                         
                                                                                
   TITEL  = PAW Au 04Oct2007                                                    
   LULTRA =        F    use ultrasoft PP ?                                      
   IUNSCR =        1    unscreen: 0-lin 1-nonlin 2-no                           
   RPACOR =    2.330    partial core radius                                     
   POMASS =  196.966; ZVAL   =   11.000    mass and valenz                      
   RCORE  =    2.500    outmost cutoff radius                                   
   RWIGS  =    2.840; RWIGS  =    1.503    wigner-seitz radius (au A)           
   ENMAX  =  229.869; ENMIN  =  172.402 eV                                      
   ICORE  =        3    local potential                                         
   LCOR   =        T    correct aug charges                                     
   LPAW   =        T    paw PP                                                  
   EAUG   =  356.670                                                            
   DEXC   =    0.000                                                            
   RMAX   =    2.562    core radius for proj-oper                               
   RAUG   =    1.300    factor for augmentation sphere                          
   RDEP   =    2.598    radius for radial grids                                 
   RDEPT  =    2.193    core radius for aug-charge                              
                                                                                
   Atomic configuration                                                         
   16 entries                                                                   
     n  l   j            E        occ.                                          
     1  0  0.50    -80176.1758   2.0000                                         
     2  0  0.50    -14159.9516   2.0000                                         
     2  1  1.50    -12259.9125   6.0000                                         
     3  0  0.50     -3343.9134   2.0000                                         
     3  1  1.50     -2791.8065   6.0000                                         
     3  2  2.50     -2200.4375  10.0000                                         
     4  0  0.50      -725.0688   2.0000                                         
     4  1  1.50      -543.6481   6.0000                                         
     4  2  2.50      -325.3551  10.0000                                         
     4  3  3.50       -81.9692  14.0000                                         
     5  0  0.50      -108.1495   2.0000                                         
     5  1  1.50       -59.8256   6.0000                                         
     5  2  2.50        -7.1403  10.0000                                         
     6  0  0.50        -6.0462   1.0000                                         
     6  1  1.50        -6.8029   0.0000                                         
     5  3  2.50        -1.3606   0.0000                                         
   Description                                                                  
     l       E           TYP  RCUT    TYP  RCUT                                 
     2     -7.1402894     23  2.500                                             
     2     -8.5008720     23  2.500                                             
     0     -6.0461544     23  2.500                                             
     0     -1.0927833     23  2.500                                             
     1     -2.7211652     23  2.500                                             
     1     27.2116520     23  2.500                                             
     3     -1.3605826     23  2.500                                             
  local pseudopotential read in
  partial core-charges read in
  partial kinetic energy density read in
  atomic valenz-charges read in
  non local Contribution for L=           2  read in
    real space projection operators read in
  non local Contribution for L=           2  read in
    real space projection operators read in
  non local Contribution for L=           0  read in
    real space projection operators read in
  non local Contribution for L=           0  read in
    real space projection operators read in
  non local Contribution for L=           1  read in
    real space projection operators read in
  non local Contribution for L=           1  read in
    real space projection operators read in
    PAW grid and wavefunctions read in
 
   number of l-projection  operators is LMAX  =           6
   number of lm-projection operators is LMMAX =          18
 
 POTCAR:   PAW Al 17Apr2000                       
   VRHFIN =Al: s2p1                                                             
   LEXCH  = CA                                                                  
   EATOM  =    53.7936 eV,    3.9537 Ry                                         
                                                                                
   TITEL  = PAW Al 17Apr2000                                                    
   LULTRA =        F    use ultrasoft PP ?                                      
   IUNSCR =        1    unscreen: 0-lin 1-nonlin 2-no                           
   RPACOR =    1.500    partial core radius                                     
   POMASS =   26.982; ZVAL   =    3.000    mass and valenz                      
   RCORE  =    1.900    outmost cutoff radius                                   
   RWIGS  =    2.650; RWIGS  =    1.402    wigner-seitz radius (au A)           
   ENMAX  =  240.957; ENMIN  =  180.718 eV                                      
   ICORE  =        2    local potential                                         
   LCOR   =        T    correct aug charges                                     
   LPAW   =        T    paw PP                                                  
   EAUG   =  291.052                                                            
   DEXC   =    -.032                                                            
   RMAX   =    2.970    core radius for proj-oper                               
   RAUG   =    1.300    factor for augmentation sphere                          
   RDEP   =    1.966    core radius for depl-charge                             
   QCUT   =   -4.208; QGAM   =    8.417    optimization parameters              
                                                                                
   Description                                                                  
     l     E      TYP  RCUT    TYP  RCUT                                        
     0   .000     23  1.900                                                     
     0   .000     23  1.900                                                     
     1   .000     23  1.900                                                     
     1  1.000     23  1.900                                                     
     2   .000      7  1.900                                                     
  local pseudopotential read in
  partial core-charges read in
  atomic valenz-charges read in
  non local Contribution for L=           0  read in
    real space projection operators read in
  non local Contribution for L=           0  read in
    real space projection operators read in
  non local Contribution for L=           1  read in
    real space projection operators read in
  non local Contribution for L=           1  read in
    real space projection operators read in
    PAW grid and wavefunctions read in
 
   number of l-projection  operators is LMAX  =           4
   number of lm-projection operators is LMMAX =           8
 
  PAW Au 04Oct2007                      :
 energy of atom  1       EATOM= -929.4200
 kinetic energy error for atom=    0.0617 (will be added to EATOM!!)
 PAW Al 17Apr2000                       :
 energy of atom  2       EATOM=  -53.7936
 kinetic energy error for atom=    0.0031 (will be added to EATOM!!)
 
 
 POSCAR: AuAl2                                   
  positions in direct lattice
  velocities in cartesian coordinates
 exchange correlation table for  LEXCH =        2
   RHO(1)=    0.500       N(1)  =     2000
   RHO(2)=  100.500       N(2)  =     4000
 


--------------------------------------------------------------------------------------------------------


 ion  position               nearest neighbor table
   1  0.000  0.000  0.000-   3 2.60   3 2.60   3 2.60   2 2.60   3 2.60   2 2.60   2 2.60   2 2.60

   2  0.250  0.250  0.250-   1 2.60   1 2.60   1 2.60   1 2.60   3 3.00   3 3.00   3 3.00   3 3.00
                             3 3.00   3 3.00
   3  0.750  0.750  0.750-   1 2.60   1 2.60   1 2.60   1 2.60   2 3.00   2 3.00   2 3.00   2 3.00
                             2 3.00   2 3.00
 
  LATTYP: Found a face centered cubic cell.
 ALAT       =     6.0000000000
  
  Lattice vectors:
  
 A1 = (   0.0000000000,   3.0000000000,   3.0000000000)
 A2 = (   3.0000000000,   0.0000000000,   3.0000000000)
 A3 = (   3.0000000000,   3.0000000000,   0.0000000000)


Analysis of symmetry for initial positions (statically):
=====================================================================
 Subroutine PRICEL returns:
 Original cell was already a primitive cell.
 

 Routine SETGRP: Setting up the symmetry group for a 
 face centered cubic supercell.


 Subroutine GETGRP returns: Found 48 space group operations
 (whereof 48 operations were pure point group operations)
 out of a pool of 48 trial point group operations.


The static configuration has the point symmetry O_h .


Analysis of symmetry for dynamics (positions and initial velocities):
=====================================================================
 Subroutine PRICEL returns:
 Original cell was already a primitive cell.
 

 Routine SETGRP: Setting up the symmetry group for a 
 face centered cubic supercell.


 Subroutine GETGRP returns: Found 48 space group operations
 (whereof 48 operations were pure point group operations)
 out of a pool of 48 trial point group operations.


The dynamic configuration has the point symmetry O_h .


Analysis of structural, dynamic, and magnetic symmetry:
=====================================================================
 Subroutine PRICEL returns:
 Original cell was already a primitive cell.
 

 Routine SETGRP: Setting up the symmetry group for a 
 face centered cubic supercell.


 Subroutine GETGRP returns: Found  6 space group operations
 (whereof  6 operations were pure point group operations)
 out of a pool of 48 trial point group operations.


The (compounded) configuration has the point symmetry S_6 .
 
 
 KPOINTS: 10X10x10                                

Automatic generation of k-mesh.
Space group operators:
 irot       det(A)        alpha          n_x          n_y          n_z        tau_x        tau_y        tau_z
    1     1.000000     0.000000     1.000000     0.000000     0.000000     0.000000     0.000000     0.000000
    2    -1.000000     0.000000     1.000000     0.000000     0.000000     0.000000     0.000000     0.000000
    3     1.000000   120.000000    -0.577350    -0.577350    -0.577350     0.000000     0.000000     0.000000
    4    -1.000000   120.000000    -0.577350    -0.577350    -0.577350     0.000000     0.000000     0.000000
    5     1.000000   120.000000     0.577350     0.577350     0.577350     0.000000     0.000000     0.000000
    6    -1.000000   120.000000     0.577350     0.577350     0.577350     0.000000     0.000000     0.000000
 
 Subroutine IBZKPT returns following result:
 ===========================================
 
 Found    670 irreducible k-points:
 
 Following reciprocal coordinates:
            Coordinates               Weight
  0.050000  0.050000  0.050000     24.000000
  0.050000  0.000000  0.000000     72.000000
  0.150000  0.050000  0.050000     72.000000
  0.050000  0.000000 -0.100000     72.000000
  0.150000  0.100000  0.100000     72.000000
  0.050000 -0.100000  0.000000     72.000000
  0.250000  0.050000  0.050000     72.000000
  0.050000  0.000000 -0.200000     72.000000
  0.250000  0.200000  0.200000     72.000000
  0.050000 -0.200000  0.000000     72.000000
  0.350000  0.050000  0.050000     72.000000
  0.050000  0.000000 -0.300000     72.000000
  0.350000  0.300000  0.300000     72.000000
  0.050000 -0.300000  0.000000     72.000000
  0.450000  0.050000  0.050000     72.000000
  0.050000  0.000000 -0.400000     72.000000
  0.450000  0.400000  0.400000     72.000000
  0.050000 -0.400000  0.000000     72.000000
 -0.450000  0.050000  0.050000     72.000000
  0.050000  0.000000  0.500000     72.000000
 -0.450000  0.500000  0.500000     72.000000
  0.050000  0.500000  0.000000     72.000000
 -0.350000  0.050000  0.050000     72.000000
  0.050000  0.000000  0.400000     72.000000
 -0.350000 -0.400000 -0.400000     72.000000
  0.050000  0.400000  0.000000     72.000000
 -0.250000  0.050000  0.050000     72.000000
  0.050000  0.000000  0.300000     72.000000
 -0.250000 -0.300000 -0.300000     72.000000
  0.050000  0.300000  0.000000     72.000000
 -0.150000  0.050000  0.050000     72.000000
  0.050000  0.000000  0.200000     72.000000
 -0.150000 -0.200000 -0.200000     72.000000
  0.050000  0.200000  0.000000     72.000000
 -0.050000  0.050000  0.050000     72.000000
  0.050000  0.000000  0.100000     72.000000
 -0.050000 -0.100000 -0.100000     72.000000
  0.050000  0.100000  0.000000     72.000000
  0.150000  0.150000  0.050000     72.000000
  0.150000  0.100000  0.000000     72.000000
  0.150000  0.000000  0.100000     72.000000
  0.050000 -0.100000 -0.100000     72.000000
  0.250000  0.150000  0.050000     72.000000
  0.150000  0.100000 -0.100000     72.000000
  0.250000  0.100000  0.200000     72.000000
  0.050000 -0.200000 -0.100000     72.000000
  0.100000  0.200000 -0.050000     72.000000
  0.100000 -0.100000 -0.150000     72.000000
 -0.200000 -0.100000 -0.250000     72.000000
 -0.250000 -0.050000 -0.150000     72.000000
  0.350000  0.150000  0.050000     72.000000
  0.150000  0.100000 -0.200000     72.000000
  0.350000  0.200000  0.300000     72.000000
  0.050000 -0.300000 -0.100000     72.000000
  0.100000  0.300000 -0.050000     72.000000
  0.200000 -0.100000 -0.150000     72.000000
 -0.300000 -0.200000 -0.350000     72.000000
 -0.350000 -0.050000 -0.150000     72.000000
  0.450000  0.150000  0.050000     72.000000
  0.150000  0.100000 -0.300000     72.000000
  0.450000  0.300000  0.400000     72.000000
  0.050000 -0.400000 -0.100000     72.000000
  0.100000  0.400000 -0.050000     72.000000
  0.300000 -0.100000 -0.150000     72.000000
 -0.400000 -0.300000 -0.450000     72.000000
 -0.450000 -0.050000 -0.150000     72.000000
 -0.450000  0.150000  0.050000     72.000000
  0.150000  0.100000 -0.400000     72.000000
 -0.450000  0.400000  0.500000     72.000000
  0.050000  0.500000 -0.100000     72.000000
  0.100000  0.500000 -0.050000     72.000000
  0.400000 -0.100000 -0.150000     72.000000
  0.500000 -0.400000  0.450000     72.000000
  0.450000 -0.050000 -0.150000     72.000000
 -0.350000  0.150000  0.050000     72.000000
  0.150000  0.100000  0.500000     72.000000
 -0.350000  0.500000 -0.400000     72.000000
  0.050000  0.400000 -0.100000     72.000000
  0.100000 -0.400000 -0.050000     72.000000
  0.500000 -0.100000 -0.150000     72.000000
  0.400000  0.500000  0.350000     72.000000
  0.350000 -0.050000 -0.150000     72.000000
 -0.250000  0.150000  0.050000     72.000000
  0.150000  0.100000  0.400000     72.000000
 -0.250000 -0.400000 -0.300000     72.000000
  0.050000  0.300000 -0.100000     72.000000
  0.100000 -0.300000 -0.050000     72.000000
 -0.400000 -0.100000 -0.150000     72.000000
  0.300000  0.400000  0.250000     72.000000
  0.250000 -0.050000 -0.150000     72.000000
 -0.150000  0.150000  0.050000     72.000000
  0.150000  0.100000  0.300000     72.000000
 -0.150000 -0.300000 -0.200000     72.000000
  0.050000  0.200000 -0.100000     72.000000
  0.100000 -0.200000 -0.050000     72.000000
 -0.300000 -0.100000 -0.150000     72.000000
  0.200000  0.300000  0.150000     72.000000
  0.150000 -0.050000 -0.150000     72.000000
 -0.050000  0.150000  0.050000     72.000000
  0.150000  0.100000  0.200000     72.000000
 -0.050000 -0.200000 -0.100000     72.000000
  0.050000  0.100000 -0.100000     72.000000
  0.100000 -0.100000 -0.050000     72.000000
 -0.200000 -0.100000 -0.150000     72.000000
  0.100000  0.200000  0.050000     72.000000
  0.050000 -0.050000 -0.150000     72.000000
  0.250000  0.250000  0.050000     72.000000
  0.250000  0.200000  0.000000     72.000000
  0.250000  0.000000  0.200000     72.000000
  0.050000 -0.200000 -0.200000     72.000000
  0.350000  0.250000  0.050000     72.000000
  0.250000  0.200000 -0.100000     72.000000
  0.350000  0.100000  0.300000     72.000000
  0.050000 -0.300000 -0.200000     72.000000
  0.200000  0.300000 -0.050000     72.000000
  0.100000 -0.200000 -0.250000     72.000000
 -0.300000 -0.100000 -0.350000     72.000000
 -0.350000 -0.050000 -0.250000     72.000000
  0.450000  0.250000  0.050000     72.000000
  0.250000  0.200000 -0.200000     72.000000
  0.450000  0.200000  0.400000     72.000000
  0.050000 -0.400000 -0.200000     72.000000
  0.200000  0.400000 -0.050000     72.000000
  0.200000 -0.200000 -0.250000     72.000000
 -0.400000 -0.200000 -0.450000     72.000000
 -0.450000 -0.050000 -0.250000     72.000000
 -0.450000  0.250000  0.050000     72.000000
  0.250000  0.200000 -0.300000     72.000000
 -0.450000  0.300000  0.500000     72.000000
  0.050000  0.500000 -0.200000     72.000000
  0.200000  0.500000 -0.050000     72.000000
  0.300000 -0.200000 -0.250000     72.000000
  0.500000 -0.300000  0.450000     72.000000
  0.450000 -0.050000 -0.250000     72.000000
 -0.350000  0.250000  0.050000     72.000000
  0.250000  0.200000 -0.400000     72.000000
 -0.350000  0.400000 -0.400000     72.000000
  0.050000  0.400000 -0.200000     72.000000
  0.200000 -0.400000 -0.050000     72.000000
  0.400000 -0.200000 -0.250000     72.000000
  0.400000 -0.400000  0.350000     72.000000
  0.350000 -0.050000 -0.250000     72.000000
 -0.250000  0.250000  0.050000     72.000000
  0.250000  0.200000  0.500000     72.000000
 -0.250000  0.500000 -0.300000     72.000000
  0.050000  0.300000 -0.200000     72.000000
  0.200000 -0.300000 -0.050000     72.000000
  0.500000 -0.200000 -0.250000     72.000000
  0.300000  0.500000  0.250000     72.000000
  0.250000 -0.050000 -0.250000     72.000000
 -0.150000  0.250000  0.050000     72.000000
  0.250000  0.200000  0.400000     72.000000
 -0.150000 -0.400000 -0.200000     72.000000
  0.050000  0.200000 -0.200000     72.000000
  0.200000 -0.200000 -0.050000     72.000000
 -0.400000 -0.200000 -0.250000     72.000000
  0.200000  0.400000  0.150000     72.000000
  0.150000 -0.050000 -0.250000     72.000000
 -0.050000  0.250000  0.050000     72.000000
  0.250000  0.200000  0.300000     72.000000
 -0.050000 -0.300000 -0.100000     72.000000
  0.050000  0.100000 -0.200000     72.000000
  0.200000 -0.100000 -0.050000     72.000000
 -0.300000 -0.200000 -0.250000     72.000000
  0.100000  0.300000  0.050000     72.000000
  0.050000 -0.050000 -0.250000     72.000000
  0.350000  0.350000  0.050000     72.000000
  0.350000  0.300000  0.000000     72.000000
  0.350000  0.000000  0.300000     72.000000
  0.050000 -0.300000 -0.300000     72.000000
  0.450000  0.350000  0.050000     72.000000
  0.350000  0.300000 -0.100000     72.000000
  0.450000  0.100000  0.400000     72.000000
  0.050000 -0.400000 -0.300000     72.000000
  0.300000  0.400000 -0.050000     72.000000
  0.100000 -0.300000 -0.350000     72.000000
 -0.400000 -0.100000 -0.450000     72.000000
 -0.450000 -0.050000 -0.350000     72.000000
 -0.450000  0.350000  0.050000     72.000000
  0.350000  0.300000 -0.200000     72.000000
 -0.450000  0.200000  0.500000     72.000000
  0.050000  0.500000 -0.300000     72.000000
  0.300000  0.500000 -0.050000     72.000000
  0.200000 -0.300000 -0.350000     72.000000
  0.500000 -0.200000  0.450000     72.000000
  0.450000 -0.050000 -0.350000     72.000000
 -0.350000  0.350000  0.050000     72.000000
  0.350000  0.300000 -0.300000     72.000000
 -0.350000  0.300000 -0.400000     72.000000
  0.050000  0.400000 -0.300000     72.000000
  0.300000 -0.400000 -0.050000     72.000000
  0.300000 -0.300000 -0.350000     72.000000
  0.400000 -0.300000  0.350000     72.000000
  0.350000 -0.050000 -0.350000     72.000000
 -0.250000  0.350000  0.050000     72.000000
  0.350000  0.300000 -0.400000     72.000000
 -0.250000  0.400000 -0.300000     72.000000
  0.050000  0.300000 -0.300000     72.000000
  0.300000 -0.300000 -0.050000     72.000000
  0.400000 -0.300000 -0.350000     72.000000
  0.300000 -0.400000  0.250000     72.000000
  0.250000 -0.050000 -0.350000     72.000000
 -0.150000  0.350000  0.050000     72.000000
  0.350000  0.300000  0.500000     72.000000
 -0.150000  0.500000 -0.200000     72.000000
  0.050000  0.200000 -0.300000     72.000000
  0.300000 -0.200000 -0.050000     72.000000
  0.500000 -0.300000 -0.350000     72.000000
  0.200000  0.500000  0.150000     72.000000
  0.150000 -0.050000 -0.350000     72.000000
 -0.050000  0.350000  0.050000     72.000000
  0.350000  0.300000  0.400000     72.000000
 -0.050000 -0.400000 -0.100000     72.000000
  0.050000  0.100000 -0.300000     72.000000
  0.300000 -0.100000 -0.050000     72.000000
 -0.400000 -0.300000 -0.350000     72.000000
  0.100000  0.400000  0.050000     72.000000
  0.050000 -0.050000 -0.350000     72.000000
  0.450000  0.450000  0.050000     72.000000
  0.450000  0.400000  0.000000     72.000000
  0.450000  0.000000  0.400000     72.000000
  0.050000 -0.400000 -0.400000     72.000000
 -0.450000  0.450000  0.050000     72.000000
  0.450000  0.400000 -0.100000     72.000000
 -0.450000  0.100000  0.500000     72.000000
  0.050000  0.500000 -0.400000     72.000000
  0.400000  0.500000 -0.050000     72.000000
  0.100000 -0.400000 -0.450000     72.000000
  0.500000 -0.100000  0.450000     72.000000
  0.450000 -0.050000 -0.450000     72.000000
 -0.350000  0.450000  0.050000     72.000000
  0.450000  0.400000 -0.200000     72.000000
 -0.350000  0.200000 -0.400000     72.000000
  0.050000  0.400000 -0.400000     72.000000
  0.400000 -0.400000 -0.050000     72.000000
  0.200000 -0.400000 -0.450000     72.000000
  0.400000 -0.200000  0.350000     72.000000
  0.350000 -0.050000 -0.450000     72.000000
 -0.250000  0.450000  0.050000     72.000000
  0.450000  0.400000 -0.300000     72.000000
 -0.250000  0.300000 -0.300000     72.000000
  0.050000  0.300000 -0.400000     72.000000
  0.400000 -0.300000 -0.050000     72.000000
  0.300000 -0.400000 -0.450000     72.000000
  0.300000 -0.300000  0.250000     72.000000
  0.250000 -0.050000 -0.450000     72.000000
 -0.150000  0.450000  0.050000     72.000000
  0.450000  0.400000 -0.400000     72.000000
 -0.150000  0.400000 -0.200000     72.000000
  0.050000  0.200000 -0.400000     72.000000
  0.400000 -0.200000 -0.050000     72.000000
  0.400000 -0.400000 -0.450000     72.000000
  0.200000 -0.400000  0.150000     72.000000
  0.150000 -0.050000 -0.450000     72.000000
 -0.050000  0.450000  0.050000     72.000000
  0.450000  0.400000  0.500000     72.000000
 -0.050000  0.500000 -0.100000     72.000000
  0.050000  0.100000 -0.400000     72.000000
  0.400000 -0.100000 -0.050000     72.000000
  0.500000 -0.400000 -0.450000     72.000000
  0.100000  0.500000  0.050000     72.000000
  0.050000 -0.050000 -0.450000     72.000000
 -0.450000 -0.450000  0.050000     72.000000
 -0.450000  0.500000  0.000000     72.000000
 -0.450000  0.000000  0.500000     72.000000
  0.050000  0.500000  0.500000     72.000000
 -0.350000 -0.450000  0.050000     72.000000
 -0.450000  0.500000 -0.100000     72.000000
 -0.350000  0.100000 -0.400000     72.000000
  0.050000  0.400000  0.500000     72.000000
  0.500000 -0.400000 -0.050000     72.000000
  0.100000  0.500000  0.450000     72.000000
  0.400000 -0.100000  0.350000     72.000000
  0.350000 -0.050000  0.450000     72.000000
 -0.250000 -0.450000  0.050000     72.000000
 -0.450000  0.500000 -0.200000     72.000000
 -0.250000  0.200000 -0.300000     72.000000
  0.050000  0.300000  0.500000     72.000000
  0.500000 -0.300000 -0.050000     72.000000
  0.200000  0.500000  0.450000     72.000000
  0.300000 -0.200000  0.250000     72.000000
  0.250000 -0.050000  0.450000     72.000000
 -0.150000 -0.450000  0.050000     72.000000
 -0.450000  0.500000 -0.300000     72.000000
 -0.150000  0.300000 -0.200000     72.000000
  0.050000  0.200000  0.500000     72.000000
  0.500000 -0.200000 -0.050000     72.000000
  0.300000  0.500000  0.450000     72.000000
  0.200000 -0.300000  0.150000     72.000000
  0.150000 -0.050000  0.450000     72.000000
 -0.350000 -0.350000  0.050000     72.000000
 -0.350000 -0.400000  0.000000     72.000000
 -0.350000  0.000000 -0.400000     72.000000
  0.050000  0.400000  0.400000     72.000000
 -0.250000 -0.350000  0.050000     72.000000
 -0.350000 -0.400000 -0.100000     72.000000
 -0.250000  0.100000 -0.300000     72.000000
  0.050000  0.300000  0.400000     72.000000
 -0.400000 -0.300000 -0.050000     72.000000
  0.100000  0.400000  0.350000     72.000000
  0.300000 -0.100000  0.250000     72.000000
  0.250000 -0.050000  0.350000     72.000000
 -0.150000 -0.350000  0.050000     72.000000
 -0.350000 -0.400000 -0.200000     72.000000
 -0.150000  0.200000 -0.200000     72.000000
  0.050000  0.200000  0.400000     72.000000
 -0.400000 -0.200000 -0.050000     72.000000
  0.200000  0.400000  0.350000     72.000000
  0.200000 -0.200000  0.150000     72.000000
  0.150000 -0.050000  0.350000     72.000000
 -0.250000 -0.250000  0.050000     72.000000
 -0.250000 -0.300000  0.000000     72.000000
 -0.250000  0.000000 -0.300000     72.000000
  0.050000  0.300000  0.300000     72.000000
 -0.150000 -0.250000  0.050000     72.000000
 -0.250000 -0.300000 -0.100000     72.000000
 -0.150000  0.100000 -0.200000     72.000000
  0.050000  0.200000  0.300000     72.000000
 -0.300000 -0.200000 -0.050000     72.000000
  0.100000  0.300000  0.250000     72.000000
  0.200000 -0.100000  0.150000     72.000000
  0.150000 -0.050000  0.250000     72.000000
 -0.150000 -0.150000  0.050000     72.000000
 -0.150000 -0.200000  0.000000     72.000000
 -0.150000  0.000000 -0.200000     72.000000
  0.050000  0.200000  0.200000     72.000000
  0.150000  0.150000  0.150000     24.000000
  0.150000  0.000000  0.000000     72.000000
  0.250000  0.150000  0.150000     72.000000
  0.150000  0.000000 -0.100000     72.000000
  0.250000  0.100000  0.100000     72.000000
  0.150000 -0.100000  0.000000     72.000000
  0.350000  0.150000  0.150000     72.000000
  0.150000  0.000000 -0.200000     72.000000
  0.350000  0.200000  0.200000     72.000000
  0.150000 -0.200000  0.000000     72.000000
  0.450000  0.150000  0.150000     72.000000
  0.150000  0.000000 -0.300000     72.000000
  0.450000  0.300000  0.300000     72.000000
  0.150000 -0.300000  0.000000     72.000000
 -0.450000  0.150000  0.150000     72.000000
  0.150000  0.000000 -0.400000     72.000000
 -0.450000  0.400000  0.400000     72.000000
  0.150000 -0.400000  0.000000     72.000000
 -0.350000  0.150000  0.150000     72.000000
  0.150000  0.000000  0.500000     72.000000
 -0.350000  0.500000  0.500000     72.000000
  0.150000  0.500000  0.000000     72.000000
 -0.250000  0.150000  0.150000     72.000000
  0.150000  0.000000  0.400000     72.000000
 -0.250000 -0.400000 -0.400000     72.000000
  0.150000  0.400000  0.000000     72.000000
 -0.150000  0.150000  0.150000     72.000000
  0.150000  0.000000  0.300000     72.000000
 -0.150000 -0.300000 -0.300000     72.000000
  0.150000  0.300000  0.000000     72.000000
  0.250000  0.250000  0.150000     72.000000
  0.250000  0.100000  0.000000     72.000000
  0.250000  0.000000  0.100000     72.000000
  0.150000 -0.100000 -0.100000     72.000000
  0.350000  0.250000  0.150000     72.000000
  0.250000  0.100000 -0.100000     72.000000
  0.350000  0.100000  0.200000     72.000000
  0.150000 -0.200000 -0.100000     72.000000
  0.100000  0.200000 -0.150000     72.000000
  0.100000 -0.100000 -0.250000     72.000000
 -0.200000 -0.100000 -0.350000     72.000000
 -0.350000 -0.150000 -0.250000     72.000000
  0.450000  0.250000  0.150000     72.000000
  0.250000  0.100000 -0.200000     72.000000
  0.450000  0.200000  0.300000     72.000000
  0.150000 -0.300000 -0.100000     72.000000
  0.100000  0.300000 -0.150000     72.000000
  0.200000 -0.100000 -0.250000     72.000000
 -0.300000 -0.200000 -0.450000     72.000000
 -0.450000 -0.150000 -0.250000     72.000000
 -0.450000  0.250000  0.150000     72.000000
  0.250000  0.100000 -0.300000     72.000000
 -0.450000  0.300000  0.400000     72.000000
  0.150000 -0.400000 -0.100000     72.000000
  0.100000  0.400000 -0.150000     72.000000
  0.300000 -0.100000 -0.250000     72.000000
 -0.400000 -0.300000  0.450000     72.000000
  0.450000 -0.150000 -0.250000     72.000000
 -0.350000  0.250000  0.150000     72.000000
  0.250000  0.100000 -0.400000     72.000000
 -0.350000  0.400000  0.500000     72.000000
  0.150000  0.500000 -0.100000     72.000000
  0.100000  0.500000 -0.150000     72.000000
  0.400000 -0.100000 -0.250000     72.000000
  0.500000 -0.400000  0.350000     72.000000
  0.350000 -0.150000 -0.250000     72.000000
 -0.250000  0.250000  0.150000     72.000000
  0.250000  0.100000  0.500000     72.000000
 -0.250000  0.500000 -0.400000     72.000000
  0.150000  0.400000 -0.100000     72.000000
  0.100000 -0.400000 -0.150000     72.000000
  0.500000 -0.100000 -0.250000     72.000000
  0.400000  0.500000  0.250000     72.000000
  0.250000 -0.150000 -0.250000     72.000000
 -0.150000  0.250000  0.150000     72.000000
  0.250000  0.100000  0.400000     72.000000
 -0.150000 -0.400000 -0.300000     72.000000
  0.150000  0.300000 -0.100000     72.000000
  0.100000 -0.300000 -0.150000     72.000000
 -0.400000 -0.100000 -0.250000     72.000000
  0.300000  0.400000  0.150000     72.000000
  0.150000 -0.150000 -0.250000     72.000000
  0.350000  0.350000  0.150000     72.000000
  0.350000  0.200000  0.000000     72.000000
  0.350000  0.000000  0.200000     72.000000
  0.150000 -0.200000 -0.200000     72.000000
  0.450000  0.350000  0.150000     72.000000
  0.350000  0.200000 -0.100000     72.000000
  0.450000  0.100000  0.300000     72.000000
  0.150000 -0.300000 -0.200000     72.000000
  0.200000  0.300000 -0.150000     72.000000
  0.100000 -0.200000 -0.350000     72.000000
 -0.300000 -0.100000 -0.450000     72.000000
 -0.450000 -0.150000 -0.350000     72.000000
 -0.450000  0.350000  0.150000     72.000000
  0.350000  0.200000 -0.200000     72.000000
 -0.450000  0.200000  0.400000     72.000000
  0.150000 -0.400000 -0.200000     72.000000
  0.200000  0.400000 -0.150000     72.000000
  0.200000 -0.200000 -0.350000     72.000000
 -0.400000 -0.200000  0.450000     72.000000
  0.450000 -0.150000 -0.350000     72.000000
 -0.350000  0.350000  0.150000     72.000000
  0.350000  0.200000 -0.300000     72.000000
 -0.350000  0.300000  0.500000     72.000000
  0.150000  0.500000 -0.200000     72.000000
  0.200000  0.500000 -0.150000     72.000000
  0.300000 -0.200000 -0.350000     72.000000
  0.500000 -0.300000  0.350000     72.000000
  0.350000 -0.150000 -0.350000     72.000000
 -0.250000  0.350000  0.150000     72.000000
  0.350000  0.200000 -0.400000     72.000000
 -0.250000  0.400000 -0.400000     72.000000
  0.150000  0.400000 -0.200000     72.000000
  0.200000 -0.400000 -0.150000     72.000000
  0.400000 -0.200000 -0.350000     72.000000
  0.400000 -0.400000  0.250000     72.000000
  0.250000 -0.150000 -0.350000     72.000000
 -0.150000  0.350000  0.150000     72.000000
  0.350000  0.200000  0.500000     72.000000
 -0.150000  0.500000 -0.300000     72.000000
  0.150000  0.300000 -0.200000     72.000000
  0.200000 -0.300000 -0.150000     72.000000
  0.500000 -0.200000 -0.350000     72.000000
  0.300000  0.500000  0.150000     72.000000
  0.150000 -0.150000 -0.350000     72.000000
  0.450000  0.450000  0.150000     72.000000
  0.450000  0.300000  0.000000     72.000000
  0.450000  0.000000  0.300000     72.000000
  0.150000 -0.300000 -0.300000     72.000000
 -0.450000  0.450000  0.150000     72.000000
  0.450000  0.300000 -0.100000     72.000000
 -0.450000  0.100000  0.400000     72.000000
  0.150000 -0.400000 -0.300000     72.000000
  0.300000  0.400000 -0.150000     72.000000
  0.100000 -0.300000 -0.450000     72.000000
 -0.400000 -0.100000  0.450000     72.000000
  0.450000 -0.150000 -0.450000     72.000000
 -0.350000  0.450000  0.150000     72.000000
  0.450000  0.300000 -0.200000     72.000000
 -0.350000  0.200000  0.500000     72.000000
  0.150000  0.500000 -0.300000     72.000000
  0.300000  0.500000 -0.150000     72.000000
  0.200000 -0.300000 -0.450000     72.000000
  0.500000 -0.200000  0.350000     72.000000
  0.350000 -0.150000 -0.450000     72.000000
 -0.250000  0.450000  0.150000     72.000000
  0.450000  0.300000 -0.300000     72.000000
 -0.250000  0.300000 -0.400000     72.000000
  0.150000  0.400000 -0.300000     72.000000
  0.300000 -0.400000 -0.150000     72.000000
  0.300000 -0.300000 -0.450000     72.000000
  0.400000 -0.300000  0.250000     72.000000
  0.250000 -0.150000 -0.450000     72.000000
 -0.150000  0.450000  0.150000     72.000000
  0.450000  0.300000 -0.400000     72.000000
 -0.150000  0.400000 -0.300000     72.000000
  0.150000  0.300000 -0.300000     72.000000
  0.300000 -0.300000 -0.150000     72.000000
  0.400000 -0.300000 -0.450000     72.000000
  0.300000 -0.400000  0.150000     72.000000
  0.150000 -0.150000 -0.450000     72.000000
 -0.450000 -0.450000  0.150000     72.000000
 -0.450000  0.400000  0.000000     72.000000
 -0.450000  0.000000  0.400000     72.000000
  0.150000 -0.400000 -0.400000     72.000000
 -0.350000 -0.450000  0.150000     72.000000
 -0.450000  0.400000 -0.100000     72.000000
 -0.350000  0.100000  0.500000     72.000000
  0.150000  0.500000 -0.400000     72.000000
  0.400000  0.500000 -0.150000     72.000000
  0.100000 -0.400000  0.450000     72.000000
  0.500000 -0.100000  0.350000     72.000000
  0.350000 -0.150000  0.450000     72.000000
 -0.250000 -0.450000  0.150000     72.000000
 -0.450000  0.400000 -0.200000     72.000000
 -0.250000  0.200000 -0.400000     72.000000
  0.150000  0.400000 -0.400000     72.000000
  0.400000 -0.400000 -0.150000     72.000000
  0.200000 -0.400000  0.450000     72.000000
  0.400000 -0.200000  0.250000     72.000000
  0.250000 -0.150000  0.450000     72.000000
 -0.350000 -0.350000  0.150000     72.000000
 -0.350000  0.500000  0.000000     72.000000
 -0.350000  0.000000  0.500000     72.000000
  0.150000  0.500000  0.500000     72.000000
 -0.250000 -0.350000  0.150000     72.000000
 -0.350000  0.500000 -0.100000     72.000000
 -0.250000  0.100000 -0.400000     72.000000
  0.150000  0.400000  0.500000     72.000000
  0.500000 -0.400000 -0.150000     72.000000
  0.100000  0.500000  0.350000     72.000000
  0.400000 -0.100000  0.250000     72.000000
  0.250000 -0.150000  0.350000     72.000000
 -0.250000 -0.250000  0.150000     72.000000
 -0.250000 -0.400000  0.000000     72.000000
 -0.250000  0.000000 -0.400000     72.000000
  0.150000  0.400000  0.400000     72.000000
  0.250000  0.250000  0.250000     24.000000
  0.250000  0.000000  0.000000     72.000000
  0.350000  0.250000  0.250000     72.000000
  0.250000  0.000000 -0.100000     72.000000
  0.350000  0.100000  0.100000     72.000000
  0.250000 -0.100000  0.000000     72.000000
  0.450000  0.250000  0.250000     72.000000
  0.250000  0.000000 -0.200000     72.000000
  0.450000  0.200000  0.200000     72.000000
  0.250000 -0.200000  0.000000     72.000000
 -0.450000  0.250000  0.250000     72.000000
  0.250000  0.000000 -0.300000     72.000000
 -0.450000  0.300000  0.300000     72.000000
  0.250000 -0.300000  0.000000     72.000000
 -0.350000  0.250000  0.250000     72.000000
  0.250000  0.000000 -0.400000     72.000000
 -0.350000  0.400000  0.400000     72.000000
  0.250000 -0.400000  0.000000     72.000000
 -0.250000  0.250000  0.250000     72.000000
  0.250000  0.000000  0.500000     72.000000
 -0.250000  0.500000  0.500000     72.000000
  0.250000  0.500000  0.000000     72.000000
  0.350000  0.350000  0.250000     72.000000
  0.350000  0.100000  0.000000     72.000000
  0.350000  0.000000  0.100000     72.000000
  0.250000 -0.100000 -0.100000     72.000000
  0.450000  0.350000  0.250000     72.000000
  0.350000  0.100000 -0.100000     72.000000
  0.450000  0.100000  0.200000     72.000000
  0.250000 -0.200000 -0.100000     72.000000
  0.100000  0.200000 -0.250000     72.000000
  0.100000 -0.100000 -0.350000     72.000000
 -0.200000 -0.100000 -0.450000     72.000000
 -0.450000 -0.250000 -0.350000     72.000000
 -0.450000  0.350000  0.250000     72.000000
  0.350000  0.100000 -0.200000     72.000000
 -0.450000  0.200000  0.300000     72.000000
  0.250000 -0.300000 -0.100000     72.000000
  0.100000  0.300000 -0.250000     72.000000
  0.200000 -0.100000 -0.350000     72.000000
 -0.300000 -0.200000  0.450000     72.000000
  0.450000 -0.250000 -0.350000     72.000000
 -0.350000  0.350000  0.250000     72.000000
  0.350000  0.100000 -0.300000     72.000000
 -0.350000  0.300000  0.400000     72.000000
  0.250000 -0.400000 -0.100000     72.000000
  0.100000  0.400000 -0.250000     72.000000
  0.300000 -0.100000 -0.350000     72.000000
 -0.400000 -0.300000  0.350000     72.000000
  0.350000 -0.250000 -0.350000     72.000000
 -0.250000  0.350000  0.250000     72.000000
  0.350000  0.100000 -0.400000     72.000000
 -0.250000  0.400000  0.500000     72.000000
  0.250000  0.500000 -0.100000     72.000000
  0.100000  0.500000 -0.250000     72.000000
  0.400000 -0.100000 -0.350000     72.000000
  0.500000 -0.400000  0.250000     72.000000
  0.250000 -0.250000 -0.350000     72.000000
  0.450000  0.450000  0.250000     72.000000
  0.450000  0.200000  0.000000     72.000000
  0.450000  0.000000  0.200000     72.000000
  0.250000 -0.200000 -0.200000     72.000000
 -0.450000  0.450000  0.250000     72.000000
  0.450000  0.200000 -0.100000     72.000000
 -0.450000  0.100000  0.300000     72.000000
  0.250000 -0.300000 -0.200000     72.000000
  0.200000  0.300000 -0.250000     72.000000
  0.100000 -0.200000 -0.450000     72.000000
 -0.300000 -0.100000  0.450000     72.000000
  0.450000 -0.250000 -0.450000     72.000000
 -0.350000  0.450000  0.250000     72.000000
  0.450000  0.200000 -0.200000     72.000000
 -0.350000  0.200000  0.400000     72.000000
  0.250000 -0.400000 -0.200000     72.000000
  0.200000  0.400000 -0.250000     72.000000
  0.200000 -0.200000 -0.450000     72.000000
 -0.400000 -0.200000  0.350000     72.000000
  0.350000 -0.250000 -0.450000     72.000000
 -0.250000  0.450000  0.250000     72.000000
  0.450000  0.200000 -0.300000     72.000000
 -0.250000  0.300000  0.500000     72.000000
  0.250000  0.500000 -0.200000     72.000000
  0.200000  0.500000 -0.250000     72.000000
  0.300000 -0.200000 -0.450000     72.000000
  0.500000 -0.300000  0.250000     72.000000
  0.250000 -0.250000 -0.450000     72.000000
 -0.450000 -0.450000  0.250000     72.000000
 -0.450000  0.300000  0.000000     72.000000
 -0.450000  0.000000  0.300000     72.000000
  0.250000 -0.300000 -0.300000     72.000000
 -0.350000 -0.450000  0.250000     72.000000
 -0.450000  0.300000 -0.100000     72.000000
 -0.350000  0.100000  0.400000     72.000000
  0.250000 -0.400000 -0.300000     72.000000
  0.300000  0.400000 -0.250000     72.000000
  0.100000 -0.300000  0.450000     72.000000
 -0.400000 -0.100000  0.350000     72.000000
  0.350000 -0.250000  0.450000     72.000000
 -0.350000 -0.350000  0.250000     72.000000
 -0.350000  0.400000  0.000000     72.000000
 -0.350000  0.000000  0.400000     72.000000
  0.250000 -0.400000 -0.400000     72.000000
  0.350000  0.350000  0.350000     24.000000
  0.350000  0.000000  0.000000     72.000000
  0.450000  0.350000  0.350000     72.000000
  0.350000  0.000000 -0.100000     72.000000
  0.450000  0.100000  0.100000     72.000000
  0.350000 -0.100000  0.000000     72.000000
 -0.450000  0.350000  0.350000     72.000000
  0.350000  0.000000 -0.200000     72.000000
 -0.450000  0.200000  0.200000     72.000000
  0.350000 -0.200000  0.000000     72.000000
 -0.350000  0.350000  0.350000     72.000000
  0.350000  0.000000 -0.300000     72.000000
 -0.350000  0.300000  0.300000     72.000000
  0.350000 -0.300000  0.000000     72.000000
  0.450000  0.450000  0.350000     72.000000
  0.450000  0.100000  0.000000     72.000000
  0.450000  0.000000  0.100000     72.000000
  0.350000 -0.100000 -0.100000     72.000000
 -0.450000  0.450000  0.350000     72.000000
  0.450000  0.100000 -0.100000     72.000000
 -0.450000  0.100000  0.200000     72.000000
  0.350000 -0.200000 -0.100000     72.000000
  0.100000  0.200000 -0.350000     72.000000
  0.100000 -0.100000 -0.450000     72.000000
 -0.200000 -0.100000  0.450000     72.000000
  0.450000 -0.350000 -0.450000     72.000000
 -0.350000  0.450000  0.350000     72.000000
  0.450000  0.100000 -0.200000     72.000000
 -0.350000  0.200000  0.300000     72.000000
  0.350000 -0.300000 -0.100000     72.000000
  0.100000  0.300000 -0.350000     72.000000
  0.200000 -0.100000 -0.450000     72.000000
 -0.300000 -0.200000  0.350000     72.000000
  0.350000 -0.350000 -0.450000     72.000000
 -0.450000 -0.450000  0.350000     72.000000
 -0.450000  0.200000  0.000000     72.000000
 -0.450000  0.000000  0.200000     72.000000
  0.350000 -0.200000 -0.200000     72.000000
  0.450000  0.450000  0.450000     24.000000
  0.450000  0.000000  0.000000     72.000000
 -0.450000  0.450000  0.450000     72.000000
  0.450000  0.000000 -0.100000     72.000000
 -0.450000  0.100000  0.100000     72.000000
  0.450000 -0.100000  0.000000     72.000000
 
 Following cartesian coordinates:
            Coordinates               Weight
  0.050000  0.050000  0.050000     24.000000
 -0.050000  0.050000  0.050000     72.000000
 -0.050000  0.150000  0.150000     72.000000
 -0.150000 -0.050000  0.150000     72.000000
  0.050000  0.150000  0.150000     72.000000
 -0.150000  0.150000 -0.050000     72.000000
 -0.150000  0.250000  0.250000     72.000000
 -0.250000 -0.150000  0.250000     72.000000
  0.150000  0.250000  0.250000     72.000000
 -0.250000  0.250000 -0.150000     72.000000
 -0.250000  0.350000  0.350000     72.000000
 -0.350000 -0.250000  0.350000     72.000000
  0.250000  0.350000  0.350000     72.000000
 -0.350000  0.350000 -0.250000     72.000000
 -0.350000  0.450000  0.450000     72.000000
 -0.450000 -0.350000  0.450000     72.000000
  0.350000  0.450000  0.450000     72.000000
 -0.450000  0.450000 -0.350000     72.000000
  0.550000 -0.450000 -0.450000     72.000000
  0.450000  0.550000 -0.450000     72.000000
  1.450000 -0.450000 -0.450000     72.000000
  0.450000 -0.450000  0.550000     72.000000
  0.450000 -0.350000 -0.350000     72.000000
  0.350000  0.450000 -0.350000     72.000000
 -0.450000 -0.350000 -0.350000     72.000000
  0.350000 -0.350000  0.450000     72.000000
  0.350000 -0.250000 -0.250000     72.000000
  0.250000  0.350000 -0.250000     72.000000
 -0.350000 -0.250000 -0.250000     72.000000
  0.250000 -0.250000  0.350000     72.000000
  0.250000 -0.150000 -0.150000     72.000000
  0.150000  0.250000 -0.150000     72.000000
 -0.250000 -0.150000 -0.150000     72.000000
  0.150000 -0.150000  0.250000     72.000000
  0.150000 -0.050000 -0.050000     72.000000
  0.050000  0.150000 -0.050000     72.000000
 -0.150000 -0.050000 -0.050000     72.000000
  0.050000 -0.050000  0.150000     72.000000
  0.050000  0.050000  0.250000     72.000000
 -0.050000  0.050000  0.250000     72.000000
 -0.050000  0.250000  0.050000     72.000000
 -0.250000  0.050000  0.050000     72.000000
 -0.050000  0.150000  0.350000     72.000000
 -0.150000 -0.050000  0.350000     72.000000
  0.050000  0.350000  0.150000     72.000000
 -0.350000  0.150000 -0.050000     72.000000
  0.050000 -0.150000  0.350000     72.000000
 -0.350000  0.050000  0.150000     72.000000
 -0.150000 -0.350000 -0.050000     72.000000
  0.050000 -0.350000 -0.150000     72.000000
 -0.150000  0.250000  0.450000     72.000000
 -0.250000 -0.150000  0.450000     72.000000
  0.150000  0.450000  0.250000     72.000000
 -0.450000  0.250000 -0.150000     72.000000
  0.150000 -0.250000  0.450000     72.000000
 -0.450000  0.150000  0.250000     72.000000
 -0.250000 -0.450000 -0.150000     72.000000
  0.150000 -0.450000 -0.250000     72.000000
 -0.250000  0.350000  0.550000     72.000000
 -0.350000 -0.250000  0.550000     72.000000
  0.250000  0.550000  0.350000     72.000000
 -0.550000  0.350000 -0.250000     72.000000
  0.250000 -0.350000  0.550000     72.000000
 -0.550000  0.250000  0.350000     72.000000
 -0.350000 -0.550000 -0.250000     72.000000
  0.250000 -0.550000 -0.350000     72.000000
  0.650000 -0.550000 -0.350000     72.000000
 -0.450000 -0.350000  0.650000     72.000000
  1.350000 -0.350000 -0.550000     72.000000
  0.350000 -0.550000  0.650000     72.000000
  0.350000 -0.450000  0.650000     72.000000
 -0.650000  0.350000  0.450000     72.000000
 -0.450000  1.350000 -0.350000     72.000000
 -0.650000  0.350000  0.550000     72.000000
  0.550000 -0.450000 -0.250000     72.000000
  0.450000  0.550000 -0.250000     72.000000
  0.450000 -1.250000  0.550000     72.000000
  0.250000 -0.450000  0.550000     72.000000
 -0.550000  0.450000 -0.250000     72.000000
 -0.750000  0.450000  0.550000     72.000000
  0.450000  0.250000  0.550000     72.000000
 -0.550000  0.250000  0.450000     72.000000
  0.450000 -0.350000 -0.150000     72.000000
  0.350000  0.450000 -0.150000     72.000000
 -0.450000 -0.150000 -0.350000     72.000000
  0.150000 -0.350000  0.450000     72.000000
 -0.450000  0.350000 -0.150000     72.000000
  0.150000 -0.450000 -0.350000     72.000000
  0.350000  0.150000  0.450000     72.000000
 -0.450000  0.150000  0.350000     72.000000
  0.350000 -0.250000 -0.050000     72.000000
  0.250000  0.350000 -0.050000     72.000000
 -0.350000 -0.050000 -0.250000     72.000000
  0.050000 -0.250000  0.350000     72.000000
 -0.350000  0.250000 -0.050000     72.000000
  0.050000 -0.350000 -0.250000     72.000000
  0.250000  0.050000  0.350000     72.000000
 -0.350000  0.050000  0.250000     72.000000
  0.250000 -0.150000  0.050000     72.000000
  0.150000  0.250000  0.050000     72.000000
 -0.250000  0.050000 -0.150000     72.000000
 -0.050000 -0.150000  0.250000     72.000000
 -0.250000  0.150000  0.050000     72.000000
 -0.050000 -0.250000 -0.150000     72.000000
  0.150000 -0.050000  0.250000     72.000000
 -0.250000 -0.050000  0.150000     72.000000
  0.050000  0.050000  0.450000     72.000000
 -0.050000  0.050000  0.450000     72.000000
 -0.050000  0.450000  0.050000     72.000000
 -0.450000  0.050000  0.050000     72.000000
 -0.050000  0.150000  0.550000     72.000000
 -0.150000 -0.050000  0.550000     72.000000
  0.050000  0.550000  0.150000     72.000000
 -0.550000  0.150000 -0.050000     72.000000
  0.050000 -0.150000  0.550000     72.000000
 -0.550000  0.050000  0.150000     72.000000
 -0.150000 -0.550000 -0.050000     72.000000
  0.050000 -0.550000 -0.150000     72.000000
 -0.150000  0.250000  0.650000     72.000000
 -0.250000 -0.150000  0.650000     72.000000
  0.150000  0.650000  0.250000     72.000000
 -0.650000  0.250000 -0.150000     72.000000
  0.150000 -0.250000  0.650000     72.000000
 -0.650000  0.150000  0.250000     72.000000
 -0.250000 -0.650000 -0.150000     72.000000
  0.150000 -0.650000 -0.250000     72.000000
  0.750000 -0.650000 -0.250000     72.000000
 -0.350000 -0.250000  0.750000     72.000000
  1.250000 -0.250000 -0.650000     72.000000
  0.250000 -0.650000  0.750000     72.000000
  0.250000 -0.350000  0.750000     72.000000
 -0.750000  0.250000  0.350000     72.000000
 -0.350000  1.250000 -0.250000     72.000000
 -0.750000  0.250000  0.650000     72.000000
  0.650000 -0.550000 -0.150000     72.000000
 -0.450000 -0.350000  0.850000     72.000000
  0.350000 -1.150000  0.450000     72.000000
  0.150000 -0.550000  0.650000     72.000000
 -0.650000  0.550000 -0.150000     72.000000
 -0.850000  0.350000  0.450000     72.000000
 -0.450000  1.150000 -0.350000     72.000000
 -0.650000  0.150000  0.550000     72.000000
  0.550000 -0.450000 -0.050000     72.000000
  0.450000  0.550000 -0.050000     72.000000
  0.450000 -1.050000  0.550000     72.000000
  0.050000 -0.450000  0.550000     72.000000
 -0.550000  0.450000 -0.050000     72.000000
 -0.950000  0.450000  0.550000     72.000000
  0.450000  0.050000  0.550000     72.000000
 -0.550000  0.050000  0.450000     72.000000
  0.450000 -0.350000  0.050000     72.000000
  0.350000  0.450000  0.050000     72.000000
 -0.450000  0.050000 -0.350000     72.000000
 -0.050000 -0.350000  0.450000     72.000000
 -0.450000  0.350000  0.050000     72.000000
 -0.050000 -0.450000 -0.350000     72.000000
  0.350000 -0.050000  0.450000     72.000000
 -0.450000 -0.050000  0.350000     72.000000
  0.350000 -0.250000  0.150000     72.000000
  0.250000  0.350000  0.150000     72.000000
 -0.350000  0.150000 -0.250000     72.000000
 -0.150000 -0.250000  0.350000     72.000000
 -0.350000  0.250000  0.150000     72.000000
 -0.150000 -0.350000 -0.250000     72.000000
  0.250000 -0.150000  0.350000     72.000000
 -0.350000 -0.150000  0.250000     72.000000
  0.050000  0.050000  0.650000     72.000000
 -0.050000  0.050000  0.650000     72.000000
 -0.050000  0.650000  0.050000     72.000000
 -0.650000  0.050000  0.050000     72.000000
 -0.050000  0.150000  0.750000     72.000000
 -0.150000 -0.050000  0.750000     72.000000
  0.050000  0.750000  0.150000     72.000000
 -0.750000  0.150000 -0.050000     72.000000
  0.050000 -0.150000  0.750000     72.000000
 -0.750000  0.050000  0.150000     72.000000
 -0.150000 -0.750000 -0.050000     72.000000
  0.050000 -0.750000 -0.150000     72.000000
  0.850000 -0.750000 -0.150000     72.000000
 -0.250000 -0.150000  0.850000     72.000000
  1.150000 -0.150000 -0.750000     72.000000
  0.150000 -0.750000  0.850000     72.000000
  0.150000 -0.250000  0.850000     72.000000
 -0.850000  0.150000  0.250000     72.000000
 -0.250000  1.150000 -0.150000     72.000000
 -0.850000  0.150000  0.750000     72.000000
  0.750000 -0.650000 -0.050000     72.000000
 -0.350000 -0.250000  0.950000     72.000000
  0.250000 -1.050000  0.350000     72.000000
  0.050000 -0.650000  0.750000     72.000000
 -0.750000  0.650000 -0.050000     72.000000
 -0.950000  0.250000  0.350000     72.000000
 -0.350000  1.050000 -0.250000     72.000000
 -0.750000  0.050000  0.650000     72.000000
  0.650000 -0.550000  0.050000     72.000000
 -0.450000 -0.350000  1.050000     72.000000
  0.350000 -0.950000  0.450000     72.000000
 -0.050000 -0.550000  0.650000     72.000000
 -0.650000  0.550000  0.050000     72.000000
 -1.050000  0.350000  0.450000     72.000000
 -0.450000  0.950000 -0.350000     72.000000
 -0.650000 -0.050000  0.550000     72.000000
  0.550000 -0.450000  0.150000     72.000000
  0.450000  0.550000  0.150000     72.000000
  0.450000 -0.850000  0.550000     72.000000
 -0.150000 -0.450000  0.550000     72.000000
 -0.550000  0.450000  0.150000     72.000000
 -1.150000  0.450000  0.550000     72.000000
  0.450000 -0.150000  0.550000     72.000000
 -0.550000 -0.150000  0.450000     72.000000
  0.450000 -0.350000  0.250000     72.000000
  0.350000  0.450000  0.250000     72.000000
 -0.450000  0.250000 -0.350000     72.000000
 -0.250000 -0.350000  0.450000     72.000000
 -0.450000  0.350000  0.250000     72.000000
 -0.250000 -0.450000 -0.350000     72.000000
  0.350000 -0.250000  0.450000     72.000000
 -0.450000 -0.250000  0.350000     72.000000
  0.050000  0.050000  0.850000     72.000000
 -0.050000  0.050000  0.850000     72.000000
 -0.050000  0.850000  0.050000     72.000000
 -0.850000  0.050000  0.050000     72.000000
  0.950000 -0.850000 -0.050000     72.000000
 -0.150000 -0.050000  0.950000     72.000000
  1.050000 -0.050000 -0.850000     72.000000
  0.050000 -0.850000  0.950000     72.000000
  0.050000 -0.150000  0.950000     72.000000
 -0.950000  0.050000  0.150000     72.000000
 -0.150000  1.050000 -0.050000     72.000000
 -0.950000  0.050000  0.850000     72.000000
  0.850000 -0.750000  0.050000     72.000000
 -0.250000 -0.150000  1.050000     72.000000
  0.150000 -0.950000  0.250000     72.000000
 -0.050000 -0.750000  0.850000     72.000000
 -0.850000  0.750000  0.050000     72.000000
 -1.050000  0.150000  0.250000     72.000000
 -0.250000  0.950000 -0.150000     72.000000
 -0.850000 -0.050000  0.750000     72.000000
  0.750000 -0.650000  0.150000     72.000000
 -0.350000 -0.250000  1.150000     72.000000
  0.250000 -0.850000  0.350000     72.000000
 -0.150000 -0.650000  0.750000     72.000000
 -0.750000  0.650000  0.150000     72.000000
 -1.150000  0.250000  0.350000     72.000000
 -0.350000  0.850000 -0.250000     72.000000
 -0.750000 -0.150000  0.650000     72.000000
  0.650000 -0.550000  0.250000     72.000000
 -0.450000 -0.350000  1.250000     72.000000
  0.350000 -0.750000  0.450000     72.000000
 -0.250000 -0.550000  0.650000     72.000000
 -0.650000  0.550000  0.250000     72.000000
 -1.250000  0.350000  0.450000     72.000000
 -0.450000  0.750000 -0.350000     72.000000
 -0.650000 -0.250000  0.550000     72.000000
  0.550000 -0.450000  0.350000     72.000000
  0.450000  0.550000  0.350000     72.000000
  0.450000 -0.650000  0.550000     72.000000
 -0.350000 -0.450000  0.550000     72.000000
 -0.550000  0.450000  0.350000     72.000000
 -1.350000  0.450000  0.550000     72.000000
  0.450000 -0.350000  0.550000     72.000000
 -0.550000 -0.350000  0.450000     72.000000
  0.050000  0.050000 -0.950000     72.000000
  0.950000 -0.950000  0.050000     72.000000
  0.950000  0.050000 -0.950000     72.000000
  0.950000  0.050000  0.050000     72.000000
 -0.050000  0.150000 -0.850000     72.000000
  0.850000 -1.050000  0.150000     72.000000
  0.050000 -0.850000  0.150000     72.000000
  0.850000  0.150000 -0.050000     72.000000
 -0.950000  0.850000  0.150000     72.000000
  0.850000  0.050000  0.150000     72.000000
 -0.150000  0.850000 -0.050000     72.000000
  0.050000  0.850000 -0.150000     72.000000
 -0.150000  0.250000 -0.750000     72.000000
  0.750000 -1.150000  0.250000     72.000000
  0.150000 -0.750000  0.250000     72.000000
  0.750000  0.250000 -0.150000     72.000000
 -0.850000  0.750000  0.250000     72.000000
  0.750000  0.150000  0.250000     72.000000
 -0.250000  0.750000 -0.150000     72.000000
  0.150000  0.750000 -0.250000     72.000000
 -0.250000  0.350000 -0.650000     72.000000
  0.650000 -1.250000  0.350000     72.000000
  0.250000 -0.650000  0.350000     72.000000
  0.650000  0.350000 -0.250000     72.000000
 -0.750000  0.650000  0.350000     72.000000
  0.650000  0.250000  0.350000     72.000000
 -0.350000  0.650000 -0.250000     72.000000
  0.250000  0.650000 -0.350000     72.000000
  0.050000  0.050000 -0.750000     72.000000
 -0.050000  0.050000 -0.750000     72.000000
 -0.050000 -0.750000  0.050000     72.000000
  0.750000  0.050000  0.050000     72.000000
 -0.050000  0.150000 -0.650000     72.000000
 -0.150000 -0.050000 -0.650000     72.000000
  0.050000 -0.650000  0.150000     72.000000
  0.650000  0.150000 -0.050000     72.000000
  0.050000 -0.150000 -0.650000     72.000000
  0.650000  0.050000  0.150000     72.000000
 -0.150000  0.650000 -0.050000     72.000000
  0.050000  0.650000 -0.150000     72.000000
 -0.150000  0.250000 -0.550000     72.000000
 -0.250000 -0.150000 -0.550000     72.000000
  0.150000 -0.550000  0.250000     72.000000
  0.550000  0.250000 -0.150000     72.000000
  0.150000 -0.250000 -0.550000     72.000000
  0.550000  0.150000  0.250000     72.000000
 -0.250000  0.550000 -0.150000     72.000000
  0.150000  0.550000 -0.250000     72.000000
  0.050000  0.050000 -0.550000     72.000000
 -0.050000  0.050000 -0.550000     72.000000
 -0.050000 -0.550000  0.050000     72.000000
  0.550000  0.050000  0.050000     72.000000
 -0.050000  0.150000 -0.450000     72.000000
 -0.150000 -0.050000 -0.450000     72.000000
  0.050000 -0.450000  0.150000     72.000000
  0.450000  0.150000 -0.050000     72.000000
  0.050000 -0.150000 -0.450000     72.000000
  0.450000  0.050000  0.150000     72.000000
 -0.150000  0.450000 -0.050000     72.000000
  0.050000  0.450000 -0.150000     72.000000
  0.050000  0.050000 -0.350000     72.000000
 -0.050000  0.050000 -0.350000     72.000000
 -0.050000 -0.350000  0.050000     72.000000
  0.350000  0.050000  0.050000     72.000000
  0.150000  0.150000  0.150000     24.000000
 -0.150000  0.150000  0.150000     72.000000
  0.050000  0.250000  0.250000     72.000000
 -0.250000  0.050000  0.250000     72.000000
 -0.050000  0.250000  0.250000     72.000000
 -0.250000  0.250000  0.050000     72.000000
 -0.050000  0.350000  0.350000     72.000000
 -0.350000 -0.050000  0.350000     72.000000
  0.050000  0.350000  0.350000     72.000000
 -0.350000  0.350000 -0.050000     72.000000
 -0.150000  0.450000  0.450000     72.000000
 -0.450000 -0.150000  0.450000     72.000000
  0.150000  0.450000  0.450000     72.000000
 -0.450000  0.450000 -0.150000     72.000000
  0.750000 -0.450000 -0.450000     72.000000
 -0.550000 -0.250000  0.550000     72.000000
  1.250000 -0.450000 -0.450000     72.000000
 -0.550000  0.550000 -0.250000     72.000000
  0.650000 -0.350000 -0.350000     72.000000
  0.350000  0.650000 -0.350000     72.000000
  1.350000 -0.350000 -0.350000     72.000000
  0.350000 -0.350000  0.650000     72.000000
  0.550000 -0.250000 -0.250000     72.000000
  0.250000  0.550000 -0.250000     72.000000
 -0.550000 -0.250000 -0.250000     72.000000
  0.250000 -0.250000  0.550000     72.000000
  0.450000 -0.150000 -0.150000     72.000000
  0.150000  0.450000 -0.150000     72.000000
 -0.450000 -0.150000 -0.150000     72.000000
  0.150000 -0.150000  0.450000     72.000000
  0.150000  0.150000  0.350000     72.000000
 -0.150000  0.150000  0.350000     72.000000
 -0.150000  0.350000  0.150000     72.000000
 -0.350000  0.150000  0.150000     72.000000
  0.050000  0.250000  0.450000     72.000000
 -0.250000  0.050000  0.450000     72.000000
 -0.050000  0.450000  0.250000     72.000000
 -0.450000  0.250000  0.050000     72.000000
 -0.050000 -0.250000  0.450000     72.000000
 -0.450000 -0.050000  0.250000     72.000000
 -0.250000 -0.450000  0.050000     72.000000
 -0.050000 -0.450000 -0.250000     72.000000
 -0.050000  0.350000  0.550000     72.000000
 -0.350000 -0.050000  0.550000     72.000000
  0.050000  0.550000  0.350000     72.000000
 -0.550000  0.350000 -0.050000     72.000000
  0.050000 -0.350000  0.550000     72.000000
 -0.550000  0.050000  0.350000     72.000000
 -0.350000 -0.550000 -0.050000     72.000000
  0.050000 -0.550000 -0.350000     72.000000
  0.850000 -0.550000 -0.350000     72.000000
 -0.450000 -0.150000  0.650000     72.000000
  1.150000 -0.350000 -0.550000     72.000000
 -0.650000  0.450000 -0.150000     72.000000
  0.150000 -0.450000  0.650000     72.000000
 -0.650000  0.150000  0.450000     72.000000
  0.550000  0.350000 -1.150000     72.000000
 -0.850000  0.350000  0.550000     72.000000
  0.750000 -0.450000 -0.250000     72.000000
 -0.550000 -0.250000  0.750000     72.000000
  1.250000 -0.250000 -0.450000     72.000000
  0.250000 -0.450000  0.750000     72.000000
  0.250000 -0.550000  0.750000     72.000000
 -0.750000  0.250000  0.550000     72.000000
 -0.550000  1.250000 -0.250000     72.000000
 -0.750000  0.250000  0.450000     72.000000
  0.650000 -0.350000 -0.150000     72.000000
  0.350000  0.650000 -0.150000     72.000000
  0.350000 -1.150000  0.650000     72.000000
  0.150000 -0.350000  0.650000     72.000000
 -0.650000  0.350000 -0.150000     72.000000
 -0.850000  0.350000  0.650000     72.000000
  0.350000  0.150000  0.650000     72.000000
 -0.650000  0.150000  0.350000     72.000000
  0.550000 -0.250000 -0.050000     72.000000
  0.250000  0.550000 -0.050000     72.000000
 -0.550000 -0.050000 -0.250000     72.000000
  0.050000 -0.250000  0.550000     72.000000
 -0.550000  0.250000 -0.050000     72.000000
  0.050000 -0.550000 -0.250000     72.000000
  0.250000  0.050000  0.550000     72.000000
 -0.550000  0.050000  0.250000     72.000000
  0.150000  0.150000  0.550000     72.000000
 -0.150000  0.150000  0.550000     72.000000
 -0.150000  0.550000  0.150000     72.000000
 -0.550000  0.150000  0.150000     72.000000
  0.050000  0.250000  0.650000     72.000000
 -0.250000  0.050000  0.650000     72.000000
 -0.050000  0.650000  0.250000     72.000000
 -0.650000  0.250000  0.050000     72.000000
 -0.050000 -0.250000  0.650000     72.000000
 -0.650000 -0.050000  0.250000     72.000000
 -0.250000 -0.650000  0.050000     72.000000
 -0.050000 -0.650000 -0.250000     72.000000
  0.950000 -0.650000 -0.250000     72.000000
 -0.350000 -0.050000  0.750000     72.000000
  1.050000 -0.250000 -0.650000     72.000000
 -0.750000  0.350000 -0.050000     72.000000
  0.050000 -0.350000  0.750000     72.000000
 -0.750000  0.050000  0.350000     72.000000
  0.650000  0.250000 -1.050000     72.000000
 -0.950000  0.250000  0.650000     72.000000
  0.850000 -0.550000 -0.150000     72.000000
 -0.450000 -0.150000  0.850000     72.000000
  1.150000 -0.150000 -0.550000     72.000000
  0.150000 -0.550000  0.850000     72.000000
  0.150000 -0.450000  0.850000     72.000000
 -0.850000  0.150000  0.450000     72.000000
 -0.450000  1.150000 -0.150000     72.000000
 -0.850000  0.150000  0.550000     72.000000
  0.750000 -0.450000 -0.050000     72.000000
 -0.550000 -0.250000  0.950000     72.000000
  0.250000 -1.050000  0.550000     72.000000
  0.050000 -0.450000  0.750000     72.000000
 -0.750000  0.450000 -0.050000     72.000000
 -0.950000  0.250000  0.550000     72.000000
 -0.550000  1.050000 -0.250000     72.000000
 -0.750000  0.050000  0.450000     72.000000
  0.650000 -0.350000  0.050000     72.000000
  0.350000  0.650000  0.050000     72.000000
  0.350000 -0.950000  0.650000     72.000000
 -0.050000 -0.350000  0.650000     72.000000
 -0.650000  0.350000  0.050000     72.000000
 -1.050000  0.350000  0.650000     72.000000
  0.350000 -0.050000  0.650000     72.000000
 -0.650000 -0.050000  0.350000     72.000000
  0.150000  0.150000  0.750000     72.000000
 -0.150000  0.150000  0.750000     72.000000
 -0.150000  0.750000  0.150000     72.000000
 -0.750000  0.150000  0.150000     72.000000
  1.050000 -0.750000 -0.150000     72.000000
 -0.250000  0.050000  0.850000     72.000000
  0.950000 -0.150000 -0.750000     72.000000
 -0.850000  0.250000  0.050000     72.000000
 -0.050000 -0.250000  0.850000     72.000000
 -0.850000 -0.050000  0.250000     72.000000
  0.750000  0.150000 -0.950000     72.000000
 -1.050000  0.150000  0.750000     72.000000
  0.950000 -0.650000 -0.050000     72.000000
 -0.350000 -0.050000  0.950000     72.000000
  1.050000 -0.050000 -0.650000     72.000000
  0.050000 -0.650000  0.950000     72.000000
  0.050000 -0.350000  0.950000     72.000000
 -0.950000  0.050000  0.350000     72.000000
 -0.350000  1.050000 -0.050000     72.000000
 -0.950000  0.050000  0.650000     72.000000
  0.850000 -0.550000  0.050000     72.000000
 -0.450000 -0.150000  1.050000     72.000000
  0.150000 -0.950000  0.450000     72.000000
 -0.050000 -0.550000  0.850000     72.000000
 -0.850000  0.550000  0.050000     72.000000
 -1.050000  0.150000  0.450000     72.000000
 -0.450000  0.950000 -0.150000     72.000000
 -0.850000 -0.050000  0.550000     72.000000
  0.750000 -0.450000  0.150000     72.000000
 -0.550000 -0.250000  1.150000     72.000000
  0.250000 -0.850000  0.550000     72.000000
 -0.150000 -0.450000  0.750000     72.000000
 -0.750000  0.450000  0.150000     72.000000
 -1.150000  0.250000  0.550000     72.000000
 -0.550000  0.850000 -0.250000     72.000000
 -0.750000 -0.150000  0.450000     72.000000
  0.150000  0.150000 -1.050000     72.000000
  0.850000 -0.850000 -0.050000     72.000000
  0.850000 -0.050000 -0.850000     72.000000
 -0.950000  0.150000  0.150000     72.000000
  0.050000  0.250000 -0.950000     72.000000
  0.750000 -0.950000  0.050000     72.000000
  0.950000  0.050000 -0.750000     72.000000
 -0.050000 -0.750000  1.050000     72.000000
 -0.050000 -0.250000  1.050000     72.000000
 -0.050000  0.950000 -0.750000     72.000000
 -0.250000  0.950000  0.050000     72.000000
 -0.050000  0.950000 -0.250000     72.000000
 -0.050000  0.350000 -0.850000     72.000000
  0.650000 -1.050000  0.150000     72.000000
  0.050000 -0.850000  0.350000     72.000000
 -0.150000 -0.650000  0.950000     72.000000
 -0.950000  0.650000  0.150000     72.000000
 -0.150000  1.050000 -0.650000     72.000000
 -0.350000  0.850000 -0.050000     72.000000
  0.050000  0.850000 -0.350000     72.000000
  0.150000  0.150000 -0.850000     72.000000
  0.850000 -0.850000  0.150000     72.000000
  0.850000  0.150000 -0.850000     72.000000
  0.850000  0.150000  0.150000     72.000000
  0.050000  0.250000 -0.750000     72.000000
  0.750000 -0.950000  0.250000     72.000000
 -0.050000 -0.750000  0.250000     72.000000
  0.750000  0.250000  0.050000     72.000000
 -1.050000  0.750000  0.250000     72.000000
  0.750000 -0.050000  0.250000     72.000000
 -0.250000  0.750000  0.050000     72.000000
 -0.050000  0.750000 -0.250000     72.000000
  0.150000  0.150000 -0.650000     72.000000
 -0.150000  0.150000 -0.650000     72.000000
 -0.150000 -0.650000  0.150000     72.000000
  0.650000  0.150000  0.150000     72.000000
  0.250000  0.250000  0.250000     24.000000
 -0.250000  0.250000  0.250000     72.000000
  0.150000  0.350000  0.350000     72.000000
 -0.350000  0.150000  0.350000     72.000000
 -0.150000  0.350000  0.350000     72.000000
 -0.350000  0.350000  0.150000     72.000000
  0.050000  0.450000  0.450000     72.000000
 -0.450000  0.050000  0.450000     72.000000
 -0.050000  0.450000  0.450000     72.000000
 -0.450000  0.450000  0.050000     72.000000
  0.950000 -0.450000 -0.450000     72.000000
 -0.550000 -0.050000  0.550000     72.000000
  1.050000 -0.450000 -0.450000     72.000000
 -0.550000  0.550000 -0.050000     72.000000
  0.850000 -0.350000 -0.350000     72.000000
 -0.650000 -0.150000  0.650000     72.000000
  1.150000 -0.350000 -0.350000     72.000000
 -0.650000  0.650000 -0.150000     72.000000
  0.750000 -0.250000 -0.250000     72.000000
  0.250000  0.750000 -0.250000     72.000000
  1.250000 -0.250000 -0.250000     72.000000
  0.250000 -0.250000  0.750000     72.000000
  0.250000  0.250000  0.450000     72.000000
 -0.250000  0.250000  0.450000     72.000000
 -0.250000  0.450000  0.250000     72.000000
 -0.450000  0.250000  0.250000     72.000000
  0.150000  0.350000  0.550000     72.000000
 -0.350000  0.150000  0.550000     72.000000
 -0.150000  0.550000  0.350000     72.000000
 -0.550000  0.350000  0.150000     72.000000
 -0.150000 -0.350000  0.550000     72.000000
 -0.550000 -0.150000  0.350000     72.000000
 -0.350000 -0.550000  0.150000     72.000000
 -0.150000 -0.550000 -0.350000     72.000000
  1.050000 -0.550000 -0.350000     72.000000
 -0.450000  0.050000  0.650000     72.000000
  0.950000 -0.350000 -0.550000     72.000000
 -0.650000  0.450000  0.050000     72.000000
 -0.050000 -0.450000  0.650000     72.000000
 -0.650000 -0.050000  0.450000     72.000000
  0.550000  0.350000 -0.950000     72.000000
 -1.050000  0.350000  0.550000     72.000000
  0.950000 -0.450000 -0.250000     72.000000
 -0.550000 -0.050000  0.750000     72.000000
  1.050000 -0.250000 -0.450000     72.000000
 -0.750000  0.550000 -0.050000     72.000000
  0.050000 -0.550000  0.750000     72.000000
 -0.750000  0.050000  0.550000     72.000000
  0.450000  0.250000 -1.050000     72.000000
 -0.950000  0.250000  0.450000     72.000000
  0.850000 -0.350000 -0.150000     72.000000
 -0.650000 -0.150000  0.850000     72.000000
  1.150000 -0.150000 -0.350000     72.000000
  0.150000 -0.350000  0.850000     72.000000
  0.150000 -0.650000  0.850000     72.000000
 -0.850000  0.150000  0.650000     72.000000
 -0.650000  1.150000 -0.150000     72.000000
 -0.850000  0.150000  0.350000     72.000000
  0.250000  0.250000  0.650000     72.000000
 -0.250000  0.250000  0.650000     72.000000
 -0.250000  0.650000  0.250000     72.000000
 -0.650000  0.250000  0.250000     72.000000
  1.150000 -0.650000 -0.250000     72.000000
 -0.350000  0.150000  0.750000     72.000000
  0.850000 -0.250000 -0.650000     72.000000
 -0.750000  0.350000  0.150000     72.000000
 -0.150000 -0.350000  0.750000     72.000000
 -0.750000 -0.150000  0.350000     72.000000
  0.650000  0.250000 -0.850000     72.000000
 -1.150000  0.250000  0.650000     72.000000
  1.050000 -0.550000 -0.150000     72.000000
 -0.450000  0.050000  0.850000     72.000000
  0.950000 -0.150000 -0.550000     72.000000
 -0.850000  0.450000  0.050000     72.000000
 -0.050000 -0.450000  0.850000     72.000000
 -0.850000 -0.050000  0.450000     72.000000
  0.550000  0.150000 -0.950000     72.000000
 -1.050000  0.150000  0.550000     72.000000
  0.950000 -0.450000 -0.050000     72.000000
 -0.550000 -0.050000  0.950000     72.000000
  1.050000 -0.050000 -0.450000     72.000000
  0.050000 -0.450000  0.950000     72.000000
  0.050000 -0.550000  0.950000     72.000000
 -0.950000  0.050000  0.550000     72.000000
 -0.550000  1.050000 -0.050000     72.000000
 -0.950000  0.050000  0.450000     72.000000
  0.250000  0.250000 -1.150000     72.000000
  0.750000 -0.750000 -0.150000     72.000000
  0.750000 -0.150000 -0.750000     72.000000
 -0.850000  0.250000  0.250000     72.000000
  0.150000  0.350000 -1.050000     72.000000
  0.650000 -0.850000 -0.050000     72.000000
  0.850000 -0.050000 -0.650000     72.000000
 -0.950000  0.350000  0.150000     72.000000
 -0.150000 -0.350000  0.950000     72.000000
  0.050000  0.850000 -0.650000     72.000000
  0.650000  0.050000 -0.850000     72.000000
 -0.150000  1.050000 -0.350000     72.000000
  0.250000  0.250000 -0.950000     72.000000
  0.750000 -0.750000  0.050000     72.000000
  0.750000  0.050000 -0.750000     72.000000
 -1.050000  0.250000  0.250000     72.000000
  0.350000  0.350000  0.350000     24.000000
 -0.350000  0.350000  0.350000     72.000000
  0.250000  0.450000  0.450000     72.000000
 -0.450000  0.250000  0.450000     72.000000
 -0.250000  0.450000  0.450000     72.000000
 -0.450000  0.450000  0.250000     72.000000
  1.150000 -0.450000 -0.450000     72.000000
 -0.550000  0.150000  0.550000     72.000000
  0.850000 -0.450000 -0.450000     72.000000
 -0.550000  0.550000  0.150000     72.000000
  1.050000 -0.350000 -0.350000     72.000000
 -0.650000  0.050000  0.650000     72.000000
  0.950000 -0.350000 -0.350000     72.000000
 -0.650000  0.650000  0.050000     72.000000
  0.350000  0.350000  0.550000     72.000000
 -0.350000  0.350000  0.550000     72.000000
 -0.350000  0.550000  0.350000     72.000000
 -0.550000  0.350000  0.350000     72.000000
  1.250000 -0.550000 -0.350000     72.000000
 -0.450000  0.250000  0.650000     72.000000
  0.750000 -0.350000 -0.550000     72.000000
 -0.650000  0.450000  0.250000     72.000000
 -0.250000 -0.450000  0.650000     72.000000
 -0.650000 -0.250000  0.450000     72.000000
  0.550000  0.350000 -0.750000     72.000000
 -1.250000  0.350000  0.550000     72.000000
  1.150000 -0.450000 -0.250000     72.000000
 -0.550000  0.150000  0.750000     72.000000
  0.850000 -0.250000 -0.450000     72.000000
 -0.750000  0.550000  0.150000     72.000000
 -0.150000 -0.550000  0.750000     72.000000
 -0.750000 -0.150000  0.550000     72.000000
  0.450000  0.250000 -0.850000     72.000000
 -1.150000  0.250000  0.450000     72.000000
  0.350000  0.350000 -1.250000     72.000000
  0.650000 -0.650000 -0.250000     72.000000
  0.650000 -0.250000 -0.650000     72.000000
 -0.750000  0.350000  0.350000     72.000000
  0.450000  0.450000  0.450000     24.000000
 -0.450000  0.450000  0.450000     72.000000
  1.350000 -0.450000 -0.450000     72.000000
 -0.550000  0.350000  0.550000     72.000000
  0.650000 -0.450000 -0.450000     72.000000
 -0.550000  0.550000  0.350000     72.000000
 


--------------------------------------------------------------------------------------------------------




 Dimension of arrays:
   k-points           NKPTS =    670   k-points in BZ     NKDIM =    670   number of bands    NBANDS=     30
   number of dos      NEDOS =    301   number of ions     NIONS =      3
   non local maximal  LDIM  =      6   non local SUM 2l+1 LMDIM =     18
   total plane-waves  NPLWV =   4096
   max r-space proj   IRMAX =      1   max aug-charges    IRDMAX=   4838
   dimension x,y,z NGX =    16 NGY =   16 NGZ =   16
   dimension x,y,z NGXF=    32 NGYF=   32 NGZF=   32
   support grid    NGXF=    32 NGYF=   32 NGZF=   32
   ions per type =               1   2
 NGX,Y,Z   is equivalent  to a cutoff of   6.27,  6.27,  6.27 a.u.
 NGXF,Y,Z  is equivalent  to a cutoff of  12.54, 12.54, 12.54 a.u.


 I would recommend the setting:
   dimension x,y,z NGX =    16 NGY =   16 NGZ =   16
 SYSTEM =  AuAl2                                   
 POSCAR =  AuAl2                                   

 Startparameter for this run:
   NWRITE =      2    write-flag & timer
   PREC   = normal    normal or accurate (medium, high low for compatibility)
   ISTART =      0    job   : 0-new  1-cont  2-samecut
   ICHARG =      2    charge: 1-file 2-atom 10-const
   ISPIN  =      1    spin polarized calculation?
   LNONCOLLINEAR =      T non collinear calculations
   LSORBIT =      T    spin-orbit coupling
   INIWAV =      1    electr: 0-lowe 1-rand  2-diag
   LASPH  =      F    aspherical Exc in radial PAW
   METAGGA=      F    non-selfconsistent MetaGGA calc.

 Electronic Relaxation 1
   ENCUT  =  241.0 eV  17.71 Ry    4.21 a.u.   5.37  5.37  5.37*2*pi/ulx,y,z
   ENINI  =  241.0     initial cutoff
   ENAUG  =  356.7 eV  augmentation charge cutoff
   NELM   =     60;   NELMIN=  2; NELMDL= -5     # of ELM steps 
   EDIFF  = 0.1E-03   stopping-criterion for ELM
   LREAL  =      F    real-space projection
   NLSPLINE    = F    spline interpolate recip. space projectors
   LCOMPAT=      F    compatible to vasp.4.4
   GGA_COMPAT  = T    GGA compatible to vasp.4.4-vasp.4.6
   LMAXPAW     = -100 max onsite density
   LMAXMIX     =    2 max onsite mixed and CHGCAR
   VOSKOWN=      0    Vosko Wilk Nusair interpolation
   ROPT   =    0.00000   0.00000
 Ionic relaxation
   EDIFFG = 0.1E-02   stopping-criterion for IOM
   NSW    =      0    number of steps for IOM
   NBLOCK =      1;   KBLOCK =      1    inner block; outer block 
   IBRION =     -1    ionic relax: 0-MD 1-quasi-New 2-CG
   NFREE  =      0    steps in history (QN), initial steepest desc. (CG)
   ISIF   =      2    stress and relaxation
   IWAVPR =      0    prediction:  0-non 1-charg 2-wave 3-comb
   ISYM   =      2    0-nonsym 1-usesym 2-fastsym
   LCORR  =      T    Harris-Foulkes like correction to forces

   POTIM  = 0.5000    time-step for ionic-motion
   TEIN   =    0.0    initial temperature
   TEBEG  =    0.0;   TEEND  =   0.0 temperature during run
   SMASS  =  -3.00    Nose mass-parameter (am)
   estimated Nose-frequenzy (Omega)   =  0.10E-29 period in steps =****** mass=  -0.411E-27a.u.
   SCALEE = 1.0000    scale energy and forces
   NPACO  =    256;   APACO  = 16.0  distance and # of slots for P.C.
   PSTRESS=    0.0 pullay stress

  Mass of Ions in am
   POMASS = 196.97 26.98
  Ionic Valenz
   ZVAL   =  11.00  3.00
  Atomic Wigner-Seitz radii
   RWIGS  =  -1.00 -1.00
  virtual crystal weights 
   VCA    =   1.00  1.00
   NELECT =      17.0000    total number of electrons
   NUPDOWN=      -1.0000    fix difference up-down

 DOS related values:
   EMIN   =  10.00;   EMAX   =-10.00  energy-range for DOS
   EFERMI =   0.00
   ISMEAR =     1;   SIGMA  =   0.20  broadening in eV -4-tet -1-fermi 0-gaus

 Electronic relaxation 2 (details)
   IALGO  =     38    algorithm
   LDIAG  =      T    sub-space diagonalisation (order eigenvalues)
   LSUBROT=      F    optimize rotation matrix (better conditioning)
   TURBO    =      0    0=normal 1=particle mesh
   IRESTART =      0    0=no restart 2=restart with 2 vectors
   NREBOOT  =      0    no. of reboots
   NMIN     =      0    reboot dimension
   EREF     =   0.00    reference energy to select bands
   IMIX   =      4    mixing-type and parameters
     AMIX     =   0.40;   BMIX     =  1.00
     AMIX_MAG =   1.60;   BMIX_MAG =  1.00
     AMIN     =   0.10
     WC   =   100.;   INIMIX=   1;  MIXPRE=   1;  MAXMIX= -45

 Intra band minimization:
   WEIMIN = 0.0000     energy-eigenvalue tresh-hold
   EBREAK =  0.83E-06  absolut break condition
   DEPER  =   0.30     relativ break condition  

   TIME   =   0.40     timestep for ELM

  volume/ion in A,a.u.               =      18.00       121.47
  Fermi-wavevector in a.u.,A,eV,Ry     =   1.113679  2.104547 16.875035  1.240280
  Thomas-Fermi vector in A             =   2.250266
 
 Write flags
   LWAVE  =      T    write WAVECAR
   LCHARG =      T    write CHGCAR
   LVTOT  =      F    write LOCPOT, total local potential
   LVHAR  =      F    write LOCPOT, Hartree potential only
   LELF   =      F    write electronic localiz. function (ELF)
   LORBIT =      0    0 simple, 1 ext, 2 COOP (PROOUT)


 Dipole corrections
   LMONO  =      F    monopole corrections only (constant potential shift)
   LDIPOL =      F    correct potential (dipole corrections)
   IDIPOL =      0    1-x, 2-y, 3-z, 4-all directions 
   EPSILON=  1.0000000 bulk dielectric constant

 Exchange correlation treatment:
   GGA     =    --    GGA type
   LEXCH   =     2    internal setting for exchange type
   VOSKOWN=      0    Vosko Wilk Nusair interpolation
   LHFCALC =     F    Hartree Fock is set to
   LHFONE  =     F    Hartree Fock one center treatment
   AEXX    =    0.0000 exact exchange contribution

 Linear response parameters
   LEPSILON=     F    determine dielectric tensor
   LRPA    =     F    only Hartree local field effects (RPA)
   LNABLA  =     F    use nabla operator in PAW spheres
   LVEL    =     F    velocity operator in full k-point grid
   LINTERFAST=   F  fast interpolation
   KINTER  =     0    interpolate to denser k-point grid
   CSHIFT  =0.1000    complex shift for real part using Kramers Kronig
   OMEGAMAX=  -1.0    maximum frequency
   DEG_THRESHOLD= 0.2000000E-02 threshold for treating states as degnerate
   RTIME   =    0.100 relaxation time in fs

 Orbital magnetization related:
   ORBITALMAG=     F  switch on orbital magnetization
   LCHIMAG   =     F  perturbation theory with respect to B field
   DQ        =  0.001000  dq finite difference perturbation B field



--------------------------------------------------------------------------------------------------------


 Static calculation
 charge density and potential will be updated during run
 non collinear spin polarized calculation
 Variant of blocked Davidson
 Davidson routine will perform the subspace rotation
 perform sub-space diagonalisation
    after iterative eigenvector-optimisation
 modified Broyden-mixing scheme, WC =      100.0
 initial mixing is a Kerker type mixing with AMIX =  0.4000 and BMIX =      1.0000
 Hartree-type preconditioning will be used
 using additional bands           21
[...]
    6.777530    2.886066    2.886066    2.886066   -0.000123   -0.000123   -0.000123
    7.028549    2.770408    2.770408    2.770408   -0.000028   -0.000028   -0.000028
    7.279569    2.271486    2.271486    2.271486   -0.000021   -0.000021   -0.000021
    7.530588    2.149515    2.149515    2.149515    0.000013    0.000013    0.000013
    7.781608    2.477920    2.477920    2.477920   -0.000021   -0.000021   -0.000021
    8.032628    2.482103    2.482103    2.482103    0.000028    0.000028    0.000028
    8.283647    2.355433    2.355433    2.355433    0.000009    0.000009    0.000009
    8.534667    2.497552    2.497552    2.497552    0.000033    0.000033    0.000033
    8.785687    2.455543    2.455543    2.455543    0.000106    0.000106    0.000106
    9.036706    2.212529    2.212529    2.212529    0.000029    0.000029    0.000029
    9.287726    1.908204    1.908204    1.908204   -0.000047   -0.000047   -0.000047
    9.538745    1.878962    1.878962    1.878962   -0.000090   -0.000090   -0.000090
    9.789765    2.128871    2.128871    2.128871   -0.000178   -0.000178   -0.000178
   10.040785    2.058703    2.058703    2.058703   -0.000111   -0.000111   -0.000111
   10.291804    1.717135    1.717135    1.717135   -0.000029   -0.000029   -0.000029
   10.542824    1.611557    1.611557    1.611557   -0.000015   -0.000015   -0.000015
   10.793843    1.560639    1.560639    1.560639   -0.000035   -0.000035   -0.000035
   11.044863    1.559299    1.559299    1.559299   -0.000431   -0.000431   -0.000431
   11.295883    1.533427    1.533427    1.533427   -0.000167   -0.000167   -0.000167
   11.546902    1.482198    1.482198    1.482198   -0.000074   -0.000074   -0.000074
   11.797922    1.387214    1.387214    1.387214    0.000206    0.000206    0.000206
   12.048942    1.337173    1.337173    1.337173    0.000127    0.000127    0.000127
   12.299961    1.278928    1.278928    1.278928    0.000049    0.000049    0.000049
   12.550981    1.222313    1.222313    1.222313    0.000060    0.000060    0.000060
   12.802000    1.137297    1.137297    1.137297    0.000133    0.000133    0.000133
   13.053020    1.059777    1.059777    1.059777    0.000048    0.000048    0.000048
   13.304040    0.943187    0.943187    0.943187   -0.000048   -0.000048   -0.000048
   13.555059    0.914006    0.914006    0.914006   -0.000017   -0.000017   -0.000017
   13.806079    0.812195    0.812195    0.812195   -0.000016   -0.000016   -0.000016
   14.057098    0.714477    0.714477    0.714477    0.000001    0.000001    0.000001
   14.308118    0.630860    0.630860    0.630860   -0.000015   -0.000015   -0.000015
   14.559138    0.566879    0.566879    0.566879   -0.000043   -0.000043   -0.000043
   14.810157    0.438704    0.438704    0.438704   -0.000029   -0.000029   -0.000029
   15.061177    0.383101    0.383101    0.383101   -0.000034   -0.000034   -0.000034
   15.312196    0.323270    0.323270    0.323270   -0.000053   -0.000053   -0.000053
   15.563216    0.289450    0.289450    0.289450    0.000027    0.000027    0.000027
   15.814236    0.254685    0.254685    0.254685    0.000084    0.000084    0.000084
   16.065255    0.221748    0.221748    0.221748    0.000044    0.000044    0.000044
   16.316275    0.204939    0.204939    0.204939    0.000050    0.000050    0.000050
   16.567295    0.157096    0.157096    0.157096    0.000025    0.000025    0.000025
   16.818314    0.145870    0.145870    0.145870   -0.000004   -0.000004   -0.000004
   17.069334    0.110612    0.110612    0.110612    0.000004    0.000004    0.000004
   17.320353    0.089206    0.089206    0.089206    0.000006    0.000006    0.000006
   17.571373    0.066266    0.066266    0.066266    0.000135    0.000135    0.000135
   17.822393    0.046417    0.046417    0.046417    0.000102    0.000102    0.000102
   18.073412    0.022769    0.022769    0.022769    0.000008    0.000008    0.000008
   18.324432    0.016803    0.016803    0.016803    0.000005    0.000005    0.000005
   18.575451    0.014500    0.014500    0.014500    0.000003    0.000003    0.000003
   18.826471    0.012938    0.012938    0.012938    0.000002    0.000002    0.000002
   19.077491    0.011759    0.011759    0.011759    0.000001    0.000001    0.000001
   19.328510    0.010810    0.010810    0.010810    0.000001    0.000001    0.000001
   19.579530    0.010016    0.010016    0.010016    0.000001    0.000001    0.000001
   19.830550    0.009334    0.009334    0.009334    0.000000    0.000000    0.000000
   20.081569    0.008738    0.008738    0.008738    0.000000    0.000000    0.000000
   20.332589    0.008209    0.008209    0.008209    0.000000    0.000000    0.000000
   20.583608    0.007735    0.007735    0.007735    0.000000    0.000000    0.000000
   20.834628    0.007308    0.007308    0.007308    0.000000    0.000000    0.000000
   21.085648    0.006920    0.006920    0.006920    0.000000    0.000000    0.000000
   21.336667    0.006564    0.006564    0.006564    0.000000    0.000000    0.000000
   21.587687    0.006239    0.006239    0.006239    0.000000    0.000000    0.000000
   21.838706    0.005938    0.005938    0.005938    0.000000    0.000000    0.000000
   22.089726    0.005660    0.005660    0.005660    0.000000    0.000000    0.000000
   22.340746    0.005402    0.005402    0.005402    0.000000    0.000000    0.000000
   22.591765    0.005162    0.005162    0.005162    0.000000    0.000000    0.000000
   22.842785    0.004938    0.004938    0.004938    0.000000    0.000000    0.000000
   23.093805    0.004728    0.004728    0.004728    0.000000    0.000000    0.000000
   23.344824    0.004532    0.004532    0.004532    0.000000    0.000000    0.000000
   23.595844    0.004348    0.004348    0.004348    0.000000    0.000000    0.000000
   23.846863    0.004175    0.004175    0.004175    0.000000    0.000000    0.000000
   24.097883    0.004012    0.004012    0.004012    0.000000    0.000000    0.000000
   24.348903    0.003858    0.003858    0.003858    0.000000    0.000000    0.000000
   24.599922    0.003713    0.003713    0.003713    0.000000    0.000000    0.000000
   24.850942    0.003575    0.003575    0.003575    0.000000    0.000000    0.000000

  frequency dependent      REAL DIELECTRIC FUNCTION (independent particle, no local field effects)
     E(ev)      X         Y         Z        XY        YZ        ZX
  --------------------------------------------------------------------------------------
    0.000000   49.231691   49.231691   49.231691   -0.001356   -0.001356   -0.001356
    0.251020   53.487472   53.487472   53.487472   -0.001024   -0.001024   -0.001024
    0.502039   31.744138   31.744138   31.744138    0.002403    0.002403    0.002403
    0.753059   10.880437   10.880437   10.880437    0.000321    0.000321    0.000321
    1.004078   -0.052512   -0.052512   -0.052512    0.000354    0.000354    0.000354
    1.255098   -2.540208   -2.540208   -2.540208    0.000404    0.000404    0.000404
    1.506118    2.945547    2.945547    2.945547    0.000641    0.000641    0.000641
    1.757137    8.414602    8.414602    8.414602    0.000955    0.000955    0.000955
    2.008157   11.163235   11.163235   11.163235    0.001159    0.001159    0.001159
    2.259177   13.719521   13.719521   13.719521    0.001076    0.001076    0.001076
    2.510196   12.997246   12.997246   12.997246    0.000352    0.000352    0.000352
    2.761216   12.477000   12.477000   12.477000   -0.001074   -0.001074   -0.001074
    3.012235    5.639213    5.639213    5.639213   -0.001579   -0.001579   -0.001579
    3.263255    0.472245    0.472245    0.472245   -0.002117   -0.002117   -0.002117
    3.514275   -2.859280   -2.859280   -2.859280   -0.001089   -0.001089   -0.001089
    3.765294   -3.205592   -3.205592   -3.205592   -0.000634   -0.000634   -0.000634
    4.016314   -3.023705   -3.023705   -3.023705   -0.000680   -0.000680   -0.000680
    4.267333   -4.200961   -4.200961   -4.200961   -0.000343   -0.000343   -0.000343
    4.518353   -3.177282   -3.177282   -3.177282    0.000032    0.000032    0.000032
    4.769373   -2.575490   -2.575490   -2.575490   -0.000284   -0.000284   -0.000284
    5.020392   -3.529270   -3.529270   -3.529270   -0.000133   -0.000133   -0.000133
    5.271412   -3.249405   -3.249405   -3.249405    0.000216    0.000216    0.000216
    5.522432   -2.276279   -2.276279   -2.276279    0.000159    0.000159    0.000159
    5.773451   -1.849547   -1.849547   -1.849547    0.000008    0.000008    0.000008
    6.024471   -2.478730   -2.478730   -2.478730    0.000121    0.000121    0.000121
    6.275490   -2.587441   -2.587441   -2.587441    0.000080    0.000080    0.000080
    6.526510   -1.719970   -1.719970   -1.719970    0.000079    0.000079    0.000079
    6.777530   -1.297627   -1.297627   -1.297627    0.000142    0.000142    0.000142
    7.028549   -1.469669   -1.469669   -1.469669    0.000119    0.000119    0.000119
    7.279569   -1.282816   -1.282816   -1.282816    0.000093    0.000093    0.000093
    7.530588   -0.753212   -0.753212   -0.753212    0.000065    0.000065    0.000065
    7.781608   -0.527314   -0.527314   -0.527314    0.000068    0.000068    0.000068
    8.032628   -0.715396   -0.715396   -0.715396    0.000036    0.000036    0.000036
    8.283647   -0.619954   -0.619954   -0.619954    0.000027    0.000027    0.000027
    8.534667   -0.544940   -0.544940   -0.544940    0.000056    0.000056    0.000056
    8.785687   -0.823889   -0.823889   -0.823889   -0.000023   -0.000023   -0.000023
    9.036706   -0.902608   -0.902608   -0.902608   -0.000123   -0.000123   -0.000123
    9.287726   -0.820852   -0.820852   -0.820852   -0.000110   -0.000110   -0.000110
    9.538745   -0.516212   -0.516212   -0.516212   -0.000104   -0.000104   -0.000104
    9.789765   -0.520896   -0.520896   -0.520896   -0.000035   -0.000035   -0.000035
   10.040785   -0.851043   -0.851043   -0.851043    0.000079    0.000079    0.000079
   10.291804   -0.843882   -0.843882   -0.843882    0.000051    0.000051    0.000051
   10.542824   -0.717447   -0.717447   -0.717447   -0.000005   -0.000005   -0.000005
   10.793843   -0.614683   -0.614683   -0.614683   -0.000154   -0.000154   -0.000154
   11.044863   -0.613777   -0.613777   -0.613777   -0.000036   -0.000036   -0.000036
   11.295883   -0.587493   -0.587493   -0.587493    0.000322    0.000322    0.000322
   11.546902   -0.659971   -0.659971   -0.659971    0.000285    0.000285    0.000285
   11.797922   -0.644050   -0.644050   -0.644050    0.000251    0.000251    0.000251
   12.048942   -0.627425   -0.627425   -0.627425    0.000014    0.000014    0.000014
   12.299961   -0.659793   -0.659793   -0.659793    0.000033    0.000033    0.000033
   12.550981   -0.640517   -0.640517   -0.640517    0.000048    0.000048    0.000048
   12.802000   -0.695884   -0.695884   -0.695884    0.000033    0.000033    0.000033
   13.053020   -0.669007   -0.669007   -0.669007   -0.000114   -0.000114   -0.000114
   13.304040   -0.682529   -0.682529   -0.682529   -0.000031   -0.000031   -0.000031
   13.555059   -0.635672   -0.635672   -0.635672    0.000007    0.000007    0.000007
   13.806079   -0.670982   -0.670982   -0.670982    0.000009    0.000009    0.000009
   14.057098   -0.650949   -0.650949   -0.650949    0.000015    0.000015    0.000015
   14.308118   -0.590947   -0.590947   -0.590947   -0.000014   -0.000014   -0.000014
   14.559138   -0.598865   -0.598865   -0.598865    0.000013    0.000013    0.000013
   14.810157   -0.544351   -0.544351   -0.544351    0.000041    0.000041    0.000041
   15.061177   -0.464100   -0.464100   -0.464100    0.000011    0.000011    0.000011
   15.312196   -0.406467   -0.406467   -0.406467    0.000103    0.000103    0.000103
   15.563216   -0.334769   -0.334769   -0.334769    0.000107    0.000107    0.000107
   15.814236   -0.294743   -0.294743   -0.294743    0.000047    0.000047    0.000047
   16.065255   -0.230398   -0.230398   -0.230398    0.000027    0.000027    0.000027
   16.316275   -0.208016   -0.208016   -0.208016    0.000000    0.000000    0.000000
   16.567295   -0.153838   -0.153838   -0.153838   -0.000007   -0.000007   -0.000007
   16.818314   -0.111183   -0.111183   -0.111183    0.000005    0.000005    0.000005
   17.069334   -0.081724   -0.081724   -0.081724    0.000038    0.000038    0.000038
   17.320353   -0.029238   -0.029238   -0.029238    0.000057    0.000057    0.000057
   17.571373    0.007849    0.007849    0.007849    0.000103    0.000103    0.000103
   17.822393    0.045326    0.045326    0.045326   -0.000107   -0.000107   -0.000107
   18.073412    0.094716    0.094716    0.094716   -0.000054   -0.000054   -0.000054
   18.324432    0.142448    0.142448    0.142448   -0.000031   -0.000031   -0.000031
   18.575451    0.181507    0.181507    0.181507   -0.000022   -0.000022   -0.000022
   18.826471    0.215773    0.215773    0.215773   -0.000017   -0.000017   -0.000017
   19.077491    0.246672    0.246672    0.246672   -0.000013   -0.000013   -0.000013
   19.328510    0.274936    0.274936    0.274936   -0.000011   -0.000011   -0.000011
   19.579530    0.301031    0.301031    0.301031   -0.000009   -0.000009   -0.000009
   19.830550    0.325285    0.325285    0.325285   -0.000007   -0.000007   -0.000007
   20.081569    0.347940    0.347940    0.347940   -0.000006   -0.000006   -0.000006
   20.332589    0.369189    0.369189    0.369189   -0.000005   -0.000005   -0.000005
   20.583608    0.389184    0.389184    0.389184   -0.000005   -0.000005   -0.000005
   20.834628    0.408051    0.408051    0.408051   -0.000004   -0.000004   -0.000004
   21.085648    0.425895    0.425895    0.425895   -0.000004   -0.000004   -0.000004
   21.336667    0.442808    0.442808    0.442808   -0.000003   -0.000003   -0.000003
   21.587687    0.458868    0.458868    0.458868   -0.000003   -0.000003   -0.000003
   21.838706    0.474143    0.474143    0.474143   -0.000002   -0.000002   -0.000002
   22.089726    0.488692    0.488692    0.488692   -0.000002   -0.000002   -0.000002
   22.340746    0.502569    0.502569    0.502569   -0.000002   -0.000002   -0.000002
   22.591765    0.515822    0.515822    0.515822   -0.000002   -0.000002   -0.000002
   22.842785    0.528493    0.528493    0.528493   -0.000002   -0.000002   -0.000002
   23.093805    0.540621    0.540621    0.540621   -0.000001   -0.000001   -0.000001
   23.344824    0.552240    0.552240    0.552240   -0.000001   -0.000001   -0.000001
   23.595844    0.563381    0.563381    0.563381   -0.000001   -0.000001   -0.000001
   23.846863    0.574075    0.574075    0.574075   -0.000001   -0.000001   -0.000001
   24.097883    0.584347    0.584347    0.584347   -0.000001   -0.000001   -0.000001
   24.348903    0.594221    0.594221    0.594221   -0.000001   -0.000001   -0.000001
   24.599922    0.603720    0.603720    0.603720   -0.000001   -0.000001   -0.000001
   24.850942    0.612864    0.612864    0.612864   -0.000001   -0.000001   -0.000001
 
 The outermost node in the dielectric function lies at epsilon=  17.5


--------------------------------------------------------------------------------------------------------


    OPTICS:  cpu time   44.05: real time   44.24
    4ORBIT:  cpu time    0.00: real time    0.00

 Spin-Orbit-Coupling matrix elements

 Ion:    1  E_soc:     -0.7987814
 l=   1
     0.0000000    -0.0650687    -0.0650687
    -0.0650687     0.0000000    -0.0650687
    -0.0650687    -0.0650687     0.0000000
 l=   2
     0.0000000    -0.0140026     0.0000000    -0.0140026    -0.0540589
    -0.0140026     0.0000000    -0.0405441    -0.0140026    -0.0135147
     0.0000000    -0.0405441     0.0000000    -0.0405441     0.0000000
    -0.0140026    -0.0140026    -0.0405441     0.0000000    -0.0135147
    -0.0540589    -0.0135147     0.0000000    -0.0135147     0.0000000
 l=   3
     0.0000000     0.0000000     0.0000000     0.0000000     0.0000000     0.0000000     0.0000000
     0.0000000     0.0000000     0.0000000     0.0000000     0.0000000     0.0000000     0.0000000
     0.0000000     0.0000000     0.0000000     0.0000000     0.0000000     0.0000000     0.0000000
     0.0000000     0.0000000     0.0000000     0.0000000     0.0000000     0.0000000     0.0000000
     0.0000000     0.0000000     0.0000000     0.0000000     0.0000000     0.0000000     0.0000000
     0.0000000     0.0000000     0.0000000     0.0000000     0.0000000     0.0000000     0.0000000
     0.0000000     0.0000000     0.0000000     0.0000000     0.0000000     0.0000000     0.0000000

 Ion:    2  E_soc:     -0.0004720
 l=   1
     0.0000000    -0.0000787    -0.0000787
    -0.0000787     0.0000000    -0.0000787
    -0.0000787    -0.0000787     0.0000000
 l=   2
     0.0000000     0.0000000     0.0000000     0.0000000     0.0000000
     0.0000000     0.0000000     0.0000000     0.0000000     0.0000000
     0.0000000     0.0000000     0.0000000     0.0000000     0.0000000
     0.0000000     0.0000000     0.0000000     0.0000000     0.0000000
     0.0000000     0.0000000     0.0000000     0.0000000     0.0000000
 l=   3
     0.0000000     0.0000000     0.0000000     0.0000000     0.0000000     0.0000000     0.0000000
     0.0000000     0.0000000     0.0000000     0.0000000     0.0000000     0.0000000     0.0000000
     0.0000000     0.0000000     0.0000000     0.0000000     0.0000000     0.0000000     0.0000000
     0.0000000     0.0000000     0.0000000     0.0000000     0.0000000     0.0000000     0.0000000
     0.0000000     0.0000000     0.0000000     0.0000000     0.0000000     0.0000000     0.0000000
     0.0000000     0.0000000     0.0000000     0.0000000     0.0000000     0.0000000     0.0000000
     0.0000000     0.0000000     0.0000000     0.0000000     0.0000000     0.0000000     0.0000000

 Ion:    3  E_soc:     -0.0004720
 l=   1
     0.0000000    -0.0000787    -0.0000787
    -0.0000787     0.0000000    -0.0000787
    -0.0000787    -0.0000787     0.0000000
 l=   2
     0.0000000     0.0000000     0.0000000     0.0000000     0.0000000
     0.0000000     0.0000000     0.0000000     0.0000000     0.0000000
     0.0000000     0.0000000     0.0000000     0.0000000     0.0000000
     0.0000000     0.0000000     0.0000000     0.0000000     0.0000000
     0.0000000     0.0000000     0.0000000     0.0000000     0.0000000
 l=   3
     0.0000000     0.0000000     0.0000000     0.0000000     0.0000000     0.0000000     0.0000000
     0.0000000     0.0000000     0.0000000     0.0000000     0.0000000     0.0000000     0.0000000
     0.0000000     0.0000000     0.0000000     0.0000000     0.0000000     0.0000000     0.0000000
     0.0000000     0.0000000     0.0000000     0.0000000     0.0000000     0.0000000     0.0000000
     0.0000000     0.0000000     0.0000000     0.0000000     0.0000000     0.0000000     0.0000000
     0.0000000     0.0000000     0.0000000     0.0000000     0.0000000     0.0000000     0.0000000
     0.0000000     0.0000000     0.0000000     0.0000000     0.0000000     0.0000000     0.0000000

 total amount of memory used by VASP on root node   454296. kBytes
========================================================================

   base      :      30000. kBytes
   nonl-proj :      90906. kBytes
   grid      :       8388. kBytes
   one-center:        186. kBytes
   wavefun   :     324816. kBytes
 
  
  
 General timing and accounting informations for this job:
 ========================================================
  
                  Total CPU time used (sec):      441.848
                            User time (sec):      436.076
                          System time (sec):        5.772
                         Elapsed time (sec):      444.351
  
                   Maximum memory used (kb):     1224712.
                   Average memory used (kb):           0.
  
                          Minor page faults:        78712
                          Major page faults:            0
                 Voluntary context switches:          377
