 vasp.5.3.5 31Mar14 (build Dec 14 2018 19:18:10) complex                        
  
 POSCAR found type information on POSCAR  Au Al
 POSCAR found :  2 types and       3 ions
 LDA part: xc-table for Ceperly-Alder, standard interpolation
 POSCAR, INCAR and KPOINTS ok, starting setup
 WARNING: small aliasing (wrap around) errors must be expected
 FFT: planning ...
 WAVECAR not read
 entering main loop
       N       E                     dE             d eps       ncg     rms          rms(c)
DAV:   1     0.329510340427E+02    0.32951E+02   -0.44568E+03 42086   0.515E+02
DAV:   2    -0.132124471568E+02   -0.46163E+02   -0.43672E+02 46180   0.135E+02
DAV:   3    -0.143700650056E+02   -0.11576E+01   -0.11489E+01 50830   0.196E+01
DAV:   4    -0.143769677925E+02   -0.69028E-02   -0.69011E-02 45582   0.181E+00
DAV:   5    -0.143770484275E+02   -0.80635E-04   -0.80634E-04 49850   0.192E-01    0.127E+01
DAV:   6    -0.147676532581E+02   -0.39060E+00   -0.43851E+00 47754   0.231E+01    0.486E+00
DAV:   7    -0.147207557636E+02    0.46897E-01   -0.33393E-01 44910   0.452E+00    0.255E+00
DAV:   8    -0.146884839185E+02    0.32272E-01   -0.21946E-02 46194   0.995E-01    0.143E+00
DAV:   9    -0.146755201965E+02    0.12964E-01   -0.59399E-03 45788   0.699E-01    0.225E-01
DAV:  10    -0.146753697148E+02    0.15048E-03   -0.66230E-04 45926   0.244E-01    0.133E-01
DAV:  11    -0.146753888761E+02   -0.19161E-04   -0.59685E-05 28622   0.598E-02
   1 F= -.14675389E+02 E0= -.14675605E+02  d E =0.649007E-03  mag=    -0.0010    -0.0010    -0.0010
 writing wavefunctions
 optical routines
 imaginary and real dielectric function
 recalculating local potential from charge density
 direction            1
 direction            2
 direction            3
