   4   4   1   0
  0.1098546E+02  0.5445216E-09  0.5445216E-09  0.5445216E-09  0.5000000E-15
  1.000000000000000E-004
  CAR 
 MnO double cell                         
     13.30083415    -15.88017949  301      3.93396912      1.00000000
    -15.880  0.0000E+00  0.0000E+00  0.0000E+00  0.0000E+00
    -15.783  0.0000E+00  0.0000E+00  0.0000E+00  0.0000E+00
    -15.686  0.0000E+00  0.0000E+00  0.0000E+00  0.0000E+00
    -15.588  0.0000E+00  0.0000E+00  0.0000E+00  0.0000E+00
    -15.491 -0.8997E-28 -0.8997E-28 -0.8751E-29 -0.8751E-29
    -15.394 -0.1730E-24 -0.1730E-24 -0.1684E-25 -0.1684E-25
    -15.297 -0.2069E-21 -0.2069E-21 -0.2014E-22 -0.2014E-22
    -15.199 -0.1538E-18 -0.1538E-18 -0.1498E-19 -0.1498E-19
    -15.102 -0.7100E-16 -0.7100E-16 -0.6921E-17 -0.6921E-17
    -15.005 -0.1972E-13 -0.1972E-13 -0.1925E-14 -0.1925E-14
    -14.907 -0.3487E-11 -0.3487E-11 -0.3411E-12 -0.3411E-12
    -14.810 -0.3812E-09 -0.3812E-09 -0.3742E-10 -0.3742E-10
    -14.713 -0.2572E-07 -0.2572E-07 -0.2539E-08 -0.2539E-08
    -14.616 -0.1067E-05 -0.1067E-05 -0.1063E-06 -0.1063E-06
    -14.518 -0.2704E-04 -0.2704E-04 -0.2736E-05 -0.2736E-05
    -14.421 -0.4140E-03 -0.4140E-03 -0.4301E-04 -0.4301E-04
    -14.324 -0.3746E-02 -0.3746E-02 -0.4073E-03 -0.4073E-03
    -14.227 -0.1899E-01 -0.1899E-01 -0.2254E-02 -0.2254E-02
    -14.129 -0.4500E-01 -0.4500E-01 -0.6632E-02 -0.6632E-02
    -14.032  0.8922E-02  0.8922E-02 -0.5764E-02 -0.5764E-02
    -13.935  0.3225E+00  0.3225E+00  0.2561E-01  0.2561E-01
    -13.838  0.8408E+00  0.8408E+00  0.1074E+00  0.1074E+00
    -13.740  0.1152E+01  0.1152E+01  0.2194E+00  0.2194E+00
    -13.643  0.1059E+01  0.1059E+01  0.3224E+00  0.3224E+00
    -13.546  0.8307E+00  0.8307E+00  0.4032E+00  0.4032E+00
    -13.448  0.7631E+00  0.7631E+00  0.4775E+00  0.4775E+00
    -13.351  0.8896E+00  0.8896E+00  0.5640E+00  0.5640E+00
    -13.254  0.1015E+01  0.1015E+01  0.6627E+00  0.6627E+00
    -13.157  0.1157E+01  0.1157E+01  0.7752E+00  0.7752E+00
    -13.059  0.1932E+01  0.1932E+01  0.9632E+00  0.9632E+00
    -12.962  0.3448E+01  0.3448E+01  0.1299E+01  0.1299E+01
    -12.865  0.4088E+01  0.4088E+01  0.1696E+01  0.1696E+01
    -12.768  0.2694E+01  0.2694E+01  0.1958E+01  0.1958E+01
    -12.670  0.7475E+00  0.7475E+00  0.2031E+01  0.2031E+01
    -12.573 -0.1197E+00 -0.1197E+00  0.2019E+01  0.2019E+01
    -12.476 -0.1472E+00 -0.1472E+00  0.2005E+01  0.2005E+01
    -12.378 -0.4432E-01 -0.4432E-01  0.2001E+01  0.2001E+01
    -12.281 -0.6810E-02 -0.6810E-02  0.2000E+01  0.2000E+01
    -12.184 -0.5993E-03 -0.5993E-03  0.2000E+01  0.2000E+01
    -12.087 -0.3144E-04 -0.3144E-04  0.2000E+01  0.2000E+01
    -11.989 -0.1001E-05 -0.1001E-05  0.2000E+01  0.2000E+01
    -11.892 -0.1953E-07 -0.1953E-07  0.2000E+01  0.2000E+01
    -11.795 -0.2348E-09 -0.2348E-09  0.2000E+01  0.2000E+01
    -11.698 -0.1746E-11 -0.1746E-11  0.2000E+01  0.2000E+01
    -11.600 -0.8172E-14 -0.8172E-14  0.2000E+01  0.2000E+01
    -11.503  0.0000E+00  0.0000E+00  0.2000E+01  0.2000E+01
    -11.406  0.0000E+00  0.0000E+00  0.2000E+01  0.2000E+01
    -11.308  0.0000E+00  0.0000E+00  0.2000E+01  0.2000E+01
    -11.211  0.0000E+00  0.0000E+00  0.2000E+01  0.2000E+01
    -11.114  0.0000E+00  0.0000E+00  0.2000E+01  0.2000E+01
    -11.017  0.0000E+00  0.0000E+00  0.2000E+01  0.2000E+01
    -10.919  0.0000E+00  0.0000E+00  0.2000E+01  0.2000E+01
    -10.822  0.0000E+00  0.0000E+00  0.2000E+01  0.2000E+01
    -10.725  0.0000E+00  0.0000E+00  0.2000E+01  0.2000E+01
    -10.628  0.0000E+00  0.0000E+00  0.2000E+01  0.2000E+01
    -10.530  0.0000E+00  0.0000E+00  0.2000E+01  0.2000E+01
    -10.433  0.0000E+00  0.0000E+00  0.2000E+01  0.2000E+01
    -10.336  0.0000E+00  0.0000E+00  0.2000E+01  0.2000E+01
    -10.239  0.0000E+00  0.0000E+00  0.2000E+01  0.2000E+01
    -10.141  0.0000E+00  0.0000E+00  0.2000E+01  0.2000E+01
    -10.044  0.0000E+00  0.0000E+00  0.2000E+01  0.2000E+01
     -9.947  0.0000E+00  0.0000E+00  0.2000E+01  0.2000E+01
     -9.849  0.0000E+00  0.0000E+00  0.2000E+01  0.2000E+01
     -9.752  0.0000E+00  0.0000E+00  0.2000E+01  0.2000E+01
     -9.655  0.0000E+00  0.0000E+00  0.2000E+01  0.2000E+01
     -9.558  0.0000E+00  0.0000E+00  0.2000E+01  0.2000E+01
     -9.460  0.0000E+00  0.0000E+00  0.2000E+01  0.2000E+01
     -9.363  0.0000E+00  0.0000E+00  0.2000E+01  0.2000E+01
     -9.266  0.0000E+00  0.0000E+00  0.2000E+01  0.2000E+01
     -9.169  0.0000E+00  0.0000E+00  0.2000E+01  0.2000E+01
     -9.071  0.0000E+00  0.0000E+00  0.2000E+01  0.2000E+01
     -8.974  0.0000E+00  0.0000E+00  0.2000E+01  0.2000E+01
     -8.877  0.0000E+00  0.0000E+00  0.2000E+01  0.2000E+01
     -8.779  0.0000E+00  0.0000E+00  0.2000E+01  0.2000E+01
     -8.682  0.0000E+00  0.0000E+00  0.2000E+01  0.2000E+01
     -8.585  0.0000E+00  0.0000E+00  0.2000E+01  0.2000E+01
     -8.488  0.0000E+00  0.0000E+00  0.2000E+01  0.2000E+01
     -8.390  0.0000E+00  0.0000E+00  0.2000E+01  0.2000E+01
     -8.293  0.0000E+00  0.0000E+00  0.2000E+01  0.2000E+01
     -8.196  0.0000E+00  0.0000E+00  0.2000E+01  0.2000E+01
     -8.099  0.0000E+00  0.0000E+00  0.2000E+01  0.2000E+01
     -8.001  0.0000E+00  0.0000E+00  0.2000E+01  0.2000E+01
     -7.904  0.0000E+00  0.0000E+00  0.2000E+01  0.2000E+01
     -7.807  0.0000E+00  0.0000E+00  0.2000E+01  0.2000E+01
     -7.709  0.0000E+00  0.0000E+00  0.2000E+01  0.2000E+01
     -7.612  0.0000E+00  0.0000E+00  0.2000E+01  0.2000E+01
     -7.515  0.0000E+00  0.0000E+00  0.2000E+01  0.2000E+01
     -7.418  0.0000E+00  0.0000E+00  0.2000E+01  0.2000E+01
     -7.320  0.0000E+00  0.0000E+00  0.2000E+01  0.2000E+01
     -7.223  0.0000E+00  0.0000E+00  0.2000E+01  0.2000E+01
     -7.126  0.0000E+00  0.0000E+00  0.2000E+01  0.2000E+01
     -7.029  0.0000E+00  0.0000E+00  0.2000E+01  0.2000E+01
     -6.931  0.0000E+00  0.0000E+00  0.2000E+01  0.2000E+01
     -6.834  0.0000E+00  0.0000E+00  0.2000E+01  0.2000E+01
     -6.737  0.0000E+00  0.0000E+00  0.2000E+01  0.2000E+01
     -6.640  0.0000E+00  0.0000E+00  0.2000E+01  0.2000E+01
     -6.542  0.0000E+00  0.0000E+00  0.2000E+01  0.2000E+01
     -6.445  0.0000E+00  0.0000E+00  0.2000E+01  0.2000E+01
     -6.348  0.0000E+00  0.0000E+00  0.2000E+01  0.2000E+01
     -6.250  0.0000E+00  0.0000E+00  0.2000E+01  0.2000E+01
     -6.153  0.0000E+00  0.0000E+00  0.2000E+01  0.2000E+01
     -6.056  0.0000E+00  0.0000E+00  0.2000E+01  0.2000E+01
     -5.959  0.0000E+00  0.0000E+00  0.2000E+01  0.2000E+01
     -5.861  0.0000E+00  0.0000E+00  0.2000E+01  0.2000E+01
     -5.764  0.0000E+00  0.0000E+00  0.2000E+01  0.2000E+01
     -5.667  0.0000E+00  0.0000E+00  0.2000E+01  0.2000E+01
     -5.570  0.0000E+00  0.0000E+00  0.2000E+01  0.2000E+01
     -5.472  0.0000E+00  0.0000E+00  0.2000E+01  0.2000E+01
     -5.375  0.0000E+00  0.0000E+00  0.2000E+01  0.2000E+01
     -5.278  0.0000E+00  0.0000E+00  0.2000E+01  0.2000E+01
     -5.180  0.0000E+00  0.0000E+00  0.2000E+01  0.2000E+01
     -5.083  0.0000E+00  0.0000E+00  0.2000E+01  0.2000E+01
     -4.986  0.0000E+00  0.0000E+00  0.2000E+01  0.2000E+01
     -4.889  0.0000E+00  0.0000E+00  0.2000E+01  0.2000E+01
     -4.791  0.0000E+00  0.0000E+00  0.2000E+01  0.2000E+01
     -4.694  0.0000E+00  0.0000E+00  0.2000E+01  0.2000E+01
     -4.597  0.0000E+00  0.0000E+00  0.2000E+01  0.2000E+01
     -4.500  0.0000E+00  0.0000E+00  0.2000E+01  0.2000E+01
     -4.402  0.0000E+00  0.0000E+00  0.2000E+01  0.2000E+01
     -4.305  0.0000E+00  0.0000E+00  0.2000E+01  0.2000E+01
     -4.208  0.0000E+00  0.0000E+00  0.2000E+01  0.2000E+01
     -4.111  0.0000E+00  0.0000E+00  0.2000E+01  0.2000E+01
     -4.013 -0.3283E-29 -0.3283E-29  0.2000E+01  0.2000E+01
     -3.916 -0.7689E-26 -0.7690E-26  0.2000E+01  0.2000E+01
     -3.819 -0.1115E-22 -0.1115E-22  0.2000E+01  0.2000E+01
     -3.721 -0.1006E-19 -0.1006E-19  0.2000E+01  0.2000E+01
     -3.624 -0.5643E-17 -0.5643E-17  0.2000E+01  0.2000E+01
     -3.527 -0.1924E-14 -0.1924E-14  0.2000E+01  0.2000E+01
     -3.430 -0.4127E-12 -0.4127E-12  0.2000E+01  0.2000E+01
     -3.332 -0.5518E-10 -0.5518E-10  0.2000E+01  0.2000E+01
     -3.235 -0.4564E-08 -0.4564E-08  0.2000E+01  0.2000E+01
     -3.138 -0.2328E-06 -0.2328E-06  0.2000E+01  0.2000E+01
     -3.041 -0.7280E-05 -0.7280E-05  0.2000E+01  0.2000E+01
     -2.943 -0.1384E-03 -0.1384E-03  0.2000E+01  0.2000E+01
     -2.846 -0.1570E-02 -0.1570E-02  0.2000E+01  0.2000E+01
     -2.749 -0.1026E-01 -0.1026E-01  0.1999E+01  0.1999E+01
     -2.651 -0.3480E-01 -0.3480E-01  0.1995E+01  0.1995E+01
     -2.554 -0.3418E-01 -0.3418E-01  0.1992E+01  0.1992E+01
     -2.457  0.1500E+00  0.1500E+00  0.2007E+01  0.2007E+01
     -2.360  0.6028E+00  0.6028E+00  0.2065E+01  0.2065E+01
     -2.262  0.1037E+01  0.1037E+01  0.2166E+01  0.2166E+01
     -2.165  0.1130E+01  0.1130E+01  0.2276E+01  0.2276E+01
     -2.068  0.1013E+01  0.1013E+01  0.2375E+01  0.2375E+01
     -1.971  0.1014E+01  0.1014E+01  0.2473E+01  0.2473E+01
     -1.873  0.1172E+01  0.1172E+01  0.2587E+01  0.2587E+01
     -1.776  0.1257E+01  0.1257E+01  0.2710E+01  0.2710E+01
     -1.679  0.1143E+01  0.1143E+01  0.2821E+01  0.2821E+01
     -1.581  0.8693E+00  0.8693E+00  0.2905E+01  0.2905E+01
     -1.484  0.6343E+00  0.6343E+00  0.2967E+01  0.2967E+01
     -1.387  0.1177E+01  0.1177E+01  0.3081E+01  0.3081E+01
     -1.290  0.3115E+01  0.3115E+01  0.3384E+01  0.3384E+01
     -1.192  0.5210E+01  0.5210E+01  0.3891E+01  0.3891E+01
     -1.095  0.5463E+01  0.5463E+01  0.4423E+01  0.4423E+01
     -0.998  0.3895E+01  0.3895E+01  0.4801E+01  0.4801E+01
     -0.901  0.2124E+01  0.2124E+01  0.5008E+01  0.5008E+01
     -0.803  0.1350E+01  0.1350E+01  0.5139E+01  0.5139E+01
     -0.706  0.1466E+01  0.1466E+01  0.5282E+01  0.5282E+01
     -0.609  0.1593E+01  0.1593E+01  0.5437E+01  0.5437E+01
     -0.512  0.1297E+01  0.1297E+01  0.5563E+01  0.5563E+01
     -0.414  0.9946E+00  0.9946E+00  0.5660E+01  0.5660E+01
     -0.317  0.1394E+01  0.1394E+01  0.5795E+01  0.5795E+01
     -0.220  0.2762E+01  0.2762E+01  0.6064E+01  0.6064E+01
     -0.122  0.4032E+01  0.4032E+01  0.6456E+01  0.6456E+01
     -0.025  0.3563E+01  0.3563E+01  0.6803E+01  0.6803E+01
      0.072  0.1753E+01  0.1753E+01  0.6973E+01  0.6973E+01
      0.169  0.5814E+00  0.5814E+00  0.7030E+01  0.7030E+01
      0.267  0.7688E+00  0.7688E+00  0.7105E+01  0.7105E+01
      0.364  0.1461E+01  0.1461E+01  0.7247E+01  0.7247E+01
      0.461  0.1684E+01  0.1684E+01  0.7411E+01  0.7411E+01
      0.558  0.1535E+01  0.1535E+01  0.7560E+01  0.7560E+01
      0.656  0.1669E+01  0.1669E+01  0.7722E+01  0.7722E+01
      0.753  0.1865E+01  0.1865E+01  0.7904E+01  0.7904E+01
      0.850  0.1633E+01  0.1633E+01  0.8063E+01  0.8063E+01
      0.948  0.1419E+01  0.1419E+01  0.8201E+01  0.8201E+01
      1.045  0.1481E+01  0.1481E+01  0.8345E+01  0.8345E+01
      1.142  0.1296E+01  0.1296E+01  0.8471E+01  0.8471E+01
      1.239  0.9108E+00  0.9108E+00  0.8559E+01  0.8559E+01
      1.337  0.9142E+00  0.9142E+00  0.8648E+01  0.8648E+01
      1.434  0.1389E+01  0.1389E+01  0.8783E+01  0.8783E+01
      1.531  0.1868E+01  0.1868E+01  0.8965E+01  0.8965E+01
      1.628  0.1872E+01  0.1872E+01  0.9147E+01  0.9147E+01
      1.726  0.1440E+01  0.1440E+01  0.9287E+01  0.9287E+01
      1.823  0.1068E+01  0.1068E+01  0.9391E+01  0.9391E+01
      1.920  0.1089E+01  0.1089E+01  0.9497E+01  0.9497E+01
      2.018  0.1517E+01  0.1517E+01  0.9645E+01  0.9645E+01
      2.115  0.2070E+01  0.2070E+01  0.9846E+01  0.9846E+01
      2.212  0.2254E+01  0.2254E+01  0.1007E+02  0.1007E+02
      2.309  0.2018E+01  0.2018E+01  0.1026E+02  0.1026E+02
      2.407  0.1941E+01  0.1941E+01  0.1045E+02  0.1045E+02
      2.504  0.2326E+01  0.2326E+01  0.1068E+02  0.1068E+02
      2.601  0.2538E+01  0.2538E+01  0.1092E+02  0.1092E+02
      2.698  0.1906E+01  0.1906E+01  0.1111E+02  0.1111E+02
      2.796  0.9237E+00  0.9237E+00  0.1120E+02  0.1120E+02
      2.893  0.3902E+00  0.3902E+00  0.1124E+02  0.1124E+02
      2.990  0.2849E+00  0.2849E+00  0.1126E+02  0.1126E+02
      3.087  0.4155E+00  0.4155E+00  0.1130E+02  0.1130E+02
      3.185  0.1111E+01  0.1111E+01  0.1141E+02  0.1141E+02
      3.282  0.2541E+01  0.2541E+01  0.1166E+02  0.1166E+02
      3.379  0.3838E+01  0.3838E+01  0.1203E+02  0.1203E+02
      3.477  0.3913E+01  0.3913E+01  0.1241E+02  0.1241E+02
      3.574  0.2790E+01  0.2790E+01  0.1269E+02  0.1269E+02
      3.671  0.1535E+01  0.1535E+01  0.1283E+02  0.1283E+02
      3.768  0.8982E+00  0.8982E+00  0.1292E+02  0.1292E+02
      3.866  0.5900E+00  0.5900E+00  0.1298E+02  0.1298E+02
      3.963  0.2535E+00  0.2535E+00  0.1300E+02  0.1300E+02
      4.060  0.1634E-01  0.1634E-01  0.1301E+02  0.1301E+02
      4.157 -0.3658E-01 -0.3658E-01  0.1300E+02  0.1300E+02
      4.255 -0.1745E-01 -0.1745E-01  0.1300E+02  0.1300E+02
      4.352 -0.3756E-02 -0.3756E-02  0.1300E+02  0.1300E+02
      4.449 -0.4488E-03 -0.4488E-03  0.1300E+02  0.1300E+02
      4.547 -0.3154E-04 -0.3154E-04  0.1300E+02  0.1300E+02
      4.644 -0.1336E-05 -0.1336E-05  0.1300E+02  0.1300E+02
      4.741 -0.3451E-07 -0.3451E-07  0.1300E+02  0.1300E+02
      4.838 -0.5476E-09 -0.5476E-09  0.1300E+02  0.1300E+02
      4.936 -0.5359E-11 -0.5359E-11  0.1300E+02  0.1300E+02
      5.033 -0.1330E-12 -0.1330E-12  0.1300E+02  0.1300E+02
      5.130 -0.1406E-10 -0.1406E-10  0.1300E+02  0.1300E+02
      5.227 -0.1213E-08 -0.1213E-08  0.1300E+02  0.1300E+02
      5.325 -0.6428E-07 -0.6428E-07  0.1300E+02  0.1300E+02
      5.422 -0.2082E-05 -0.2082E-05  0.1300E+02  0.1300E+02
      5.519 -0.4083E-04 -0.4083E-04  0.1300E+02  0.1300E+02
      5.617 -0.4756E-03 -0.4756E-03  0.1300E+02  0.1300E+02
      5.714 -0.3165E-02 -0.3165E-02  0.1300E+02  0.1300E+02
      5.811 -0.1077E-01 -0.1077E-01  0.1300E+02  0.1300E+02
      5.908 -0.9622E-02 -0.9622E-02  0.1300E+02  0.1300E+02
      6.006  0.5133E-01  0.5133E-01  0.1300E+02  0.1300E+02
      6.103  0.1914E+00  0.1914E+00  0.1302E+02  0.1302E+02
      6.200  0.3025E+00  0.3025E+00  0.1305E+02  0.1305E+02
      6.297  0.2872E+00  0.2872E+00  0.1308E+02  0.1308E+02
      6.395  0.2086E+00  0.2086E+00  0.1310E+02  0.1310E+02
      6.492  0.1553E+00  0.1553E+00  0.1311E+02  0.1311E+02
      6.589  0.1419E+00  0.1419E+00  0.1313E+02  0.1313E+02
      6.686  0.1676E+00  0.1676E+00  0.1314E+02  0.1314E+02
      6.784  0.2182E+00  0.2182E+00  0.1317E+02  0.1317E+02
      6.881  0.2446E+00  0.2446E+00  0.1319E+02  0.1319E+02
      6.978  0.2272E+00  0.2272E+00  0.1321E+02  0.1321E+02
      7.076  0.1982E+00  0.1982E+00  0.1323E+02  0.1323E+02
      7.173  0.1815E+00  0.1815E+00  0.1325E+02  0.1325E+02
      7.270  0.1743E+00  0.1743E+00  0.1327E+02  0.1327E+02
      7.367  0.1704E+00  0.1704E+00  0.1328E+02  0.1328E+02
      7.465  0.1676E+00  0.1676E+00  0.1330E+02  0.1330E+02
      7.562  0.1659E+00  0.1659E+00  0.1331E+02  0.1331E+02
      7.659  0.1649E+00  0.1649E+00  0.1333E+02  0.1333E+02
      7.756  0.1647E+00  0.1647E+00  0.1335E+02  0.1335E+02
      7.854  0.1651E+00  0.1651E+00  0.1336E+02  0.1336E+02
      7.951  0.1663E+00  0.1663E+00  0.1338E+02  0.1338E+02
      8.048  0.1684E+00  0.1684E+00  0.1339E+02  0.1339E+02
      8.146  0.1709E+00  0.1709E+00  0.1341E+02  0.1341E+02
      8.243  0.1722E+00  0.1722E+00  0.1343E+02  0.1343E+02
      8.340  0.1640E+00  0.1640E+00  0.1344E+02  0.1344E+02
      8.437  0.1517E+00  0.1517E+00  0.1346E+02  0.1346E+02
      8.535  0.2184E+00  0.2184E+00  0.1348E+02  0.1348E+02
      8.632  0.5075E+00  0.5075E+00  0.1353E+02  0.1353E+02
      8.729  0.9455E+00  0.9455E+00  0.1362E+02  0.1362E+02
      8.826  0.1188E+01  0.1188E+01  0.1374E+02  0.1374E+02
      8.924  0.1065E+01  0.1064E+01  0.1384E+02  0.1384E+02
      9.021  0.7666E+00  0.7666E+00  0.1392E+02  0.1392E+02
      9.118  0.6434E+00  0.6434E+00  0.1398E+02  0.1398E+02
      9.215  0.8686E+00  0.8686E+00  0.1406E+02  0.1406E+02
      9.313  0.1205E+01  0.1205E+01  0.1418E+02  0.1418E+02
      9.410  0.1315E+01  0.1315E+01  0.1431E+02  0.1431E+02
      9.507  0.1202E+01  0.1202E+01  0.1442E+02  0.1442E+02
      9.605  0.1094E+01  0.1096E+01  0.1453E+02  0.1453E+02
      9.702  0.1256E+01  0.1259E+01  0.1465E+02  0.1465E+02
      9.799  0.1996E+01  0.1991E+01  0.1485E+02  0.1485E+02
      9.896  0.3158E+01  0.3142E+01  0.1515E+02  0.1515E+02
      9.994  0.3767E+01  0.3760E+01  0.1552E+02  0.1552E+02
     10.091  0.3151E+01  0.3178E+01  0.1583E+02  0.1583E+02
     10.188  0.2006E+01  0.2045E+01  0.1602E+02  0.1603E+02
     10.285  0.1264E+01  0.1279E+01  0.1615E+02  0.1615E+02
     10.383  0.9972E+00  0.9991E+00  0.1624E+02  0.1625E+02
     10.480  0.9139E+00  0.9094E+00  0.1633E+02  0.1634E+02
     10.577  0.8818E+00  0.8680E+00  0.1642E+02  0.1642E+02
     10.675  0.9024E+00  0.8972E+00  0.1650E+02  0.1651E+02
     10.772  0.9475E+00  0.9479E+00  0.1660E+02  0.1660E+02
     10.869  0.9507E+00  0.9426E+00  0.1669E+02  0.1669E+02
     10.966  0.1008E+01  0.1006E+01  0.1679E+02  0.1679E+02
     11.064  0.1066E+01  0.1074E+01  0.1689E+02  0.1689E+02
     11.161  0.8035E+00  0.8026E+00  0.1697E+02  0.1697E+02
     11.258  0.3272E+00  0.3169E+00  0.1700E+02  0.1700E+02
     11.355  0.3606E-01  0.2325E-01  0.1700E+02  0.1701E+02
     11.453 -0.2526E-01 -0.3492E-01  0.1700E+02  0.1700E+02
     11.550 -0.1489E-01 -0.1789E-01  0.1700E+02  0.1700E+02
     11.647 -0.5027E-02 -0.4565E-02  0.1700E+02  0.1700E+02
     11.745 -0.1268E-02 -0.7162E-03  0.1700E+02  0.1700E+02
     11.842 -0.2200E-03 -0.7139E-04  0.1700E+02  0.1700E+02
     11.939 -0.2417E-04 -0.4506E-05  0.1700E+02  0.1700E+02
     12.036 -0.1631E-05 -0.1787E-06  0.1700E+02  0.1700E+02
     12.134 -0.6726E-07 -0.4426E-08  0.1700E+02  0.1700E+02
     12.231 -0.1697E-08 -0.6830E-10  0.1700E+02  0.1700E+02
     12.328 -0.2626E-10 -0.6558E-12  0.1700E+02  0.1700E+02
     12.425 -0.2502E-12 -0.3926E-14  0.1700E+02  0.1700E+02
     12.523 -0.1472E-14 -0.1141E-16  0.1700E+02  0.1700E+02
     12.620  0.0000E+00  0.0000E+00  0.1700E+02  0.1700E+02
     12.717  0.0000E+00  0.0000E+00  0.1700E+02  0.1700E+02
     12.814  0.0000E+00  0.0000E+00  0.1700E+02  0.1700E+02
     12.912  0.0000E+00  0.0000E+00  0.1700E+02  0.1700E+02
     13.009  0.0000E+00  0.0000E+00  0.1700E+02  0.1700E+02
     13.106  0.0000E+00  0.0000E+00  0.1700E+02  0.1700E+02
     13.204  0.0000E+00  0.0000E+00  0.1700E+02  0.1700E+02
     13.301  0.0000E+00  0.0000E+00  0.1700E+02  0.1700E+02
     13.30083415    -15.88017949  301      3.93396912      1.00000000
    -15.880  0.0000E+00  0.0000E+00  0.0000E+00  0.0000E+00  0.0000E+00  0.0000E+00  0.0000E+00  0.0000E+00  0.0000E+00  0.0000E+00  0.0000E+00  0.0000E+00  0.0000E+00  0.0000E+00  0.0000E+00  0.0000E+00  0.0000E+00  0.0000E+00
    -15.783  0.0000E+00  0.0000E+00  0.0000E+00  0.0000E+00  0.0000E+00  0.0000E+00  0.0000E+00  0.0000E+00  0.0000E+00  0.0000E+00  0.0000E+00  0.0000E+00  0.0000E+00  0.0000E+00  0.0000E+00  0.0000E+00  0.0000E+00  0.0000E+00
    -15.686  0.0000E+00  0.0000E+00  0.0000E+00  0.0000E+00  0.0000E+00  0.0000E+00  0.0000E+00  0.0000E+00  0.0000E+00  0.0000E+00  0.0000E+00  0.0000E+00  0.0000E+00  0.0000E+00  0.0000E+00  0.0000E+00  0.0000E+00  0.0000E+00
    -15.588  0.0000E+00  0.0000E+00  0.0000E+00  0.0000E+00  0.0000E+00  0.0000E+00  0.0000E+00  0.0000E+00  0.0000E+00  0.0000E+00  0.0000E+00  0.0000E+00  0.0000E+00  0.0000E+00  0.0000E+00  0.0000E+00  0.0000E+00  0.0000E+00
    -15.491 -0.2874E-29 -0.2433E-29 -0.1684E-32 -0.1763E-32 -0.2439E-32 -0.2409E-32 -0.1691E-32 -0.1769E-32 -0.2152E-34 -0.4575E-35 -0.1976E-34 -0.4911E-35 -0.3429E-34 -0.1419E-34 -0.1973E-34 -0.4883E-35 -0.1767E-36 -0.5758E-37
    -15.394 -0.5526E-26 -0.4679E-26 -0.3500E-29 -0.3661E-29 -0.5048E-29 -0.4986E-29 -0.3528E-29 -0.3685E-29 -0.4204E-31 -0.8734E-32 -0.3841E-31 -0.9379E-32 -0.7723E-31 -0.3183E-31 -0.3834E-31 -0.9333E-32 -0.1025E-32 -0.3343E-33
    -15.297 -0.6605E-23 -0.5592E-23 -0.4516E-26 -0.4721E-26 -0.6497E-26 -0.6416E-26 -0.4565E-26 -0.4764E-26 -0.5111E-28 -0.1035E-28 -0.4645E-28 -0.1113E-28 -0.1063E-27 -0.4371E-28 -0.4635E-28 -0.1108E-28 -0.1902E-29 -0.6200E-30
    -15.199 -0.4906E-20 -0.4154E-20 -0.3643E-23 -0.3807E-23 -0.5223E-23 -0.5158E-23 -0.3699E-23 -0.3854E-23 -0.3869E-25 -0.7624E-26 -0.3496E-25 -0.8198E-26 -0.9199E-25 -0.3770E-25 -0.3487E-25 -0.8175E-26 -0.2200E-26 -0.7169E-27
    -15.102 -0.2264E-17 -0.1916E-17 -0.1840E-20 -0.1921E-20 -0.2625E-20 -0.2592E-20 -0.1878E-20 -0.1953E-20 -0.1824E-22 -0.3490E-23 -0.1637E-22 -0.3749E-23 -0.5006E-22 -0.2045E-22 -0.1633E-22 -0.3745E-23 -0.1588E-23 -0.5173E-24
    -15.005 -0.6286E-15 -0.5320E-15 -0.5664E-18 -0.5902E-18 -0.8017E-18 -0.7914E-18 -0.5828E-18 -0.6042E-18 -0.5193E-20 -0.9628E-21 -0.4628E-20 -0.1030E-20 -0.1678E-19 -0.6828E-20 -0.4611E-20 -0.1032E-20 -0.7148E-21 -0.2330E-21
    -14.907 -0.1110E-12 -0.9396E-13 -0.1115E-15 -0.1160E-15 -0.1564E-15 -0.1543E-15 -0.1158E-15 -0.1196E-15 -0.9432E-18 -0.1693E-18 -0.8340E-18 -0.1799E-18 -0.3587E-17 -0.1454E-17 -0.8302E-18 -0.1811E-18 -0.1945E-18 -0.6340E-19
    -14.810 -0.1213E-10 -0.1026E-10 -0.1380E-13 -0.1432E-13 -0.1911E-13 -0.1885E-13 -0.1450E-13 -0.1491E-13 -0.1065E-15 -0.1850E-16 -0.9333E-16 -0.1941E-16 -0.4871E-15 -0.1965E-15 -0.9280E-16 -0.1969E-16 -0.3394E-16 -0.1107E-16
    -14.713 -0.8174E-09 -0.6914E-09 -0.1072E-11 -0.1108E-11 -0.1459E-11 -0.1438E-11 -0.1142E-11 -0.1167E-11 -0.7465E-14 -0.1257E-14 -0.6476E-14 -0.1290E-14 -0.4179E-13 -0.1677E-13 -0.6431E-14 -0.1324E-14 -0.3688E-14 -0.1203E-14
    -14.616 -0.3385E-07 -0.2863E-07 -0.5223E-10 -0.5373E-10 -0.6964E-10 -0.6856E-10 -0.5660E-10 -0.5744E-10 -0.3243E-12 -0.5320E-13 -0.2781E-12 -0.5266E-13 -0.2268E-11 -0.9047E-12 -0.2758E-12 -0.5506E-13 -0.2497E-12 -0.8145E-13
    -14.518 -0.8559E-06 -0.7236E-06 -0.1596E-08 -0.1632E-08 -0.2075E-08 -0.2040E-08 -0.1761E-08 -0.1773E-08 -0.8710E-11 -0.1403E-11 -0.7366E-11 -0.1314E-11 -0.7791E-10 -0.3088E-10 -0.7300E-11 -0.1414E-11 -0.1052E-10 -0.3431E-11
    -14.421 -0.1306E-04 -0.1104E-04 -0.3045E-07 -0.3093E-07 -0.3848E-07 -0.3775E-07 -0.3423E-07 -0.3416E-07 -0.1439E-09 -0.2308E-10 -0.1196E-09 -0.1989E-10 -0.1693E-08 -0.6663E-09 -0.1186E-09 -0.2239E-10 -0.2751E-09 -0.8972E-10
    -14.324 -0.1176E-03 -0.9929E-04 -0.3596E-06 -0.3626E-06 -0.4413E-06 -0.4318E-06 -0.4108E-06 -0.4064E-06 -0.1447E-08 -0.2360E-09 -0.1176E-08 -0.1806E-09 -0.2325E-07 -0.9077E-08 -0.1172E-08 -0.2177E-09 -0.4448E-08 -0.1449E-08
    -14.227 -0.5910E-03 -0.4983E-03 -0.2574E-05 -0.2575E-05 -0.3076E-05 -0.2998E-05 -0.2966E-05 -0.2913E-05 -0.8664E-08 -0.1475E-08 -0.6813E-08 -0.9649E-09 -0.2008E-06 -0.7763E-07 -0.6896E-08 -0.1284E-08 -0.4403E-07 -0.1432E-07
    -14.129 -0.1369E-02 -0.1151E-02 -0.1054E-04 -0.1047E-04 -0.1242E-04 -0.1205E-04 -0.1205E-04 -0.1180E-04 -0.2895E-07 -0.5318E-08 -0.2152E-07 -0.2908E-08 -0.1078E-05 -0.4109E-06 -0.2268E-07 -0.4383E-08 -0.2610E-06 -0.8461E-07
    -14.032  0.4261E-03  0.3807E-03 -0.1986E-04 -0.1974E-04 -0.2404E-04 -0.2320E-04 -0.2117E-04 -0.2107E-04 -0.4012E-07 -0.8524E-08 -0.2539E-07 -0.4206E-08 -0.3478E-05 -0.1289E-05 -0.3105E-07 -0.6879E-08 -0.8693E-06 -0.2795E-06
    -13.935  0.1026E-01  0.8694E-02  0.1283E-04  0.1152E-04  0.9300E-05  0.8813E-05  0.2280E-04  0.1956E-04  0.5924E-07  0.9137E-08  0.5451E-07  0.1684E-08 -0.6001E-05 -0.2019E-05  0.4637E-07  0.6583E-08 -0.1215E-05 -0.3784E-06
    -13.838  0.2588E-01  0.2182E-01  0.1581E-03  0.1520E-03  0.1717E-03  0.1642E-03  0.1939E-03  0.1826E-03  0.3964E-06  0.7545E-07  0.2861E-06  0.2714E-07 -0.2756E-05  0.1921E-06  0.3125E-06  0.6078E-07  0.1727E-05  0.6038E-06
    -13.740  0.3419E-01  0.2858E-01  0.4049E-03  0.4010E-03  0.4689E-03  0.4556E-03  0.4473E-03  0.4403E-03  0.1001E-05  0.1844E-06  0.6730E-06  0.9365E-07  0.5539E-05  0.6860E-05  0.7990E-06  0.1605E-06  0.1175E-04  0.3850E-05
    -13.643  0.2973E-01  0.2422E-01  0.6330E-03  0.6693E-03  0.7717E-03  0.7829E-03  0.6242E-03  0.6702E-03  0.1842E-05  0.3057E-06  0.1256E-05  0.2194E-06  0.9835E-05  0.1703E-04  0.1459E-05  0.2730E-06  0.2914E-04  0.9321E-05
    -13.546  0.2121E-01  0.1634E-01  0.7813E-03  0.8837E-03  0.1065E-02  0.1108E-02  0.6849E-03  0.8146E-03  0.2830E-05  0.4589E-06  0.2067E-05  0.4199E-06  0.1409E-03  0.6779E-04  0.2163E-05  0.3872E-06  0.5087E-04  0.1579E-04
    -13.448  0.1625E-01  0.1242E-01  0.9462E-03  0.1017E-02  0.1732E-02  0.1647E-02  0.7758E-03  0.8848E-03  0.3664E-05  0.7142E-06  0.3021E-05  0.7876E-06  0.8580E-03  0.2747E-03  0.2794E-05  0.6210E-06  0.6974E-04  0.2008E-04
    -13.351  0.1494E-01  0.1303E-01  0.1201E-02  0.1095E-02  0.2981E-02  0.2552E-02  0.9896E-03  0.9192E-03  0.4144E-05  0.1057E-05  0.4304E-05  0.1441E-05  0.2288E-02  0.6164E-03  0.3689E-05  0.1144E-05  0.6157E-04  0.1218E-04
    -13.254  0.1420E-01  0.1398E-01  0.1496E-02  0.1254E-02  0.4003E-02  0.3356E-02  0.1200E-02  0.9977E-03  0.4710E-05  0.1401E-05  0.6359E-05  0.2299E-05  0.3530E-02  0.7714E-03  0.5190E-05  0.1826E-05  0.2472E-04 -0.4250E-05
    -13.157  0.1224E-01  0.1231E-01  0.2436E-02  0.2108E-02  0.4370E-02  0.3821E-02  0.1736E-02  0.1573E-02  0.7053E-05  0.2150E-05  0.9704E-05  0.3379E-05  0.5646E-02  0.1198E-02  0.6432E-05  0.2212E-05  0.2378E-03  0.9378E-04
    -13.059  0.1057E-01  0.9728E-02  0.5771E-02  0.5035E-02  0.5789E-02  0.5172E-02  0.4396E-02  0.4101E-02  0.1317E-04  0.4074E-05  0.1466E-04  0.4923E-05  0.1434E-01  0.4142E-02  0.6390E-05  0.2106E-05  0.1446E-02  0.5732E-03
    -12.962  0.9643E-02  0.7853E-02  0.1103E-01  0.9532E-02  0.8990E-02  0.7793E-02  0.9955E-02  0.8857E-02  0.1954E-04  0.6184E-05  0.1778E-04  0.5907E-05  0.2994E-01  0.1009E-01  0.5382E-05  0.1765E-05  0.3833E-02  0.1399E-02
    -12.865  0.6838E-02  0.5347E-02  0.1278E-01  0.1095E-01  0.1010E-01  0.8544E-02  0.1345E-01  0.1141E-01  0.1787E-04  0.5794E-05  0.1382E-04  0.4570E-05  0.3717E-01  0.1345E-01  0.3874E-05  0.1315E-05  0.5480E-02  0.1847E-02
    -12.768  0.2550E-02  0.2143E-02  0.8031E-02  0.6823E-02  0.6353E-02  0.5316E-02  0.9754E-02  0.7946E-02  0.8717E-05  0.2923E-05  0.5559E-05  0.1821E-05  0.2522E-01  0.9543E-02  0.1964E-05  0.6965E-06  0.4262E-02  0.1348E-02
    -12.670 -0.2109E-05  0.1342E-03  0.2028E-02  0.1694E-02  0.1584E-02  0.1321E-02  0.3040E-02  0.2357E-02  0.1295E-05  0.4855E-06  0.3221E-06  0.9341E-07  0.7442E-02  0.2941E-02  0.4184E-06  0.1593E-06  0.1521E-02  0.4526E-03
    -12.573 -0.3872E-03 -0.2826E-03 -0.4370E-03 -0.3828E-03 -0.3659E-03 -0.3070E-03 -0.3141E-03 -0.2967E-03 -0.7821E-06 -0.2429E-06 -0.6844E-06 -0.2288E-06 -0.8940E-03 -0.2971E-03 -0.1452E-06 -0.4728E-07 -0.4863E-04 -0.2456E-04
    -12.476 -0.1543E-03 -0.1360E-03 -0.4367E-03 -0.3710E-03 -0.3500E-03 -0.2941E-03 -0.5323E-03 -0.4321E-03 -0.4751E-06 -0.1591E-06 -0.3142E-06 -0.1030E-06 -0.1364E-02 -0.5153E-03 -0.1220E-06 -0.4287E-07 -0.2327E-03 -0.7321E-04
    -12.378 -0.2960E-04 -0.3034E-04 -0.1241E-03 -0.1045E-03 -0.9758E-04 -0.8229E-04 -0.1677E-03 -0.1335E-03 -0.1173E-06 -0.4065E-07 -0.6756E-07 -0.2185E-07 -0.4326E-03 -0.1654E-03 -0.3477E-07 -0.1244E-07 -0.8211E-04 -0.2529E-04
    -12.281 -0.3249E-05 -0.3850E-05 -0.1825E-04 -0.1526E-04 -0.1407E-04 -0.1192E-04 -0.2632E-04 -0.2078E-04 -0.1608E-07 -0.5711E-08 -0.8347E-08 -0.2665E-08 -0.6931E-04 -0.2654E-04 -0.5246E-08 -0.1896E-08 -0.1389E-04 -0.4257E-05
    -12.184 -0.2155E-06 -0.2937E-06 -0.1543E-05 -0.1282E-05 -0.1165E-05 -0.9902E-06 -0.2343E-05 -0.1843E-05 -0.1312E-08 -0.4754E-09 -0.6249E-09 -0.1970E-09 -0.6340E-05 -0.2423E-05 -0.4579E-09 -0.1666E-09 -0.1315E-05 -0.4030E-06
    -12.087 -0.8844E-08 -0.1375E-07 -0.7786E-07 -0.6434E-07 -0.5746E-07 -0.4902E-07 -0.1237E-06 -0.9718E-07 -0.6537E-10 -0.2406E-10 -0.2888E-10 -0.8998E-11 -0.3450E-06 -0.1314E-06 -0.2391E-10 -0.8745E-11 -0.7326E-07 -0.2250E-07
    -11.989 -0.2274E-09 -0.3988E-09 -0.2386E-08 -0.1961E-08 -0.1719E-08 -0.1472E-08 -0.3953E-08 -0.3106E-08 -0.2007E-11 -0.7482E-12 -0.8292E-12 -0.2554E-12 -0.1137E-07 -0.4312E-08 -0.7583E-12 -0.2785E-12 -0.2455E-08 -0.7562E-09
    -11.892 -0.3684E-11 -0.7190E-11 -0.4484E-10 -0.3665E-10 -0.3150E-10 -0.2704E-10 -0.7727E-10 -0.6078E-10 -0.3814E-13 -0.1437E-13 -0.1482E-13 -0.4516E-14 -0.2291E-09 -0.8652E-10 -0.1473E-13 -0.5432E-14 -0.5009E-10 -0.1548E-10
    -11.795 -0.3769E-13 -0.8077E-13 -0.5193E-12 -0.4222E-12 -0.3554E-12 -0.3060E-12 -0.9299E-12 -0.7327E-12 -0.4496E-15 -0.1709E-15 -0.1650E-15 -0.4977E-16 -0.2839E-11 -0.1068E-11 -0.1762E-15 -0.6519E-16 -0.6267E-12 -0.1944E-12
    -11.698 -0.2437E-15 -0.5657E-15 -0.3719E-14 -0.3008E-14 -0.2478E-14 -0.2138E-14 -0.6916E-14 -0.5459E-14 -0.3292E-17 -0.1260E-17 -0.1145E-17 -0.3418E-18 -0.2171E-13 -0.8130E-14 -0.1301E-17 -0.4830E-18 -0.4828E-14 -0.1503E-14
    -11.600 -0.8630E-18 -0.2485E-17 -0.1685E-16 -0.1354E-16 -0.1095E-16 -0.9498E-17 -0.3245E-16 -0.2560E-16 -0.1494E-19 -0.5781E-20 -0.4955E-20 -0.1460E-20 -0.1039E-15 -0.3882E-16 -0.6134E-20 -0.2284E-20 -0.2334E-16 -0.7282E-17
    -11.503  0.0000E+00  0.0000E+00  0.0000E+00  0.0000E+00  0.0000E+00  0.0000E+00  0.0000E+00  0.0000E+00  0.0000E+00  0.0000E+00  0.0000E+00  0.0000E+00  0.0000E+00  0.0000E+00  0.0000E+00  0.0000E+00  0.0000E+00  0.0000E+00
    -11.406  0.0000E+00  0.0000E+00  0.0000E+00  0.0000E+00  0.0000E+00  0.0000E+00  0.0000E+00  0.0000E+00  0.0000E+00  0.0000E+00  0.0000E+00  0.0000E+00  0.0000E+00  0.0000E+00  0.0000E+00  0.0000E+00  0.0000E+00  0.0000E+00
    -11.308  0.0000E+00  0.0000E+00  0.0000E+00  0.0000E+00  0.0000E+00  0.0000E+00  0.0000E+00  0.0000E+00  0.0000E+00  0.0000E+00  0.0000E+00  0.0000E+00  0.0000E+00  0.0000E+00  0.0000E+00  0.0000E+00  0.0000E+00  0.0000E+00
    -11.211  0.0000E+00  0.0000E+00  0.0000E+00  0.0000E+00  0.0000E+00  0.0000E+00  0.0000E+00  0.0000E+00  0.0000E+00  0.0000E+00  0.0000E+00  0.0000E+00  0.0000E+00  0.0000E+00  0.0000E+00  0.0000E+00  0.0000E+00  0.0000E+00
    -11.114  0.0000E+00  0.0000E+00  0.0000E+00  0.0000E+00  0.0000E+00  0.0000E+00  0.0000E+00  0.0000E+00  0.0000E+00  0.0000E+00  0.0000E+00  0.0000E+00  0.0000E+00  0.0000E+00  0.0000E+00  0.0000E+00  0.0000E+00  0.0000E+00
    -11.017  0.0000E+00  0.0000E+00  0.0000E+00  0.0000E+00  0.0000E+00  0.0000E+00  0.0000E+00  0.0000E+00  0.0000E+00  0.0000E+00  0.0000E+00  0.0000E+00  0.0000E+00  0.0000E+00  0.0000E+00  0.0000E+00  0.0000E+00  0.0000E+00