    4    4    1    2
  0.1098546E+02  0.5445216E-09  0.5445216E-09  0.5445216E-09  0.5000000E-15
  1.000000000000000E-004
  CAR 
 MnO double cell                         
     26    200     17
 
  0.0000000E+00  0.0000000E+00  0.0000000E+00  0.5000000E-02
    1      -13.880179    -13.880179   1.000000   1.000000
    2      -12.887695    -12.887695   1.000000   1.000000
    3       -2.364915     -2.364915   1.000000   1.000000
    4       -1.248918     -1.248918   1.000000   1.000000
    5       -1.248918     -1.248917   1.000000   1.000000
    6       -0.104542     -0.104542   1.000000   1.000000
    7       -0.104542     -0.104542   1.000000   1.000000
    8        0.758745      0.758745   1.000000   1.000000
    9        2.604675      2.604675   1.000000   1.000000
   10        2.604675      2.604675   1.000000   1.000000
   11        2.605073      2.605073   1.000000   1.000000
   12        3.291103      3.291103   1.000027   1.000027
   13        3.291103      3.291103   1.000027   1.000027
   14        6.112118      6.112118  -0.000000  -0.000000
   15        9.782557      9.782758   0.000000   0.000000
   16        9.968423      9.960513   0.000000   0.000000
   17        9.968777      9.969323   0.000000   0.000000
 
  0.1282051E-01  0.1282051E-01  0.2564103E-01  0.5000000E-02
    1      -13.878288    -13.878288   1.000000   1.000000
    2      -12.889273    -12.889273   1.000000   1.000000
    3       -2.360882     -2.360882   1.000000   1.000000
    4       -1.249455     -1.249455   1.000000   1.000000
    5       -1.248286     -1.248286   1.000000   1.000000
    6       -0.105889     -0.105889   1.000000   1.000000
    7       -0.105710     -0.105710   1.000000   1.000000
    8        0.757847      0.757847   1.000000   1.000000
    9        2.579118      2.579118   1.000000   1.000000
   10        2.603742      2.603742   1.000000   1.000000
   11        2.604503      2.604503   1.000000   1.000000
   12        3.289721      3.289721   1.000026   1.000026
   13        3.297166      3.297166   1.000032   1.000032
   14        6.129312      6.129312  -0.000000  -0.000000
   15        9.777734      9.773667   0.000000   0.000000
   16        9.936517      9.953562   0.000000   0.000000
   17        9.981067     10.008078   0.000000   0.000000
 
  0.2564103E-01  0.2564103E-01  0.5128205E-01  0.5000000E-02
    1      -13.872137    -13.872136   1.000000   1.000000
    2      -12.891627    -12.891627   1.000000   1.000000
    3       -2.348611     -2.348611   1.000000   1.000000
    4       -1.249614     -1.249614   1.000000   1.000000
    5       -1.245095     -1.245094   1.000000   1.000000
    6       -0.109713     -0.109713   1.000000   1.000000
    7       -0.108107     -0.108106   1.000000   1.000000
    8        0.755811      0.755812   1.000000   1.000000
    9        2.510445      2.510445   1.000000   1.000000
   10        2.601557      2.601557   1.000000   1.000000
   11        2.603845      2.603845   1.000000   1.000000
   12        3.289869      3.289869   1.000026   1.000026
   13        3.315966      3.315966   1.000056   1.000056
   14        6.180701      6.180701  -0.000000  -0.000000
   15        9.748422      9.748253   0.000000   0.000000
   16        9.877718      9.871380   0.000000   0.000000
   17       10.053572      9.998190   0.000000   0.000000
 
  0.3846154E-01  0.3846154E-01  0.7692308E-01  0.5000000E-02
    1      -13.862282    -13.862282   1.000000   1.000000
    2      -12.895549    -12.895549   1.000000   1.000000
    3       -2.328438     -2.328438   1.000000   1.000000
    4       -1.250121     -1.250121   1.000000   1.000000
    5       -1.240020     -1.240020   1.000000   1.000000
    6       -0.116090     -0.116090   1.000000   1.000000
    7       -0.112143     -0.112143   1.000000   1.000000
    8        0.752463      0.752463   1.000000   1.000000
    9        2.408161      2.408161   1.000000   1.000000
   10        2.598199      2.598199   1.000000   1.000000
   11        2.602871      2.602871   1.000000   1.000000
   12        3.288823      3.288823   1.000025   1.000025
   13        3.335600      3.335600   1.000098   1.000098
   14        6.263685      6.263685  -0.000000  -0.000000
   15        9.714188      9.714202   0.000000   0.000000
   16        9.845468      9.846912   0.000000   0.000000
   17        9.995615     10.049492   0.000000   0.000000
 
  0.5128205E-01  0.5128205E-01  0.1025641E+00  0.5000000E-02
    1      -13.849272    -13.849272   1.000000   1.000000
    2      -12.900480    -12.900480   1.000000   1.000000
    3       -2.300928     -2.300928   1.000000   1.000000
    4       -1.250675     -1.250675   1.000000   1.000000
    5       -1.232832     -1.232832   1.000000   1.000000
    6       -0.125335     -0.125335   1.000000   1.000000
    7       -0.117830     -0.117830   1.000000   1.000000
    8        0.748107      0.748107   1.000000   1.000000
    9        2.285463      2.285463   1.000000   1.000000
   10        2.591770      2.591770   1.000000   1.000000
   11        2.599428      2.599428   1.000000   1.000000
   12        3.289011      3.289011   1.000025   1.000025
   13        3.346617      3.346617   1.000132   1.000132
   14        6.374280      6.374280  -0.000000  -0.000000
   15        9.679701      9.679806   0.000000   0.000000
   16        9.823667      9.824923   0.000000   0.000000
   17        9.990489     10.007035   0.000000   0.000000
 
  0.6410256E-01  0.6410256E-01  0.1282051E+00  0.5000000E-02
    1      -13.832231    -13.832231   1.000000   1.000000
    2      -12.906578    -12.906578   1.000000   1.000000
    3       -2.266707     -2.266707   1.000000   1.000000
    4       -1.251189     -1.251189   1.000000   1.000000
    5       -1.223753     -1.223753   1.000000   1.000000
    6       -0.137745     -0.137745   1.000000   1.000000
    7       -0.124828     -0.124828   1.000000   1.000000
    8        0.742932      0.742933   1.000000   1.000000
    9        2.154414      2.154414   1.000000   1.000000
   10        2.583718      2.583718   1.000000   1.000000
   11        2.594725      2.594725   1.000000   1.000000
   12        3.289079      3.289079   1.000025   1.000025
   13        3.345397      3.345397   1.000128   1.000128
   14        6.509913      6.509913  -0.000000  -0.000000
   15        9.650396      9.650272   0.000000   0.000000
   16        9.802042      9.801645   0.000000   0.000000
   17       10.189995     10.022047   0.000000   0.000000
 
  0.7692308E-01  0.7692308E-01  0.1538462E+00  0.5000000E-02
    1      -13.812336    -13.812336   1.000000   1.000000
    2      -12.913446    -12.913446   1.000000   1.000000
    3       -2.226596     -2.226596   1.000000   1.000000
    4       -1.251662     -1.251662   1.000000   1.000000
    5       -1.212922     -1.212922   1.000000   1.000000
    6       -0.153763     -0.153763   1.000000   1.000000
    7       -0.132866     -0.132866   1.000000   1.000000
    8        0.737175      0.737175   1.000000   1.000000
    9        2.018677      2.018677   1.000000   1.000000
   10        2.573992      2.573992   1.000000   1.000000
   11        2.588356      2.588356   1.000000   1.000000
   12        3.289124      3.289124   1.000025   1.000025
   13        3.328424      3.328424   1.000080   1.000080
   14        6.663620      6.663620  -0.000000  -0.000000
   15        9.628889      9.628822   0.000000   0.000000
   16        9.777765      9.777859   0.000000   0.000000
   17       10.062827     10.044207   0.000000   0.000000
 
  0.8974359E-01  0.8974359E-01  0.1794872E+00  0.5000000E-02
    1      -13.788216    -13.788216   1.000000   1.000000
    2      -12.921519    -12.921519   1.000000   1.000000
    3       -2.181847     -2.181847   1.000000   1.000000
    4       -1.252979     -1.252979   1.000000   1.000000
    5       -1.200169     -1.200169   1.000000   1.000000
    6       -0.173959     -0.173959   1.000000   1.000000
    7       -0.141570     -0.141570   1.000000   1.000000
    8        0.730318      0.730318   1.000000   1.000000
    9        1.887149      1.887149   1.000000   1.000000
   10        2.564109      2.564109   1.000000   1.000000
   11        2.581503      2.581503   1.000000   1.000000
   12        3.288569      3.288569   1.000025   1.000025
   13        3.296866      3.296866   1.000032   1.000032
   14        6.833953      6.833953  -0.000000  -0.000000
   15        9.616012      9.615996   0.000000   0.000000
   16        9.752149      9.751949   0.000000   0.000000
   17       10.034274     10.055964   0.000000   0.000000
 
  0.1025641E+00  0.1025641E+00  0.2051282E+00  0.5000000E-02
    1      -13.762157    -13.762157   1.000000   1.000000
    2      -12.929962    -12.929962   1.000000   1.000000
    3       -2.134196     -2.134196   1.000000   1.000000
    4       -1.252949     -1.252949   1.000000   1.000000
    5       -1.186441     -1.186441   1.000000   1.000000
    6       -0.199156     -0.199156   1.000000   1.000000
    7       -0.151139     -0.151139   1.000000   1.000000
    8        0.722176      0.722176   1.000000   1.000000
    9        1.762186      1.762186   1.000000   1.000000
   10        2.551124      2.551124   1.000000   1.000000
   11        2.570948      2.570948   1.000000   1.000000
   12        3.250844      3.250844   1.000008   1.000008
   13        3.288288      3.288288   1.000025   1.000025
   14        7.012134      7.012134  -0.000000  -0.000000
   15        9.611400      9.611400   0.000000   0.000000
   16        9.724900      9.724922   0.000000   0.000000
   17       10.058243     10.105282   0.000000   0.000000
 
  0.1153846E+00  0.1153846E+00  0.2307692E+00  0.5000000E-02
    1      -13.733343    -13.733343   1.000000   1.000000
    2      -12.938896    -12.938896   1.000000   1.000000
    3       -2.084607     -2.084607   1.000000   1.000000
    4       -1.251959     -1.251959   1.000000   1.000000
    5       -1.171597     -1.171597   1.000000   1.000000
    6       -0.229912     -0.229912   1.000000   1.000000
    7       -0.161035     -0.161035   1.000000   1.000000
    8        0.711689      0.711688   1.000000   1.000000
    9        1.649981      1.649981   1.000000   1.000000
   10        2.536560      2.536560   1.000000   1.000000
   11        2.557893      2.557893   1.000000   1.000000
   12        3.191852      3.191852   1.000001   1.000001
   13        3.287073      3.287073   1.000024   1.000024
   14        7.196116      7.196116  -0.000000  -0.000000
   15        9.611842      9.611835   0.000000   0.000000
   16        9.700022      9.699979   0.000000   0.000000
   17       10.146353     10.171533   0.000000   0.000000
 
  0.1282051E+00  0.1282051E+00  0.2564103E+00  0.5000000E-02
    1      -13.702048    -13.702048   1.000000   1.000000
    2      -12.947966    -12.947966   1.000000   1.000000
    3       -2.035370     -2.035370   1.000000   1.000000
    4       -1.248712     -1.248712   1.000000   1.000000
    5       -1.155925     -1.155924   1.000000   1.000000
    6       -0.266913     -0.266913   1.000000   1.000000
    7       -0.170804     -0.170804   1.000000   1.000000
    8        0.697332      0.697332   1.000000   1.000000
    9        1.555349      1.555349   1.000000   1.000000
   10        2.520350      2.520350   1.000000   1.000000
   11        2.541970      2.541970   1.000000   1.000000
   12        3.122068      3.122068   1.000000   1.000000
   13        3.285583      3.285583   1.000023   1.000023
   14        7.382210      7.382210  -0.000000  -0.000000
   15        9.607354      9.607297   0.000000   0.000000
   16        9.687012      9.687010   0.000000   0.000000
   17       10.123884     10.102119   0.000000   0.000000
 
  0.1410256E+00  0.1410256E+00  0.2820513E+00  0.5000000E-02
    1      -13.668555    -13.668555   1.000000   1.000000
    2      -12.956940    -12.956940   1.000000   1.000000
    3       -1.988723     -1.988723   1.000000   1.000000
    4       -1.241852     -1.241852   1.000000   1.000000
    5       -1.139748     -1.139748   1.000000   1.000000
    6       -0.310722     -0.310722   1.000000   1.000000
    7       -0.180032     -0.180032   1.000000   1.000000
    8        0.677366      0.677366   1.000000   1.000000
    9        1.482386      1.482386   1.000000   1.000000
   10        2.502399      2.502399   1.000000   1.000000
   11        2.522758      2.522758   1.000000   1.000000
   12        3.043457      3.043457   1.000000   1.000000
   13        3.283936      3.283936   1.000022   1.000022
   14        7.567262      7.567262  -0.000000  -0.000000
   15        9.585620      9.585627   0.000000   0.000000
   16        9.697804      9.697682   0.000000   0.000000
   17       10.169948     10.136018   0.000000   0.000000
 
  0.1538462E+00  0.1538462E+00  0.3076923E+00  0.5000000E-02
    1      -13.634228    -13.634228   1.000000   1.000000
    2      -12.965496    -12.965496   1.000000   1.000000
    3       -1.947133     -1.947133   1.000000   1.000000
    4       -1.229736     -1.229736   1.000000   1.000000
    5       -1.123484     -1.123484   1.000000   1.000000
    6       -0.362027     -0.362027   1.000000   1.000000
    7       -0.188893     -0.188893   1.000000   1.000000
    8        0.650302      0.650302   1.000000   1.000000
    9        1.432095      1.432095   1.000000   1.000000
   10        2.481380      2.481380   1.000000   1.000000
   11        2.498394      2.498394   1.000000   1.000000
   12        2.956399      2.956399   1.000000   1.000000
   13        3.282333      3.282333   1.000021   1.000021
   14        7.747899      7.747899  -0.000000  -0.000000
   15        9.551627      9.551644   0.000000   0.000000
   16        9.726351      9.726307   0.000000   0.000000
   17       10.329724     10.162297   0.000000   0.000000
 
  0.1666667E+00  0.1666667E+00  0.3333333E+00  0.5000000E-02
    1      -13.597329    -13.597329   1.000000   1.000000
    2      -12.974542    -12.974542   1.000000   1.000000
    3       -1.913313     -1.913313   1.000000   1.000000
    4       -1.211782     -1.211782   1.000000   1.000000
    5       -1.107864     -1.107865   1.000000   1.000000
    6       -0.420291     -0.420291   1.000000   1.000000
    7       -0.195753     -0.195753   1.000000   1.000000
    8        0.616540      0.616539   1.000000   1.000000
    9        1.407690      1.407690   1.000000   1.000000
   10        2.459495      2.459495   1.000000   1.000000
   11        2.470559      2.470559   1.000000   1.000000
   12        2.866391      2.866391   1.000000   1.000000
   13        3.280442      3.280442   1.000019   1.000019
   14        7.923402      7.923402  -0.000000  -0.000000
   15        9.511854      9.511857   0.000000   0.000000
   16        9.764141      9.764125   0.000000   0.000000
   17       10.228648     10.195292   0.000000   0.000000
 
  0.1794872E+00  0.1794872E+00  0.3589744E+00  0.5000000E-02
    1      -13.559222    -13.559222   1.000000   1.000000
    2      -12.981329    -12.981329   1.000000   1.000000
    3       -1.887075     -1.887075   1.000000   1.000000
    4       -1.185258     -1.185258   1.000000   1.000000
    5       -1.091938     -1.091938   1.000000   1.000000
    6       -0.485107     -0.485107   1.000000   1.000000
    7       -0.200357     -0.200357   1.000000   1.000000
    8        0.578387      0.578387   1.000000   1.000000
    9        1.406559      1.406559   1.000000   1.000000
   10        2.435476      2.435476   1.000000   1.000000
   11        2.436996      2.436996   1.000000   1.000000
   12        2.777205      2.777205   1.000000   1.000000
   13        3.280460      3.280460   1.000019   1.000019
   14        8.091786      8.091786  -0.000000  -0.000000
   15        9.469542      9.469543   0.000000   0.000000
   16        9.807790      9.807869   0.000000   0.000000
   17       10.237733     10.233020   0.000000   0.000000
 
  0.1923077E+00  0.1923077E+00  0.3846154E+00  0.5000000E-02
    1      -13.520267    -13.520267   1.000000   1.000000
    2      -12.987743    -12.987743   1.000000   1.000000
    3       -1.870221     -1.870221   1.000000   1.000000
    4       -1.150897     -1.150897   1.000000   1.000000
    5       -1.077663     -1.077663   1.000000   1.000000
    6       -0.555938     -0.555938   1.000000   1.000000
    7       -0.202785     -0.202785   1.000000   1.000000
    8        0.537962      0.537962   1.000000   1.000000
    9        1.422633      1.422633   1.000000   1.000000
   10        2.396225      2.396225   1.000000   1.000000
   11        2.409160      2.409160   1.000000   1.000000
   12        2.691637      2.691637   1.000000   1.000000
   13        3.280019      3.280019   1.000019   1.000019
   14        8.252180      8.252181  -0.000000  -0.000000
   15        9.425474      9.425472   0.000000   0.000000
   16        9.853692      9.853869   0.000000   0.000000
   17       10.270231     10.269829   0.000000   0.000000
 
  0.2051282E+00  0.2051282E+00  0.4102564E+00  0.5000000E-02
    1      -13.480819    -13.480819   1.000000   1.000000
    2      -12.993274    -12.993274   1.000000   1.000000
    3       -1.861918     -1.861918   1.000000   1.000000
    4       -1.109581     -1.109581   1.000000   1.000000
    5       -1.064932     -1.064932   1.000000   1.000000
    6       -0.631531     -0.631531   1.000000   1.000000
    7       -0.202307     -0.202307   1.000000   1.000000
    8        0.497762      0.497762   1.000000   1.000000
    9        1.449869      1.449869   1.000000   1.000000
   10        2.347244      2.347244   1.000000   1.000000
   11        2.380470      2.380470   1.000000   1.000000
   12        2.614094      2.614094   1.000000   1.000000
   13        3.280393      3.280393   1.000019   1.000019
   14        8.404351      8.404351  -0.000000  -0.000000
   15        9.380233      9.380232  -0.000000  -0.000000
   16        9.899816      9.899821   0.000000   0.000000
   17       10.308844     10.316771   0.000000   0.000000
 
  0.2179487E+00  0.2179487E+00  0.4358974E+00  0.5000000E-02
    1      -13.441245    -13.441245   1.000000   1.000000
    2      -12.997401    -12.997401   1.000000   1.000000
    3       -1.860611     -1.860611   1.000000   1.000000
    4       -1.062973     -1.062973   1.000000   1.000000
    5       -1.054024     -1.054024   1.000000   1.000000
    6       -0.710570     -0.710570   1.000000   1.000000
    7       -0.198530     -0.198530   1.000000   1.000000
    8        0.460042      0.460042   1.000000   1.000000
    9        1.481610      1.481610   1.000000   1.000000
   10        2.291935      2.291935   1.000000   1.000000
   11        2.349357      2.349357   1.000000   1.000000
   12        2.549131      2.549131   1.000000   1.000000
   13        3.281765      3.281765   1.000020   1.000020
   14        8.548423      8.548442  -0.000000  -0.000000
   15        9.334787      9.334798  -0.000000  -0.000000
   16        9.944914      9.944844   0.000000   0.000000
   17       10.348385     10.354132   0.000000   0.000000
 
  0.2307692E+00  0.2307692E+00  0.4615385E+00  0.5000000E-02
    1      -13.403054    -13.403054   1.000000   1.000000
    2      -13.000023    -13.000023   1.000000   1.000000
    3       -1.864510     -1.864510   1.000000   1.000000
    4       -1.045438     -1.045439   1.000000   1.000000
    5       -1.015119     -1.015119   1.000000   1.000000
    6       -0.790939     -0.790939   1.000000   1.000000
    7       -0.191907     -0.191907   1.000000   1.000000
    8        0.425433      0.425433   1.000000   1.000000
    9        1.507463      1.507463   1.000000   1.000000
   10        2.236548      2.236548   1.000000   1.000000
   11        2.313680      2.313680   1.000000   1.000000
   12        2.496300      2.496300   1.000000   1.000000
   13        3.284296      3.284296   1.000022   1.000022
   14        8.684719      8.684718  -0.000000  -0.000000
   15        9.289597      9.289592  -0.000000  -0.000000
   16        9.987887      9.987896   0.000000   0.000000
   17       10.392017     10.482309   0.000000   0.000000
 
  0.2435897E+00  0.2435897E+00  0.4871795E+00  0.5000000E-02
    1      -13.365469    -13.365469   1.000000   1.000000
    2      -13.001392    -13.001392   1.000000   1.000000
    3       -1.872605     -1.872605   1.000000   1.000000
    4       -1.039249     -1.039249   1.000000   1.000000
    5       -0.974493     -0.974493   1.000000   1.000000
    6       -0.865015     -0.865015   1.000000   1.000000
    7       -0.180753     -0.180753   1.000000   1.000000
    8        0.394285      0.394285   1.000000   1.000000
    9        1.517915      1.517915   1.000000   1.000000
   10        2.192064      2.192064   1.000000   1.000000
   11        2.276971      2.276971   1.000000   1.000000
   12        2.456740      2.456740   1.000000   1.000000
   13        3.287920      3.287920   1.000024   1.000024
   14        8.812002      8.811995  -0.000000  -0.000000
   15        9.245564      9.245563  -0.000000  -0.000000
   16       10.028427     10.028414   0.000000   0.000000
   17       10.434382     10.433726   0.000000   0.000000
 
  0.2564103E+00  0.2564103E+00  0.5128205E+00  0.5000000E-02
    1      -13.327757    -13.327757   1.000000   1.000000
    2      -13.000990    -13.000990   1.000000   1.000000
    3       -1.881433     -1.881433   1.000000   1.000000
    4       -1.035286     -1.035286   1.000000   1.000000
    5       -0.988072     -0.988072   1.000000   1.000000
    6       -0.882723     -0.882723   1.000000   1.000000
    7       -0.165576     -0.165576   1.000000   1.000000
    8        0.368418      0.368418   1.000000   1.000000
    9        1.502719      1.502719   1.000000   1.000000
   10        2.167069      2.167069   1.000000   1.000000
   11        2.238764      2.238764   1.000000   1.000000
   12        2.432277      2.432277   1.000000   1.000000
   13        3.292835      3.292835   1.000028   1.000028
   14        8.931690      8.931690  -0.000000  -0.000000
   15        9.205823      9.205823  -0.000000  -0.000000
   16       10.066942     10.066948   0.000000   0.000000
   17       10.494628     10.477454   0.000000   0.000000
 
  0.2692308E+00  0.2692308E+00  0.5384615E+00  0.5000000E-02
    1      -13.290816    -13.290816   1.000000   1.000000
    2      -12.998792    -12.998792   1.000000   1.000000
    3       -1.890519     -1.890519   1.000000   1.000000
    4       -1.058538     -1.058538   1.000000   1.000000
    5       -1.033529     -1.033529   1.000000   1.000000
    6       -0.843607     -0.843607   1.000000   1.000000
    7       -0.146488     -0.146488   1.000000   1.000000
    8        0.347429      0.347430   1.000000   1.000000
    9        1.459470      1.459470   1.000000   1.000000
   10        2.156940      2.156940   1.000000   1.000000
   11        2.199653      2.199653   1.000000   1.000000
   12        2.428829      2.428829   1.000000   1.000000
   13        3.298991      3.298991   1.000034   1.000034
   14        9.032583      9.032576  -0.000000  -0.000000
   15        9.182053      9.182052  -0.000000  -0.000000
   16       10.104083     10.104038   0.000000   0.000000
   17       10.520876     10.549859   0.000000   0.000000
 
  0.2820513E+00  0.2820513E+00  0.5641026E+00  0.5000000E-02
    1      -13.255877    -13.255877   1.000000   1.000000
    2      -12.995287    -12.995287   1.000000   1.000000
    3       -1.899810     -1.899810   1.000000   1.000000
    4       -1.135077     -1.135077   1.000000   1.000000
    5       -1.034230     -1.034230   1.000000   1.000000
    6       -0.798973     -0.798973   1.000000   1.000000
    7       -0.123768     -0.123769   1.000000   1.000000
    8        0.329972      0.329973   1.000000   1.000000
    9        1.393646      1.393646   1.000000   1.000000
   10        2.147580      2.147580   1.000000   1.000000
   11        2.157538      2.157538   1.000000   1.000000
   12        2.451857      2.451857   1.000000   1.000000
   13        3.306096      3.306096   1.000042   1.000042
   14        9.065393      9.065392  -0.000000  -0.000000
   15        9.221237      9.221238  -0.000000  -0.000000
   16       10.139717     10.140434   0.000000   0.000000
   17       10.567235     10.606680   0.000000   0.000000
 
  0.2948718E+00  0.2948718E+00  0.5897436E+00  0.5000000E-02
    1      -13.222700    -13.222700   1.000000   1.000000
    2      -12.990192    -12.990192   1.000000   1.000000
    3       -1.908996     -1.908996   1.000000   1.000000
    4       -1.208875     -1.208875   1.000000   1.000000
    5       -1.036940     -1.036940   1.000000   1.000000
    6       -0.756714     -0.756714   1.000000   1.000000
    7       -0.097647     -0.097647   1.000000   1.000000
    8        0.316081      0.316081   1.000000   1.000000
    9        1.314546      1.314546   1.000000   1.000000
   10        2.113902      2.113902   1.000000   1.000000
   11        2.129181      2.129181   1.000000   1.000000
   12        2.503861      2.503861   1.000000   1.000000
   13        3.314181      3.314181   1.000053   1.000053
   14        9.040945      9.040944  -0.000000  -0.000000
   15        9.314140      9.314138  -0.000000  -0.000000
   16       10.175554     10.175517   0.000000   0.000000
   17       10.622958     10.614363   0.000000   0.000000
 
  0.3076923E+00  0.3076923E+00  0.6153846E+00  0.5000000E-02
    1      -13.190053    -13.190053   1.000000   1.000000
    2      -12.983555    -12.983555   1.000000   1.000000
    3       -1.918625     -1.918625   1.000000   1.000000
    4       -1.275974     -1.275974   1.000000   1.000000
    5       -1.040715     -1.040715   1.000000   1.000000
    6       -0.718635     -0.718635   1.000000   1.000000
    7       -0.067862     -0.067862   1.000000   1.000000
    8        0.305280      0.305280   1.000000   1.000000
    9        1.231413      1.231413   1.000000   1.000000
   10        2.072534      2.072534   1.000000   1.000000
   11        2.103670      2.103670   1.000000   1.000000
   12        2.577786      2.577786   1.000000   1.000000
   13        3.323214      3.323214   1.000069   1.000069
   14        9.005724      9.005724  -0.000000  -0.000000
   15        9.414858      9.414860   0.000000   0.000000
   16       10.212562     10.213296   0.000000   0.000000
   17       10.647579     10.674230   0.000000   0.000000
 
  0.3205128E+00  0.3205128E+00  0.6410256E+00  0.5000000E-02
    1      -13.160923    -13.160923   1.000000   1.000000
    2      -12.976007    -12.976007   1.000000   1.000000
    3       -1.930890     -1.930890   1.000000   1.000000
    4       -1.334225     -1.334225   1.000000   1.000000
    5       -1.046598     -1.046598   1.000000   1.000000
    6       -0.686130     -0.686130   1.000000   1.000000
    7       -0.036218     -0.036218   1.000000   1.000000
    8        0.295328      0.295328   1.000000   1.000000
    9        1.147862      1.147862   1.000000   1.000000
   10        2.026692      2.026692   1.000000   1.000000
   11        2.069241      2.069241   1.000000   1.000000
   12        2.662683      2.662683   1.000000   1.000000
   13        3.332615      3.332615   1.000090   1.000090
   14        8.969095      8.969095  -0.000000  -0.000000
   15        9.510841      9.510840   0.000000   0.000000
   16       10.251644     10.251637   0.000000   0.000000
   17       10.693162     10.690546   0.000000   0.000000
 
  0.3333333E+00  0.3333333E+00  0.6666667E+00  0.5000000E-02
    1      -13.133964    -13.133964   1.000000   1.000000
    2      -12.968037    -12.968037   1.000000   1.000000
    3       -1.947783     -1.947783   1.000000   1.000000
    4       -1.380163     -1.380163   1.000000   1.000000
    5       -1.054136     -1.054136   1.000000   1.000000
    6       -0.659386     -0.659386   1.000000   1.000000
    7       -0.002761     -0.002761   1.000000   1.000000
    8        0.284417      0.284417   1.000000   1.000000
    9        1.069830      1.069830   1.000000   1.000000
   10        1.980337      1.980337   1.000000   1.000000
   11        2.030590      2.030590   1.000000   1.000000
   12        2.753496      2.753496   1.000000   1.000000
   13        3.341312      3.341312   1.000115   1.000115
   14        8.933351      8.933352  -0.000000  -0.000000
   15        9.599467      9.599514   0.000000   0.000000
   16       10.294287     10.294570   0.000000   0.000000
   17       10.743434     10.738776   0.000000   0.000000
 
  0.3461538E+00  0.3461538E+00  0.6923077E+00  0.5000000E-02
    1      -13.109644    -13.109644   1.000000   1.000000
    2      -12.957984    -12.957984   1.000000   1.000000
    3       -1.970083     -1.970083   1.000000   1.000000
    4       -1.409961     -1.409961   1.000000   1.000000
    5       -1.061502     -1.061502   1.000000   1.000000
    6       -0.637854     -0.637854   1.000000   1.000000
    7        0.032519      0.032519   1.000000   1.000000
    8        0.269924      0.269923   1.000000   1.000000
    9        1.002342      1.002342   1.000000   1.000000
   10        1.932082      1.932082   1.000000   1.000000
   11        1.987654      1.987654   1.000000   1.000000
   12        2.847645      2.847645   1.000000   1.000000
   13        3.351665      3.351665   1.000152   1.000152
   14        8.899574      8.899574  -0.000000  -0.000000
   15        9.678999      9.678995   0.000000   0.000000
   16       10.343278     10.343269   0.000000   0.000000
   17       10.767943     10.792361   0.000000   0.000000
 
  0.3589744E+00  0.3589744E+00  0.7179487E+00  0.5000000E-02
    1      -13.086891    -13.086891   1.000000   1.000000
    2      -12.948554    -12.948554   1.000000   1.000000
    3       -2.000748     -2.000748   1.000000   1.000000
    4       -1.424184     -1.424184   1.000000   1.000000
    5       -1.069708     -1.069708   1.000000   1.000000
    6       -0.621974     -0.621974   1.000000   1.000000