       N       E                     dE             d eps       ncg     rms          rms(c)
DAV:   1     0.224595672379E+03    0.22460E+03   -0.10561E+04 13720   0.148E+03
DAV:   2     0.147460979274E+02   -0.20985E+03   -0.20665E+03 13706   0.391E+02
DAV:   3    -0.262011340506E+02   -0.40947E+02   -0.39622E+02 21161   0.167E+02
DAV:   4    -0.274879781114E+02   -0.12868E+01   -0.12863E+01 18297   0.339E+01
DAV:   5    -0.275160925652E+02   -0.28114E-01   -0.28106E-01 20854   0.513E+00
DAV:   6    -0.275165082110E+02   -0.41565E-03   -0.41562E-03 19265   0.565E-01
DAV:   7    -0.275165158579E+02   -0.76470E-05   -0.76459E-05 16763   0.786E-02
   1 F= -.27516516E+02 E0= -.27518148E+02  d E =0.489560E-02  mag=    -0.0000
