<?xml version="1.0" encoding="ISO-8859-1"?>
<modeling>
 <generator>
  <i name="program" type="string">vasp </i>
  <i name="version" type="string">5.4.4.18Apr17-6-g9f103f2a35  </i>
  <i name="subversion" type="string">(build May 20 2018 16:52:39) complex            parallel </i>
  <i name="platform" type="string">LinuxIFC </i>
  <i name="date" type="string">2022 11 13 </i>
  <i name="time" type="string">13:05:42 </i>
 </generator>
 <incar>
  <i type="string" name="SYSTEM"> MnO double cell</i>
  <i type="string" name="PREC">normal</i>
  <i type="int" name="ISPIN">     2</i>
  <i type="int" name="ICHARG">    11</i>
  <v name="MAGMOM">      2.00000000     -2.00000000      0.00000000      0.00000000</v>
  <i type="logical" name="LWAVE"> F  </i>
  <i type="logical" name="LCHARG"> F  </i>
  <i type="int" name="LORBIT">    11</i>
  <v type="int" name="KPOINT_BSE">    -1     0     0     0</v>
  <i type="logical" name="LDAU"> T  </i>
  <v type="int" name="LDAUTYPE">     2</v>
  <v type="int" name="LDAUL">     2    -1</v>
  <v name="LDAUU">      7.00000000      0.00000000</v>
 </incar>
 <structure name="primitive_cell" >
  <crystal>
   <varray name="basis" >
    <v>       2.22300000       0.00000000      -2.22300000 </v>
    <v>       0.00000000       2.22300000      -2.22300000 </v>
    <v>       2.22300000       2.22300000       0.00000000 </v>
   </varray>
   <i name="volume">     21.97092713 </i>
   <varray name="rec_basis" >
    <v>       0.22492128      -0.22492128      -0.22492128 </v>
    <v>      -0.22492128       0.22492128      -0.22492128 </v>
    <v>       0.22492128       0.22492128       0.22492128 </v>
   </varray>
  </crystal>
  <varray name="positions" >
   <v>       0.00000000       0.00000000       0.00000000 </v>
   <v>      -0.50000000      -0.50000000      -0.50000000 </v>
  </varray>
 </structure>
 <varray name="primitive_index" >
  <v type="int" >        1 </v>
  <v type="int" >        3 </v>
 </varray>
 <kpoints>
  <generation param="listgenerated">
   <i name="divisions" type="int">      40 </i>
   <v>       0.00000000       0.00000000       0.00000000 </v>
   <v>       0.50000000       0.50000000       1.00000000 </v>
   <v>       1.00000000       0.75000000       1.25000000 </v>
   <v>       1.12500000       1.12500000       0.75000000 </v>
   <v>       0.00000000       0.00000000       0.00000000 </v>
   <v>       1.00000000       1.00000000       1.00000000 </v>
  </generation>
  <varray name="kpointlist" >
   <v>       0.00000000       0.00000000       0.00000000 </v>
   <v>       0.01282051       0.01282051       0.02564103 </v>
   <v>       0.02564103       0.02564103       0.05128205 </v>
   <v>       0.03846154       0.03846154       0.07692308 </v>
   <v>       0.05128205       0.05128205       0.10256410 </v>
   <v>       0.06410256       0.06410256       0.12820513 </v>
   <v>       0.07692308       0.07692308       0.15384615 </v>
   <v>       0.08974359       0.08974359       0.17948718 </v>
   <v>       0.10256410       0.10256410       0.20512821 </v>
   <v>       0.11538462       0.11538462       0.23076923 </v>
   <v>       0.12820513       0.12820513       0.25641026 </v>
   <v>       0.14102564       0.14102564       0.28205128 </v>
   <v>       0.15384615       0.15384615       0.30769231 </v>
   <v>       0.16666667       0.16666667       0.33333333 </v>
   <v>       0.17948718       0.17948718       0.35897436 </v>
   <v>       0.19230769       0.19230769       0.38461538 </v>
   <v>       0.20512821       0.20512821       0.41025641 </v>
   <v>       0.21794872       0.21794872       0.43589744 </v>
   <v>       0.23076923       0.23076923       0.46153846 </v>
   <v>       0.24358974       0.24358974       0.48717949 </v>
   <v>       0.25641026       0.25641026       0.51282051 </v>
   <v>       0.26923077       0.26923077       0.53846154 </v>
   <v>       0.28205128       0.28205128       0.56410256 </v>
   <v>       0.29487179       0.29487179       0.58974359 </v>
   <v>       0.30769231       0.30769231       0.61538462 </v>
   <v>       0.32051282       0.32051282       0.64102564 </v>
   <v>       0.33333333       0.33333333       0.66666667 </v>
   <v>       0.34615385       0.34615385       0.69230769 </v>
   <v>       0.35897436       0.35897436       0.71794872 </v>
   <v>       0.37179487       0.37179487       0.74358974 </v>
   <v>       0.38461538       0.38461538       0.76923077 </v>
   <v>       0.39743590       0.39743590       0.79487179 </v>
   <v>       0.41025641       0.41025641       0.82051282 </v>
   <v>       0.42307692       0.42307692       0.84615385 </v>
   <v>       0.43589744       0.43589744       0.87179487 </v>
   <v>       0.44871795       0.44871795       0.89743590 </v>
   <v>       0.46153846       0.46153846       0.92307692 </v>
   <v>       0.47435897       0.47435897       0.94871795 </v>
   <v>       0.48717949       0.48717949       0.97435897 </v>
   <v>       0.50000000       0.50000000       1.00000000 </v>
   <v>       0.50000000       0.50000000       1.00000000 </v>
   <v>       0.51282051       0.50641026       1.00641026 </v>
   <v>       0.52564103       0.51282051       1.01282051 </v>
   <v>       0.53846154       0.51923077       1.01923077 </v>
   <v>       0.55128205       0.52564103       1.02564103 </v>
   <v>       0.56410256       0.53205128       1.03205128 </v>
   <v>       0.57692308       0.53846154       1.03846154 </v>
   <v>       0.58974359       0.54487179       1.04487179 </v>
   <v>       0.60256410       0.55128205       1.05128205 </v>
   <v>       0.61538462       0.55769231       1.05769231 </v>
   <v>       0.62820513       0.56410256       1.06410256 </v>
   <v>       0.64102564       0.57051282       1.07051282 </v>
   <v>       0.65384615       0.57692308       1.07692308 </v>
   <v>       0.66666667       0.58333333       1.08333333 </v>
   <v>       0.67948718       0.58974359       1.08974359 </v>
   <v>       0.69230769       0.59615385       1.09615385 </v>
   <v>       0.70512821       0.60256410       1.10256410 </v>
   <v>       0.71794872       0.60897436       1.10897436 </v>
   <v>       0.73076923       0.61538462       1.11538462 </v>
   <v>       0.74358974       0.62179487       1.12179487 </v>
   <v>       0.75641026       0.62820513       1.12820513 </v>
   <v>       0.76923077       0.63461538       1.13461538 </v>
   <v>       0.78205128       0.64102564       1.14102564 </v>
   <v>       0.79487179       0.64743590       1.14743590 </v>
   <v>       0.80769231       0.65384615       1.15384615 </v>
   <v>       0.82051282       0.66025641       1.16025641 </v>
   <v>       0.83333333       0.66666667       1.16666667 </v>
   <v>       0.84615385       0.67307692       1.17307692 </v>
   <v>       0.85897436       0.67948718       1.17948718 </v>
   <v>       0.87179487       0.68589744       1.18589744 </v>
   <v>       0.88461538       0.69230769       1.19230769 </v>
   <v>       0.89743590       0.69871795       1.19871795 </v>
   <v>       0.91025641       0.70512821       1.20512821 </v>
   <v>       0.92307692       0.71153846       1.21153846 </v>
   <v>       0.93589744       0.71794872       1.21794872 </v>
   <v>       0.94871795       0.72435897       1.22435897 </v>
   <v>       0.96153846       0.73076923       1.23076923 </v>
   <v>       0.97435897       0.73717949       1.23717949 </v>
   <v>       0.98717949       0.74358974       1.24358974 </v>
   <v>       1.00000000       0.75000000       1.25000000 </v>
   <v>       1.00000000       0.75000000       1.25000000 </v>
   <v>       1.00320513       0.75961538       1.23717949 </v>
   <v>       1.00641026       0.76923077       1.22435897 </v>
   <v>       1.00961538       0.77884615       1.21153846 </v>
   <v>       1.01282051       0.78846154       1.19871795 </v>
   <v>       1.01602564       0.79807692       1.18589744 </v>
   <v>       1.01923077       0.80769231       1.17307692 </v>
   <v>       1.02243590       0.81730769       1.16025641 </v>
   <v>       1.02564103       0.82692308       1.14743590 </v>
   <v>       1.02884615       0.83653846       1.13461538 </v>
   <v>       1.03205128       0.84615385       1.12179487 </v>
   <v>       1.03525641       0.85576923       1.10897436 </v>
   <v>       1.03846154       0.86538462       1.09615385 </v>
   <v>       1.04166667       0.87500000       1.08333333 </v>
   <v>       1.04487179       0.88461538       1.07051282 </v>
   <v>       1.04807692       0.89423077       1.05769231 </v>
   <v>       1.05128205       0.90384615       1.04487179 </v>
   <v>       1.05448718       0.91346154       1.03205128 </v>
   <v>       1.05769231       0.92307692       1.01923077 </v>
   <v>       1.06089744       0.93269231       1.00641026 </v>
   <v>       1.06410256       0.94230769       0.99358974 </v>
   <v>       1.06730769       0.95192308       0.98076923 </v>
   <v>       1.07051282       0.96153846       0.96794872 </v>
   <v>       1.07371795       0.97115385       0.95512821 </v>
   <v>       1.07692308       0.98076923       0.94230769 </v>
   <v>       1.08012821       0.99038462       0.92948718 </v>
   <v>       1.08333333       1.00000000       0.91666667 </v>
   <v>       1.08653846       1.00961538       0.90384615 </v>
   <v>       1.08974359       1.01923077       0.89102564 </v>
   <v>       1.09294872       1.02884615       0.87820513 </v>
   <v>       1.09615385       1.03846154       0.86538462 </v>
   <v>       1.09935897       1.04807692       0.85256410 </v>
   <v>       1.10256410       1.05769231       0.83974359 </v>
   <v>       1.10576923       1.06730769       0.82692308 </v>
   <v>       1.10897436       1.07692308       0.81410256 </v>
   <v>       1.11217949       1.08653846       0.80128205 </v>
   <v>       1.11538462       1.09615385       0.78846154 </v>
   <v>       1.11858974       1.10576923       0.77564103 </v>
   <v>       1.12179487       1.11538462       0.76282051 </v>
   <v>       1.12500000       1.12500000       0.75000000 </v>
   <v>       1.12500000       1.12500000       0.75000000 </v>
   <v>       1.09615385       1.09615385       0.73076923 </v>
   <v>       1.06730769       1.06730769       0.71153846 </v>
   <v>       1.03846154       1.03846154       0.69230769 </v>
   <v>       1.00961538       1.00961538       0.67307692 </v>
   <v>       0.98076923       0.98076923       0.65384615 </v>
   <v>       0.95192308       0.95192308       0.63461538 </v>
   <v>       0.92307692       0.92307692       0.61538462 </v>
   <v>       0.89423077       0.89423077       0.59615385 </v>
   <v>       0.86538462       0.86538462       0.57692308 </v>
   <v>       0.83653846       0.83653846       0.55769231 </v>
   <v>       0.80769231       0.80769231       0.53846154 </v>
   <v>       0.77884615       0.77884615       0.51923077 </v>
   <v>       0.75000000       0.75000000       0.50000000 </v>
   <v>       0.72115385       0.72115385       0.48076923 </v>
   <v>       0.69230769       0.69230769       0.46153846 </v>
   <v>       0.66346154       0.66346154       0.44230769 </v>
   <v>       0.63461538       0.63461538       0.42307692 </v>
   <v>       0.60576923       0.60576923       0.40384615 </v>
   <v>       0.57692308       0.57692308       0.38461538 </v>
   <v>       0.54807692       0.54807692       0.36538462 </v>
   <v>       0.51923077       0.51923077       0.34615385 </v>
   <v>       0.49038462       0.49038462       0.32692308 </v>
   <v>       0.46153846       0.46153846       0.30769231 </v>
   <v>       0.43269231       0.43269231       0.28846154 </v>
   <v>       0.40384615       0.40384615       0.26923077 </v>
   <v>       0.37500000       0.37500000       0.25000000 </v>
   <v>       0.34615385       0.34615385       0.23076923 </v>
   <v>       0.31730769       0.31730769       0.21153846 </v>
   <v>       0.28846154       0.28846154       0.19230769 </v>
   <v>       0.25961538       0.25961538       0.17307692 </v>
   <v>       0.23076923       0.23076923       0.15384615 </v>
   <v>       0.20192308       0.20192308       0.13461538 </v>
   <v>       0.17307692       0.17307692       0.11538462 </v>
   <v>       0.14423077       0.14423077       0.09615385 </v>
   <v>       0.11538462       0.11538462       0.07692308 </v>
   <v>       0.08653846       0.08653846       0.05769231 </v>
   <v>       0.05769231       0.05769231       0.03846154 </v>
   <v>       0.02884615       0.02884615       0.01923077 </v>
   <v>       0.00000000       0.00000000       0.00000000 </v>
   <v>       0.00000000       0.00000000       0.00000000 </v>
   <v>       0.02564103       0.02564103       0.02564103 </v>
   <v>       0.05128205       0.05128205       0.05128205 </v>
   <v>       0.07692308       0.07692308       0.07692308 </v>
   <v>       0.10256410       0.10256410       0.10256410 </v>
   <v>       0.12820513       0.12820513       0.12820513 </v>
   <v>       0.15384615       0.15384615       0.15384615 </v>
   <v>       0.17948718       0.17948718       0.17948718 </v>
   <v>       0.20512821       0.20512821       0.20512821 </v>
   <v>       0.23076923       0.23076923       0.23076923 </v>
   <v>       0.25641026       0.25641026       0.25641026 </v>
   <v>       0.28205128       0.28205128       0.28205128 </v>
   <v>       0.30769231       0.30769231       0.30769231 </v>
   <v>       0.33333333       0.33333333       0.33333333 </v>
   <v>       0.35897436       0.35897436       0.35897436 </v>
   <v>       0.38461538       0.38461538       0.38461538 </v>
   <v>       0.41025641       0.41025641       0.41025641 </v>
   <v>       0.43589744       0.43589744       0.43589744 </v>
   <v>       0.46153846       0.46153846       0.46153846 </v>
   <v>       0.48717949       0.48717949       0.48717949 </v>
   <v>       0.51282051       0.51282051       0.51282051 </v>
   <v>       0.53846154       0.53846154       0.53846154 </v>
   <v>       0.56410256       0.56410256       0.56410256 </v>
   <v>       0.58974359       0.58974359       0.58974359 </v>
   <v>       0.61538462       0.61538462       0.61538462 </v>
   <v>       0.64102564       0.64102564       0.64102564 </v>
   <v>       0.66666667       0.66666667       0.66666667 </v>
   <v>       0.69230769       0.69230769       0.69230769 </v>
   <v>       0.71794872       0.71794872       0.71794872 </v>
   <v>       0.74358974       0.74358974       0.74358974 </v>
   <v>       0.76923077       0.76923077       0.76923077 </v>
   <v>       0.79487179       0.79487179       0.79487179 </v>
   <v>       0.82051282       0.82051282       0.82051282 </v>
   <v>       0.84615385       0.84615385       0.84615385 </v>
   <v>       0.87179487       0.87179487       0.87179487 </v>
   <v>       0.89743590       0.89743590       0.89743590 </v>
   <v>       0.92307692       0.92307692       0.92307692 </v>
   <v>       0.94871795       0.94871795       0.94871795 </v>
   <v>       0.97435897       0.97435897       0.97435897 </v>
   <v>       1.00000000       1.00000000       1.00000000 </v>
  </varray>
  <varray name="weights" >
   <v>       0.00500000 </v>
   <v>       0.00500000 </v>
   <v>       0.00500000 </v>
   <v>       0.00500000 </v>
   <v>       0.00500000 </v>
   <v>       0.00500000 </v>
   <v>       0.00500000 </v>
   <v>       0.00500000 </v>
   <v>       0.00500000 </v>
   <v>       0.00500000 </v>
   <v>       0.00500000 </v>
   <v>       0.00500000 </v>
   <v>       0.00500000 </v>
   <v>       0.00500000 </v>
   <v>       0.00500000 </v>
   <v>       0.00500000 </v>
   <v>       0.00500000 </v>
   <v>       0.00500000 </v>
   <v>       0.00500000 </v>
   <v>       0.00500000 </v>
   <v>       0.00500000 </v>
   <v>       0.00500000 </v>
   <v>       0.00500000 </v>
   <v>       0.00500000 </v>
   <v>       0.00500000 </v>
   <v>       0.00500000 </v>
   <v>       0.00500000 </v>
   <v>       0.00500000 </v>
   <v>       0.00500000 </v>
   <v>       0.00500000 </v>
   <v>       0.00500000 </v>
   <v>       0.00500000 </v>
   <v>       0.00500000 </v>
   <v>       0.00500000 </v>
   <v>       0.00500000 </v>
   <v>       0.00500000 </v>
   <v>       0.00500000 </v>
   <v>       0.00500000 </v>
   <v>       0.00500000 </v>
   <v>       0.00500000 </v>
   <v>       0.00500000 </v>
   <v>       0.00500000 </v>
   <v>       0.00500000 </v>
   <v>       0.00500000 </v>
   <v>       0.00500000 </v>
   <v>       0.00500000 </v>
   <v>       0.00500000 </v>
   <v>       0.00500000 </v>
   <v>       0.00500000 </v>
   <v>       0.00500000 </v>
   <v>       0.00500000 </v>
   <v>       0.00500000 </v>
   <v>       0.00500000 </v>
   <v>       0.00500000 </v>
   <v>       0.00500000 </v>
   <v>       0.00500000 </v>
   <v>       0.00500000 </v>
   <v>       0.00500000 </v>
   <v>       0.00500000 </v>
   <v>       0.00500000 </v>
   <v>       0.00500000 </v>
   <v>       0.00500000 </v>
   <v>       0.00500000 </v>
   <v>       0.00500000 </v>
   <v>       0.00500000 </v>
   <v>       0.00500000 </v>
   <v>       0.00500000 </v>
   <v>       0.00500000 </v>
   <v>       0.00500000 </v>
   <v>       0.00500000 </v>
   <v>       0.00500000 </v>
   <v>       0.00500000 </v>
   <v>       0.00500000 </v>
   <v>       0.00500000 </v>
   <v>       0.00500000 </v>
   <v>       0.00500000 </v>
   <v>       0.00500000 </v>
   <v>       0.00500000 </v>
   <v>       0.00500000 </v>
   <v>       0.00500000 </v>
   <v>       0.00500000 </v>
   <v>       0.00500000 </v>
   <v>       0.00500000 </v>
   <v>       0.00500000 </v>
   <v>       0.00500000 </v>
   <v>       0.00500000 </v>
   <v>       0.00500000 </v>
   <v>       0.00500000 </v>
   <v>       0.00500000 </v>
   <v>       0.00500000 </v>
   <v>       0.00500000 </v>
   <v>       0.00500000 </v>
   <v>       0.00500000 </v>
   <v>       0.00500000 </v>
   <v>       0.00500000 </v>
   <v>       0.00500000 </v>
   <v>       0.00500000 </v>
   <v>       0.00500000 </v>
   <v>       0.00500000 </v>
   <v>       0.00500000 </v>
   <v>       0.00500000 </v>
   <v>       0.00500000 </v>
   <v>       0.00500000 </v>
   <v>       0.00500000 </v>
   <v>       0.00500000 </v>
   <v>       0.00500000 </v>
   <v>       0.00500000 </v>
   <v>       0.00500000 </v>
   <v>       0.00500000 </v>
   <v>       0.00500000 </v>
   <v>       0.00500000 </v>
   <v>       0.00500000 </v>
   <v>       0.00500000 </v>
   <v>       0.00500000 </v>
   <v>       0.00500000 </v>
   <v>       0.00500000 </v>
   <v>       0.00500000 </v>
   <v>       0.00500000 </v>
   <v>       0.00500000 </v>
   <v>       0.00500000 </v>
   <v>       0.00500000 </v>
   <v>       0.00500000 </v>
   <v>       0.00500000 </v>
   <v>       0.00500000 </v>
   <v>       0.00500000 </v>
   <v>       0.00500000 </v>
   <v>       0.00500000 </v>
   <v>       0.00500000 </v>
   <v>       0.00500000 </v>
   <v>       0.00500000 </v>
   <v>       0.00500000 </v>
   <v>       0.00500000 </v>
   <v>       0.00500000 </v>
   <v>       0.00500000 </v>
   <v>       0.00500000 </v>
   <v>       0.00500000 </v>
   <v>       0.00500000 </v>
   <v>       0.00500000 </v>
   <v>       0.00500000 </v>
   <v>       0.00500000 </v>
   <v>       0.00500000 </v>
   <v>       0.00500000 </v>
   <v>       0.00500000 </v>
   <v>       0.00500000 </v>
   <v>       0.00500000 </v>
   <v>       0.00500000 </v>
   <v>       0.00500000 </v>
   <v>       0.00500000 </v>
   <v>       0.00500000 </v>
   <v>       0.00500000 </v>
   <v>       0.00500000 </v>
   <v>       0.00500000 </v>
   <v>       0.00500000 </v>
   <v>       0.00500000 </v>
   <v>       0.00500000 </v>
   <v>       0.00500000 </v>
   <v>       0.00500000 </v>
   <v>       0.00500000 </v>
   <v>       0.00500000 </v>
   <v>       0.00500000 </v>
   <v>       0.00500000 </v>
   <v>       0.00500000 </v>
   <v>       0.00500000 </v>
   <v>       0.00500000 </v>
   <v>       0.00500000 </v>
   <v>       0.00500000 </v>
   <v>       0.00500000 </v>
   <v>       0.00500000 </v>
   <v>       0.00500000 </v>
   <v>       0.00500000 </v>
   <v>       0.00500000 </v>
   <v>       0.00500000 </v>
   <v>       0.00500000 </v>
   <v>       0.00500000 </v>
   <v>       0.00500000 </v>
   <v>       0.00500000 </v>
   <v>       0.00500000 </v>
   <v>       0.00500000 </v>
   <v>       0.00500000 </v>
   <v>       0.00500000 </v>
   <v>       0.00500000 </v>
   <v>       0.00500000 </v>
   <v>       0.00500000 </v>
   <v>       0.00500000 </v>
   <v>       0.00500000 </v>
   <v>       0.00500000 </v>
   <v>       0.00500000 </v>
   <v>       0.00500000 </v>
   <v>       0.00500000 </v>
   <v>       0.00500000 </v>
   <v>       0.00500000 </v>
   <v>       0.00500000 </v>
   <v>       0.00500000 </v>
   <v>       0.00500000 </v>
   <v>       0.00500000 </v>
   <v>       0.00500000 </v>
   <v>       0.00500000 </v>
   <v>       0.00500000 </v>
   <v>       0.00500000 </v>
   <v>       0.00500000 </v>
  </varray>
 </kpoints>
 <parameters>
  <separator name="general" >
   <i type="string" name="SYSTEM">MnO double cell</i>
   <i type="logical" name="LCOMPAT"> F  </i>
  </separator>
  <separator name="electronic" >
   <i type="string" name="PREC">normal</i>
   <i name="ENMAX">    400.00000000</i>
   <i name="ENAUG">    605.39200000</i>
   <i name="EDIFF">      0.00010000</i>
   <i type="int" name="IALGO">    38</i>
   <i type="int" name="IWAVPR">    10</i>
   <i type="int" name="NBANDS">    17</i>
   <i name="NELECT">     26.00000000</i>
   <i type="int" name="TURBO">     0</i>
   <i type="int" name="IRESTART">     0</i>
   <i type="int" name="NREBOOT">     0</i>
   <i type="int" name="NMIN">     0</i>
   <i name="EREF">      0.00000000</i>
   <separator name="electronic smearing" >
    <i type="int" name="ISMEAR">     1</i>
    <i name="SIGMA">      0.20000000</i>
    <i name="KSPACING">      0.50000000</i>
    <i type="logical" name="KGAMMA"> T  </i>
   </separator>
   <separator name="electronic projectors" >
    <i type="logical" name="LREAL"> F  </i>
    <v name="ROPT">      0.00000000      0.00000000</v>
    <i type="int" name="LMAXPAW">  -100</i>
    <i type="int" name="LMAXMIX">     2</i>
    <i type="logical" name="NLSPLINE"> F  </i>
   </separator>
   <separator name="electronic startup" >
    <i type="int" name="ISTART">     0</i>
    <i type="int" name="ICHARG">    11</i>
    <i type="int" name="INIWAV">     1</i>
   </separator>
   <separator name="electronic spin" >
    <i type="int" name="ISPIN">     2</i>
    <i type="logical" name="LNONCOLLINEAR"> F  </i>
    <v name="MAGMOM">      2.00000000     -2.00000000      0.00000000      0.00000000</v>
    <i name="NUPDOWN">     -1.00000000</i>
    <i type="logical" name="LSORBIT"> F  </i>
    <v name="SAXIS">      0.00000000      0.00000000      1.00000000</v>
    <i type="logical" name="LSPIRAL"> F  </i>
    <v name="QSPIRAL">      0.00000000      0.00000000      0.00000000</v>
    <i type="logical" name="LZEROZ"> F  </i>
   </separator>
   <separator name="electronic exchange-correlation" >
    <i type="logical" name="LASPH"> F  </i>
    <i type="logical" name="LMETAGGA"> F  </i>
   </separator>
   <separator name="electronic convergence" >
    <i type="int" name="NELM">    60</i>
    <i type="int" name="NELMDL">    -5</i>
    <i type="int" name="NELMIN">     2</i>
    <i name="ENINI">    400.00000000</i>
    <separator name="electronic convergence detail" >
     <i type="logical" name="LDIAG"> T  </i>
     <i type="logical" name="LSUBROT"> F  </i>
     <i name="WEIMIN">      0.00000000</i>
     <i name="EBREAK">      0.00000147</i>
     <i name="DEPER">      0.30000000</i>
     <i type="int" name="NRMM">     4</i>
     <i name="TIME">      0.40000000</i>
    </separator>
   </separator>
   <separator name="electronic mixer" >
    <i name="AMIX">      0.40000000</i>
    <i name="BMIX">      1.00000000</i>
    <i name="AMIN">      0.10000000</i>
    <i name="AMIX_MAG">      1.60000000</i>
    <i name="BMIX_MAG">      1.00000000</i>
    <separator name="electronic mixer details" >
     <i type="int" name="IMIX">     4</i>
     <i type="logical" name="MIXFIRST"> F  </i>
     <i type="int" name="MAXMIX">   -45</i>
     <i name="WC">    100.00000000</i>
     <i type="int" name="INIMIX">     1</i>
     <i type="int" name="MIXPRE">     1</i>
     <i type="int" name="MREMOVE">     5</i>
    </separator>
   </separator>
   <separator name="electronic dipolcorrection" >
    <i type="logical" name="LDIPOL"> F  </i>
    <i type="logical" name="LMONO"> F  </i>
    <i type="int" name="IDIPOL">     0</i>
    <i name="EPSILON">      1.00000000</i>
    <v name="DIPOL">   -100.00000000   -100.00000000   -100.00000000</v>
    <i name="EFIELD">      0.00000000</i>
   </separator>
  </separator>
  <separator name="grids" >
   <i type="int" name="NGX">    28</i>
   <i type="int" name="NGY">    28</i>
   <i type="int" name="NGZ">    28</i>
   <i type="int" name="NGXF">    56</i>
   <i type="int" name="NGYF">    56</i>
   <i type="int" name="NGZF">    56</i>
   <i type="logical" name="ADDGRID"> F  </i>
  </separator>
  <separator name="ionic" >
   <i type="int" name="NSW">     0</i>
   <i type="int" name="IBRION">    -1</i>
   <i type="int" name="MDALGO">     0</i>
   <i type="int" name="ISIF">     2</i>
   <i name="PSTRESS">      0.00000000</i>
   <i name="EDIFFG">      0.00100000</i>
   <i type="int" name="NFREE">     0</i>
   <i name="POTIM">      0.50000000</i>
   <i name="SMASS">     -3.00000000</i>
   <i name="SCALEE">      1.00000000</i>
  </separator>
  <separator name="ionic md" >
   <i name="TEBEG">      0.00010000</i>
   <i name="TEEND">      0.00010000</i>
   <i type="int" name="NBLOCK">     1</i>
   <i type="int" name="KBLOCK">     1</i>
   <i type="int" name="NPACO">   256</i>
   <i name="APACO">     16.00000000</i>
  </separator>
  <separator name="symmetry" >
   <i type="int" name="ISYM">     2</i>
   <i name="SYMPREC">      0.00001000</i>
  </separator>
  <separator name="dos" >
   <i type="int" name="LORBIT">    11</i>
   <v name="RWIGS">     -1.00000000     -1.00000000</v>
   <i type="int" name="NEDOS">   301</i>
   <i name="EMIN">     10.00000000</i>
   <i name="EMAX">    -10.00000000</i>
   <i name="EFERMI">      0.00000000</i>
  </separator>
  <separator name="writing" >
   <i type="int" name="NWRITE">     2</i>
   <i type="logical" name="LWAVE"> F  </i>
   <i type="logical" name="LDOWNSAMPLE"> F  </i>
   <i type="logical" name="LCHARG"> F  </i>
   <i type="logical" name="LPARD"> F  </i>
   <i type="logical" name="LVTOT"> F  </i>
   <i type="logical" name="LVHAR"> F  </i>
   <i type="logical" name="LELF"> F  </i>
   <i type="logical" name="LOPTICS"> F  </i>
   <v name="STM">      0.00000000      0.00000000      0.00000000      0.00000000      0.00000000      0.00000000      0.00000000</v>
  </separator>
  <separator name="performance" >
   <i type="int" name="NPAR">     1</i>
   <i type="int" name="NSIM">     4</i>
   <i type="int" name="NBLK">    -1</i>
   <i type="logical" name="LPLANE"> T  </i>
   <i type="logical" name="LSCALAPACK"> T  </i>
   <i type="logical" name="LSCAAWARE"> F  </i>
   <i type="logical" name="LSCALU"> F  </i>
   <i type="logical" name="LASYNC"> F  </i>
   <i type="logical" name="LORBITALREAL"> F  </i>
  </separator>
  <separator name="miscellaneous" >
   <i type="int" name="IDIOT">     3</i>
   <i type="int" name="ISPECIAL">     0</i>
   <i type="logical" name="LMUSIC"> F  </i>
   <v name="POMASS">     54.93800000     16.00000000</v>
   <v name="DARWINR">      0.00000000      0.00000000</v>
   <v name="DARWINV">      1.00000000      1.00000000</v>
   <i type="logical" name="LCORR"> T  </i>
  </separator>
  <i type="logical" name="GGA_COMPAT"> T  </i>
  <i type="logical" name="LBERRY"> F  </i>
  <i type="int" name="ICORELEVEL">     0</i>
  <i type="logical" name="LDAU"> T  </i>
  <v type="int" name="LDAUTYPE">     2</v>
  <v type="int" name="LDAUL">     2</v>
  <v name="LDAUU">      7.00000000</v>
  <v name="LDAUJ">      0.00000000</v>
  <i type="int" name="LDAUPRINT">     0</i>
  <i type="int" name="I_CONSTRAINED_M">     0</i>
  <separator name="electronic exchange-correlation" >
   <i type="string" name="GGA">--</i>
   <i type="int" name="VOSKOWN">     0</i>
   <i type="logical" name="LHFCALC"> F  </i>
   <i type="string" name="PRECFOCK"></i>
   <i type="logical" name="LSYMGRAD"> F  </i>
   <i type="logical" name="LHFONE"> F  </i>
   <i type="logical" name="LRHFCALC"> F  </i>
   <i type="logical" name="LTHOMAS"> F  </i>
   <i type="logical" name="LMODELHF"> F  </i>
   <i name="ENCUT4O">     -1.00000000</i>
   <i type="int" name="EXXOEP">     0</i>
   <i type="int" name="FOURORBIT">     0</i>
   <i name="AEXX">      0.00000000</i>
   <i name="HFALPHA">      0.00000000</i>
   <i name="MCALPHA">      0.00000000</i>
   <i name="ALDAX">      1.00000000</i>
   <i name="AGGAX">      1.00000000</i>
   <i name="ALDAC">      1.00000000</i>
   <i name="AGGAC">      1.00000000</i>
   <i type="int" name="NKREDX">     1</i>
   <i type="int" name="NKREDY">     1</i>
   <i type="int" name="NKREDZ">     1</i>
   <i type="logical" name="SHIFTRED"> F  </i>
   <i type="logical" name="ODDONLY"> F  </i>
   <i type="logical" name="EVENONLY"> F  </i>
   <i type="int" name="LMAXFOCK">     0</i>
   <i type="int" name="NMAXFOCKAE">     0</i>
   <i type="logical" name="LFOCKAEDFT"> F  </i>
   <i name="HFSCREEN">      0.00000000</i>
   <i name="HFSCREENC">      0.00000000</i>
   <i type="int" name="NBANDSGWLOW">     0</i>
  </separator>
  <separator name="vdW DFT" >
   <i type="logical" name="LUSE_VDW"> F  </i>
   <i name="Zab_VDW">     -0.84910000</i>
   <i name="PARAM1">      0.12340000</i>
   <i name="PARAM2">      1.00000000</i>
   <i name="PARAM3">      0.00000000</i>
  </separator>
  <separator name="model GW" >
   <i type="int" name="MODEL_GW">     0</i>
   <i name="MODEL_EPS0">      6.59127814</i>
   <i name="MODEL_ALPHA">      1.00000000</i>
  </separator>
  <separator name="linear response parameters" >
   <i type="logical" name="LEPSILON"> F  </i>
   <i type="logical" name="LRPA"> F  </i>
   <i type="logical" name="LNABLA"> F  </i>
   <i type="logical" name="LVEL"> F  </i>
   <i type="int" name="KINTER">     0</i>
   <i name="CSHIFT">      0.10000000</i>
   <i name="OMEGAMAX">     -1.00000000</i>
   <i name="DEG_THRESHOLD">      0.00200000</i>
   <i name="RTIME">     -0.10000000</i>
   <i name="WPLASMAI">      0.00000000</i>
   <v name="DFIELD">      0.00000000      0.00000000      0.00000000</v>
   <v name="WPLASMA">      0.00000000      0.00000000      0.00000000      0.00000000      0.00000000      0.00000000      0.00000000      0.00000000      0.00000000</v>
  </separator>
  <separator name="orbital magnetization" >
   <i type="logical" name="NUCIND"> F  </i>
   <v name="MAGPOS">      0.00000000      0.00000000      0.00000000</v>
   <i type="logical" name="LNICSALL"> T  </i>
   <i type="logical" name="ORBITALMAG"> F  </i>
   <i type="logical" name="LMAGBLOCH"> F  </i>
   <i type="logical" name="LCHIMAG"> F  </i>
   <i type="logical" name="LGAUGE"> T  </i>
   <i type="int" name="MAGATOM">     0</i>
   <v name="MAGDIPOL">      0.00000000      0.00000000      0.00000000</v>
   <v name="AVECCONST">      0.00000000      0.00000000      0.00000000</v>
  </separator>
  <separator name="response functions" >
   <i type="logical" name="LADDER"> F  </i>
   <i type="logical" name="LRPAFORCE"> F  </i>
   <i type="logical" name="LFXC"> F  </i>
   <i type="logical" name="LHARTREE"> T  </i>
   <i type="int" name="IBSE">     0</i>
   <v type="int" name="KPOINT">    -1     0     0     0</v>
   <i type="logical" name="LTCTE"> F  </i>
   <i type="logical" name="LTETE"> F  </i>
   <i type="logical" name="LTRIPLET"> F  </i>
   <i type="logical" name="LFXCEPS"> F  </i>
   <i type="logical" name="LFXHEG"> F  </i>
   <i type="int" name="NATURALO">     2</i>
   <i type="logical" name="L2ORDER"> F  </i>
   <i type="logical" name="LMP2LT"> F  </i>
   <i type="logical" name="LUSEW"> F  </i>
   <i name="ENCUTGW">     -2.00000000</i>
   <i name="ENCUTGWSOFT">     -2.00000000</i>
   <i name="ENCUTLF">     -1.00000000</i>
   <i type="int" name="LMAXMP2">    -1</i>
   <i name="SCISSOR">      0.00000000</i>
   <i type="int" name="NOMEGA">     0</i>
   <i type="int" name="NOMEGAR">     0</i>
   <i type="int" name="NBANDSGW">    -1</i>
   <i type="int" name="NBANDSO">    -1</i>
   <i type="int" name="NBANDSV">    -1</i>
   <i type="int" name="NELM">     1</i>
   <i type="int" name="NELMHF">     1</i>
   <i type="int" name="DIM">     3</i>
   <i type="int" name="ANTIRES">     0</i>
   <i name="OMEGAMAX">    -30.00000000</i>
   <i name="OMEGAMIN">    -30.00000000</i>
   <i name="OMEGATL">   -200.00000000</i>
   <i type="int" name="OMEGAGRID">   140</i>
   <i name="CSHIFT">     -0.10000000</i>
   <i type="logical" name="SELFENERGY"> F  </i>
   <i type="logical" name="LSPECTRAL"> F  </i>
   <i type="logical" name="LSPECTRALGW"> F  </i>
   <i type="logical" name="LSINGLES"> F  </i>
   <i type="logical" name="LFERMIGW"> F  </i>
   <i type="logical" name="ODDONLYGW"> F  </i>
   <i type="logical" name="EVENONLYGW"> F  </i>
   <i type="int" name="NKREDLFX">     1</i>
   <i type="int" name="NKREDLFY">     1</i>
   <i type="int" name="NKREDLFZ">     1</i>
   <i type="int" name="MAXMEM">  2800</i>
   <i type="int" name="TELESCOPE">     0</i>
   <i type="int" name="TAUPAR">     1</i>
   <i type="int" name="OMEGAPAR">    -1</i>
   <i name="LAMBDA">      1.00000000</i>
  </separator>
  <separator name="External order field" >
   <i name="OFIELD_KAPPA">      0.00000000</i>
   <v name="OFIELD_K">      0.00000000      0.00000000      0.00000000</v>
   <i name="OFIELD_Q6_NEAR">      0.00000000</i>
   <i name="OFIELD_Q6_FAR">      0.00000000</i>
   <i name="OFIELD_A">      0.00000000</i>
  </separator>
 </parameters>
 <atominfo>
  <atoms>       4 </atoms>
  <types>       2 </types>
  <array name="atoms" >
   <dimension dim="1">ion</dimension>
   <field type="string">element</field>
   <field type="int">atomtype</field>
   <set>
    <rc><c>Mn</c><c>   1</c></rc>
    <rc><c>Mn</c><c>   1</c></rc>
    <rc><c>O </c><c>   2</c></rc>
    <rc><c>O </c><c>   2</c></rc>
   </set>
  </array>
  <array name="atomtypes" >
   <dimension dim="1">type</dimension>
   <field type="int">atomspertype</field>
   <field type="string">element</field>
   <field>mass</field>
   <field>valence</field>
   <field type="string">pseudopotential</field>
   <set>
    <rc><c>   2</c><c>Mn</c><c>     54.93800000</c><c>      7.00000000</c><c> PAW_GGA Mn 03Mar1998                   </c></rc>
    <rc><c>   2</c><c>O </c><c>     16.00000000</c><c>      6.00000000</c><c> PAW_GGA O 05Jan2001                    </c></rc>
   </set>
  </array>
 </atominfo>
 <structure name="initialpos" >
  <crystal>
   <varray name="basis" >
    <v>       4.44600000       2.22300000       2.22300000 </v>
    <v>       2.22300000       4.44600000       2.22300000 </v>
    <v>       2.22300000       2.22300000       4.44600000 </v>
   </varray>
   <i name="volume">     43.94185427 </i>
   <varray name="rec_basis" >
    <v>       0.33738192      -0.11246064      -0.11246064 </v>
    <v>      -0.11246064       0.33738192      -0.11246064 </v>
    <v>      -0.11246064      -0.11246064       0.33738192 </v>
   </varray>
  </crystal>
  <varray name="positions" >
   <v>       0.00000000       0.00000000       0.00000000 </v>
   <v>       0.50000000       0.50000000       0.50000000 </v>
   <v>       0.25000000       0.25000000       0.25000000 </v>
   <v>       0.75000000       0.75000000       0.75000000 </v>
  </varray>
 </structure>
 <calculation>
  <scstep>
   <time name="dav">   15.86   15.91</time>
   <time name="total">   16.79   16.83</time>
   <energy>
    <i name="alphaZ">    119.80218577 </i>
    <i name="ewald">  -1558.68419992 </i>
    <i name="hartreedc">   -348.34403818 </i>
    <i name="XCdc">     41.24596007 </i>
    <i name="pawpsdc">   1235.83202134 </i>
    <i name="pawaedc">  -1181.37920284 </i>
    <i name="eentropy">     -0.00064122 </i>
    <i name="bandstr">    214.81257864 </i>
    <i name="atom">   1701.31100873 </i>
    <i name="e_fr_energy">    224.59567238 </i>
    <i name="e_wo_entrp">    224.59631360 </i>
    <i name="e_0_energy">    224.59588612 </i>
   </energy>
  </scstep>
  <scstep>
   <time name="dav">   16.32   16.36</time>
   <time name="total">   16.35   16.39</time>
   <energy>
    <i name="e_fr_energy">     14.74609793 </i>
    <i name="e_wo_entrp">     14.74419191 </i>
    <i name="e_0_energy">     14.74546259 </i>
   </energy>
  </scstep>
  <scstep>
   <time name="dav">   23.35   23.41</time>
   <time name="total">   23.38   23.43</time>
   <energy>
    <i name="e_fr_energy">    -26.20113405 </i>
    <i name="e_wo_entrp">    -26.20330950 </i>
    <i name="e_0_energy">    -26.20185920 </i>
   </energy>
  </scstep>
  <scstep>
   <time name="dav">   19.81   19.86</time>
   <time name="total">   19.84   19.89</time>
   <energy>
    <i name="e_fr_energy">    -27.48797811 </i>
    <i name="e_wo_entrp">    -27.49285741 </i>
    <i name="e_0_energy">    -27.48960454 </i>
   </energy>
  </scstep>
  <scstep>
   <time name="dav">   22.54   22.59</time>
   <time name="total">   22.57   22.62</time>
   <energy>
    <i name="e_fr_energy">    -27.51609257 </i>
    <i name="e_wo_entrp">    -27.52098866 </i>
    <i name="e_0_energy">    -27.51772460 </i>
   </energy>
  </scstep>
  <scstep>
   <time name="dav">   20.59   20.64</time>
   <time name="total">   20.61   20.67</time>
   <energy>
    <i name="e_fr_energy">    -27.51650821 </i>
    <i name="e_wo_entrp">    -27.52140382 </i>
    <i name="e_0_energy">    -27.51814008 </i>
   </energy>
  </scstep>
  <scstep>
   <time name="dav">   19.22   19.27</time>
   <time name="total">   19.24   19.30</time>
   <energy>
    <i name="alphaZ">    119.80218577 </i>
    <i name="ewald">  -1558.68419992 </i>
    <i name="hartreedc">   -348.34403818 </i>
    <i name="XCdc">     41.24596007 </i>
    <i name="pawpsdc">   1235.83202134 </i>
    <i name="pawaedc">  -1181.37920284 </i>
    <i name="eentropy">      0.00489560 </i>
    <i name="bandstr">    -37.30514642 </i>
    <i name="atom">   1701.31100873 </i>
    <i name="e_fr_energy">    -27.51651586 </i>
    <i name="e_wo_entrp">    -27.52141146 </i>
    <i name="e_0_energy">    -27.51814773 </i>
   </energy>
  </scstep>
  <structure>
   <crystal>
    <varray name="basis" >
     <v>       4.44600000       2.22300000       2.22300000 </v>
     <v>       2.22300000       4.44600000       2.22300000 </v>
     <v>       2.22300000       2.22300000       4.44600000 </v>
    </varray>
    <i name="volume">     43.94185427 </i>
    <varray name="rec_basis" >
     <v>       0.33738192      -0.11246064      -0.11246064 </v>
     <v>      -0.11246064       0.33738192      -0.11246064 </v>
     <v>      -0.11246064      -0.11246064       0.33738192 </v>
    </varray>
   </crystal>
   <varray name="positions" >
    <v>       0.00000000       0.00000000       0.00000000 </v>
    <v>       0.50000000       0.50000000       0.50000000 </v>
    <v>       0.25000000       0.25000000       0.25000000 </v>
    <v>       0.75000000       0.75000000       0.75000000 </v>
   </varray>
  </structure>
  <varray name="forces" >
   <v>       0.00000000       0.00000000       0.00000000 </v>
   <v>      -0.00000000       0.00000000      -0.00000000 </v>
   <v>       0.00000000      -0.00000000      -0.00000000 </v>
   <v>      -0.00000000      -0.00000000       0.00000000 </v>
  </varray>
  <varray name="stress" >
   <v>     115.78346354       6.31720562       6.31720562 </v>
   <v>       6.31720562     115.78346354       6.31720562 </v>
   <v>       6.31720562       6.31720562     115.78346354 </v>
  </varray>
  <energy>
   <i name="e_fr_energy">    -27.51651586 </i>
   <i name="e_wo_entrp">    -27.51814773 </i>
   <i name="e_0_energy">      0.00489560 </i>
  </energy>
  <time name="totalsc">  147.95  148.33</time>
  <eigenvalues>
   <array>
    <dimension dim="1">band</dimension>
    <dimension dim="2">kpoint</dimension>
    <dimension dim="3">spin</dimension>
    <field>eigene</field>
    <field>occ</field>
    <set>
     <set comment="spin 1">
      <set comment="kpoint 1">
       <r>  -13.8802    1.0000 </r>
       <r>  -12.8877    1.0000 </r>
       <r>   -2.3649    1.0000 </r>
       <r>   -1.2489    1.0000 </r>
       <r>   -1.2489    1.0000 </r>
       <r>   -0.1045    1.0000 </r>
       <r>   -0.1045    1.0000 </r>
       <r>    0.7587    1.0000 </r>
       <r>    2.6047    1.0000 </r>
       <r>    2.6047    1.0000 </r>
       <r>    2.6051    1.0000 </r>
       <r>    3.2911    1.0000 </r>
       <r>    3.2911    1.0000 </r>
       <r>    6.1121   -0.0000 </r>
       <r>    9.7826    0.0000 </r>
       <r>    9.9684    0.0000 </r>
       <r>    9.9688    0.0000 </r>
      </set>
      <set comment="kpoint 2">
       <r>  -13.8783    1.0000 </r>
       <r>  -12.8893    1.0000 </r>
       <r>   -2.3609    1.0000 </r>
       <r>   -1.2495    1.0000 </r>
       <r>   -1.2483    1.0000 </r>
       <r>   -0.1059    1.0000 </r>
       <r>   -0.1057    1.0000 </r>
       <r>    0.7578    1.0000 </r>
       <r>    2.5791    1.0000 </r>
       <r>    2.6037    1.0000 </r>
       <r>    2.6045    1.0000 </r>
       <r>    3.2897    1.0000 </r>
       <r>    3.2972    1.0000 </r>
       <r>    6.1293   -0.0000 </r>
       <r>    9.7777    0.0000 </r>
       <r>    9.9365    0.0000 </r>
       <r>    9.9811    0.0000 </r>
      </set>
      <set comment="kpoint 3">
       <r>  -13.8721    1.0000 </r>
       <r>  -12.8916    1.0000 </r>
       <r>   -2.3486    1.0000 </r>
       <r>   -1.2496    1.0000 </r>
       <r>   -1.2451    1.0000 </r>
       <r>   -0.1097    1.0000 </r>
       <r>   -0.1081    1.0000 </r>
       <r>    0.7558    1.0000 </r>
       <r>    2.5104    1.0000 </r>
       <r>    2.6016    1.0000 </r>
       <r>    2.6038    1.0000 </r>
       <r>    3.2899    1.0000 </r>
       <r>    3.3160    1.0001 </r>
       <r>    6.1807   -0.0000 </r>
       <r>    9.7484    0.0000 </r>
       <r>    9.8777    0.0000 </r>
       <r>   10.0536    0.0000 </r>
      </set>
      <set comment="kpoint 4">
       <r>  -13.8623    1.0000 </r>
       <r>  -12.8955    1.0000 </r>
       <r>   -2.3284    1.0000 </r>
       <r>   -1.2501    1.0000 </r>
       <r>   -1.2400    1.0000 </r>
       <r>   -0.1161    1.0000 </r>
       <r>   -0.1121    1.0000 </r>
       <r>    0.7525    1.0000 </r>
       <r>    2.4082    1.0000 </r>
       <r>    2.5982    1.0000 </r>
       <r>    2.6029    1.0000 </r>
       <r>    3.2888    1.0000 </r>
       <r>    3.3356    1.0001 </r>
       <r>    6.2637   -0.0000 </r>
       <r>    9.7142    0.0000 </r>
       <r>    9.8455    0.0000 </r>
       <r>    9.9956    0.0000 </r>
      </set>
      <set comment="kpoint 5">
       <r>  -13.8493    1.0000 </r>
       <r>  -12.9005    1.0000 </r>
       <r>   -2.3009    1.0000 </r>
       <r>   -1.2507    1.0000 </r>
       <r>   -1.2328    1.0000 </r>
       <r>   -0.1253    1.0000 </r>
       <r>   -0.1178    1.0000 </r>
       <r>    0.7481    1.0000 </r>
       <r>    2.2855    1.0000 </r>
       <r>    2.5918    1.0000 </r>
       <r>    2.5994    1.0000 </r>
       <r>    3.2890    1.0000 </r>
       <r>    3.3466    1.0001 </r>
       <r>    6.3743   -0.0000 </r>
       <r>    9.6797    0.0000 </r>
       <r>    9.8237    0.0000 </r>
       <r>    9.9905    0.0000 </r>
      </set>
      <set comment="kpoint 6">
       <r>  -13.8322    1.0000 </r>
       <r>  -12.9066    1.0000 </r>
       <r>   -2.2667    1.0000 </r>
       <r>   -1.2512    1.0000 </r>
       <r>   -1.2238    1.0000 </r>
       <r>   -0.1377    1.0000 </r>
       <r>   -0.1248    1.0000 </r>
       <r>    0.7429    1.0000 </r>
       <r>    2.1544    1.0000 </r>
       <r>    2.5837    1.0000 </r>
       <r>    2.5947    1.0000 </r>
       <r>    3.2891    1.0000 </r>
       <r>    3.3454    1.0001 </r>
       <r>    6.5099   -0.0000 </r>
       <r>    9.6504    0.0000 </r>
       <r>    9.8020    0.0000 </r>
       <r>   10.1900    0.0000 </r>
      </set>
      <set comment="kpoint 7">
       <r>  -13.8123    1.0000 </r>
       <r>  -12.9134    1.0000 </r>
       <r>   -2.2266    1.0000 </r>
       <r>   -1.2517    1.0000 </r>
       <r>   -1.2129    1.0000 </r>
       <r>   -0.1538    1.0000 </r>
       <r>   -0.1329    1.0000 </r>
       <r>    0.7372    1.0000 </r>
       <r>    2.0187    1.0000 </r>
       <r>    2.5740    1.0000 </r>
       <r>    2.5884    1.0000 </r>
       <r>    3.2891    1.0000 </r>
       <r>    3.3284    1.0001 </r>
       <r>    6.6636   -0.0000 </r>
       <r>    9.6289    0.0000 </r>
       <r>    9.7778    0.0000 </r>
       <r>   10.0628    0.0000 </r>
      </set>
      <set comment="kpoint 8">
       <r>  -13.7882    1.0000 </r>
       <r>  -12.9215    1.0000 </r>
       <r>   -2.1818    1.0000 </r>
       <r>   -1.2530    1.0000 </r>
       <r>   -1.2002    1.0000 </r>
       <r>   -0.1740    1.0000 </r>
       <r>   -0.1416    1.0000 </r>
       <r>    0.7303    1.0000 </r>
       <r>    1.8871    1.0000 </r>
       <r>    2.5641    1.0000 </r>
       <r>    2.5815    1.0000 </r>
       <r>    3.2886    1.0000 </r>
       <r>    3.2969    1.0000 </r>
       <r>    6.8340   -0.0000 </r>
       <r>    9.6160    0.0000 </r>
       <r>    9.7521    0.0000 </r>
       <r>   10.0343    0.0000 </r>
      </set>
      <set comment="kpoint 9">
       <r>  -13.7622    1.0000 </r>
       <r>  -12.9300    1.0000 </r>
       <r>   -2.1342    1.0000 </r>
       <r>   -1.2529    1.0000 </r>
       <r>   -1.1864    1.0000 </r>
       <r>   -0.1992    1.0000 </r>
       <r>   -0.1511    1.0000 </r>
       <r>    0.7222    1.0000 </r>
       <r>    1.7622    1.0000 </r>
       <r>    2.5511    1.0000 </r>
       <r>    2.5709    1.0000 </r>
       <r>    3.2508    1.0000 </r>
       <r>    3.2883    1.0000 </r>
       <r>    7.0121   -0.0000 </r>
       <r>    9.6114    0.0000 </r>
       <r>    9.7249    0.0000 </r>
       <r>   10.0582    0.0000 </r>
      </set>
      <set comment="kpoint 10">
       <r>  -13.7333    1.0000 </r>
       <r>  -12.9389    1.0000 </r>
       <r>   -2.0846    1.0000 </r>
       <r>   -1.2520    1.0000 </r>
       <r>   -1.1716    1.0000 </r>
       <r>   -0.2299    1.0000 </r>
       <r>   -0.1610    1.0000 </r>
       <r>    0.7117    1.0000 </r>
       <r>    1.6500    1.0000 </r>
       <r>    2.5366    1.0000 </r>
       <r>    2.5579    1.0000 </r>
       <r>    3.1919    1.0000 </r>
       <r>    3.2871    1.0000 </r>
       <r>    7.1961   -0.0000 </r>
       <r>    9.6118    0.0000 </r>
       <r>    9.7000    0.0000 </r>
       <r>   10.1464    0.0000 </r>
      </set>
      <set comment="kpoint 11">
       <r>  -13.7020    1.0000 </r>
       <r>  -12.9480    1.0000 </r>
       <r>   -2.0354    1.0000 </r>
       <r>   -1.2487    1.0000 </r>
       <r>   -1.1559    1.0000 </r>
       <r>   -0.2669    1.0000 </r>
       <r>   -0.1708    1.0000 </r>
       <r>    0.6973    1.0000 </r>
       <r>    1.5553    1.0000 </r>
       <r>    2.5203    1.0000 </r>
       <r>    2.5420    1.0000 </r>
       <r>    3.1221    1.0000 </r>
       <r>    3.2856    1.0000 </r>
       <r>    7.3822   -0.0000 </r>
       <r>    9.6074    0.0000 </r>
       <r>    9.6870    0.0000 </r>
       <r>   10.1239    0.0000 </r>
      </set>
      <set comment="kpoint 12">
       <r>  -13.6686    1.0000 </r>
       <r>  -12.9569    1.0000 </r>
       <r>   -1.9887    1.0000 </r>
       <r>   -1.2419    1.0000 </r>
       <r>   -1.1397    1.0000 </r>
       <r>   -0.3107    1.0000 </r>
       <r>   -0.1800    1.0000 </r>
       <r>    0.6774    1.0000 </r>
       <r>    1.4824    1.0000 </r>
       <r>    2.5024    1.0000 </r>
       <r>    2.5228    1.0000 </r>
       <r>    3.0435    1.0000 </r>
       <r>    3.2839    1.0000 </r>
       <r>    7.5673   -0.0000 </r>
       <r>    9.5856    0.0000 </r>
       <r>    9.6978    0.0000 </r>
       <r>   10.1699    0.0000 </r>
      </set>
      <set comment="kpoint 13">
       <r>  -13.6342    1.0000 </r>
       <r>  -12.9655    1.0000 </r>
       <r>   -1.9471    1.0000 </r>
       <r>   -1.2297    1.0000 </r>
       <r>   -1.1235    1.0000 </r>
       <r>   -0.3620    1.0000 </r>
       <r>   -0.1889    1.0000 </r>
       <r>    0.6503    1.0000 </r>
       <r>    1.4321    1.0000 </r>
       <r>    2.4814    1.0000 </r>
       <r>    2.4984    1.0000 </r>
       <r>    2.9564    1.0000 </r>
       <r>    3.2823    1.0000 </r>
       <r>    7.7479   -0.0000 </r>
       <r>    9.5516    0.0000 </r>
       <r>    9.7264    0.0000 </r>
       <r>   10.3297    0.0000 </r>
      </set>
      <set comment="kpoint 14">
       <r>  -13.5973    1.0000 </r>
       <r>  -12.9745    1.0000 </r>
       <r>   -1.9133    1.0000 </r>
       <r>   -1.2118    1.0000 </r>
       <r>   -1.1079    1.0000 </r>
       <r>   -0.4203    1.0000 </r>
       <r>   -0.1958    1.0000 </r>
       <r>    0.6165    1.0000 </r>
       <r>    1.4077    1.0000 </r>
       <r>    2.4595    1.0000 </r>
       <r>    2.4706    1.0000 </r>
       <r>    2.8664    1.0000 </r>
       <r>    3.2804    1.0000 </r>
       <r>    7.9234   -0.0000 </r>
       <r>    9.5119    0.0000 </r>
       <r>    9.7641    0.0000 </r>
       <r>   10.2286    0.0000 </r>
      </set>
      <set comment="kpoint 15">
       <r>  -13.5592    1.0000 </r>
       <r>  -12.9813    1.0000 </r>
       <r>   -1.8871    1.0000 </r>
       <r>   -1.1853    1.0000 </r>
       <r>   -1.0919    1.0000 </r>
       <r>   -0.4851    1.0000 </r>
       <r>   -0.2004    1.0000 </r>
       <r>    0.5784    1.0000 </r>
       <r>    1.4066    1.0000 </r>
       <r>    2.4355    1.0000 </r>
       <r>    2.4370    1.0000 </r>
       <r>    2.7772    1.0000 </r>
       <r>    3.2805    1.0000 </r>
       <r>    8.0918   -0.0000 </r>
       <r>    9.4695    0.0000 </r>
       <r>    9.8078    0.0000 </r>
       <r>   10.2377    0.0000 </r>
      </set>
      <set comment="kpoint 16">
       <r>  -13.5203    1.0000 </r>
       <r>  -12.9877    1.0000 </r>
       <r>   -1.8702    1.0000 </r>
       <r>   -1.1509    1.0000 </r>
       <r>   -1.0777    1.0000 </r>
       <r>   -0.5559    1.0000 </r>
       <r>   -0.2028    1.0000 </r>
       <r>    0.5380    1.0000 </r>
       <r>    1.4226    1.0000 </r>
       <r>    2.3962    1.0000 </r>
       <r>    2.4092    1.0000 </r>
       <r>    2.6916    1.0000 </r>
       <r>    3.2800    1.0000 </r>
       <r>    8.2522   -0.0000 </r>
       <r>    9.4255    0.0000 </r>
       <r>    9.8537    0.0000 </r>
       <r>   10.2702    0.0000 </r>
      </set>
      <set comment="kpoint 17">
       <r>  -13.4808    1.0000 </r>
       <r>  -12.9933    1.0000 </r>
       <r>   -1.8619    1.0000 </r>
       <r>   -1.1096    1.0000 </r>
       <r>   -1.0649    1.0000 </r>
       <r>   -0.6315    1.0000 </r>
       <r>   -0.2023    1.0000 </r>
       <r>    0.4978    1.0000 </r>
       <r>    1.4499    1.0000 </r>
       <r>    2.3472    1.0000 </r>
       <r>    2.3805    1.0000 </r>
       <r>    2.6141    1.0000 </r>
       <r>    3.2804    1.0000 </r>
       <r>    8.4044   -0.0000 </r>
       <r>    9.3802   -0.0000 </r>
       <r>    9.8998    0.0000 </r>
       <r>   10.3088    0.0000 </r>
      </set>
      <set comment="kpoint 18">
       <r>  -13.4412    1.0000 </r>
       <r>  -12.9974    1.0000 </r>
       <r>   -1.8606    1.0000 </r>
       <r>   -1.0630    1.0000 </r>
       <r>   -1.0540    1.0000 </r>
       <r>   -0.7106    1.0000 </r>
       <r>   -0.1985    1.0000 </r>
       <r>    0.4600    1.0000 </r>
       <r>    1.4816    1.0000 </r>
       <r>    2.2919    1.0000 </r>
       <r>    2.3494    1.0000 </r>
       <r>    2.5491    1.0000 </r>
       <r>    3.2818    1.0000 </r>
       <r>    8.5484   -0.0000 </r>
       <r>    9.3348   -0.0000 </r>
       <r>    9.9449    0.0000 </r>
       <r>   10.3484    0.0000 </r>
      </set>
      <set comment="kpoint 19">
       <r>  -13.4031    1.0000 </r>
       <r>  -13.0000    1.0000 </r>
       <r>   -1.8645    1.0000 </r>
       <r>   -1.0454    1.0000 </r>
       <r>   -1.0151    1.0000 </r>
       <r>   -0.7909    1.0000 </r>
       <r>   -0.1919    1.0000 </r>
       <r>    0.4254    1.0000 </r>
       <r>    1.5075    1.0000 </r>
       <r>    2.2365    1.0000 </r>
       <r>    2.3137    1.0000 </r>
       <r>    2.4963    1.0000 </r>
       <r>    3.2843    1.0000 </r>
       <r>    8.6847   -0.0000 </r>
       <r>    9.2896   -0.0000 </r>
       <r>    9.9879    0.0000 </r>
       <r>   10.3920    0.0000 </r>
      </set>
      <set comment="kpoint 20">
       <r>  -13.3655    1.0000 </r>
       <r>  -13.0014    1.0000 </r>
       <r>   -1.8726    1.0000 </r>
       <r>   -1.0392    1.0000 </r>
       <r>   -0.9745    1.0000 </r>
       <r>   -0.8650    1.0000 </r>
       <r>   -0.1808    1.0000 </r>
       <r>    0.3943    1.0000 </r>
       <r>    1.5179    1.0000 </r>
       <r>    2.1921    1.0000 </r>
       <r>    2.2770    1.0000 </r>
       <r>    2.4567    1.0000 </r>
       <r>    3.2879    1.0000 </r>
       <r>    8.8120   -0.0000 </r>
       <r>    9.2456   -0.0000 </r>
       <r>   10.0284    0.0000 </r>
       <r>   10.4344    0.0000 </r>
      </set>
      <set comment="kpoint 21">
       <r>  -13.3278    1.0000 </r>
       <r>  -13.0010    1.0000 </r>
       <r>   -1.8814    1.0000 </r>
       <r>   -1.0353    1.0000 </r>
       <r>   -0.9881    1.0000 </r>
       <r>   -0.8827    1.0000 </r>
       <r>   -0.1656    1.0000 </r>
       <r>    0.3684    1.0000 </r>
       <r>    1.5027    1.0000 </r>
       <r>    2.1671    1.0000 </r>
       <r>    2.2388    1.0000 </r>
       <r>    2.4323    1.0000 </r>
       <r>    3.2928    1.0000 </r>
       <r>    8.9317   -0.0000 </r>
       <r>    9.2058   -0.0000 </r>
       <r>   10.0669    0.0000 </r>
       <r>   10.4946    0.0000 </r>
      </set>
      <set comment="kpoint 22">
       <r>  -13.2908    1.0000 </r>
       <r>  -12.9988    1.0000 </r>
       <r>   -1.8905    1.0000 </r>
       <r>   -1.0585    1.0000 </r>
       <r>   -1.0335    1.0000 </r>
       <r>   -0.8436    1.0000 </r>
       <r>   -0.1465    1.0000 </r>
       <r>    0.3474    1.0000 </r>
       <r>    1.4595    1.0000 </r>
       <r>    2.1569    1.0000 </r>
       <r>    2.1997    1.0000 </r>
       <r>    2.4288    1.0000 </r>
       <r>    3.2990    1.0000 </r>
       <r>    9.0326   -0.0000 </r>
       <r>    9.1821   -0.0000 </r>
       <r>   10.1041    0.0000 </r>
       <r>   10.5209    0.0000 </r>
      </set>
      <set comment="kpoint 23">
       <r>  -13.2559    1.0000 </r>
       <r>  -12.9953    1.0000 </r>
       <r>   -1.8998    1.0000 </r>
       <r>   -1.1351    1.0000 </r>
       <r>   -1.0342    1.0000 </r>
       <r>   -0.7990    1.0000 </r>
       <r>   -0.1238    1.0000 </r>
       <r>    0.3300    1.0000 </r>
       <r>    1.3936    1.0000 </r>
       <r>    2.1476    1.0000 </r>
       <r>    2.1575    1.0000 </r>
       <r>    2.4519    1.0000 </r>
       <r>    3.3061    1.0000 </r>
       <r>    9.0654   -0.0000 </r>
       <r>    9.2212   -0.0000 </r>
       <r>   10.1397    0.0000 </r>
       <r>   10.5672    0.0000 </r>
      </set>
      <set comment="kpoint 24">
       <r>  -13.2227    1.0000 </r>
       <r>  -12.9902    1.0000 </r>
       <r>   -1.9090    1.0000 </r>
       <r>   -1.2089    1.0000 </r>
       <r>   -1.0369    1.0000 </r>
       <r>   -0.7567    1.0000 </r>
       <r>   -0.0976    1.0000 </r>
       <r>    0.3161    1.0000 </r>
       <r>    1.3145    1.0000 </r>
       <r>    2.1139    1.0000 </r>
       <r>    2.1292    1.0000 </r>
       <r>    2.5039    1.0000 </r>
       <r>    3.3142    1.0001 </r>
       <r>    9.0409   -0.0000 </r>
       <r>    9.3141   -0.0000 </r>
       <r>   10.1756    0.0000 </r>
       <r>   10.6230    0.0000 </r>
      </set>
      <set comment="kpoint 25">
       <r>  -13.1901    1.0000 </r>
       <r>  -12.9836    1.0000 </r>
       <r>   -1.9186    1.0000 </r>
       <r>   -1.2760    1.0000 </r>
       <r>   -1.0407    1.0000 </r>
       <r>   -0.7186    1.0000 </r>
       <r>   -0.0679    1.0000 </r>
       <r>    0.3053    1.0000 </r>
       <r>    1.2314    1.0000 </r>
       <r>    2.0725    1.0000 </r>
       <r>    2.1037    1.0000 </r>
       <r>    2.5778    1.0000 </r>
       <r>    3.3232    1.0001 </r>
       <r>    9.0057   -0.0000 </r>
       <r>    9.4149    0.0000 </r>
       <r>   10.2126    0.0000 </r>
       <r>   10.6476    0.0000 </r>
      </set>
      <set comment="kpoint 26">
       <r>  -13.1609    1.0000 </r>
       <r>  -12.9760    1.0000 </r>
       <r>   -1.9309    1.0000 </r>
       <r>   -1.3342    1.0000 </r>
       <r>   -1.0466    1.0000 </r>
       <r>   -0.6861    1.0000 </r>
       <r>   -0.0362    1.0000 </r>
       <r>    0.2953    1.0000 </r>
       <r>    1.1479    1.0000 </r>
       <r>    2.0267    1.0000 </r>
       <r>    2.0692    1.0000 </r>
       <r>    2.6627    1.0000 </r>
       <r>    3.3326    1.0001 </r>
       <r>    8.9691   -0.0000 </r>
       <r>    9.5108    0.0000 </r>
       <r>   10.2516    0.0000 </r>
       <r>   10.6932    0.0000 </r>
      </set>
      <set comment="kpoint 27">
       <r>  -13.1340    1.0000 </r>
       <r>  -12.9680    1.0000 </r>
       <r>   -1.9478    1.0000 </r>
       <r>   -1.3802    1.0000 </r>
       <r>   -1.0541    1.0000 </r>
       <r>   -0.6594    1.0000 </r>
       <r>   -0.0028    1.0000 </r>
       <r>    0.2844    1.0000 </r>
       <r>    1.0698    1.0000 </r>
       <r>    1.9803    1.0000 </r>
       <r>    2.0306    1.0000 </r>
       <r>    2.7535    1.0000 </r>
       <r>    3.3413    1.0001 </r>
       <r>    8.9334   -0.0000 </r>
       <r>    9.5995    0.0000 </r>
       <r>   10.2943    0.0000 </r>
       <r>   10.7434    0.0000 </r>
      </set>
      <set comment="kpoint 28">
       <r>  -13.1096    1.0000 </r>
       <r>  -12.9580    1.0000 </r>
       <r>   -1.9701    1.0000 </r>
       <r>   -1.4100    1.0000 </r>
       <r>   -1.0615    1.0000 </r>
       <r>   -0.6379    1.0000 </r>
       <r>    0.0325    1.0000 </r>
       <r>    0.2699    1.0000 </r>
       <r>    1.0023    1.0000 </r>
       <r>    1.9321    1.0000 </r>
       <r>    1.9877    1.0000 </r>
       <r>    2.8476    1.0000 </r>
       <r>    3.3517    1.0002 </r>
       <r>    8.8996   -0.0000 </r>
       <r>    9.6790    0.0000 </r>
       <r>   10.3433    0.0000 </r>
       <r>   10.7679    0.0000 </r>
      </set>
      <set comment="kpoint 29">
       <r>  -13.0869    1.0000 </r>
       <r>  -12.9486    1.0000 </r>
       <r>   -2.0007    1.0000 </r>
       <r>   -1.4242    1.0000 </r>
       <r>   -1.0697    1.0000 </r>
       <r>   -0.6220    1.0000 </r>
       <r>    0.0687    1.0000 </r>
       <r>    0.2484    1.0000 </r>
       <r>    0.9483    1.0000 </r>
       <r>    1.8859    1.0000 </r>
       <r>    1.9444    1.0000 </r>
       <r>    2.9404    1.0000 </r>
       <r>    3.3615    1.0002 </r>
       <r>    8.8676   -0.0000 </r>
       <r>    9.7461    0.0000 </r>
       <r>   10.3980    0.0000 </r>
       <r>   10.8839    0.0000 </r>
      </set>
      <set comment="kpoint 30">
       <r>  -13.0661    1.0000 </r>
       <r>  -12.9390    1.0000 </r>
       <r>   -2.0383    1.0000 </r>
       <r>   -1.4217    1.0000 </r>
       <r>   -1.0781    1.0000 </r>
       <r>   -0.6110    1.0000 </r>
       <r>    0.1054    1.0000 </r>
       <r>    0.2175    1.0000 </r>
       <r>    0.9116    1.0000 </r>
       <r>    1.8404    1.0000 </r>
       <r>    1.9003    1.0000 </r>
       <r>    3.0296    1.0000 </r>
       <r>    3.3713    1.0003 </r>
       <r>    8.8380   -0.0000 </r>
       <r>    9.8009    0.0000 </r>
       <r>   10.4594    0.0000 </r>
       <r>   10.8386    0.0000 </r>
      </set>
      <set comment="kpoint 31">
       <r>  -13.0461    1.0000 </r>
       <r>  -12.9297    1.0000 </r>
       <r>   -2.0803    1.0000 </r>
       <r>   -1.4047    1.0000 </r>
       <r>   -1.0863    1.0000 </r>
       <r>   -0.6041    1.0000 </r>
       <r>    0.1420    1.0000 </r>
       <r>    0.1764    1.0000 </r>
       <r>    0.8925    1.0000 </r>
       <r>    1.7993    1.0000 </r>
       <r>    1.8583    1.0000 </r>
       <r>    3.1138    1.0000 </r>
       <r>    3.3807    1.0003 </r>
       <r>    8.8111   -0.0000 </r>
       <r>    9.8438    0.0000 </r>
       <r>   10.5252    0.0000 </r>
       <r>   10.8756    0.0000 </r>
      </set>
      <set comment="kpoint 32">
       <r>  -13.0290    1.0000 </r>
       <r>  -12.9210    1.0000 </r>
       <r>   -2.1248    1.0000 </r>
       <r>   -1.3760    1.0000 </r>
       <r>   -1.0942    1.0000 </r>
       <r>   -0.6012    1.0000 </r>
       <r>    0.1265    1.0000 </r>
       <r>    0.1777    1.0000 </r>
       <r>    0.8888    1.0000 </r>
       <r>    1.7569    1.0000 </r>
       <r>    1.8134    1.0000 </r>
       <r>    3.1919    1.0000 </r>
       <r>    3.3896    1.0004 </r>
       <r>    8.7866   -0.0000 </r>
       <r>    9.8761    0.0000 </r>
       <r>   10.5929    0.0000 </r>
       <r>   10.9304    0.0000 </r>
      </set>
      <set comment="kpoint 33">
       <r>  -13.0136    1.0000 </r>
       <r>  -12.9133    1.0000 </r>
       <r>   -2.1685    1.0000 </r>
       <r>   -1.3384    1.0000 </r>
       <r>   -1.1017    1.0000 </r>
       <r>   -0.6017    1.0000 </r>
       <r>    0.0703    1.0000 </r>
       <r>    0.2118    1.0000 </r>
       <r>    0.8977    1.0000 </r>
       <r>    1.7170    1.0000 </r>
       <r>    1.7691    1.0000 </r>
       <r>    3.2623    1.0000 </r>
       <r>    3.3971    1.0005 </r>
       <r>    8.7649   -0.0000 </r>
       <r>    9.8995    0.0000 </r>
       <r>   10.7644    0.0000 </r>
       <r>   11.0113    0.0000 </r>
      </set>
      <set comment="kpoint 34">
       <r>  -12.9998    1.0000 </r>
       <r>  -12.9064    1.0000 </r>
       <r>   -2.2101    1.0000 </r>
       <r>   -1.2941    1.0000 </r>
       <r>   -1.1086    1.0000 </r>
       <r>   -0.6048    1.0000 </r>
       <r>    0.0116    1.0000 </r>
       <r>    0.2439    1.0000 </r>
       <r>    0.9158    1.0000 </r>
       <r>    1.6803    1.0000 </r>
       <r>    1.7259    1.0000 </r>
       <r>    3.3249    1.0001 </r>
       <r>    3.4046    1.0006 </r>
       <r>    8.7460   -0.0000 </r>
       <r>    9.9160    0.0000 </r>
       <r>   10.7160    0.0000 </r>
       <r>   10.9661    0.0000 </r>
      </set>
      <set comment="kpoint 35">
       <r>  -12.9879    1.0000 </r>
       <r>  -12.9010    1.0000 </r>
       <r>   -2.2478    1.0000 </r>
       <r>   -1.2471    1.0000 </r>
       <r>   -1.1146    1.0000 </r>
       <r>   -0.6105    1.0000 </r>
       <r>   -0.0465    1.0000 </r>
       <r>    0.2727    1.0000 </r>
       <r>    0.9389    1.0000 </r>
       <r>    1.6473    1.0000 </r>
       <r>    1.6847    1.0000 </r>
       <r>    3.3785    1.0003 </r>
       <r>    3.4108    1.0007 </r>
       <r>    8.7299   -0.0000 </r>
       <r>    9.9275    0.0000 </r>
       <r>   10.7674    0.0000 </r>
       <r>   10.9833    0.0000 </r>
      </set>
      <set comment="kpoint 36">
       <r>  -12.9772    1.0000 </r>
       <r>  -12.8965    1.0000 </r>
       <r>   -2.2799    1.0000 </r>
       <r>   -1.1992    1.0000 </r>
       <r>   -1.1196    1.0000 </r>
       <r>   -0.6177    1.0000 </r>
       <r>   -0.1002    1.0000 </r>
       <r>    0.2982    1.0000 </r>
       <r>    0.9646    1.0000 </r>
       <r>    1.6193    1.0000 </r>
       <r>    1.6472    1.0000 </r>
       <r>    3.4161    1.0008 </r>
       <r>    3.4233    1.0009 </r>
       <r>    8.7167   -0.0000 </r>
       <r>    9.9354    0.0000 </r>
       <r>   10.7915    0.0000 </r>
       <r>   11.0111    0.0000 </r>
      </set>
      <set comment="kpoint 37">
       <r>  -12.9691    1.0000 </r>
       <r>  -12.8931    1.0000 </r>
       <r>   -2.3059    1.0000 </r>
       <r>   -1.1545    1.0000 </r>
       <r>   -1.1236    1.0000 </r>
       <r>   -0.6269    1.0000 </r>
       <r>   -0.1468    1.0000 </r>
       <r>    0.3188    1.0000 </r>
       <r>    0.9892    1.0000 </r>
       <r>    1.5962    1.0000 </r>
       <r>    1.6142    1.0000 </r>
       <r>    3.4204    1.0009 </r>
       <r>    3.4584    1.0020 </r>
       <r>    8.7065   -0.0000 </r>
       <r>    9.9405    0.0000 </r>
       <r>   10.8096    0.0000 </r>
       <r>   11.0841    0.0000 </r>
      </set>
      <set comment="kpoint 38">
       <r>  -12.9631    1.0000 </r>
       <r>  -12.8905    1.0000 </r>
       <r>   -2.3249    1.0000 </r>
       <r>   -1.1262    1.0000 </r>
       <r>   -1.1168    1.0000 </r>
       <r>   -0.6363    1.0000 </r>
       <r>   -0.1829    1.0000 </r>
       <r>    0.3342    1.0000 </r>
       <r>    1.0100    1.0000 </r>
       <r>    1.5792    1.0000 </r>
       <r>    1.5881    1.0000 </r>
       <r>    3.4248    1.0009 </r>
       <r>    3.4837    1.0033 </r>
       <r>    8.6992   -0.0000 </r>
       <r>    9.9436    0.0000 </r>
       <r>   10.8090    0.0000 </r>
       <r>   11.0323    0.0000 </r>
      </set>
      <set comment="kpoint 39">
       <r>  -12.9591    1.0000 </r>
       <r>  -12.8891    1.0000 </r>
       <r>   -2.3365    1.0000 </r>
       <r>   -1.1279    1.0000 </r>
       <r>   -1.0907    1.0000 </r>
       <r>   -0.6427    1.0000 </r>
       <r>   -0.2055    1.0000 </r>
       <r>    0.3437    1.0000 </r>
       <r>    1.0240    1.0000 </r>
       <r>    1.5688    1.0000 </r>
       <r>    1.5713    1.0000 </r>
       <r>    3.4267    1.0010 </r>
       <r>    3.4997    1.0044 </r>
       <r>    8.6949   -0.0000 </r>
       <r>    9.9452    0.0000 </r>
       <r>   10.8060    0.0000 </r>
       <r>   11.0259    0.0000 </r>
      </set>
      <set comment="kpoint 40">
       <r>  -12.9579    1.0000 </r>
       <r>  -12.8878    1.0000 </r>
       <r>   -2.3403    1.0000 </r>
       <r>   -1.1281    1.0000 </r>
       <r>   -1.0811    1.0000 </r>
       <r>   -0.6455    1.0000 </r>
       <r>   -0.2132    1.0000 </r>
       <r>    0.3472    1.0000 </r>
       <r>    1.0292    1.0000 </r>
       <r>    1.5652    1.0000 </r>
       <r>    1.5654    1.0000 </r>
       <r>    3.4288    1.0010 </r>
       <r>    3.5070    1.0050 </r>
       <r>    8.6935   -0.0000 </r>
       <r>    9.9462    0.0000 </r>
       <r>   10.8091    0.0000 </r>
       <r>   11.0637    0.0000 </r>
      </set>
      <set comment="kpoint 41">
       <r>  -12.9579    1.0000 </r>
       <r>  -12.8878    1.0000 </r>
       <r>   -2.3403    1.0000 </r>
       <r>   -1.1281    1.0000 </r>
       <r>   -1.0811    1.0000 </r>
       <r>   -0.6455    1.0000 </r>
       <r>   -0.2132    1.0000 </r>
       <r>    0.3472    1.0000 </r>
       <r>    1.0292    1.0000 </r>
       <r>    1.5652    1.0000 </r>
       <r>    1.5654    1.0000 </r>
       <r>    3.4288    1.0010 </r>
       <r>    3.5070    1.0050 </r>
       <r>    8.6935   -0.0000 </r>
       <r>    9.9460    0.0000 </r>
       <r>   10.8280    0.0000 </r>
       <r>   11.1011    0.0000 </r>
      </set>
      <set comment="kpoint 42">
       <r>  -12.9577    1.0000 </r>
       <r>  -12.8880    1.0000 </r>
       <r>   -2.3393    1.0000 </r>
       <r>   -1.1282    1.0000 </r>
       <r>   -1.0812    1.0000 </r>
       <r>   -0.6455    1.0000 </r>
       <r>   -0.2136    1.0000 </r>
       <r>    0.3472    1.0000 </r>
       <r>    1.0292    1.0000 </r>
       <r>    1.5643    1.0000 </r>
       <r>    1.5653    1.0000 </r>
       <r>    3.4286    1.0010 </r>
       <r>    3.5068    1.0050 </r>
       <r>    8.6939   -0.0000 </r>
       <r>    9.9469    0.0000 </r>
       <r>   10.8085    0.0000 </r>
       <r>   11.0899    0.0000 </r>
      </set>
      <set comment="kpoint 43">
       <r>  -12.9574    1.0000 </r>
       <r>  -12.8893    1.0000 </r>
       <r>   -2.3363    1.0000 </r>
       <r>   -1.1292    1.0000 </r>
       <r>   -1.0817    1.0000 </r>
       <r>   -0.6456    1.0000 </r>
       <r>   -0.2151    1.0000 </r>
       <r>    0.3471    1.0000 </r>
       <r>    1.0288    1.0000 </r>
       <r>    1.5613    1.0000 </r>
       <r>    1.5653    1.0000 </r>
       <r>    3.4258    1.0010 </r>
       <r>    3.5048    1.0049 </r>
       <r>    8.6950   -0.0000 </r>
       <r>    9.9496    0.0000 </r>
       <r>   10.8042    0.0000 </r>
       <r>   11.1035    0.0000 </r>
      </set>
      <set comment="kpoint 44">
       <r>  -12.9574    1.0000 </r>
       <r>  -12.8902    1.0000 </r>
       <r>   -2.3314    1.0000 </r>
       <r>   -1.1302    1.0000 </r>
       <r>   -1.0819    1.0000 </r>
       <r>   -0.6457    1.0000 </r>
       <r>   -0.2174    1.0000 </r>
       <r>    0.3471    1.0000 </r>
       <r>    1.0284    1.0000 </r>
       <r>    1.5543    1.0000 </r>
       <r>    1.5643    1.0000 </r>
       <r>    3.4240    1.0009 </r>
       <r>    3.5039    1.0048 </r>
       <r>    8.6970   -0.0000 </r>
       <r>    9.9544    0.0000 </r>
       <r>   10.8053    0.0000 </r>
       <r>   11.0877    0.0000 </r>
      </set>
      <set comment="kpoint 45">
       <r>  -12.9565    1.0000 </r>
       <r>  -12.8912    1.0000 </r>
       <r>   -2.3243    1.0000 </r>
       <r>   -1.1315    1.0000 </r>
       <r>   -1.0819    1.0000 </r>
       <r>   -0.6457    1.0000 </r>
       <r>   -0.2201    1.0000 </r>
       <r>    0.3472    1.0000 </r>
       <r>    1.0280    1.0000 </r>
       <r>    1.5474    1.0000 </r>
       <r>    1.5643    1.0000 </r>
       <r>    3.4220    1.0009 </r>
       <r>    3.5028    1.0047 </r>
       <r>    8.7000   -0.0000 </r>
       <r>    9.9609    0.0000 </r>
       <r>   10.7994    0.0000 </r>
       <r>   11.0298    0.0000 </r>
      </set>
      <set comment="kpoint 46">
       <r>  -12.9561    1.0000 </r>
       <r>  -12.8928    1.0000 </r>
       <r>   -2.3154    1.0000 </r>
       <r>   -1.1335    1.0000 </r>
       <r>   -1.0822    1.0000 </r>
       <r>   -0.6459    1.0000 </r>
       <r>   -0.2240    1.0000 </r>
       <r>    0.3473    1.0000 </r>
       <r>    1.0273    1.0000 </r>
       <r>    1.5377    1.0000 </r>
       <r>    1.5625    1.0000 </r>
       <r>    3.4190    1.0008 </r>
       <r>    3.5005    1.0045 </r>
       <r>    8.7039   -0.0000 </r>
       <r>    9.9689    0.0000 </r>
       <r>   10.8072    0.0000 </r>
       <r>   11.0518    0.0000 </r>
      </set>
      <set comment="kpoint 47">
       <r>  -12.9548    1.0000 </r>
       <r>  -12.8943    1.0000 </r>
       <r>   -2.3045    1.0000 </r>
       <r>   -1.1358    1.0000 </r>
       <r>   -1.0819    1.0000 </r>
       <r>   -0.6461    1.0000 </r>
       <r>   -0.2282    1.0000 </r>
       <r>    0.3474    1.0000 </r>
       <r>    1.0268    1.0000 </r>
       <r>    1.5274    1.0000 </r>
       <r>    1.5625    1.0000 </r>
       <r>    3.4155    1.0008 </r>
       <r>    3.4989    1.0044 </r>
       <r>    8.7090   -0.0000 </r>
       <r>    9.9785    0.0000 </r>
       <r>   10.7905    0.0000 </r>
       <r>   11.0388    0.0000 </r>
      </set>
      <set comment="kpoint 48">
       <r>  -12.9534    1.0000 </r>
       <r>  -12.8961    1.0000 </r>
       <r>   -2.2918    1.0000 </r>
       <r>   -1.1388    1.0000 </r>
       <r>   -1.0813    1.0000 </r>
       <r>   -0.6463    1.0000 </r>
       <r>   -0.2332    1.0000 </r>
       <r>    0.3474    1.0000 </r>
       <r>    1.0263    1.0000 </r>
       <r>    1.5158    1.0000 </r>
       <r>    1.5626    1.0000 </r>
       <r>    3.4110    1.0007 </r>
       <r>    3.4970    1.0042 </r>
       <r>    8.7151   -0.0000 </r>
       <r>    9.9894    0.0000 </r>
       <r>   10.7854    0.0000 </r>
       <r>   11.1043    0.0000 </r>
      </set>
      <set comment="kpoint 49">
       <r>  -12.9518    1.0000 </r>
       <r>  -12.8980    1.0000 </r>
       <r>   -2.2772    1.0000 </r>
       <r>   -1.1424    1.0000 </r>
       <r>   -1.0803    1.0000 </r>
       <r>   -0.6466    1.0000 </r>
       <r>   -0.2388    1.0000 </r>
       <r>    0.3474    1.0000 </r>
       <r>    1.0259    1.0000 </r>
       <r>    1.5029    1.0000 </r>
       <r>    1.5628    1.0000 </r>
       <r>    3.4053    1.0006 </r>
       <r>    3.4949    1.0040 </r>
       <r>    8.7225   -0.0000 </r>
       <r>   10.0013    0.0000 </r>
       <r>   10.7759    0.0000 </r>
       <r>   11.0388    0.0000 </r>
      </set>
      <set comment="kpoint 50">
       <r>  -12.9507    1.0000 </r>
       <r>  -12.9001    1.0000 </r>
       <r>   -2.2610    1.0000 </r>
       <r>   -1.1473    1.0000 </r>
       <r>   -1.0792    1.0000 </r>
       <r>   -0.6477    1.0000 </r>
       <r>   -0.2453    1.0000 </r>
       <r>    0.3470    1.0000 </r>
       <r>    1.0255    1.0000 </r>
       <r>    1.4868    1.0000 </r>
       <r>    1.5628    1.0000 </r>
       <r>    3.3983    1.0005 </r>
       <r>    3.4926    1.0039 </r>
       <r>    8.7312   -0.0000 </r>
       <r>   10.0141    0.0000 </r>
       <r>   10.7664    0.0000 </r>
       <r>   11.0415    0.0000 </r>
      </set>
      <set comment="kpoint 51">
       <r>  -12.9490    1.0000 </r>
       <r>  -12.9022    1.0000 </r>
       <r>   -2.2432    1.0000 </r>
       <r>   -1.1524    1.0000 </r>
       <r>   -1.0774    1.0000 </r>
       <r>   -0.6481    1.0000 </r>
       <r>   -0.2522    1.0000 </r>
       <r>    0.3467    1.0000 </r>
       <r>    1.0252    1.0000 </r>
       <r>    1.4720    1.0000 </r>
       <r>    1.5633    1.0000 </r>
       <r>    3.3899    1.0004 </r>
       <r>    3.4903    1.0037 </r>
       <r>    8.7413   -0.0000 </r>
       <r>   10.0274    0.0000 </r>
       <r>   10.7565    0.0000 </r>
       <r>   11.0400    0.0000 </r>
      </set>
      <set comment="kpoint 52">
       <r>  -12.9473    1.0000 </r>
       <r>  -12.9040    1.0000 </r>
       <r>   -2.2238    1.0000 </r>
       <r>   -1.1578    1.0000 </r>
       <r>   -1.0753    1.0000 </r>
       <r>   -0.6487    1.0000 </r>
       <r>   -0.2595    1.0000 </r>
       <r>    0.3464    1.0000 </r>
       <r>    1.0253    1.0000 </r>
       <r>    1.4566    1.0000 </r>
       <r>    1.5641    1.0000 </r>
       <r>    3.3801    1.0003 </r>
       <r>    3.4880    1.0036 </r>
       <r>    8.7531   -0.0000 </r>
       <r>   10.0412    0.0000 </r>
       <r>   10.7442    0.0000 </r>
       <r>   11.0869    0.0000 </r>
      </set>
      <set comment="kpoint 53">
       <r>  -12.9463    1.0000 </r>
       <r>  -12.9059    1.0000 </r>
       <r>   -2.2031    1.0000 </r>
       <r>   -1.1642    1.0000 </r>
       <r>   -1.0728    1.0000 </r>
       <r>   -0.6496    1.0000 </r>
       <r>   -0.2677    1.0000 </r>
       <r>    0.3457    1.0000 </r>
       <r>    1.0252    1.0000 </r>
       <r>    1.4395    1.0000 </r>
       <r>    1.5638    1.0000 </r>
       <r>    3.3680    1.0002 </r>
       <r>    3.4855    1.0034 </r>
       <r>    8.7662   -0.0000 </r>
       <r>   10.0551    0.0000 </r>
       <r>   10.7308    0.0000 </r>
       <r>   11.0502    0.0000 </r>
      </set>
      <set comment="kpoint 54">
       <r>  -12.9451    1.0000 </r>
       <r>  -12.9073    1.0000 </r>
       <r>   -2.1812    1.0000 </r>
       <r>   -1.1711    1.0000 </r>
       <r>   -1.0696    1.0000 </r>
       <r>   -0.6506    1.0000 </r>
       <r>   -0.2761    1.0000 </r>
       <r>    0.3451    1.0000 </r>
       <r>    1.0253    1.0000 </r>
       <r>    1.4233    1.0000 </r>
       <r>    1.5655    1.0000 </r>
       <r>    3.3551    1.0002 </r>
       <r>    3.4832    1.0032 </r>
       <r>    8.7811   -0.0000 </r>
       <r>   10.0691    0.0000 </r>
       <r>   10.7168    0.0000 </r>
       <r>   11.0873    0.0000 </r>
      </set>
      <set comment="kpoint 55">
       <r>  -12.9447    1.0000 </r>
       <r>  -12.9086    1.0000 </r>
       <r>   -2.1582    1.0000 </r>
       <r>   -1.1791    1.0000 </r>
       <r>   -1.0662    1.0000 </r>
       <r>   -0.6519    1.0000 </r>
       <r>   -0.2853    1.0000 </r>
       <r>    0.3444    1.0000 </r>
       <r>    1.0253    1.0000 </r>
       <r>    1.4065    1.0000 </r>
       <r>    1.5677    1.0000 </r>
       <r>    3.3384    1.0001 </r>
       <r>    3.4804    1.0031 </r>
       <r>    8.7975   -0.0000 </r>
       <r>   10.0825    0.0000 </r>
       <r>   10.6994    0.0000 </r>
       <r>   11.1837    0.0000 </r>
      </set>
      <set comment="kpoint 56">
       <r>  -12.9447    1.0000 </r>
       <r>  -12.9088    1.0000 </r>
       <r>   -2.1341    1.0000 </r>
       <r>   -1.1869    1.0000 </r>
       <r>   -1.0624    1.0000 </r>
       <r>   -0.6535    1.0000 </r>
       <r>   -0.2947    1.0000 </r>
       <r>    0.3437    1.0000 </r>
       <r>    1.0255    1.0000 </r>
       <r>    1.3905    1.0000 </r>
       <r>    1.5711    1.0000 </r>
       <r>    3.3208    1.0001 </r>
       <r>    3.4779    1.0029 </r>
       <r>    8.8157   -0.0000 </r>
       <r>   10.0953    0.0000 </r>
       <r>   10.6838    0.0000 </r>
       <r>   11.0464    0.0000 </r>
      </set>
      <set comment="kpoint 57">
       <r>  -12.9456    1.0000 </r>
       <r>  -12.9082    1.0000 </r>
       <r>   -2.1095    1.0000 </r>
       <r>   -1.1948    1.0000 </r>
       <r>   -1.0582    1.0000 </r>
       <r>   -0.6554    1.0000 </r>
       <r>   -0.3045    1.0000 </r>
       <r>    0.3431    1.0000 </r>
       <r>    1.0257    1.0000 </r>
       <r>    1.3736    1.0000 </r>
       <r>    1.5752    1.0000 </r>
       <r>    3.3012    1.0000 </r>
       <r>    3.4760    1.0028 </r>
       <r>    8.8357   -0.0000 </r>
       <r>   10.1077    0.0000 </r>
       <r>   10.6609    0.0000 </r>
       <r>   11.0559    0.0000 </r>
      </set>
      <set comment="kpoint 58">
       <r>  -12.9473    1.0000 </r>
       <r>  -12.9069    1.0000 </r>
       <r>   -2.0840    1.0000 </r>
       <r>   -1.2032    1.0000 </r>
       <r>   -1.0535    1.0000 </r>
       <r>   -0.6578    1.0000 </r>
       <r>   -0.3146    1.0000 </r>
       <r>    0.3427    1.0000 </r>
       <r>    1.0258    1.0000 </r>
       <r>    1.3566    1.0000 </r>
       <r>    1.5806    1.0000 </r>
       <r>    3.2791    1.0000 </r>
       <r>    3.4735    1.0027 </r>
       <r>    8.8575   -0.0000 </r>
       <r>   10.1189    0.0000 </r>
       <r>   10.6395    0.0000 </r>
       <r>   11.0463    0.0000 </r>
      </set>
      <set comment="kpoint 59">
       <r>  -12.9497    1.0000 </r>
       <r>  -12.9050    1.0000 </r>
       <r>   -2.0580    1.0000 </r>
       <r>   -1.2116    1.0000 </r>
       <r>   -1.0485    1.0000 </r>
       <r>   -0.6606    1.0000 </r>
       <r>   -0.3251    1.0000 </r>
       <r>    0.3426    1.0000 </r>
       <r>    1.0257    1.0000 </r>
       <r>    1.3396    1.0000 </r>
       <r>    1.5874    1.0000 </r>
       <r>    3.2549    1.0000 </r>
       <r>    3.4710    1.0025 </r>
       <r>    8.8810   -0.0000 </r>
       <r>   10.1293    0.0000 </r>
       <r>   10.6171    0.0000 </r>
       <r>   11.0685    0.0000 </r>
      </set>
      <set comment="kpoint 60">
       <r>  -12.9525    1.0000 </r>
       <r>  -12.9026    1.0000 </r>
       <r>   -2.0318    1.0000 </r>
       <r>   -1.2200    1.0000 </r>
       <r>   -1.0431    1.0000 </r>
       <r>   -0.6640    1.0000 </r>
       <r>   -0.3358    1.0000 </r>
       <r>    0.3429    1.0000 </r>
       <r>    1.0254    1.0000 </r>
       <r>    1.3225    1.0000 </r>
       <r>    1.5958    1.0000 </r>
       <r>    3.2287    1.0000 </r>
       <r>    3.4686    1.0024 </r>
       <r>    8.9063   -0.0000 </r>
       <r>   10.1382    0.0000 </r>
       <r>   10.5927    0.0000 </r>
       <r>   11.0505    0.0000 </r>
      </set>
      <set comment="kpoint 61">
       <r>  -12.9557    1.0000 </r>
       <r>  -12.8997    1.0000 </r>
       <r>   -2.0054    1.0000 </r>
       <r>   -1.2281    1.0000 </r>
       <r>   -1.0371    1.0000 </r>
       <r>   -0.6680    1.0000 </r>
       <r>   -0.3466    1.0000 </r>
       <r>    0.3432    1.0000 </r>
       <r>    1.0246    1.0000 </r>
       <r>    1.3059    1.0000 </r>
[...]
        <r>  0.0000  0.0442  0.0010  0.0373  0.0000  0.0000  0.0000  0.0000  0.0000 </r>
       </set>
       <set comment="band 5">
        <r>  0.0000  0.0000  0.0000  0.0000  0.0005  0.0002  0.0071  0.0001  0.0001 </r>
        <r>  0.0000  0.0000  0.0000  0.0000  0.0880  0.0289  0.5575  0.0175  0.0102 </r>
        <r>  0.0000  0.0108  0.0540  0.0177  0.0000  0.0000  0.0000  0.0000  0.0000 </r>
        <r>  0.0000  0.0108  0.0540  0.0177  0.0000  0.0000  0.0000  0.0000  0.0000 </r>
       </set>
       <set comment="band 6">
        <r>  0.0000  0.0000  0.0000  0.0000  0.0005  0.0006  0.0000  0.0004  0.0000 </r>
        <r>  0.0000  0.0000  0.0000  0.0000  0.2580  0.3390  0.0728  0.1977  0.0767 </r>
        <r>  0.0000  0.0008  0.0011  0.0014  0.0000  0.0000  0.0000  0.0000  0.0000 </r>
        <r>  0.0000  0.0008  0.0011  0.0014  0.0000  0.0000  0.0000  0.0000  0.0000 </r>
       </set>
       <set comment="band 7">
        <r>  0.0000  0.0000  0.0000  0.0000  0.0005  0.0003  0.0000  0.0006  0.0000 </r>
        <r>  0.0000  0.0000  0.0000  0.0000  0.2718  0.1908  0.0767  0.3321  0.0728 </r>
        <r>  0.0000  0.0014  0.0011  0.0008  0.0000  0.0000  0.0000  0.0000  0.0000 </r>
        <r>  0.0000  0.0014  0.0011  0.0008  0.0000  0.0000  0.0000  0.0000  0.0000 </r>
       </set>
       <set comment="band 8">
        <r>  0.0218  0.0000  0.0000  0.0000  0.0048  0.0048  0.0000  0.0048  0.0000 </r>
        <r>  0.0308  0.0000  0.0000  0.0000  0.2067  0.2067  0.0000  0.2067  0.0000 </r>
        <r>  0.0003  0.0294  0.0294  0.0294  0.0000  0.0000  0.0000  0.0000  0.0000 </r>
        <r>  0.0003  0.0294  0.0294  0.0294  0.0000  0.0000  0.0000  0.0000  0.0000 </r>
       </set>
       <set comment="band 9">
        <r>  0.0018  0.0031  0.0031  0.0031  0.0000  0.0000  0.0000  0.0000  0.0000 </r>
        <r>  0.0032  0.0039  0.0039  0.0039  0.0008  0.0008  0.0000  0.0008  0.0000 </r>
        <r>  0.0015  0.1201  0.1201  0.1201  0.0000  0.0000  0.0000  0.0000  0.0000 </r>
        <r>  0.0015  0.1201  0.1201  0.1201  0.0000  0.0000  0.0000  0.0000  0.0000 </r>
       </set>
       <set comment="band 10">
        <r>  0.0000  0.0011  0.0060  0.0019  0.0004  0.0001  0.0047  0.0001  0.0000 </r>
        <r>  0.0000  0.0015  0.0078  0.0025  0.0001  0.0000  0.0043  0.0000  0.0000 </r>
        <r>  0.0000  0.0449  0.2400  0.0778  0.0000  0.0000  0.0000  0.0000  0.0000 </r>
        <r>  0.0000  0.0449  0.2400  0.0778  0.0000  0.0000  0.0000  0.0000  0.0000 </r>
       </set>
       <set comment="band 11">
        <r>  0.0000  0.0049  0.0000  0.0041  0.0000  0.0003  0.0000  0.0003  0.0047 </r>
        <r>  0.0000  0.0064  0.0001  0.0053  0.0000  0.0001  0.0000  0.0001  0.0043 </r>
        <r>  0.0000  0.1969  0.0017  0.1640  0.0000  0.0000  0.0000  0.0000  0.0000 </r>
        <r>  0.0000  0.1969  0.0017  0.1640  0.0000  0.0000  0.0000  0.0000  0.0000 </r>
       </set>
       <set comment="band 12">
        <r>  0.0000  0.0002  0.0002  0.0002  0.0022  0.0022  0.0320  0.0022  0.0320 </r>
        <r>  0.0000  0.0001  0.0001  0.0001  0.0061  0.0061  0.1280  0.0061  0.1283 </r>
        <r>  0.0000  0.0821  0.0819  0.0820  0.0000  0.0000  0.0000  0.0000  0.0000 </r>
        <r>  0.0000  0.0821  0.0819  0.0820  0.0000  0.0000  0.0000  0.0000  0.0000 </r>
       </set>
       <set comment="band 13">
        <r>  0.0000  0.0002  0.0002  0.0002  0.0022  0.0022  0.0320  0.0022  0.0320 </r>
        <r>  0.0000  0.0001  0.0001  0.0001  0.0061  0.0061  0.1283  0.0061  0.1280 </r>
        <r>  0.0000  0.0819  0.0821  0.0820  0.0000  0.0000  0.0000  0.0000  0.0000 </r>
        <r>  0.0000  0.0819  0.0821  0.0820  0.0000  0.0000  0.0000  0.0000  0.0000 </r>
       </set>
       <set comment="band 14">
        <r>  0.1418  0.0002  0.0002  0.0002  0.0001  0.0001  0.0000  0.0001  0.0000 </r>
        <r>  0.1727  0.0002  0.0002  0.0002  0.0000  0.0000  0.0000  0.0000  0.0000 </r>
        <r>  0.1118  0.0025  0.0025  0.0025  0.0000  0.0000  0.0000  0.0000  0.0000 </r>
        <r>  0.1118  0.0025  0.0025  0.0025  0.0000  0.0000  0.0000  0.0000  0.0000 </r>
       </set>
       <set comment="band 15">
        <r>  0.0004  0.0068  0.0068  0.0069  0.1946  0.2063  0.0000  0.2088  0.0000 </r>
        <r>  0.0004  0.0099  0.0099  0.0101  0.0009  0.0010  0.0000  0.0011  0.0000 </r>
        <r>  0.0096  0.0086  0.0090  0.0088  0.0000  0.0000  0.0000  0.0000  0.0000 </r>
        <r>  0.0096  0.0086  0.0089  0.0087  0.0000  0.0000  0.0000  0.0000  0.0000 </r>
       </set>
       <set comment="band 16">
        <r>  0.0000  0.0000  0.0000  0.0000  0.2029  0.4445  0.0002  0.1862  0.0004 </r>
        <r>  0.0000  0.0000  0.0000  0.0000  0.0023  0.0051  0.0000  0.0021  0.0000 </r>
        <r>  0.0000  0.0015  0.0016  0.0035  0.0000  0.0000  0.0000  0.0000  0.0000 </r>
        <r>  0.0000  0.0015  0.0016  0.0035  0.0000  0.0000  0.0000  0.0000  0.0000 </r>
       </set>
       <set comment="band 17">
        <r>  0.0005  0.0106  0.0107  0.0108  0.3261  0.1279  0.0003  0.1269  0.0002 </r>
        <r>  0.0004  0.0134  0.0145  0.0144  0.0037  0.0014  0.0000  0.0015  0.0000 </r>
        <r>  0.0144  0.0080  0.0011  0.0017  0.0000  0.0000  0.0000  0.0000  0.0000 </r>
        <r>  0.0143  0.0078  0.0017  0.0013  0.0000  0.0000  0.0000  0.0000  0.0000 </r>
       </set>
      </set>
      <set comment="kpoint 199">
       <set comment="band 1">
        <r>  0.0271  0.0000  0.0000  0.0000  0.0000  0.0000  0.0000  0.0000  0.0000 </r>
        <r>  0.0320  0.0000  0.0000  0.0000  0.0000  0.0000  0.0000  0.0000  0.0000 </r>
        <r>  0.3469  0.0000  0.0000  0.0000  0.0000  0.0000  0.0000  0.0000  0.0000 </r>
        <r>  0.3469  0.0000  0.0000  0.0000  0.0000  0.0000  0.0000  0.0000  0.0000 </r>
       </set>
       <set comment="band 2">
        <r>  0.0001  0.0040  0.0040  0.0040  0.0000  0.0000  0.0000  0.0000  0.0000 </r>
        <r>  0.0001  0.0046  0.0046  0.0046  0.0000  0.0000  0.0000  0.0000  0.0000 </r>
        <r>  0.3889  0.0000  0.0000  0.0000  0.0000  0.0000  0.0000  0.0000  0.0000 </r>
        <r>  0.3889  0.0000  0.0000  0.0000  0.0000  0.0000  0.0000  0.0000  0.0000 </r>
       </set>
       <set comment="band 3">
        <r>  0.0411  0.0000  0.0000  0.0000  0.0031  0.0031  0.0000  0.0031  0.0000 </r>
        <r>  0.0531  0.0000  0.0000  0.0000  0.1071  0.1071  0.0000  0.1071  0.0000 </r>
        <r>  0.0003  0.0416  0.0416  0.0416  0.0000  0.0000  0.0000  0.0000  0.0000 </r>
        <r>  0.0003  0.0416  0.0416  0.0416  0.0000  0.0000  0.0000  0.0000  0.0000 </r>
       </set>
       <set comment="band 4">
        <r>  0.0000  0.0000  0.0000  0.0000  0.0005  0.0000  0.0062  0.0003  0.0011 </r>
        <r>  0.0000  0.0000  0.0000  0.0000  0.0755  0.0077  0.4786  0.0511  0.0888 </r>
        <r>  0.0000  0.0314  0.0464  0.0047  0.0000  0.0000  0.0000  0.0000  0.0000 </r>
        <r>  0.0000  0.0314  0.0464  0.0047  0.0000  0.0000  0.0000  0.0000  0.0000 </r>
       </set>
       <set comment="band 5">
        <r>  0.0000  0.0000  0.0000  0.0000  0.0001  0.0005  0.0011  0.0002  0.0062 </r>
        <r>  0.0000  0.0000  0.0000  0.0000  0.0140  0.0819  0.0888  0.0384  0.4786 </r>
        <r>  0.0000  0.0236  0.0086  0.0504  0.0000  0.0000  0.0000  0.0000  0.0000 </r>
        <r>  0.0000  0.0236  0.0086  0.0504  0.0000  0.0000  0.0000  0.0000  0.0000 </r>
       </set>
       <set comment="band 6">
        <r>  0.0000  0.0000  0.0000  0.0000  0.0006  0.0004  0.0000  0.0004  0.0000 </r>
        <r>  0.0000  0.0000  0.0000  0.0000  0.3340  0.2236  0.0942  0.2372  0.0552 </r>
        <r>  0.0000  0.0010  0.0014  0.0009  0.0000  0.0000  0.0000  0.0000  0.0000 </r>
        <r>  0.0000  0.0010  0.0014  0.0009  0.0000  0.0000  0.0000  0.0000  0.0000 </r>
       </set>
       <set comment="band 7">
        <r>  0.0000  0.0000  0.0000  0.0000  0.0004  0.0006  0.0000  0.0005  0.0000 </r>
        <r>  0.0000  0.0000  0.0000  0.0000  0.1959  0.3062  0.0552  0.2927  0.0942 </r>
        <r>  0.0000  0.0012  0.0008  0.0013  0.0000  0.0000  0.0000  0.0000  0.0000 </r>
        <r>  0.0000  0.0012  0.0008  0.0013  0.0000  0.0000  0.0000  0.0000  0.0000 </r>
       </set>
       <set comment="band 8">
        <r>  0.0213  0.0000  0.0000  0.0000  0.0048  0.0048  0.0000  0.0048  0.0000 </r>
        <r>  0.0312  0.0000  0.0000  0.0000  0.2079  0.2079  0.0000  0.2079  0.0000 </r>
        <r>  0.0002  0.0290  0.0290  0.0290  0.0000  0.0000  0.0000  0.0000  0.0000 </r>
        <r>  0.0002  0.0290  0.0290  0.0290  0.0000  0.0000  0.0000  0.0000  0.0000 </r>
       </set>
       <set comment="band 9">
        <r>  0.0005  0.0032  0.0032  0.0032  0.0000  0.0000  0.0000  0.0000  0.0000 </r>
        <r>  0.0008  0.0040  0.0040  0.0040  0.0002  0.0002  0.0000  0.0002  0.0000 </r>
        <r>  0.0004  0.1217  0.1217  0.1217  0.0000  0.0000  0.0000  0.0000  0.0000 </r>
        <r>  0.0004  0.1217  0.1217  0.1217  0.0000  0.0000  0.0000  0.0000  0.0000 </r>
       </set>
       <set comment="band 10">
        <r>  0.0000  0.0009  0.0025  0.0062  0.0000  0.0001  0.0005  0.0000  0.0008 </r>
        <r>  0.0000  0.0011  0.0031  0.0078  0.0000  0.0000  0.0005  0.0000  0.0007 </r>
        <r>  0.0000  0.0335  0.0951  0.2370  0.0000  0.0000  0.0000  0.0000  0.0000 </r>
        <r>  0.0000  0.0335  0.0951  0.2370  0.0000  0.0000  0.0000  0.0000  0.0000 </r>
       </set>
       <set comment="band 11">
        <r>  0.0000  0.0055  0.0039  0.0002  0.0001  0.0000  0.0008  0.0001  0.0005 </r>
        <r>  0.0000  0.0069  0.0049  0.0002  0.0000  0.0000  0.0007  0.0000  0.0005 </r>
        <r>  0.0000  0.2102  0.1487  0.0067  0.0000  0.0000  0.0000  0.0000  0.0000 </r>
        <r>  0.0000  0.2102  0.1487  0.0067  0.0000  0.0000  0.0000  0.0000  0.0000 </r>
       </set>
       <set comment="band 12">
        <r>  0.0000  0.0001  0.0001  0.0001  0.0027  0.0022  0.0400  0.0020  0.0276 </r>
        <r>  0.0000  0.0000  0.0000  0.0000  0.0073  0.0059  0.1537  0.0053  0.1061 </r>
        <r>  0.0000  0.0700  0.0958  0.0772  0.0000  0.0000  0.0000  0.0000  0.0000 </r>
        <r>  0.0000  0.0700  0.0958  0.0772  0.0000  0.0000  0.0000  0.0000  0.0000 </r>
       </set>
       <set comment="band 13">
        <r>  0.0000  0.0001  0.0001  0.0001  0.0019  0.0024  0.0276  0.0026  0.0400 </r>
        <r>  0.0000  0.0000  0.0000  0.0000  0.0050  0.0064  0.1061  0.0070  0.1537 </r>
        <r>  0.0000  0.0920  0.0661  0.0848  0.0000  0.0000  0.0000  0.0000  0.0000 </r>
        <r>  0.0000  0.0920  0.0661  0.0848  0.0000  0.0000  0.0000  0.0000  0.0000 </r>
       </set>
       <set comment="band 14">
        <r>  0.1436  0.0001  0.0001  0.0001  0.0001  0.0001  0.0000  0.0001  0.0000 </r>
        <r>  0.1747  0.0001  0.0001  0.0001  0.0000  0.0000  0.0000  0.0000  0.0000 </r>
        <r>  0.1131  0.0012  0.0012  0.0012  0.0000  0.0000  0.0000  0.0000  0.0000 </r>
        <r>  0.1131  0.0012  0.0012  0.0012  0.0000  0.0000  0.0000  0.0000  0.0000 </r>
       </set>
       <set comment="band 15">
        <r>  0.0001  0.0028  0.0027  0.0026  0.2418  0.2310  0.0000  0.2244  0.0000 </r>
        <r>  0.0001  0.0041  0.0039  0.0039  0.0014  0.0013  0.0000  0.0013  0.0000 </r>
        <r>  0.0037  0.0121  0.0117  0.0118  0.0000  0.0000  0.0000  0.0000  0.0000 </r>
        <r>  0.0037  0.0121  0.0116  0.0118  0.0000  0.0000  0.0000  0.0000  0.0000 </r>
       </set>
       <set comment="band 16">
        <r>  0.0001  0.0096  0.0095  0.0095  0.1699  0.0022  0.0003  0.4416  0.0002 </r>
        <r>  0.0001  0.0132  0.0124  0.0126  0.0020  0.0000  0.0000  0.0051  0.0000 </r>
        <r>  0.0127  0.0008  0.0047  0.0013  0.0000  0.0000  0.0000  0.0000  0.0000 </r>
        <r>  0.0127  0.0011  0.0044  0.0013  0.0000  0.0000  0.0000  0.0000  0.0000 </r>
       </set>
       <set comment="band 17">
        <r>  0.0000  0.0004  0.0004  0.0004  0.1862  0.5557  0.0003  0.0825  0.0004 </r>
        <r>  0.0000  0.0005  0.0005  0.0006  0.0022  0.0065  0.0000  0.0010  0.0000 </r>
        <r>  0.0005  0.0010  0.0019  0.0037  0.0000  0.0000  0.0000  0.0000  0.0000 </r>
        <r>  0.0005  0.0010  0.0019  0.0038  0.0000  0.0000  0.0000  0.0000  0.0000 </r>
       </set>
      </set>
      <set comment="kpoint 200">
       <set comment="band 1">
        <r>  0.0272  0.0000  0.0000  0.0000  0.0000  0.0000  0.0000  0.0000  0.0000 </r>
        <r>  0.0321  0.0000  0.0000  0.0000  0.0000  0.0000  0.0000  0.0000  0.0000 </r>
        <r>  0.3469  0.0000  0.0000  0.0000  0.0000  0.0000  0.0000  0.0000  0.0000 </r>
        <r>  0.3469  0.0000  0.0000  0.0000  0.0000  0.0000  0.0000  0.0000  0.0000 </r>
       </set>
       <set comment="band 2">
        <r>  0.0000  0.0040  0.0040  0.0040  0.0000  0.0000  0.0000  0.0000  0.0000 </r>
        <r>  0.0000  0.0046  0.0046  0.0046  0.0000  0.0000  0.0000  0.0000  0.0000 </r>
        <r>  0.3890  0.0000  0.0000  0.0000  0.0000  0.0000  0.0000  0.0000  0.0000 </r>
        <r>  0.3890  0.0000  0.0000  0.0000  0.0000  0.0000  0.0000  0.0000  0.0000 </r>
       </set>
       <set comment="band 3">
        <r>  0.0412  0.0000  0.0000  0.0000  0.0031  0.0031  0.0000  0.0031  0.0000 </r>
        <r>  0.0531  0.0000  0.0000  0.0000  0.1069  0.1069  0.0000  0.1069  0.0000 </r>
        <r>  0.0002  0.0416  0.0416  0.0416  0.0000  0.0000  0.0000  0.0000  0.0000 </r>
        <r>  0.0002  0.0416  0.0416  0.0416  0.0000  0.0000  0.0000  0.0000  0.0000 </r>
       </set>
       <set comment="band 4">
        <r>  0.0000  0.0000  0.0000  0.0000  0.0000  0.0004  0.0000  0.0004  0.0073 </r>
        <r>  0.0000  0.0000  0.0000  0.0000  0.0005  0.0698  0.0031  0.0638  0.5641 </r>
        <r>  0.0000  0.0393  0.0003  0.0430  0.0000  0.0000  0.0000  0.0000  0.0000 </r>
        <r>  0.0000  0.0393  0.0003  0.0430  0.0000  0.0000  0.0000  0.0000  0.0000 </r>
       </set>
       <set comment="band 5">
        <r>  0.0000  0.0000  0.0000  0.0000  0.0005  0.0001  0.0073  0.0002  0.0000 </r>
        <r>  0.0000  0.0000  0.0000  0.0000  0.0890  0.0196  0.5641  0.0256  0.0031 </r>
        <r>  0.0000  0.0158  0.0548  0.0121  0.0000  0.0000  0.0000  0.0000  0.0000 </r>
        <r>  0.0000  0.0158  0.0548  0.0121  0.0000  0.0000  0.0000  0.0000  0.0000 </r>
       </set>
       <set comment="band 6">
        <r>  0.0000  0.0000  0.0000  0.0000  0.0004  0.0005  0.0000  0.0005  0.0000 </r>
        <r>  0.0000  0.0000  0.0000  0.0000  0.2357  0.2631  0.0664  0.2960  0.0829 </r>
        <r>  0.0000  0.0012  0.0010  0.0011  0.0000  0.0000  0.0000  0.0000  0.0000 </r>
        <r>  0.0000  0.0012  0.0010  0.0011  0.0000  0.0000  0.0000  0.0000  0.0000 </r>
       </set>
       <set comment="band 7">
        <r>  0.0000  0.0000  0.0000  0.0000  0.0005  0.0005  0.0000  0.0004  0.0000 </r>
        <r>  0.0000  0.0000  0.0000  0.0000  0.2942  0.2668  0.0829  0.2339  0.0664 </r>
        <r>  0.0000  0.0010  0.0012  0.0011  0.0000  0.0000  0.0000  0.0000  0.0000 </r>
        <r>  0.0000  0.0010  0.0012  0.0011  0.0000  0.0000  0.0000  0.0000  0.0000 </r>
       </set>
       <set comment="band 8">
        <r>  0.0211  0.0000  0.0000  0.0000  0.0048  0.0048  0.0000  0.0048  0.0000 </r>
        <r>  0.0313  0.0000  0.0000  0.0000  0.2083  0.2083  0.0000  0.2083  0.0000 </r>
        <r>  0.0002  0.0289  0.0289  0.0289  0.0000  0.0000  0.0000  0.0000  0.0000 </r>
        <r>  0.0002  0.0289  0.0289  0.0289  0.0000  0.0000  0.0000  0.0000  0.0000 </r>
       </set>
       <set comment="band 9">
        <r>  0.0000  0.0011  0.0037  0.0050  0.0000  0.0000  0.0000  0.0000  0.0000 </r>
        <r>  0.0000  0.0013  0.0045  0.0062  0.0000  0.0000  0.0000  0.0000  0.0000 </r>
        <r>  0.0000  0.0400  0.1385  0.1882  0.0000  0.0000  0.0000  0.0000  0.0000 </r>
        <r>  0.0000  0.0400  0.1385  0.1882  0.0000  0.0000  0.0000  0.0000  0.0000 </r>
       </set>
       <set comment="band 10">
        <r>  0.0000  0.0055  0.0028  0.0015  0.0000  0.0000  0.0000  0.0000  0.0000 </r>
        <r>  0.0000  0.0067  0.0035  0.0018  0.0000  0.0000  0.0000  0.0000  0.0000 </r>
        <r>  0.0000  0.2045  0.1060  0.0563  0.0000  0.0000  0.0000  0.0000  0.0000 </r>
        <r>  0.0000  0.2045  0.1060  0.0563  0.0000  0.0000  0.0000  0.0000  0.0000 </r>
       </set>
       <set comment="band 11">
        <r>  0.0000  0.0032  0.0032  0.0032  0.0000  0.0000  0.0000  0.0000  0.0000 </r>
        <r>  0.0000  0.0041  0.0041  0.0041  0.0000  0.0000  0.0000  0.0000  0.0000 </r>
        <r>  0.0000  0.1222  0.1222  0.1222  0.0000  0.0000  0.0000  0.0000  0.0000 </r>
        <r>  0.0000  0.1222  0.1222  0.1222  0.0000  0.0000  0.0000  0.0000  0.0000 </r>
       </set>
       <set comment="band 12">
        <r>  0.0000  0.0000  0.0000  0.0000  0.0023  0.0023  0.0344  0.0024  0.0346 </r>
        <r>  0.0000  0.0000  0.0000  0.0000  0.0062  0.0061  0.1302  0.0062  0.1309 </r>
        <r>  0.0000  0.0811  0.0804  0.0803  0.0000  0.0000  0.0000  0.0000  0.0000 </r>
        <r>  0.0000  0.0811  0.0804  0.0803  0.0000  0.0000  0.0000  0.0000  0.0000 </r>
       </set>
       <set comment="band 13">
        <r>  0.0000  0.0000  0.0000  0.0000  0.0023  0.0024  0.0346  0.0023  0.0344 </r>
        <r>  0.0000  0.0000  0.0000  0.0000  0.0062  0.0062  0.1309  0.0061  0.1302 </r>
        <r>  0.0000  0.0801  0.0808  0.0809  0.0000  0.0000  0.0000  0.0000  0.0000 </r>
        <r>  0.0000  0.0801  0.0808  0.0809  0.0000  0.0000  0.0000  0.0000  0.0000 </r>
       </set>
       <set comment="band 14">
        <r>  0.1442  0.0000  0.0000  0.0000  0.0001  0.0001  0.0000  0.0001  0.0000 </r>
        <r>  0.1754  0.0000  0.0000  0.0000  0.0000  0.0000  0.0000  0.0000  0.0000 </r>
        <r>  0.1135  0.0007  0.0007  0.0007  0.0000  0.0000  0.0000  0.0000  0.0000 </r>
        <r>  0.1135  0.0007  0.0007  0.0007  0.0000  0.0000  0.0000  0.0000  0.0000 </r>
       </set>
       <set comment="band 15">
        <r>  0.0000  0.0000  0.0000  0.0000  0.2509  0.2476  0.0000  0.2551  0.0000 </r>
        <r>  0.0000  0.0000  0.0000  0.0000  0.0015  0.0015  0.0000  0.0016  0.0000 </r>
        <r>  0.0000  0.0136  0.0138  0.0138  0.0000  0.0000  0.0000  0.0000  0.0000 </r>
        <r>  0.0000  0.0136  0.0138  0.0138  0.0000  0.0000  0.0000  0.0000  0.0000 </r>
       </set>
       <set comment="band 16">
        <r>  0.0000  0.0101  0.0100  0.0101  0.0712  0.2812  0.0001  0.2514  0.0003 </r>
        <r>  0.0000  0.0136  0.0137  0.0135  0.0008  0.0033  0.0000  0.0029  0.0000 </r>
        <r>  0.0134  0.0021  0.0004  0.0024  0.0000  0.0000  0.0000  0.0000  0.0000 </r>
        <r>  0.0134  0.0020  0.0008  0.0022  0.0000  0.0000  0.0000  0.0000  0.0000 </r>
       </set>
       <set comment="band 17">
        <r>  0.0000  0.0000  0.0000  0.0000  0.4572  0.1671  0.0004  0.2093  0.0001 </r>
        <r>  0.0000  0.0000  0.0000  0.0000  0.0054  0.0020  0.0000  0.0025  0.0000 </r>
        <r>  0.0000  0.0017  0.0037  0.0013  0.0000  0.0000  0.0000  0.0000  0.0000 </r>
        <r>  0.0000  0.0017  0.0037  0.0013  0.0000  0.0000  0.0000  0.0000  0.0000 </r>
       </set>
      </set>
     </set>
    </set>
   </array>
  </projected>
 </calculation>
 <structure name="finalpos" >
  <crystal>
   <varray name="basis" >
    <v>       4.44600000       2.22300000       2.22300000 </v>
    <v>       2.22300000       4.44600000       2.22300000 </v>
    <v>       2.22300000       2.22300000       4.44600000 </v>
   </varray>
   <i name="volume">     43.94185427 </i>
   <varray name="rec_basis" >
    <v>       0.33738192      -0.11246064      -0.11246064 </v>
    <v>      -0.11246064       0.33738192      -0.11246064 </v>
    <v>      -0.11246064      -0.11246064       0.33738192 </v>
   </varray>
  </crystal>
  <varray name="positions" >
   <v>       0.00000000       0.00000000       0.00000000 </v>
   <v>       0.50000000       0.50000000       0.50000000 </v>
   <v>       0.25000000       0.25000000       0.25000000 </v>
   <v>       0.75000000       0.75000000       0.75000000 </v>
  </varray>
 </structure>
</modeling>
