   7   7   0   0
  0.2704671E+02  0.3160000E-09  0.3160000E-09  0.1896000E-08  0.5000000E-15
  1.000000000000000E-004
  CAR 
 unknown system                          
     10.83643795     -7.11070733  301      2.80602291      1.00000000
     -7.111  0.0000E+00  0.0000E+00
     -7.051  0.0000E+00  0.0000E+00
     -6.991  0.0000E+00  0.0000E+00
     -6.931  0.0000E+00  0.0000E+00
     -6.871  0.0000E+00  0.0000E+00
     -6.812  0.0000E+00  0.0000E+00
     -6.752  0.0000E+00  0.0000E+00
     -6.692  0.0000E+00  0.0000E+00
     -6.632  0.0000E+00  0.0000E+00
     -6.572  0.2443E-14  0.1462E-15
     -6.512  0.4354E-09  0.2605E-10
     -6.453  0.4822E-05  0.2885E-06
     -6.393  0.3558E-02  0.2131E-03
     -6.333  0.2032E+00  0.1237E-01
     -6.273  0.1206E+01  0.8453E-01
     -6.213  0.1210E+01  0.1569E+00
     -6.154  0.7967E+00  0.2046E+00
     -6.094  0.4933E+00  0.2341E+00
     -6.034  0.4753E+00  0.2625E+00
     -5.974  0.5487E+00  0.2953E+00
     -5.914  0.2958E+00  0.3130E+00
     -5.854  0.3281E+00  0.3326E+00
     -5.795  0.3443E+00  0.3532E+00
     -5.735  0.5040E+00  0.3834E+00
     -5.675  0.2569E+00  0.3988E+00
     -5.615  0.3916E-01  0.4011E+00
     -5.555  0.3390E+00  0.4214E+00
     -5.495  0.6275E+00  0.4589E+00
     -5.436  0.1277E+00  0.4666E+00
     -5.376  0.5277E-01  0.4697E+00
     -5.316  0.3078E+00  0.4881E+00
     -5.256  0.2704E+00  0.5043E+00
     -5.196  0.5141E+00  0.5351E+00
     -5.137  0.1396E+01  0.6186E+00
     -5.077  0.1675E+01  0.7188E+00
     -5.017  0.1063E+01  0.7824E+00
     -4.957  0.5369E+00  0.8145E+00
     -4.897  0.7888E+00  0.8617E+00
     -4.837  0.1016E+01  0.9225E+00
     -4.778  0.7153E+00  0.9652E+00
     -4.718  0.5076E+00  0.9956E+00
     -4.658  0.5370E+00  0.1028E+01
     -4.598  0.2173E+00  0.1041E+01
     -4.538  0.7368E+00  0.1085E+01
     -4.478  0.9980E+00  0.1145E+01
     -4.419  0.4241E+00  0.1170E+01
     -4.359  0.3484E+00  0.1191E+01
     -4.299  0.3267E+00  0.1210E+01
     -4.239  0.5488E+00  0.1243E+01
     -4.179  0.7550E+00  0.1288E+01
     -4.120  0.4761E+00  0.1317E+01
     -4.060  0.3658E+00  0.1339E+01
     -4.000  0.5834E+00  0.1374E+01
     -3.940  0.4658E+00  0.1401E+01
     -3.880  0.4636E+00  0.1429E+01
     -3.820  0.5380E+00  0.1461E+01
     -3.761  0.4275E+00  0.1487E+01
     -3.701  0.7081E+00  0.1529E+01
     -3.641  0.8317E+00  0.1579E+01
     -3.581  0.1740E+01  0.1683E+01
     -3.521  0.2255E+01  0.1818E+01
     -3.461  0.1691E+01  0.1919E+01
     -3.402  0.1788E+01  0.2026E+01
     -3.342  0.1125E+01  0.2093E+01
     -3.282  0.1380E+01  0.2176E+01
     -3.222  0.2732E+01  0.2339E+01
     -3.162  0.5180E+01  0.2649E+01
     -3.103  0.4305E+01  0.2907E+01
     -3.043  0.3838E+01  0.3136E+01
     -2.983  0.4682E+01  0.3417E+01
     -2.923  0.5061E+01  0.3719E+01
     -2.863  0.2777E+01  0.3885E+01
     -2.803  0.2341E+01  0.4025E+01
     -2.744  0.3798E+01  0.4253E+01
     -2.684  0.3957E+01  0.4489E+01
     -2.624  0.7005E+01  0.4909E+01
     -2.564  0.7040E+01  0.5330E+01
     -2.504  0.4586E+01  0.5604E+01
     -2.444  0.4411E+01  0.5868E+01
     -2.385  0.4542E+01  0.6140E+01
     -2.325  0.4426E+01  0.6404E+01
     -2.265  0.4633E+01  0.6682E+01
     -2.205  0.7194E+01  0.7112E+01
     -2.145  0.6733E+01  0.7515E+01
     -2.086  0.4710E+01  0.7797E+01
     -2.026  0.5211E+01  0.8108E+01
     -1.966  0.6296E+01  0.8485E+01
     -1.906  0.6230E+01  0.8858E+01
     -1.846  0.4861E+01  0.9148E+01
     -1.786  0.3550E+01  0.9361E+01
     -1.727  0.5193E+01  0.9672E+01
     -1.667  0.7043E+01  0.1009E+02
     -1.607  0.6071E+01  0.1046E+02
     -1.547  0.4530E+01  0.1073E+02
     -1.487  0.4447E+01  0.1099E+02
     -1.427  0.6239E+01  0.1137E+02
     -1.368  0.8082E+01  0.1185E+02
     -1.308  0.8327E+01  0.1235E+02
     -1.248  0.6649E+01  0.1275E+02
     -1.188  0.4452E+01  0.1301E+02
     -1.128  0.4627E+01  0.1329E+02
     -1.069  0.3393E+01  0.1349E+02
     -1.009  0.2687E+01  0.1365E+02
     -0.949  0.4737E+01  0.1394E+02
     -0.889  0.5089E+01  0.1424E+02
     -0.829  0.4516E+01  0.1451E+02
     -0.769  0.7411E+01  0.1495E+02
     -0.710  0.7501E+01  0.1540E+02
     -0.650  0.6449E+01  0.1579E+02
     -0.590  0.6915E+01  0.1620E+02
     -0.530  0.8744E+01  0.1673E+02
     -0.470  0.1117E+02  0.1739E+02
     -0.410  0.9801E+01  0.1798E+02
     -0.351  0.8068E+01  0.1846E+02
     -0.291  0.7830E+01  0.1893E+02
     -0.231  0.9388E+01  0.1949E+02
     -0.171  0.1037E+02  0.2011E+02
     -0.111  0.9155E+01  0.2066E+02
     -0.051  0.5972E+01  0.2102E+02
      0.008  0.5110E+01  0.2132E+02
      0.068  0.6644E+01  0.2172E+02
      0.128  0.6219E+01  0.2209E+02
      0.188  0.5146E+01  0.2240E+02
      0.248  0.7856E+01  0.2287E+02
      0.307  0.1068E+02  0.2351E+02
      0.367  0.1294E+02  0.2428E+02
      0.427  0.1073E+02  0.2493E+02
      0.487  0.8392E+01  0.2543E+02
      0.547  0.8354E+01  0.2593E+02
      0.607  0.6912E+01  0.2634E+02
      0.666  0.6102E+01  0.2671E+02
      0.726  0.7262E+01  0.2714E+02
      0.786  0.6699E+01  0.2754E+02
      0.846  0.8038E+01  0.2802E+02
      0.906  0.7610E+01  0.2848E+02
      0.966  0.5254E+01  0.2879E+02
      1.025  0.5708E+01  0.2913E+02
      1.085  0.7207E+01  0.2956E+02
      1.145  0.6925E+01  0.2998E+02
      1.205  0.7560E+01  0.3043E+02
      1.265  0.7796E+01  0.3090E+02
      1.324  0.8639E+01  0.3141E+02
      1.384  0.6545E+01  0.3181E+02
      1.444  0.4952E+01  0.3210E+02
      1.504  0.7374E+01  0.3254E+02
      1.564  0.8472E+01  0.3305E+02
      1.624  0.5817E+01  0.3340E+02
      1.683  0.5126E+01  0.3370E+02
      1.743  0.5132E+01  0.3401E+02
      1.803  0.5750E+01  0.3436E+02
      1.863  0.5715E+01  0.3470E+02
      1.923  0.6784E+01  0.3510E+02
      1.983  0.7022E+01  0.3552E+02
      2.042  0.7414E+01  0.3597E+02
      2.102  0.9091E+01  0.3651E+02
      2.162  0.8879E+01  0.3704E+02
      2.222  0.6902E+01  0.3745E+02
      2.282  0.7466E+01  0.3790E+02
      2.341  0.7363E+01  0.3834E+02
      2.401  0.7802E+01  0.3881E+02
      2.461  0.9014E+01  0.3935E+02
      2.521  0.9469E+01  0.3991E+02
      2.581  0.8485E+01  0.4042E+02
      2.641  0.7331E+01  0.4086E+02
      2.700  0.6074E+01  0.4122E+02
      2.760  0.7605E+01  0.4168E+02
      2.820  0.6609E+01  0.4207E+02
      2.880  0.4500E+01  0.4234E+02
      2.940  0.4916E+01  0.4264E+02
      3.000  0.4379E+01  0.4290E+02
      3.059  0.3782E+01  0.4313E+02
      3.119  0.5134E+01  0.4343E+02
      3.179  0.5665E+01  0.4377E+02
      3.239  0.5124E+01  0.4408E+02
      3.299  0.4962E+01  0.4437E+02
      3.358  0.4659E+01  0.4465E+02
      3.418  0.6083E+01  0.4502E+02
      3.478  0.6591E+01  0.4541E+02
      3.538  0.7833E+01  0.4588E+02
      3.598  0.7879E+01  0.4635E+02
      3.658  0.7374E+01  0.4679E+02
      3.717  0.6813E+01  0.4720E+02
      3.777  0.6303E+01  0.4758E+02
      3.837  0.6002E+01  0.4794E+02
      3.897  0.7299E+01  0.4837E+02
      3.957  0.6965E+01  0.4879E+02
      4.017  0.5617E+01  0.4913E+02
      4.076  0.6153E+01  0.4949E+02
      4.136  0.7620E+01  0.4995E+02
      4.196  0.6907E+01  0.5036E+02
      4.256  0.7157E+01  0.5079E+02
      4.316  0.8709E+01  0.5131E+02
      4.375  0.7160E+01  0.5174E+02
      4.435  0.7153E+01  0.5217E+02
      4.495  0.9734E+01  0.5275E+02
      4.555  0.1039E+02  0.5337E+02
      4.615  0.1270E+02  0.5413E+02
      4.675  0.1317E+02  0.5492E+02
      4.734  0.9435E+01  0.5548E+02
      4.794  0.7967E+01  0.5596E+02
      4.854  0.7376E+01  0.5640E+02
      4.914  0.9017E+01  0.5694E+02
      4.974  0.9660E+01  0.5752E+02
      5.034  0.9438E+01  0.5808E+02
      5.093  0.7549E+01  0.5854E+02
      5.153  0.8661E+01  0.5905E+02
      5.213  0.9742E+01  0.5964E+02
      5.273  0.1024E+02  0.6025E+02
      5.333  0.8372E+01  0.6075E+02
      5.392  0.6148E+01  0.6112E+02
      5.452  0.8013E+01  0.6160E+02
      5.512  0.7545E+01  0.6205E+02
      5.572  0.8339E+01  0.6255E+02
      5.632  0.9417E+01  0.6311E+02
      5.692  0.1003E+02  0.6371E+02
      5.751  0.8473E+01  0.6422E+02
      5.811  0.8262E+01  0.6471E+02
      5.871  0.1167E+02  0.6541E+02
      5.931  0.1191E+02  0.6612E+02
      5.991  0.1145E+02  0.6681E+02
      6.051  0.1362E+02  0.6762E+02
      6.110  0.1362E+02  0.6844E+02
      6.170  0.9557E+01  0.6901E+02
      6.230  0.8279E+01  0.6950E+02
      6.290  0.9203E+01  0.7005E+02
      6.350  0.9838E+01  0.7064E+02
      6.409  0.9250E+01  0.7120E+02
      6.469  0.9569E+01  0.7177E+02
      6.529  0.8000E+01  0.7225E+02
      6.589  0.6523E+01  0.7264E+02
      6.649  0.6888E+01  0.7305E+02
      6.709  0.6629E+01  0.7345E+02
      6.768  0.5419E+01  0.7377E+02
      6.828  0.4442E+01  0.7404E+02
      6.888  0.5625E+01  0.7437E+02
      6.948  0.5505E+01  0.7470E+02
      7.008  0.4655E+01  0.7498E+02
      7.068  0.5838E+01  0.7533E+02
      7.127  0.6793E+01  0.7574E+02
      7.187  0.5964E+01  0.7609E+02
      7.247  0.3937E+01  0.7633E+02
      7.307  0.3660E+01  0.7655E+02
      7.367  0.3302E+01  0.7674E+02
      7.426  0.2965E+01  0.7692E+02
      7.486  0.2901E+01  0.7710E+02
      7.546  0.2456E+01  0.7724E+02
      7.606  0.1767E+01  0.7735E+02
      7.666  0.1533E+01  0.7744E+02
      7.726  0.1109E+01  0.7751E+02
      7.785  0.1334E+01  0.7759E+02
      7.845  0.2311E+01  0.7772E+02
      7.905  0.2659E+01  0.7788E+02
      7.965  0.1297E+01  0.7796E+02
      8.025  0.5356E+00  0.7799E+02
      8.085  0.4921E+00  0.7802E+02
      8.144  0.5063E+00  0.7805E+02
      8.204  0.5656E+00  0.7809E+02
      8.264  0.2443E+00  0.7810E+02
      8.324  0.5584E+00  0.7813E+02
      8.384  0.1574E+01  0.7823E+02
      8.443  0.1096E+01  0.7829E+02
      8.503  0.4947E+00  0.7832E+02
      8.563  0.7679E+00  0.7837E+02
      8.623  0.8896E+00  0.7842E+02
      8.683  0.1684E+00  0.7843E+02
      8.743  0.1918E+00  0.7844E+02
      8.802  0.1308E+01  0.7852E+02
      8.862  0.1595E+01  0.7862E+02
      8.922  0.7548E+00  0.7866E+02
      8.982  0.4619E+00  0.7869E+02
      9.042  0.8671E+00  0.7874E+02
      9.102  0.1951E+01  0.7886E+02
      9.161  0.3024E+01  0.7904E+02
      9.221  0.1348E+01  0.7912E+02
      9.281  0.1309E+01  0.7920E+02
      9.341  0.2942E+01  0.7938E+02
      9.401  0.2208E+01  0.7951E+02
      9.460  0.1262E+01  0.7958E+02
      9.520  0.6433E+00  0.7962E+02
      9.580  0.1856E+00  0.7963E+02
      9.640  0.9053E-01  0.7964E+02
      9.700  0.5741E+00  0.7967E+02
      9.760  0.4584E+00  0.7970E+02
      9.819  0.6292E+00  0.7974E+02
      9.879  0.1257E+01  0.7981E+02
      9.939  0.6875E+00  0.7985E+02
      9.999  0.1010E+01  0.7991E+02
     10.059  0.1215E+01  0.7999E+02
     10.119  0.2117E+00  0.8000E+02
     10.178  0.3527E-02  0.8000E+02
     10.238  0.4493E-05  0.8000E+02
     10.298  0.3842E-09  0.8000E+02
     10.358  0.2041E-14  0.8000E+02
     10.418  0.0000E+00  0.8000E+02
     10.477  0.0000E+00  0.8000E+02
     10.537  0.0000E+00  0.8000E+02
     10.597  0.0000E+00  0.8000E+02
     10.657  0.0000E+00  0.8000E+02
     10.717  0.0000E+00  0.8000E+02
     10.777  0.0000E+00  0.8000E+02
     10.836  0.0000E+00  0.8000E+02
