    7    7    1    1
  0.2704671E+02  0.3160000E-09  0.3160000E-09  0.1896000E-08  0.5000000E-15
  1.000000000000000E-004
  CAR 
 unknown system                          
     42     60     40
 
  0.0000000E+00  0.0000000E+00  0.0000000E+00  0.1666667E-01
    1       -6.294928   1.000000
    2       -5.153846   1.000000
    3       -3.605327   1.000000
    4       -2.773566   1.000000
    5       -2.651784   1.000000
    6       -2.239028   1.000000
    7       -2.068694   1.000000
    8       -1.689481   1.000000
    9       -1.326222   1.000000
   10       -0.964999   1.000000
   11        0.334927   1.000000
   12        1.542660   1.000000
   13        1.542660   1.000000
   14        1.680684   1.000000
   15        1.680684   1.000000
   16        1.770107   1.000000
   17        1.877200   1.000000
   18        2.110237   1.000000
   19        2.110237   1.000000
   20        2.406231   1.000000
   21        2.438195   1.000000
   22        2.515440   1.000000
   23        2.772343   0.829605
   24        2.772343   0.829605
   25        3.390436   0.000000
   26        3.400939   0.000000
   27        3.885550   0.000000
   28        3.885550   0.000000
   29        4.494758   0.000000
   30        4.590880   0.000000
   31        5.299931   0.000000
   32        5.424076   0.000000
   33        5.424076   0.000000
   34        5.774447   0.000000
   35        5.896259   0.000000
   36        6.306435   0.000000
   37        6.711974   0.000000
   38        6.717529   0.000000
   39        6.913888   0.000000
   40        7.102825   0.000000
 
  0.2631579E-01  0.0000000E+00  0.0000000E+00  0.1666667E-01
    1       -6.279017   1.000000
    2       -5.140345   1.000000
    3       -3.596217   1.000000
    4       -2.761766   1.000000
    5       -2.641541   1.000000
    6       -2.233904   1.000000
    7       -2.059055   1.000000
    8       -1.679854   1.000000
    9       -1.320190   1.000000
   10       -0.959940   1.000000
   11        0.327507   1.000000
   12        1.524024   1.000000
   13        1.535111   1.000000
   14        1.587524   1.000000
   15        1.598579   1.000000
   16        1.826873   1.000000
   17        1.975130   1.000000
   18        2.038640   1.000000
   19        2.125175   1.000000
   20        2.401123   1.000000
   21        2.483248   1.000000
   22        2.513746   1.000000
   23        2.714987   0.994986
   24        2.827784   0.269114
   25        3.410605   0.000000
   26        3.459224   0.000000
   27        3.800558   0.000000
   28        3.889476   0.000000
   29        4.587509   0.000000
   30        4.595266   0.000000
   31        5.285112   0.000000
   32        5.297723   0.000000
   33        5.373028   0.000000
   34        5.886425   0.000000
   35        5.904306   0.000000
   36        6.305411   0.000000
   37        6.733255   0.000000
   38        6.736998   0.000000
   39        6.789793   0.000000
   40        7.023911   0.000000
 
  0.5263158E-01  0.0000000E+00  0.0000000E+00  0.1666667E-01
    1       -6.231402   1.000000
    2       -5.100091   1.000000
    3       -3.569431   1.000000
    4       -2.727576   1.000000
    5       -2.610010   1.000000
    6       -2.221204   1.000000
    7       -2.029437   1.000000
    8       -1.650732   1.000000
    9       -1.307630   1.000000
   10       -0.939161   1.000000
   11        0.309683   1.000000
   12        1.447344   1.000000
   13        1.461621   1.000000
   14        1.469696   1.000000
   15        1.513384   1.000000
   16        1.870545   1.000000
   17        1.925493   1.000000
   18        2.119430   1.000000
   19        2.160615   1.000000
   20        2.341277   1.000000
   21        2.514850   1.000000
   22        2.607560   1.000000
   23        2.611737   1.000000
   24        2.952642   0.000017
   25        3.438792   0.000000
   26        3.604608   0.000000
   27        3.638673   0.000000
   28        3.903165   0.000000
   29        4.604000   0.000000
   30        4.775495   0.000000
   31        5.097692   0.000000
   32        5.235351   0.000000
   33        5.246560   0.000000
   34        5.857236   0.000000
   35        6.114809   0.000000
   36        6.302163   0.000000
   37        6.619318   0.000000
   38        6.772477   0.000000
   39        6.789484   0.000000
   40        6.836678   0.000000
 
  0.7894737E-01  0.0000000E+00  0.0000000E+00  0.1666667E-01
    1       -6.152561   1.000000
    2       -5.033846   1.000000
    3       -3.526616   1.000000
    4       -2.674571   1.000000
    5       -2.554879   1.000000
    6       -2.207349   1.000000
    7       -1.979335   1.000000
    8       -1.601231   1.000000
    9       -1.302798   1.000000
   10       -0.888089   1.000000
   11        0.293011   1.000000
   12        1.317362   1.000000
   13        1.327745   1.000000
   14        1.348352   1.000000
   15        1.479965   1.000000
   16        1.837038   1.000000
   17        1.846728   1.000000
   18        2.169851   1.000000
   19        2.188201   1.000000
   20        2.380790   1.000000
   21        2.530427   1.000000
   22        2.540029   1.000000
   23        2.706775   0.997501
   24        3.106601   0.000000
   25        3.482747   0.000000
   26        3.501898   0.000000
   27        3.748073   0.000000
   28        3.931263   0.000000
   29        4.600510   0.000000
   30        4.927003   0.000000
   31        4.967758   0.000000
   32        5.056820   0.000000
   33        5.190450   0.000000
   34        5.809854   0.000000
   35        6.296376   0.000000
   36        6.302419   0.000000
   37        6.481886   0.000000
   38        6.518972   0.000000
   39        6.868465   0.000000
   40        6.892688   0.000000
 
  0.1052632E+00  0.0000000E+00  0.0000000E+00  0.1666667E-01
    1       -6.043278   1.000000
    2       -4.942901   1.000000
    3       -3.470523   1.000000
    4       -2.607582   1.000000
    5       -2.473522   1.000000
    6       -2.198978   1.000000
    7       -1.911974   1.000000
    8       -1.529329   1.000000
    9       -1.318007   1.000000
   10       -0.793709   1.000000
   11        0.292395   1.000000
   12        1.177518   1.000000
   13        1.196120   1.000000
   14        1.208522   1.000000
   15        1.438265   1.000000
   16        1.750244   1.000000
   17        1.770867   1.000000
   18        2.117920   1.000000
   19        2.178028   1.000000
   20        2.505000   1.000000
   21        2.531224   1.000000
   22        2.612935   1.000000
   23        2.720687   0.992103
   24        3.272044   0.000000
   25        3.449591   0.000000
   26        3.537723   0.000000
   27        3.835332   0.000000
   28        3.978193   0.000000
   29        4.551188   0.000000
   30        4.830008   0.000000
   31        4.871436   0.000000
   32        5.118469   0.000000
   33        5.150764   0.000000
   34        5.746861   0.000000
   35        6.195051   0.000000
   36        6.288034   0.000000
   37        6.412504   0.000000
   38        6.419944   0.000000
   39        6.964125   0.000000
   40        7.005067   0.000000
 
  0.1315789E+00  0.0000000E+00  0.0000000E+00  0.1666667E-01
    1       -5.904639   1.000000
    2       -4.829105   1.000000
    3       -3.404946   1.000000
    4       -2.530018   1.000000
    5       -2.365849   1.000000
    6       -2.200940   1.000000
    7       -1.835563   1.000000
    8       -1.431570   1.000000
    9       -1.353751   1.000000
   10       -0.654279   1.000000
   11        0.322424   1.000000
   12        1.021225   1.000000
   13        1.025152   1.000000
   14        1.126735   1.000000
   15        1.392026   1.000000
   16        1.611584   1.000000
   17        1.704593   1.000000
   18        2.057806   1.000000
   19        2.132245   1.000000
   20        2.502842   1.000000
   21        2.657821   0.999986
   22        2.698663   0.998804
   23        2.728729   0.985599
   24        3.433233   0.000000
   25        3.482539   0.000000
   26        3.598072   0.000000
   27        3.838170   0.000000
   28        4.044737   0.000000
   29        4.436639   0.000000
   30        4.699973   0.000000
   31        4.827549   0.000000
   32        5.157508   0.000000
   33        5.203410   0.000000
   34        5.672777   0.000000
   35        5.858349   0.000000
   36        6.277736   0.000000
   37        6.436297   0.000000
   38        6.441700   0.000000
   39        7.075148   0.000000
   40        7.132575   0.000000
 
  0.1578947E+00  0.0000000E+00  0.0000000E+00  0.1666667E-01
    1       -5.738111   1.000000
    2       -4.694892   1.000000
    3       -3.334623   1.000000
    4       -2.443141   1.000000
    5       -2.235337   1.000000
    6       -2.216374   1.000000
    7       -1.759944   1.000000
    8       -1.402933   1.000000
    9       -1.304512   1.000000
   10       -0.474939   1.000000
   11        0.394587   1.000000
   12        0.849162   1.000000
   13        0.860739   1.000000
   14        1.076452   1.000000
   15        1.345064   1.000000
   16        1.460679   1.000000
   17        1.619934   1.000000
   18        2.003748   1.000000
   19        2.070230   1.000000
   20        2.490515   1.000000
   21        2.571832   1.000000
   22        2.866966   0.042378
   23        2.868564   0.038452
   24        3.548308   0.000000
   25        3.564020   0.000000
   26        3.659122   0.000000
   27        3.781051   0.000000
   28        4.125307   0.000000
   29        4.305646   0.000000
   30        4.528713   0.000000
   31        4.885864   0.000000
   32        5.213661   0.000000
   33        5.234677   0.000000
   34        5.525497   0.000000
   35        5.595801   0.000000
   36        6.266969   0.000000
   37        6.403976   0.000000
   38        6.544952   0.000000
   39        7.201324   0.000000
   40        7.266466   0.000000
 
  0.1842105E+00  0.0000000E+00  0.0000000E+00  0.1666667E-01
    1       -5.545438   1.000000
    2       -4.543314   1.000000
    3       -3.264951   1.000000
    4       -2.348186   1.000000
    5       -2.246689   1.000000
    6       -2.087404   1.000000
    7       -1.691584   1.000000
    8       -1.456856   1.000000
    9       -1.148068   1.000000
   10       -0.261731   1.000000
   11        0.515205   1.000000
   12        0.675602   1.000000
   13        0.698331   1.000000
   14        1.061243   1.000000
   15        1.301396   1.000000
   16        1.313306   1.000000
   17        1.509294   1.000000
   18        1.955525   1.000000
   19        2.007677   1.000000
   20        2.448961   1.000000
   21        2.498555   1.000000
   22        3.018253   0.000000
   23        3.030655   0.000000
   24        3.607215   0.000000
   25        3.622648   0.000000
   26        3.707053   0.000000
   27        3.717844   0.000000
   28        4.207119   0.000000
   29        4.210518   0.000000
   30        4.375583   0.000000
   31        4.948167   0.000000
   32        5.211335   0.000000
   33        5.251032   0.000000
   34        5.301948   0.000000
   35        5.525620   0.000000
   36        6.258233   0.000000
   37        6.374050   0.000000
   38        6.700747   0.000000
   39        7.341805   0.000000
   40        7.400084   0.000000
 
  0.2105263E+00  0.0000000E+00  0.0000000E+00  0.1666667E-01
    1       -5.328778   1.000000
    2       -4.378139   1.000000
    3       -3.201493   1.000000
    4       -2.291110   1.000000
    5       -2.248428   1.000000
    6       -1.928340   1.000000
    7       -1.631953   1.000000
    8       -1.506124   1.000000
    9       -0.966844   1.000000
   10       -0.020429   1.000000
   11        0.508697   1.000000
   12        0.536858   1.000000
   13        0.684337   1.000000
   14        1.083757   1.000000
   15        1.176248   1.000000
   16        1.265781   1.000000
   17        1.376267   1.000000
   18        1.909261   1.000000
   19        1.955326   1.000000
   20        2.373702   1.000000
   21        2.444555   1.000000
   22        3.166084   0.000000
   23        3.178148   0.000000
   24        3.604735   0.000000
   25        3.636208   0.000000
   26        3.645673   0.000000
   27        3.772161   0.000000
   28        4.062206   0.000000
   29        4.272020   0.000000
   30        4.366192   0.000000
   31        4.927310   0.000000
   32        4.981988   0.000000
   33        5.283384   0.000000
   34        5.407724   0.000000
   35        5.479306   0.000000
   36        6.255019   0.000000
   37        6.395218   0.000000
   38        6.864685   0.000000
   39        7.494343   0.000000
   40        7.527714   0.000000
 
  0.2368421E+00  0.0000000E+00  0.0000000E+00  0.1666667E-01
    1       -5.090746   1.000000
    2       -4.203922   1.000000
    3       -3.149254   1.000000
    4       -2.346713   1.000000
    5       -2.150990   1.000000
    6       -1.765263   1.000000
    7       -1.579883   1.000000
    8       -1.539111   1.000000
    9       -0.768331   1.000000
   10        0.242812   1.000000
   11        0.351119   1.000000
   12        0.379521   1.000000
   13        0.893535   1.000000
   14        1.051960   1.000000
   15        1.145451   1.000000
   16        1.230618   1.000000
   17        1.246738   1.000000
   18        1.859218   1.000000
   19        1.920520   1.000000
   20        2.271496   1.000000
   21        2.401831   1.000000
   22        3.275529   0.000000
   23        3.296091   0.000000
   24        3.566239   0.000000
   25        3.587771   0.000000
   26        3.667974   0.000000
   27        3.821910   0.000000
   28        3.872365   0.000000
   29        4.302483   0.000000
   30        4.460087   0.000000
   31        4.689121   0.000000
   32        4.989476   0.000000
   33        5.341575   0.000000
   34        5.472916   0.000000
   35        5.521801   0.000000
   36        6.261376   0.000000
   37        6.473841   0.000000
   38        7.005719   0.000000
   39        7.644094   0.000000
   40        7.653919   0.000000
 
  0.2631579E+00  0.0000000E+00  0.0000000E+00  0.1666667E-01
    1       -4.834315   1.000000
    2       -4.026002   1.000000
    3       -3.111790   1.000000
    4       -2.409015   1.000000
    5       -2.068637   1.000000
    6       -1.610870   1.000000
    7       -1.535629   1.000000
    8       -1.533895   1.000000
    9       -0.560956   1.000000
   10        0.204717   1.000000
   11        0.229446   1.000000
   12        0.520522   1.000000
   13        0.940939   1.000000
   14        1.082292   1.000000
   15        1.096314   1.000000
   16        1.245971   1.000000
   17        1.286503   1.000000
   18        1.799229   1.000000
   19        1.908222   1.000000
   20        2.154060   1.000000
   21        2.359800   1.000000
   22        3.298499   0.000000
   23        3.380691   0.000000
   24        3.487060   0.000000
   25        3.539492   0.000000
   26        3.687274   0.000000
   27        3.798850   0.000000
   28        3.875176   0.000000
   29        4.287305   0.000000
   30        4.520105   0.000000
   31        4.567341   0.000000
   32        4.992276   0.000000
   33        5.419876   0.000000
   34        5.513269   0.000000
   35        5.638368   0.000000
   36        6.280628   0.000000
   37        6.592205   0.000000
   38        7.099989   0.000000
   39        7.742636   0.000000
   40        7.804867   0.000000
 
  0.2894737E+00  0.0000000E+00  0.0000000E+00  0.1666667E-01
    1       -4.563069   1.000000
    2       -3.850521   1.000000
    3       -3.090392   1.000000
    4       -2.472862   1.000000
    5       -2.016232   1.000000
    6       -1.524480   1.000000
    7       -1.492937   1.000000
    8       -1.429296   1.000000
    9       -0.352948   1.000000
   10        0.070858   1.000000
   11        0.089392   1.000000
   12        0.803131   1.000000
   13        0.842915   1.000000
   14        0.938874   1.000000
   15        1.165045   1.000000
   16        1.381502   1.000000
   17        1.501703   1.000000
   18        1.725072   1.000000
   19        1.923541   1.000000
   20        2.032593   1.000000
   21        2.311327   1.000000
   22        3.302703   0.000000
   23        3.365757   0.000000
   24        3.391963   0.000000
   25        3.392421   0.000000
   26        3.716684   0.000000
   27        3.920801   0.000000
   28        3.946649   0.000000
   29        4.215405   0.000000
   30        4.454438   0.000000
   31        4.657448   0.000000
   32        5.009322   0.000000
   33        5.505704   0.000000
   34        5.591650   0.000000
   35        5.753793   0.000000
   36        6.313207   0.000000
   37        6.728010   0.000000
   38        7.137801   0.000000
   39        7.814490   0.000000
   40        7.854794   0.000000
 
  0.3157895E+00  0.0000000E+00  0.0000000E+00  0.1666667E-01
    1       -4.281264   1.000000
    2       -3.684451   1.000000
    3       -3.083845   1.000000
    4       -2.533033   1.000000
    5       -1.997102   1.000000
    6       -1.456180   1.000000
    7       -1.454467   1.000000
    8       -1.277859   1.000000
    9       -0.151359   1.000000
   10       -0.049389   1.000000
   11       -0.038364   1.000000
   12        0.757403   1.000000
   13        0.805554   1.000000
   14        1.078243   1.000000
   15        1.183462   1.000000
   16        1.526500   1.000000
   17        1.652569   1.000000
   18        1.768028   1.000000
   19        1.915637   1.000000
   20        1.993451   1.000000
   21        2.254520   1.000000
   22        3.177619   0.000000
   23        3.283889   0.000000
   24        3.343522   0.000000
   25        3.345263   0.000000
   26        3.763826   0.000000
   27        4.004088   0.000000
   28        4.091542   0.000000
   29        4.139188   0.000000
   30        4.478613   0.000000
   31        4.720514   0.000000
   32        5.047446   0.000000
   33        5.585152   0.000000
   34        5.691069   0.000000
   35        5.865572   0.000000
   36        6.354658   0.000000
   37        6.863592   0.000000
   38        7.130580   0.000000
   39        7.631930   0.000000
   40        7.847471   0.000000
 
  0.3421053E+00  0.0000000E+00  0.0000000E+00  0.1666667E-01
    1       -3.994055   1.000000
    2       -3.535253   1.000000
    3       -3.088673   1.000000
    4       -2.584535   1.000000
    5       -2.001130   1.000000
    6       -1.422806   1.000000
    7       -1.384955   1.000000
    8       -1.117076   1.000000
    9       -0.155171   1.000000
   10       -0.152010   1.000000
   11        0.038764   1.000000
   12        0.683905   1.000000
   13        0.685783   1.000000
   14        1.197739   1.000000
   15        1.325033   1.000000
   16        1.488481   1.000000
   17        1.766644   1.000000
   18        1.808998   1.000000
   19        1.906484   1.000000
   20        2.191869   1.000000
   21        2.228120   1.000000
   22        3.030532   0.000000
   23        3.168511   0.000000
   24        3.279911   0.000000
   25        3.422113   0.000000
   26        3.829922   0.000000
   27        3.936860   0.000000
   28        4.182949   0.000000
   29        4.272513   0.000000
   30        4.554906   0.000000
   31        4.758620   0.000000
   32        5.103900   0.000000
   33        5.645513   0.000000
   34        5.796220   0.000000
   35        5.971003   0.000000
   36        6.395640   0.000000
   37        6.986694   0.000000
   38        7.101361   0.000000
   39        7.343016   0.000000
   40        7.825660   0.000000
 
  0.3684211E+00  0.0000000E+00  0.0000000E+00  0.1666667E-01
    1       -3.708382   1.000000
    2       -3.410262   1.000000
    3       -3.099431   1.000000
    4       -2.622946   1.000000
    5       -2.018816   1.000000
    6       -1.392088   1.000000
    7       -1.340271   1.000000
    8       -0.939910   1.000000
    9       -0.250137   1.000000
   10       -0.245784   1.000000
   11        0.214924   1.000000
   12        0.581863   1.000000
   13        0.622029   1.000000
   14        1.205627   1.000000
   15        1.311944   1.000000
   16        1.580427   1.000000
   17        1.716355   1.000000
   18        1.950990   1.000000
   19        1.961331   1.000000
   20        2.128172   1.000000
   21        2.554686   1.000000
   22        2.937704   0.000098
   23        3.055004   0.000000
   24        3.232741   0.000000
   25        3.539112   0.000000
   26        3.841838   0.000000
   27        3.911403   0.000000
   28        4.255746   0.000000
   29        4.447083   0.000000
   30        4.660505   0.000000
   31        4.785701   0.000000
   32        5.171514   0.000000
   33        5.677356   0.000000
   34        5.897965   0.000000
   35        6.066939   0.000000
   36        6.424414   0.000000
   37        7.070967   0.000000
   38        7.086106   0.000000
   39        7.089491   0.000000
   40        7.729900   0.000000
 
  0.3947368E+00  0.0000000E+00  0.0000000E+00  0.1666667E-01
    1       -3.436790   1.000000
    2       -3.315050   1.000000
    3       -3.105908   1.000000
    4       -2.645396   1.000000
    5       -2.046921   1.000000
    6       -1.363763   1.000000
    7       -1.330078   1.000000
    8       -0.744183   1.000000
    9       -0.331686   1.000000
   10       -0.320673   1.000000
   11        0.376684   1.000000
   12        0.495321   1.000000
   13        0.571500   1.000000
   14        1.131996   1.000000
   15        1.198768   1.000000
   16        1.639813   1.000000
   17        1.770824   1.000000
   18        1.998817   1.000000
   19        2.068627   1.000000
   20        2.107646   1.000000
   21        2.877129   0.022153
   22        2.913272   0.001209
   23        2.951381   0.000020
   24        3.209970   0.000000
   25        3.687527   0.000000
   26        3.782586   0.000000
   27        4.001643   0.000000
   28        4.315627   0.000000
   29        4.582432   0.000000
   30        4.772707   0.000000
   31        4.838427   0.000000
   32        5.241992   0.000000
   33        5.677509   0.000000
   34        5.994954   0.000000
   35        6.151293   0.000000
   36        6.430452   0.000000
   37        6.878356   0.000000
   38        7.051711   0.000000
   39        7.168072   0.000000
   40        7.540179   0.000000
 
  0.4210526E+00  0.0000000E+00  0.0000000E+00  0.1666667E-01
    1       -3.250930   1.000000
    2       -3.234647   1.000000
    3       -3.057248   1.000000
    4       -2.652455   1.000000
    5       -2.087240   1.000000
    6       -1.349849   1.000000
    7       -1.338482   1.000000
    8       -0.532714   1.000000
    9       -0.395857   1.000000
   10       -0.379383   1.000000
   11        0.427173   1.000000
   12        0.524216   1.000000
   13        0.532174   1.000000
   14        0.922279   1.000000
   15        1.170595   1.000000
   16        1.580342   1.000000
   17        1.928016   1.000000
   18        2.017768   1.000000
   19        2.028444   1.000000
   20        2.209312   1.000000
   21        2.864171   0.050019
   22        2.953343   0.000015
   23        3.110072   0.000000
   24        3.239647   0.000000
   25        3.792474   0.000000
   26        3.852314   0.000000
   27        4.091758   0.000000
   28        4.360676   0.000000
   29        4.636465   0.000000
   30        4.868867   0.000000
   31        4.960668   0.000000
   32        5.307291   0.000000
   33        5.651531   0.000000
   34        6.094671   0.000000
   35        6.225194   0.000000
   36        6.408716   0.000000
   37        6.722965   0.000000
   38        7.046246   0.000000
   39        7.222400   0.000000
   40        7.283019   0.000000
 
  0.4473684E+00  0.0000000E+00  0.0000000E+00  0.1666667E-01
    1       -3.213619   1.000000
    2       -3.193122   1.000000
    3       -2.870808   1.000000
    4       -2.649249   1.000000
    5       -2.144154   1.000000
    6       -1.385844   1.000000
    7       -1.317896   1.000000
    8       -0.442074   1.000000
    9       -0.421565   1.000000
   10       -0.310520   1.000000
   11        0.378096   1.000000
   12        0.504032   1.000000
   13        0.656390   1.000000
   14        0.696037   1.000000
   15        1.120680   1.000000
   16        1.538144   1.000000
   17        1.979069   1.000000
   18        2.045520   1.000000
   19        2.052544   1.000000
   20        2.259553   1.000000
   21        2.798336   0.586053
   22        3.024993   0.000000
   23        3.127641   0.000000
   24        3.393269   0.000000
   25        3.885437   0.000000
   26        4.010684   0.000000
   27        4.170690   0.000000
   28        4.391896   0.000000
   29        4.639921   0.000000
   30        4.931188   0.000000
   31        5.114201   0.000000
   32        5.360157   0.000000
   33        5.612996   0.000000
   34        6.212023   0.000000
   35        6.292016   0.000000
   36        6.366900   0.000000
   37        6.614835   0.000000
   38        7.023429   0.000000
   39        7.050198   0.000000
   40        7.256043   0.000000
 
  0.4736842E+00  0.0000000E+00  0.0000000E+00  0.1666667E-01
    1       -3.195563   1.000000
    2       -3.193297   1.000000
    3       -2.684345   1.000000
    4       -2.643306   1.000000
    5       -2.216534   1.000000
    6       -1.419245   1.000000
    7       -1.304241   1.000000
    8       -0.469961   1.000000
    9       -0.446981   1.000000
   10       -0.088410   1.000000
   11        0.348497   1.000000
   12        0.469268   1.000000
   13        0.487107   1.000000
   14        0.766190   1.000000
   15        1.058249   1.000000
   16        1.513023   1.000000
   17        1.954924   1.000000
   18        2.069410   1.000000
   19        2.119389   1.000000
   20        2.278638   1.000000
   21        2.757421   0.915385
   22        3.085809   0.000000
   23        3.108374   0.000000
   24        3.490097   0.000000
   25        4.008424   0.000000
   26        4.131603   0.000000
   27        4.225816   0.000000
   28        4.410152   0.000000
   29        4.628551   0.000000
   30        4.955750   0.000000
   31        5.241022   0.000000
   32        5.394596   0.000000
   33        5.579414   0.000000
   34        6.303256   0.000000
   35        6.361638   0.000000
   36        6.379536   0.000000
   37        6.539740   0.000000
   38        6.781273   0.000000
   39        7.056415   0.000000
   40        7.189799   0.000000
 
  0.5000000E+00  0.0000000E+00  0.0000000E+00  0.1666667E-01
    1       -3.194754   1.000000
    2       -3.190338   1.000000
    3       -2.640605   1.000000
    4       -2.596370   1.000000
    5       -2.262812   1.000000
    6       -1.432760   1.000000
    7       -1.299442   1.000000
    8       -0.479282   1.000000
    9       -0.455470   1.000000
   10        0.056752   1.000000
   11        0.322170   1.000000
   12        0.338605   1.000000
   13        0.481454   1.000000
   14        0.819547   1.000000
   15        1.020266   1.000000
   16        1.504690   1.000000
   17        1.946725   1.000000
   18        2.075583   1.000000
   19        2.145015   1.000000
   20        2.282844   1.000000
   21        2.743542   0.961404
   22        3.099647   0.000000
   23        3.108832   0.000000
   24        3.519559   0.000000
   25        4.064577   0.000000
   26        4.178625   0.000000
   27        4.245788   0.000000
   28        4.416138   0.000000
   29        4.621259   0.000000
   30        4.959146   0.000000
   31        5.291749   0.000000
   32        5.406557   0.000000
   33        5.566131   0.000000
   34        6.283879   0.000000
   35        6.429704   0.000000
   36        6.493559   0.000000
   37        6.518248   0.000000
   38        6.592440   0.000000
   39        7.059559   0.000000
   40        7.154125   0.000000
 
  0.5000000E+00  0.0000000E+00  0.0000000E+00  0.1666667E-01
    1       -3.194754   1.000000
    2       -3.190338   1.000000
    3       -2.640605   1.000000
    4       -2.596370   1.000000
    5       -2.262812   1.000000
    6       -1.432760   1.000000
    7       -1.299442   1.000000
    8       -0.479282   1.000000
    9       -0.455470   1.000000
   10        0.056752   1.000000
   11        0.322170   1.000000
   12        0.338605   1.000000
   13        0.481454   1.000000
   14        0.819547   1.000000
   15        1.020266   1.000000
   16        1.504690   1.000000
   17        1.946725   1.000000
   18        2.075583   1.000000
   19        2.145015   1.000000
   20        2.282844   1.000000
   21        2.743542   0.961404
   22        3.099647   0.000000
   23        3.108832   0.000000
   24        3.519559   0.000000
   25        4.064577   0.000000
   26        4.178625   0.000000
   27        4.245788   0.000000
   28        4.416138   0.000000
   29        4.621259   0.000000
   30        4.959146   0.000000
   31        5.291749   0.000000
   32        5.406557   0.000000
   33        5.566131   0.000000
   34        6.283880   0.000000
   35        6.429704   0.000000
   36        6.493559   0.000000
   37        6.518248   0.000000
   38        6.592442   0.000000
   39        7.061232   0.000000
   40        7.139834   0.000000
 
  0.5000000E+00  0.2631579E-01  0.0000000E+00  0.1666667E-01
    1       -3.178136   1.000000
    2       -3.173907   1.000000
    3       -2.625621   1.000000
    4       -2.584801   1.000000
    5       -2.255324   1.000000
    6       -1.428986   1.000000
    7       -1.289634   1.000000
    8       -0.482667   1.000000
    9       -0.459792   1.000000
   10        0.032055   1.000000
   11        0.305175   1.000000
   12        0.306040   1.000000
   13        0.480114   1.000000
   14        0.843106   1.000000
   15        0.982631   1.000000
   16        1.533530   1.000000
   17        1.871657   1.000000
   18        2.135714   1.000000
   19        2.162868   1.000000
   20        2.295107   1.000000
   21        2.744895   0.958092