 vasp.5.4.4.18Apr17-6-g9f103f2a35 (build May 20 2018 16:52:39) complex          
  
 executed on             LinuxIFC date 2022.11.18  01:53:44
 running on   40 total cores
 distrk:  each k-point on   40 cores,    1 groups
 distr:  one band on NCORES_PER_BAND=   1 cores,   40 groups


--------------------------------------------------------------------------------------------------------


 INCAR:
 POTCAR:    PAW W                                 

 ----------------------------------------------------------------------------- 
|                                                                             |
|           W    W    AA    RRRRR   N    N  II  N    N   GGGG   !!!           |
|           W    W   A  A   R    R  NN   N  II  NN   N  G    G  !!!           |
|           W    W  A    A  R    R  N N  N  II  N N  N  G       !!!           |
|           W WW W  AAAAAA  RRRRR   N  N N  II  N  N N  G  GGG   !            |
|           WW  WW  A    A  R   R   N   NN  II  N   NN  G    G                |
|           W    W  A    A  R    R  N    N  II  N    N   GGGG   !!!           |
|                                                                             |
|      For optimal performance we recommend to set                            |
|        NCORE= 4 - approx SQRT( number of cores)                             |
|      NCORE specifies how many cores store one orbital (NPAR=cpu/NCORE).     |
|      This setting can  greatly improve the performance of VASP for DFT.     |
|      The default,   NCORE=1            might be grossly inefficient         |
|      on modern multi-core architectures or massively parallel machines.     |
|      Do your own testing !!!!                                               |
|      Unfortunately you need to use the default for GW and RPA calculations. |
|      (for HF NCORE is supported but not extensively tested yet)             |
|                                                                             |
 ----------------------------------------------------------------------------- 

 POTCAR:    PAW W                                 
   VRHFIN =W: 5p6s5d                                                            
   LEXCH  = CA                                                                  
   EATOM  =   206.5370 eV,   15.1800 Ry                                         
                                                                                
   TITEL  = PAW W                                                               
   LULTRA =        F    use ultrasoft PP ?                                      
   IUNSCR =        1    unscreen: 0-lin 1-nonlin 2-no                           
   RPACOR =    2.330    partial core radius                                     
   POMASS =  183.850; ZVAL   =    6.000    mass and valenz                      
   RCORE  =    2.750    outmost cutoff radius                                   
   RWIGS  =    2.750; RWIGS  =    1.455    wigner-seitz radius (au A)           
   ENMAX  =  223.126; ENMIN  =  167.344 eV                                      
   RCLOC  =    2.147    cutoff for local pot                                    
   LCOR   =        T    correct aug charges                                     
   LPAW   =        T    paw PP                                                  
   EAUG   =  373.438                                                            
   DEXC   =    -.048                                                            
   RMAX   =    3.087    core radius for proj-oper                               
   RAUG   =    1.300    factor for augmentation sphere                          
   RDEP   =    2.886    radius for radial grids                                 
   QCUT   =   -4.050; QGAM   =    8.099    optimization parameters              
                                                                                
   Description                                                                  
     l     E      TYP  RCUT    TYP  RCUT                                        
     2   .000     23  2.500                                                     
     2   .000     23  2.500                                                     
     0   .000     23  2.500                                                     
     0   .000     23  2.500                                                     
     1   .200     23  2.750                                                     
     1  2.000     23  2.750                                                     
     3   .000      7   .000                                                     
  local pseudopotential read in
  partial core-charges read in
  atomic valenz-charges read in
  non local Contribution for L=           2  read in
    real space projection operators read in
  non local Contribution for L=           2  read in
    real space projection operators read in
  non local Contribution for L=           0  read in
    real space projection operators read in
  non local Contribution for L=           0  read in
    real space projection operators read in
  non local Contribution for L=           1  read in
    real space projection operators read in
  non local Contribution for L=           1  read in
    real space projection operators read in
    PAW grid and wavefunctions read in
 
   number of l-projection  operators is LMAX  =           6
   number of lm-projection operators is LMMAX =          18
 
  PAW W                                 :
 energy of atom  1       EATOM= -206.5370
 kinetic energy error for atom=    0.0005 (will be added to EATOM!!)
 
 
 POSCAR: BCC W 7-layers                          
  positions in direct lattice
  No initial velocities read in
 exchange correlation table for  LEXCH =        2
   RHO(1)=    0.500       N(1)  =     2000
   RHO(2)=  100.500       N(2)  =     4000
 


--------------------------------------------------------------------------------------------------------


 ion  position               nearest neighbor table
   1  0.000  0.000  0.000-   2 2.74   2 2.74   2 2.74   2 2.74   3 3.16
   2  0.500  0.500  0.083-   1 2.74   1 2.74   1 2.74   1 2.74   3 2.74   3 2.74   3 2.74   3 2.74
                             4 3.16
   3  0.000  0.000  0.167-   4 2.74   4 2.74   4 2.74   4 2.74   2 2.74   2 2.74   2 2.74   2 2.74
                             5 3.16   1 3.16
   4  0.500  0.500  0.250-   3 2.74   5 2.74   3 2.74   5 2.74   3 2.74   5 2.74   3 2.74   5 2.74
                             2 3.16   6 3.16
   5  0.000  0.000  0.333-   4 2.74   4 2.74   4 2.74   4 2.74   6 2.74   6 2.74   6 2.74   6 2.74
                             3 3.16   7 3.16
   6  0.500  0.500  0.417-   7 2.74   7 2.74   7 2.74   7 2.74   5 2.74   5 2.74   5 2.74   5 2.74
                             4 3.16
   7  0.000  0.000  0.500-   6 2.74   6 2.74   6 2.74   6 2.74   5 3.16
 
  LATTYP: Found a simple tetragonal cell.
 ALAT       =     3.1600000000
 C/A-ratio  =     6.0000000000
  
  Lattice vectors:
  
 A1 = (   3.1600000000,   0.0000000000,   0.0000000000)
 A2 = (   0.0000000000,   3.1600000000,   0.0000000000)
 A3 = (   0.0000000000,   0.0000000000,  18.9600000000)


Analysis of symmetry for initial positions (statically):
=====================================================================
 Subroutine PRICEL returns:
 Original cell was already a primitive cell.
 

 Routine SETGRP: Setting up the symmetry group for a 
 simple tetragonal supercell.


 Subroutine GETGRP returns: Found 16 space group operations
 (whereof  8 operations were pure point group operations)
 out of a pool of 16 trial point group operations.


The static configuration has the point symmetry C_4v.
 The point group associated with its full space group is D_4h.


Analysis of symmetry for dynamics (positions and initial velocities):
=====================================================================
 Subroutine PRICEL returns:
 Original cell was already a primitive cell.
 

 Routine SETGRP: Setting up the symmetry group for a 
 simple tetragonal supercell.


 Subroutine GETGRP returns: Found 16 space group operations
 (whereof  8 operations were pure point group operations)
 out of a pool of 16 trial point group operations.


The dynamic configuration has the point symmetry C_4v.
 The point group associated with its full space group is D_4h.


 Subroutine INISYM returns: Found 16 space group operations
 (whereof  8 operations are pure point group operations),
 and found     1 'primitive' translations

 
 
 KPOINTS: K-Path Generated by VASPKIT.            
  interpolating k-points between supplied coordinates
  k-points in reciprocal lattice
Space group operators:
 irot       det(A)        alpha          n_x          n_y          n_z        tau_x        tau_y        tau_z
    1     1.000000     0.000000     1.000000     0.000000     0.000000     0.000000     0.000000     0.000000
    2     1.000000    90.000000     0.000000     0.000000    -1.000000     0.000000     0.000000     0.000000
    3     1.000000   180.000000     0.000000     0.000000     1.000000     0.000000     0.000000     0.000000
    4     1.000000    90.000000     0.000000     0.000000     1.000000     0.000000     0.000000     0.000000
    5    -1.000000   179.999999     0.000000     1.000000     0.000000     0.000000     0.000000     0.000000
    6    -1.000000   180.000000     0.707107     0.707107     0.000000     0.000000     0.000000     0.000000
    7    -1.000000   180.000000     1.000000     0.000000     0.000000     0.000000     0.000000     0.000000
    8    -1.000000   180.000000     0.707107    -0.707107     0.000000     0.000000     0.000000     0.000000
    9    -1.000000     0.000000     1.000000     0.000000     0.000000     0.000000     0.000000     0.500000
   10    -1.000000    90.000000     0.000000     0.000000    -1.000000     0.000000     0.000000     0.500000
   11    -1.000000   180.000000     0.000000     0.000000     1.000000     0.000000     0.000000     0.500000
   12    -1.000000    90.000000     0.000000     0.000000     1.000000     0.000000     0.000000     0.500000
   13     1.000000   179.999999     0.000000     1.000000     0.000000     0.000000     0.000000     0.500000
   14     1.000000   180.000000     0.707107     0.707107     0.000000     0.000000     0.000000     0.500000
   15     1.000000   180.000000     1.000000     0.000000     0.000000     0.000000     0.000000     0.500000
   16     1.000000   180.000000     0.707107    -0.707107     0.000000     0.000000     0.000000     0.500000


--------------------------------------------------------------------------------------------------------




 Dimension of arrays:
   k-points           NKPTS =     60   k-points in BZ     NKDIM =     60   number of bands    NBANDS=     40
   number of dos      NEDOS =    301   number of ions     NIONS =      7
   non local maximal  LDIM  =      6   non local SUM 2l+1 LMDIM =     18
   total plane-waves  NPLWV =  48000
   max r-space proj   IRMAX =      1   max aug-charges    IRDMAX=  14669
   dimension x,y,z NGX =    20 NGY =   20 NGZ =  120
   dimension x,y,z NGXF=    40 NGYF=   40 NGZF=  240
   support grid    NGXF=    40 NGYF=   40 NGZF=  240
   ions per type =               7
   NGX,Y,Z   is equivalent  to a cutoff of  10.52, 10.52, 10.52 a.u.
   NGXF,Y,Z  is equivalent  to a cutoff of  21.04, 21.04, 21.04 a.u.

 SYSTEM =  unknown system                          
 POSCAR =  BCC W 7-layers                          

 Startparameter for this run:
   NWRITE =      2    write-flag & timer
   PREC   = normal    normal or accurate (medium, high low for compatibility)
   ISTART =      0    job   : 0-new  1-cont  2-samecut
   ICHARG =     11    charge: 1-file 2-atom 10-const
   ISPIN  =      1    spin polarized calculation?
   LNONCOLLINEAR =      F non collinear calculations
   LSORBIT =      F    spin-orbit coupling
   INIWAV =      1    electr: 0-lowe 1-rand  2-diag
   LASPH  =      F    aspherical Exc in radial PAW
   METAGGA=      F    non-selfconsistent MetaGGA calc.

 Electronic Relaxation 1
   ENCUT  =  600.0 eV  44.10 Ry    6.64 a.u.   6.31  6.31 37.87*2*pi/ulx,y,z
   ENINI  =  600.0     initial cutoff
   ENAUG  =  373.4 eV  augmentation charge cutoff
   NELM   =     60;   NELMIN=  2; NELMDL= -5     # of ELM steps 
   EDIFF  = 0.1E-05   stopping-criterion for ELM
   LREAL  =      F    real-space projection
   NLSPLINE    = F    spline interpolate recip. space projectors
   LCOMPAT=      F    compatible to vasp.4.4
   GGA_COMPAT  = T    GGA compatible to vasp.4.4-vasp.4.6
   LMAXPAW     = -100 max onsite density
   LMAXMIX     =    2 max onsite mixed and CHGCAR
   VOSKOWN=      0    Vosko Wilk Nusair interpolation
   ROPT   =    0.00000
 Ionic relaxation
   EDIFFG = 0.1E-04   stopping-criterion for IOM
   NSW    =      0    number of steps for IOM
   NBLOCK =      1;   KBLOCK =      1    inner block; outer block 
   IBRION =     -1    ionic relax: 0-MD 1-quasi-New 2-CG
   NFREE  =      0    steps in history (QN), initial steepest desc. (CG)
   ISIF   =      2    stress and relaxation
   IWAVPR =     10    prediction:  0-non 1-charg 2-wave 3-comb
   ISYM   =      2    0-nonsym 1-usesym 2-fastsym
   LCORR  =      T    Harris-Foulkes like correction to forces

   POTIM  = 0.5000    time-step for ionic-motion
   TEIN   =    0.0    initial temperature
   TEBEG  =    0.0;   TEEND  =   0.0 temperature during run
   SMASS  =  -3.00    Nose mass-parameter (am)
   estimated Nose-frequenzy (Omega)   =  0.10E-29 period in steps =****** mass=  -0.228E-27a.u.
   SCALEE = 1.0000    scale energy and forces
   NPACO  =    256;   APACO  = 16.0  distance and # of slots for P.C.
   PSTRESS=    0.0 pullay stress

  Mass of Ions in am
   POMASS = 183.85
  Ionic Valenz
   ZVAL   =   6.00
  Atomic Wigner-Seitz radii
   RWIGS  =  -1.00
  virtual crystal weights 
   VCA    =   1.00
   NELECT =      42.0000    total number of electrons
   NUPDOWN=      -1.0000    fix difference up-down

 DOS related values:
   EMIN   =  10.00;   EMAX   =-10.00  energy-range for DOS
   EFERMI =   0.00
   ISMEAR =     0;   SIGMA  =   0.05  broadening in eV -4-tet -1-fermi 0-gaus

 Electronic relaxation 2 (details)
   IALGO  =     38    algorithm
   LDIAG  =      T    sub-space diagonalisation (order eigenvalues)
   LSUBROT=      F    optimize rotation matrix (better conditioning)
   TURBO    =      0    0=normal 1=particle mesh
   IRESTART =      0    0=no restart 2=restart with 2 vectors
   NREBOOT  =      0    no. of reboots
   NMIN     =      0    reboot dimension
   EREF     =   0.00    reference energy to select bands
   IMIX   =      4    mixing-type and parameters
     AMIX     =   0.40;   BMIX     =  1.00
     AMIX_MAG =   1.60;   BMIX_MAG =  1.00
     AMIN     =   0.10
     WC   =   100.;   INIMIX=   1;  MIXPRE=   1;  MAXMIX= -45

 Intra band minimization:
   WEIMIN = 0.0000     energy-eigenvalue tresh-hold
   EBREAK =  0.62E-08  absolut break condition
   DEPER  =   0.30     relativ break condition  

   TIME   =   0.40     timestep for ELM

  volume/ion in A,a.u.               =      27.05       182.52
  Fermi-wavevector in a.u.,A,eV,Ry     =   0.991031  1.872776 13.362850  0.982142
  Thomas-Fermi vector in A             =   2.122743
 
 Write flags
   LWAVE        =      T    write WAVECAR
   LDOWNSAMPLE  =      F    k-point downsampling of WAVECAR
   LCHARG       =      F    write CHGCAR
   LVTOT        =      F    write LOCPOT, total local potential
   LVHAR        =      F    write LOCPOT, Hartree potential only
   LELF         =      F    write electronic localiz. function (ELF)
   LORBIT       =      0    0 simple, 1 ext, 2 COOP (PROOUT), +10 PAW based schemes


 Dipole corrections
   LMONO  =      F    monopole corrections only (constant potential shift)
   LDIPOL =      F    correct potential (dipole corrections)
   IDIPOL =      0    1-x, 2-y, 3-z, 4-all directions 
   EPSILON=  1.0000000 bulk dielectric constant

 Exchange correlation treatment:
   GGA     =    --    GGA type
   LEXCH   =     2    internal setting for exchange type
   VOSKOWN=      0    Vosko Wilk Nusair interpolation
   LHFCALC =     F    Hartree Fock is set to
   LHFONE  =     F    Hartree Fock one center treatment
   AEXX    =    0.0000 exact exchange contribution

 Linear response parameters
   LEPSILON=     F    determine dielectric tensor
   LRPA    =     F    only Hartree local field effects (RPA)
   LNABLA  =     F    use nabla operator in PAW spheres
   LVEL    =     F    velocity operator in full k-point grid
   LINTERFAST=   F  fast interpolation
   KINTER  =     0    interpolate to denser k-point grid
   CSHIFT  =0.1000    complex shift for real part using Kramers Kronig
   OMEGAMAX=  -1.0    maximum frequency
   DEG_THRESHOLD= 0.2000000E-02 threshold for treating states as degnerate
   RTIME   =   -0.100 relaxation time in fs
  (WPLASMAI=    0.000 imaginary part of plasma frequency in eV, 0.658/RTIME)
   DFIELD  = 0.0000000 0.0000000 0.0000000 field for delta impulse in time
 
 Orbital magnetization related:
   ORBITALMAG=     F  switch on orbital magnetization
   LCHIMAG   =     F  perturbation theory with respect to B field
   DQ        =  0.001000  dq finite difference perturbation B field
   LLRAUG    =     F  two centre corrections for induced B field



--------------------------------------------------------------------------------------------------------


 Static calculation
 charge density and potential remain constant during run
 non-spin polarized calculation
 Variant of blocked Davidson
 Davidson routine will perform the subspace rotation
 perform sub-space diagonalisation
    after iterative eigenvector-optimisation
 no mixing
 using additional bands           19
 reciprocal scheme for non local part
 use partial core corrections
 calculate Harris-corrections to forces 
   (improved forces if not selfconsistent)
 use of overlap-Matrix (Vanderbilt PP)
 Gauss-broadening in eV      SIGMA  =   0.05


--------------------------------------------------------------------------------------------------------


  energy-cutoff  :      600.00
  volume of cell :      189.33
      direct lattice vectors                 reciprocal lattice vectors
     3.160000000  0.000000000  0.000000000     0.316455696  0.000000000  0.000000000
     0.000000000  3.160000000  0.000000000     0.000000000  0.316455696  0.000000000
     0.000000000  0.000000000 18.960000000     0.000000000  0.000000000  0.052742616

  length of vectors
     3.160000000  3.160000000 18.960000000     0.316455696  0.316455696  0.052742616


 
 k-points in units of 2pi/SCALE and weight: K-Path Generated by VASPKIT.            
   0.00000000  0.00000000  0.00000000       0.017
   0.02631579  0.00000000  0.00000000       0.017
   0.05263158  0.00000000  0.00000000       0.017
   0.07894737  0.00000000  0.00000000       0.017
   0.10526316  0.00000000  0.00000000       0.017
   0.13157895  0.00000000  0.00000000       0.017
   0.15789474  0.00000000  0.00000000       0.017
   0.18421053  0.00000000  0.00000000       0.017
   0.21052632  0.00000000  0.00000000       0.017
   0.23684211  0.00000000  0.00000000       0.017
   0.26315789  0.00000000  0.00000000       0.017
   0.28947368  0.00000000  0.00000000       0.017
   0.31578947  0.00000000  0.00000000       0.017
   0.34210526  0.00000000  0.00000000       0.017
   0.36842105  0.00000000  0.00000000       0.017
   0.39473684  0.00000000  0.00000000       0.017
   0.42105263  0.00000000  0.00000000       0.017
   0.44736842  0.00000000  0.00000000       0.017
   0.47368421  0.00000000  0.00000000       0.017
   0.50000000  0.00000000  0.00000000       0.017
   0.50000000  0.00000000  0.00000000       0.017
   0.50000000  0.02631579  0.00000000       0.017
   0.50000000  0.05263158  0.00000000       0.017
   0.50000000  0.07894737  0.00000000       0.017
   0.50000000  0.10526316  0.00000000       0.017
   0.50000000  0.13157895  0.00000000       0.017
   0.50000000  0.15789474  0.00000000       0.017
   0.50000000  0.18421053  0.00000000       0.017
   0.50000000  0.21052632  0.00000000       0.017
   0.50000000  0.23684211  0.00000000       0.017
   0.50000000  0.26315789  0.00000000       0.017
   0.50000000  0.28947368  0.00000000       0.017
   0.50000000  0.31578947  0.00000000       0.017
   0.50000000  0.34210526  0.00000000       0.017
   0.50000000  0.36842105  0.00000000       0.017
   0.50000000  0.39473684  0.00000000       0.017
   0.50000000  0.42105263  0.00000000       0.017
   0.50000000  0.44736842  0.00000000       0.017
   0.50000000  0.47368421  0.00000000       0.017
   0.50000000  0.50000000  0.00000000       0.017
   0.50000000  0.50000000  0.00000000       0.017
   0.47368421  0.47368421  0.00000000       0.017
   0.44736842  0.44736842  0.00000000       0.017
   0.42105263  0.42105263  0.00000000       0.017
   0.39473684  0.39473684  0.00000000       0.017
   0.36842105  0.36842105  0.00000000       0.017
   0.34210526  0.34210526  0.00000000       0.017
   0.31578947  0.31578947  0.00000000       0.017
   0.28947368  0.28947368  0.00000000       0.017
   0.26315789  0.26315789  0.00000000       0.017
   0.23684211  0.23684211  0.00000000       0.017
   0.21052632  0.21052632  0.00000000       0.017
   0.18421053  0.18421053  0.00000000       0.017
   0.15789474  0.15789474  0.00000000       0.017
   0.13157895  0.13157895  0.00000000       0.017
   0.10526316  0.10526316  0.00000000       0.017
   0.07894737  0.07894737  0.00000000       0.017
   0.05263158  0.05263158  0.00000000       0.017
   0.02631579  0.02631579  0.00000000       0.017
   0.00000000  0.00000000  0.00000000       0.017
 
 k-points in reciprocal lattice and weights: K-Path Generated by VASPKIT.            
   0.00000000  0.00000000  0.00000000       0.017
   0.02631579  0.00000000  0.00000000       0.017
   0.05263158  0.00000000  0.00000000       0.017
   0.07894737  0.00000000  0.00000000       0.017
   0.10526316  0.00000000  0.00000000       0.017
   0.13157895  0.00000000  0.00000000       0.017
   0.15789474  0.00000000  0.00000000       0.017
   0.18421053  0.00000000  0.00000000       0.017
   0.21052632  0.00000000  0.00000000       0.017
   0.23684211  0.00000000  0.00000000       0.017
   0.26315789  0.00000000  0.00000000       0.017
   0.28947368  0.00000000  0.00000000       0.017
   0.31578947  0.00000000  0.00000000       0.017
   0.34210526  0.00000000  0.00000000       0.017
   0.36842105  0.00000000  0.00000000       0.017
   0.39473684  0.00000000  0.00000000       0.017
   0.42105263  0.00000000  0.00000000       0.017
   0.44736842  0.00000000  0.00000000       0.017
   0.47368421  0.00000000  0.00000000       0.017
   0.50000000  0.00000000  0.00000000       0.017
   0.50000000  0.00000000  0.00000000       0.017
   0.50000000  0.02631579  0.00000000       0.017
   0.50000000  0.05263158  0.00000000       0.017
   0.50000000  0.07894737  0.00000000       0.017
   0.50000000  0.10526316  0.00000000       0.017
   0.50000000  0.13157895  0.00000000       0.017
   0.50000000  0.15789474  0.00000000       0.017
   0.50000000  0.18421053  0.00000000       0.017
   0.50000000  0.21052632  0.00000000       0.017
   0.50000000  0.23684211  0.00000000       0.017
   0.50000000  0.26315789  0.00000000       0.017
   0.50000000  0.28947368  0.00000000       0.017
   0.50000000  0.31578947  0.00000000       0.017
   0.50000000  0.34210526  0.00000000       0.017
   0.50000000  0.36842105  0.00000000       0.017
   0.50000000  0.39473684  0.00000000       0.017
   0.50000000  0.42105263  0.00000000       0.017
   0.50000000  0.44736842  0.00000000       0.017
   0.50000000  0.47368421  0.00000000       0.017
   0.50000000  0.50000000  0.00000000       0.017
   0.50000000  0.50000000  0.00000000       0.017
   0.47368421  0.47368421  0.00000000       0.017
   0.44736842  0.44736842  0.00000000       0.017
   0.42105263  0.42105263  0.00000000       0.017
   0.39473684  0.39473684  0.00000000       0.017
   0.36842105  0.36842105  0.00000000       0.017
   0.34210526  0.34210526  0.00000000       0.017
   0.31578947  0.31578947  0.00000000       0.017
   0.28947368  0.28947368  0.00000000       0.017
   0.26315789  0.26315789  0.00000000       0.017
   0.23684211  0.23684211  0.00000000       0.017
   0.21052632  0.21052632  0.00000000       0.017
   0.18421053  0.18421053  0.00000000       0.017
   0.15789474  0.15789474  0.00000000       0.017
   0.13157895  0.13157895  0.00000000       0.017
   0.10526316  0.10526316  0.00000000       0.017
   0.07894737  0.07894737  0.00000000       0.017
   0.05263158  0.05263158  0.00000000       0.017
   0.02631579  0.02631579  0.00000000       0.017
   0.00000000  0.00000000  0.00000000       0.017
 
 position of ions in fractional coordinates (direct lattice) 
   0.00000000  0.00000000  0.00000000
   0.50000000  0.50000000  0.08333333
   0.00000000  0.00000000  0.16666667
   0.50000000  0.50000000  0.25000000
   0.00000000  0.00000000  0.33333333
   0.50000000  0.50000000  0.41666667
   0.00000000  0.00000000  0.50000000
 
 position of ions in cartesian coordinates  (Angst):
   0.00000000  0.00000000  0.00000000
   1.58000000  1.58000000  1.58000000
   0.00000000  0.00000000  3.16000000
   1.58000000  1.58000000  4.74000000
   0.00000000  0.00000000  6.32000000
   1.58000000  1.58000000  7.90000000
   0.00000000  0.00000000  9.48000000
 


--------------------------------------------------------------------------------------------------------


 k-point  1 :   0.0000 0.0000 0.0000  plane waves:    6283
 k-point  2 :   0.0263 0.0000 0.0000  plane waves:    6277
 k-point  3 :   0.0526 0.0000 0.0000  plane waves:    6287
 k-point  4 :   0.0789 0.0000 0.0000  plane waves:    6311
 k-point  5 :   0.1053 0.0000 0.0000  plane waves:    6311
 k-point  6 :   0.1316 0.0000 0.0000  plane waves:    6321
 k-point  7 :   0.1579 0.0000 0.0000  plane waves:    6341
 k-point  8 :   0.1842 0.0000 0.0000  plane waves:    6335
 k-point  9 :   0.2105 0.0000 0.0000  plane waves:    6335
 k-point 10 :   0.2368 0.0000 0.0000  plane waves:    6341
 k-point 11 :   0.2632 0.0000 0.0000  plane waves:    6337
 k-point 12 :   0.2895 0.0000 0.0000  plane waves:    6349
 k-point 13 :   0.3158 0.0000 0.0000  plane waves:    6338
 k-point 14 :   0.3421 0.0000 0.0000  plane waves:    6358
 k-point 15 :   0.3684 0.0000 0.0000  plane waves:    6352
 k-point 16 :   0.3947 0.0000 0.0000  plane waves:    6348
 k-point 17 :   0.4211 0.0000 0.0000  plane waves:    6352
 k-point 18 :   0.4474 0.0000 0.0000  plane waves:    6346
 k-point 19 :   0.4737 0.0000 0.0000  plane waves:    6352
 k-point 20 :   0.5000 0.0000 0.0000  plane waves:    6352
 k-point 21 :   0.5000 0.0000 0.0000  plane waves:    6352
 k-point 22 :   0.5000 0.0263 0.0000  plane waves:    6356
 k-point 23 :   0.5000 0.0526 0.0000  plane waves:    6344
 k-point 24 :   0.5000 0.0789 0.0000  plane waves:    6332
 k-point 25 :   0.5000 0.1053 0.0000  plane waves:    6334
 k-point 26 :   0.5000 0.1316 0.0000  plane waves:    6320
 k-point 27 :   0.5000 0.1579 0.0000  plane waves:    6336
 k-point 28 :   0.5000 0.1842 0.0000  plane waves:    6336
 k-point 29 :   0.5000 0.2105 0.0000  plane waves:    6326
 k-point 30 :   0.5000 0.2368 0.0000  plane waves:    6314
 k-point 31 :   0.5000 0.2632 0.0000  plane waves:    6296
 k-point 32 :   0.5000 0.2895 0.0000  plane waves:    6292
 k-point 33 :   0.5000 0.3158 0.0000  plane waves:    6302
 k-point 34 :   0.5000 0.3421 0.0000  plane waves:    6294
 k-point 35 :   0.5000 0.3684 0.0000  plane waves:    6290
 k-point 36 :   0.5000 0.3947 0.0000  plane waves:    6306
 k-point 37 :   0.5000 0.4211 0.0000  plane waves:    6298
 k-point 38 :   0.5000 0.4474 0.0000  plane waves:    6280
 k-point 39 :   0.5000 0.4737 0.0000  plane waves:    6296
 k-point 40 :   0.5000 0.5000 0.0000  plane waves:    6280
 k-point 41 :   0.5000 0.5000 0.0000  plane waves:    6280
 k-point 42 :   0.4737 0.4737 0.0000  plane waves:    6292
 k-point 43 :   0.4474 0.4474 0.0000  plane waves:    6299
 k-point 44 :   0.4211 0.4211 0.0000  plane waves:    6281
 k-point 45 :   0.3947 0.3947 0.0000  plane waves:    6279
 k-point 46 :   0.3684 0.3684 0.0000  plane waves:    6281
 k-point 47 :   0.3421 0.3421 0.0000  plane waves:    6297
 k-point 48 :   0.3158 0.3158 0.0000  plane waves:    6291
 k-point 49 :   0.2895 0.2895 0.0000  plane waves:    6299
 k-point 50 :   0.2632 0.2632 0.0000  plane waves:    6295
 k-point 51 :   0.2368 0.2368 0.0000  plane waves:    6321
 k-point 52 :   0.2105 0.2105 0.0000  plane waves:    6327
 k-point 53 :   0.1842 0.1842 0.0000  plane waves:    6319
 k-point 54 :   0.1579 0.1579 0.0000  plane waves:    6343
 k-point 55 :   0.1316 0.1316 0.0000  plane waves:    6331
 k-point 56 :   0.1053 0.1053 0.0000  plane waves:    6323
 k-point 57 :   0.0789 0.0789 0.0000  plane waves:    6321
 k-point 58 :   0.0526 0.0526 0.0000  plane waves:    6301
 k-point 59 :   0.0263 0.0263 0.0000  plane waves:    6291
 k-point 60 :   0.0000 0.0000 0.0000  plane waves:    6283

 maximum and minimum number of plane-waves per node :      6358     6277

 maximum number of plane-waves:      6358
 maximum index in each direction: 
   IXMAX=    6   IYMAX=    6   IZMAX=   37
   IXMIN=   -6   IYMIN=   -6   IZMIN=  -37


 serial   3D FFT for wavefunctions
 parallel 3D FFT for charge:
    minimum data exchange during FFTs selected (reduces bandwidth)


 total amount of memory used by VASP MPI-rank0    95393. kBytes
=======================================================================

   base      :      30000. kBytes
   nonl-proj :      55662. kBytes
   fftplans  :       1060. kBytes
   grid      :       2304. kBytes
   one-center:        108. kBytes
   wavefun   :       6259. kBytes
 
     INWAV:  cpu time    0.0000: real time    0.0000
 initial charge density was supplied:
 number of electron      42.0000002 magnetization 
 keeping initial charge density in first step


--------------------------------------------------------------------------------------------------------


 Maximum index for augmentation-charges          697 (set IRDMAX)


--------------------------------------------------------------------------------------------------------


 First call to EWALD:  gamma=   0.309
 Maximum number of real-space cells 5x 5x 1
 Maximum number of reciprocal cells 2x 2x 8

    FEWALD:  cpu time    0.0019: real time    0.0034


--------------------------------------- Iteration      1(   1)  ---------------------------------------


    POTLOK:  cpu time    0.0097: real time    0.0170
    SETDIJ:  cpu time    0.0065: real time    0.0095
     EDDAV:  cpu time    1.4852: real time    1.5099
       DOS:  cpu time    0.0018: real time    0.0051
    --------------------------------------------
      LOOP:  cpu time    1.5033: real time    1.5416

 eigenvalue-minimisations  :  4800
 total energy-change (2. order) : 0.1065348E+03  (-0.1973983E+04)
 number of electron      42.0000002 magnetization 
 augmentation part       42.0000002 magnetization 

 Free energy of the ion-electron system (eV)
  ---------------------------------------------------
  alpha Z        PSCENC =       180.65856384
  Ewald energy   TEWEN  =      2440.32004124
  -Hartree energ DENC   =     -4215.02958370
  -exchange      EXHF   =         0.00000000
  -V(xc)+E(xc)   XCENC  =      -330.05718967
  PAW double counting   =      1595.62977921    -1201.20135080
  entropy T*S    EENTRO =        -0.00290920
  eigenvalues    EBANDS =       190.46220560
  atomic energy  EATOM  =      1445.75525229
  Solvation  Ediel_sol  =         0.00000000
  ---------------------------------------------------
  free energy    TOTEN  =       106.53480881 eV

  energy without entropy =      106.53771801  energy(sigma->0) =      106.53626341


--------------------------------------------------------------------------------------------------------




--------------------------------------- Iteration      1(   2)  ---------------------------------------


     EDDAV:  cpu time    3.1862: real time    3.1994
       DOS:  cpu time    0.0008: real time    0.0008
    --------------------------------------------
      LOOP:  cpu time    3.1870: real time    3.2002

 eigenvalue-minimisations  :  9200
 total energy-change (2. order) :-0.1962884E+03  (-0.1944304E+03)
 number of electron      42.0000002 magnetization 
 augmentation part       42.0000002 magnetization 

 Free energy of the ion-electron system (eV)
  ---------------------------------------------------
  alpha Z        PSCENC =       180.65856384
  Ewald energy   TEWEN  =      2440.32004124
  -Hartree energ DENC   =     -4215.02958370
  -exchange      EXHF   =         0.00000000
  -V(xc)+E(xc)   XCENC  =      -330.05718967
  PAW double counting   =      1595.62977921    -1201.20135080
  entropy T*S    EENTRO =        -0.00783636
  eigenvalues    EBANDS =        -5.82123503
  atomic energy  EATOM  =      1445.75525229
  Solvation  Ediel_sol  =         0.00000000
  ---------------------------------------------------
  free energy    TOTEN  =       -89.75355898 eV

  energy without entropy =      -89.74572262  energy(sigma->0) =      -89.74964080


--------------------------------------------------------------------------------------------------------




--------------------------------------- Iteration      1(   3)  ---------------------------------------


     EDDAV:  cpu time    1.4799: real time    1.4870
       DOS:  cpu time    0.0008: real time    0.0007
    --------------------------------------------
      LOOP:  cpu time    1.4807: real time    1.4878

 eigenvalue-minimisations  :  4800
 total energy-change (2. order) :-0.2862622E+01  (-0.2847123E+01)
 number of electron      42.0000002 magnetization 
 augmentation part       42.0000002 magnetization 

 Free energy of the ion-electron system (eV)
  ---------------------------------------------------
  alpha Z        PSCENC =       180.65856384
  Ewald energy   TEWEN  =      2440.32004124
  -Hartree energ DENC   =     -4215.02958370
  -exchange      EXHF   =         0.00000000
  -V(xc)+E(xc)   XCENC  =      -330.05718967
  PAW double counting   =      1595.62977921    -1201.20135080
  entropy T*S    EENTRO =        -0.00745528
  eigenvalues    EBANDS =        -8.68423837
  atomic energy  EATOM  =      1445.75525229
  Solvation  Ediel_sol  =         0.00000000
  ---------------------------------------------------
  free energy    TOTEN  =       -92.61618123 eV

  energy without entropy =      -92.60872596  energy(sigma->0) =      -92.61245359


--------------------------------------------------------------------------------------------------------




--------------------------------------- Iteration      1(   4)  ---------------------------------------


     EDDAV:  cpu time    3.3010: real time    3.3166
       DOS:  cpu time    0.0008: real time    0.0008
    --------------------------------------------
      LOOP:  cpu time    3.3018: real time    3.3174

 eigenvalue-minimisations  :  9440
 total energy-change (2. order) :-0.4015014E-01  (-0.3995457E-01)
 number of electron      42.0000002 magnetization 
 augmentation part       42.0000002 magnetization 

 Free energy of the ion-electron system (eV)
  ---------------------------------------------------
  alpha Z        PSCENC =       180.65856384
  Ewald energy   TEWEN  =      2440.32004124
  -Hartree energ DENC   =     -4215.02958370
  -exchange      EXHF   =         0.00000000
  -V(xc)+E(xc)   XCENC  =      -330.05718967
  PAW double counting   =      1595.62977921    -1201.20135080
  entropy T*S    EENTRO =        -0.00707732
  eigenvalues    EBANDS =        -8.72476647
  atomic energy  EATOM  =      1445.75525229
  Solvation  Ediel_sol  =         0.00000000
  ---------------------------------------------------
  free energy    TOTEN  =       -92.65633137 eV

  energy without entropy =      -92.64925406  energy(sigma->0) =      -92.65279272


--------------------------------------------------------------------------------------------------------




--------------------------------------- Iteration      1(   5)  ---------------------------------------


     EDDAV:  cpu time    1.6059: real time    1.6110
       DOS:  cpu time    0.0008: real time    0.0008
    --------------------------------------------
      LOOP:  cpu time    1.6067: real time    1.6118

 eigenvalue-minimisations  :  4920
 total energy-change (2. order) :-0.2168566E-04  (-0.2168551E-04)
 number of electron      42.0000002 magnetization 
 augmentation part       42.0000002 magnetization 

 Free energy of the ion-electron system (eV)
  ---------------------------------------------------
  alpha Z        PSCENC =       180.65856384
  Ewald energy   TEWEN  =      2440.32004124
  -Hartree energ DENC   =     -4215.02958370
  -exchange      EXHF   =         0.00000000
  -V(xc)+E(xc)   XCENC  =      -330.05718967
  PAW double counting   =      1595.62977921    -1201.20135080
  entropy T*S    EENTRO =        -0.00707675
  eigenvalues    EBANDS =        -8.72478872
  atomic energy  EATOM  =      1445.75525229
  Solvation  Ediel_sol  =         0.00000000
  ---------------------------------------------------
  free energy    TOTEN  =       -92.65635306 eV

  energy without entropy =      -92.64927631  energy(sigma->0) =      -92.65281469


--------------------------------------------------------------------------------------------------------




--------------------------------------- Iteration      1(   6)  ---------------------------------------


     EDDAV:  cpu time    3.4076: real time    3.4880
       DOS:  cpu time    0.0008: real time    0.0008
    --------------------------------------------
      LOOP:  cpu time    3.4084: real time    3.4888

 eigenvalue-minimisations  :  9440
 total energy-change (2. order) :-0.1609951E-06  (-0.1613833E-06)
 number of electron      42.0000002 magnetization 
 augmentation part       42.0000002 magnetization 

 Free energy of the ion-electron system (eV)
  ---------------------------------------------------
  alpha Z        PSCENC =       180.65856384
  Ewald energy   TEWEN  =      2440.32004124
  -Hartree energ DENC   =     -4215.02958370
  -exchange      EXHF   =         0.00000000
  -V(xc)+E(xc)   XCENC  =      -330.05718967
  PAW double counting   =      1595.62977921    -1201.20135080
  entropy T*S    EENTRO =        -0.00707674
  eigenvalues    EBANDS =        -8.72478889
  atomic energy  EATOM  =      1445.75525229
  Solvation  Ediel_sol  =         0.00000000
  ---------------------------------------------------
  free energy    TOTEN  =       -92.65635322 eV

  energy without entropy =      -92.64927648  energy(sigma->0) =      -92.65281485


--------------------------------------------------------------------------------------------------------




 average (electrostatic) potential at core
  the test charge radii are     1.1823
  (the norm of the test charge is              1.0000)
       1 -43.1512       2 -43.0849       3 -43.2416       4 -43.0789       5 -43.2416
       6 -43.0849       7 -43.1512
 
 
 
 E-fermi :   2.8060     XC(G=0):  -9.0304     alpha+bet : -8.6250


 k-point     1 :       0.0000    0.0000    0.0000
  band No.  band energies     occupation 
      1      -6.2949      2.00000
      2      -5.1538      2.00000
      3      -3.6053      2.00000
      4      -2.7736      2.00000
      5      -2.6518      2.00000
      6      -2.2390      2.00000
      7      -2.0687      2.00000
      8      -1.6895      2.00000
      9      -1.3262      2.00000
     10      -0.9650      2.00000
     11       0.3349      2.00000
     12       1.5427      2.00000
     13       1.5427      2.00000
     14       1.6807      2.00000
     15       1.6807      2.00000
     16       1.7701      2.00000
     17       1.8772      2.00000
     18       2.1102      2.00000
     19       2.1102      2.00000
     20       2.4062      2.00000
     21       2.4382      2.00000
     22       2.5154      2.00000
     23       2.7723      1.65921
     24       2.7723      1.65921
     25       3.3904      0.00000
     26       3.4009      0.00000
     27       3.8856      0.00000
     28       3.8856      0.00000
     29       4.4948      0.00000
     30       4.5909      0.00000
     31       5.2999      0.00000
     32       5.4241      0.00000
     33       5.4241      0.00000
     34       5.7744      0.00000
     35       5.8963      0.00000
     36       6.3064      0.00000
     37       6.7120      0.00000
     38       6.7175      0.00000
     39       6.9139      0.00000
     40       7.1028      0.00000

 k-point     2 :       0.0263    0.0000    0.0000
  band No.  band energies     occupation 
      1      -6.2790      2.00000
      2      -5.1403      2.00000
      3      -3.5962      2.00000
      4      -2.7618      2.00000
      5      -2.6415      2.00000
      6      -2.2339      2.00000
      7      -2.0591      2.00000
      8      -1.6799      2.00000
      9      -1.3202      2.00000
     10      -0.9599      2.00000
     11       0.3275      2.00000
     12       1.5240      2.00000
     13       1.5351      2.00000
     14       1.5875      2.00000
     15       1.5986      2.00000
     16       1.8269      2.00000
     17       1.9751      2.00000
     18       2.0386      2.00000
     19       2.1252      2.00000
     20       2.4011      2.00000
     21       2.4832      2.00000
     22       2.5137      2.00000
     23       2.7150      1.98997
     24       2.8278      0.53823
     25       3.4106      0.00000
     26       3.4592      0.00000
     27       3.8006      0.00000
     28       3.8895      0.00000
     29       4.5875      0.00000
     30       4.5953      0.00000
     31       5.2851      0.00000
     32       5.2977      0.00000
     33       5.3730      0.00000
     34       5.8864      0.00000
     35       5.9043      0.00000
     36       6.3054      0.00000
     37       6.7333      0.00000
     38       6.7370      0.00000
     39       6.7898      0.00000
     40       7.0239      0.00000

 k-point     3 :       0.0526    0.0000    0.0000
  band No.  band energies     occupation 
      1      -6.2314      2.00000
      2      -5.1001      2.00000
      3      -3.5694      2.00000
      4      -2.7276      2.00000
      5      -2.6100      2.00000
      6      -2.2212      2.00000
      7      -2.0294      2.00000
      8      -1.6507      2.00000
      9      -1.3076      2.00000
     10      -0.9392      2.00000
     11       0.3097      2.00000
     12       1.4473      2.00000
     13       1.4616      2.00000
     14       1.4697      2.00000
     15       1.5134      2.00000
     16       1.8705      2.00000
     17       1.9255      2.00000
     18       2.1194      2.00000
     19       2.1606      2.00000
     20       2.3413      2.00000
     21       2.5148      2.00000
     22       2.6076      2.00000
     23       2.6117      2.00000
     24       2.9526      0.00003
     25       3.4388      0.00000
     26       3.6046      0.00000
     27       3.6387      0.00000
     28       3.9032      0.00000
     29       4.6040      0.00000
     30       4.7755      0.00000
     31       5.0977      0.00000
     32       5.2354      0.00000
     33       5.2466      0.00000
     34       5.8572      0.00000
     35       6.1148      0.00000
     36       6.3022      0.00000
     37       6.6193      0.00000
     38       6.7725      0.00000
     39       6.7895      0.00000
     40       6.8367      0.00000

 k-point     4 :       0.0789    0.0000    0.0000
  band No.  band energies     occupation 
      1      -6.1526      2.00000
      2      -5.0338      2.00000
      3      -3.5266      2.00000
      4      -2.6746      2.00000
      5      -2.5549      2.00000
      6      -2.2073      2.00000
      7      -1.9793      2.00000
      8      -1.6012      2.00000
      9      -1.3028      2.00000
     10      -0.8881      2.00000
     11       0.2930      2.00000
     12       1.3174      2.00000
     13       1.3277      2.00000
     14       1.3484      2.00000
     15       1.4800      2.00000
     16       1.8370      2.00000
     17       1.8467      2.00000
     18       2.1699      2.00000
     19       2.1882      2.00000
     20       2.3808      2.00000
     21       2.5304      2.00000
     22       2.5400      2.00000
     23       2.7068      1.99500
     24       3.1066      0.00000
     25       3.4827      0.00000
     26       3.5019      0.00000
     27       3.7481      0.00000
     28       3.9313      0.00000
     29       4.6005      0.00000
     30       4.9270      0.00000
     31       4.9678      0.00000
     32       5.0568      0.00000
     33       5.1905      0.00000
     34       5.8099      0.00000
     35       6.2964      0.00000
     36       6.3024      0.00000
     37       6.4819      0.00000
     38       6.5190      0.00000
     39       6.8685      0.00000
     40       6.8927      0.00000

 k-point     5 :       0.1053    0.0000    0.0000
  band No.  band energies     occupation 
      1      -6.0433      2.00000
      2      -4.9429      2.00000
      3      -3.4705      2.00000
      4      -2.6076      2.00000
      5      -2.4735      2.00000
      6      -2.1990      2.00000
      7      -1.9120      2.00000
      8      -1.5293      2.00000
      9      -1.3180      2.00000
     10      -0.7937      2.00000
     11       0.2924      2.00000
     12       1.1775      2.00000
     13       1.1961      2.00000
     14       1.2085      2.00000
     15       1.4383      2.00000
     16       1.7502      2.00000
     17       1.7709      2.00000
     18       2.1179      2.00000
     19       2.1780      2.00000
     20       2.5050      2.00000
     21       2.5312      2.00000
     22       2.6129      2.00000
     23       2.7207      1.98421
     24       3.2720      0.00000
     25       3.4496      0.00000
     26       3.5377      0.00000
     27       3.8353      0.00000
     28       3.9782      0.00000
     29       4.5512      0.00000
     30       4.8300      0.00000
     31       4.8714      0.00000
     32       5.1185      0.00000
     33       5.1508      0.00000
     34       5.7469      0.00000
     35       6.1951      0.00000
     36       6.2880      0.00000
     37       6.4125      0.00000
     38       6.4199      0.00000
     39       6.9641      0.00000
     40       7.0051      0.00000

 k-point     6 :       0.1316    0.0000    0.0000
  band No.  band energies     occupation 
      1      -5.9046      2.00000
      2      -4.8291      2.00000
      3      -3.4049      2.00000
      4      -2.5300      2.00000
      5      -2.3658      2.00000
      6      -2.2009      2.00000
      7      -1.8356      2.00000
      8      -1.4316      2.00000
      9      -1.3538      2.00000
     10      -0.6543      2.00000
     11       0.3224      2.00000
     12       1.0212      2.00000
     13       1.0252      2.00000
     14       1.1267      2.00000
     15       1.3920      2.00000
     16       1.6116      2.00000
     17       1.7046      2.00000
     18       2.0578      2.00000
     19       2.1322      2.00000
     20       2.5028      2.00000
     21       2.6578      1.99997
     22       2.6987      1.99761
     23       2.7287      1.97120
     24       3.4332      0.00000
     25       3.4825      0.00000
     26       3.5981      0.00000
     27       3.8382      0.00000
     28       4.0447      0.00000
     29       4.4366      0.00000
     30       4.7000      0.00000
     31       4.8275      0.00000
     32       5.1575      0.00000
     33       5.2034      0.00000
     34       5.6728      0.00000
     35       5.8583      0.00000
     36       6.2777      0.00000
     37       6.4363      0.00000
     38       6.4417      0.00000
     39       7.0751      0.00000
     40       7.1326      0.00000

 k-point     7 :       0.1579    0.0000    0.0000
  band No.  band energies     occupation 
      1      -5.7381      2.00000
      2      -4.6949      2.00000
      3      -3.3346      2.00000
      4      -2.4431      2.00000
      5      -2.2353      2.00000
      6      -2.2164      2.00000
      7      -1.7599      2.00000
      8      -1.4029      2.00000
      9      -1.3045      2.00000
     10      -0.4749      2.00000
     11       0.3946      2.00000
     12       0.8492      2.00000
     13       0.8607      2.00000
     14       1.0765      2.00000
     15       1.3451      2.00000
     16       1.4607      2.00000
     17       1.6199      2.00000
     18       2.0037      2.00000
     19       2.0702      2.00000
     20       2.4905      2.00000
     21       2.5718      2.00000
     22       2.8670      0.08476
     23       2.8686      0.07690
     24       3.5483      0.00000
     25       3.5640      0.00000
     26       3.6591      0.00000
     27       3.7811      0.00000
     28       4.1253      0.00000
     29       4.3056      0.00000
     30       4.5287      0.00000
     31       4.8859      0.00000
     32       5.2137      0.00000
     33       5.2347      0.00000
     34       5.5255      0.00000
     35       5.5958      0.00000
     36       6.2670      0.00000
     37       6.4040      0.00000
     38       6.5450      0.00000
     39       7.2013      0.00000
     40       7.2665      0.00000

 k-point     8 :       0.1842    0.0000    0.0000
  band No.  band energies     occupation 
      1      -5.5454      2.00000
      2      -4.5433      2.00000
      3      -3.2650      2.00000
      4      -2.3482      2.00000
      5      -2.2467      2.00000
      6      -2.0874      2.00000
      7      -1.6916      2.00000
      8      -1.4569      2.00000
      9      -1.1481      2.00000
     10      -0.2617      2.00000
     11       0.5152      2.00000
     12       0.6756      2.00000
     13       0.6983      2.00000
     14       1.0612      2.00000
     15       1.3014      2.00000
     16       1.3133      2.00000
     17       1.5093      2.00000
     18       1.9555      2.00000
     19       2.0077      2.00000
     20       2.4490      2.00000
     21       2.4986      2.00000
     22       3.0183      0.00000
     23       3.0307      0.00000
     24       3.6072      0.00000
     25       3.6226      0.00000
     26       3.7071      0.00000
     27       3.7178      0.00000
     28       4.2071      0.00000
     29       4.2105      0.00000
     30       4.3756      0.00000
     31       4.9482      0.00000
     32       5.2113      0.00000
     33       5.2510      0.00000
     34       5.3019      0.00000
     35       5.5256      0.00000
     36       6.2582      0.00000
     37       6.3740      0.00000
     38       6.7007      0.00000
     39       7.3418      0.00000
     40       7.4001      0.00000

 k-point     9 :       0.2105    0.0000    0.0000
  band No.  band energies     occupation 
      1      -5.3288      2.00000
      2      -4.3781      2.00000
      3      -3.2015      2.00000
      4      -2.2911      2.00000
      5      -2.2484      2.00000
      6      -1.9283      2.00000
      7      -1.6320      2.00000
      8      -1.5061      2.00000
      9      -0.9668      2.00000
     10      -0.0204      2.00000
     11       0.5087      2.00000
     12       0.5369      2.00000
     13       0.6843      2.00000
     14       1.0838      2.00000
     15       1.1762      2.00000
     16       1.2658      2.00000
     17       1.3763      2.00000
     18       1.9093      2.00000
     19       1.9553      2.00000
     20       2.3737      2.00000
     21       2.4446      2.00000
     22       3.1661      0.00000
     23       3.1781      0.00000
     24       3.6047      0.00000
     25       3.6362      0.00000
     26       3.6457      0.00000
     27       3.7722      0.00000
     28       4.0622      0.00000
     29       4.2720      0.00000
     30       4.3662      0.00000
     31       4.9273      0.00000
     32       4.9820      0.00000
     33       5.2834      0.00000
     34       5.4077      0.00000
     35       5.4793      0.00000
     36       6.2550      0.00000
     37       6.3952      0.00000
     38       6.8647      0.00000
     39       7.4943      0.00000
     40       7.5277      0.00000

 k-point    10 :       0.2368    0.0000    0.0000
  band No.  band energies     occupation 
      1      -5.0907      2.00000
      2      -4.2039      2.00000
      3      -3.1493      2.00000
      4      -2.3467      2.00000
      5      -2.1510      2.00000
      6      -1.7653      2.00000
      7      -1.5799      2.00000
      8      -1.5391      2.00000
      9      -0.7683      2.00000
     10       0.2428      2.00000
     11       0.3511      2.00000
     12       0.3795      2.00000
     13       0.8935      2.00000
     14       1.0520      2.00000
     15       1.1455      2.00000
     16       1.2306      2.00000
     17       1.2467      2.00000
     18       1.8592      2.00000
     19       1.9205      2.00000
     20       2.2715      2.00000
     21       2.4018      2.00000
     22       3.2755      0.00000
     23       3.2961      0.00000
     24       3.5662      0.00000
     25       3.5878      0.00000
     26       3.6680      0.00000
     27       3.8219      0.00000
     28       3.8724      0.00000
     29       4.3025      0.00000
     30       4.4601      0.00000
     31       4.6891      0.00000
     32       4.9895      0.00000
     33       5.3416      0.00000
     34       5.4729      0.00000
     35       5.5218      0.00000
     36       6.2614      0.00000
     37       6.4738      0.00000
     38       7.0057      0.00000
     39       7.6441      0.00000
     40       7.6539      0.00000

 k-point    11 :       0.2632    0.0000    0.0000
  band No.  band energies     occupation 
      1      -4.8343      2.00000
      2      -4.0260      2.00000
      3      -3.1118      2.00000
      4      -2.4090      2.00000
      5      -2.0686      2.00000
      6      -1.6109      2.00000
      7      -1.5356      2.00000
      8      -1.5339      2.00000
      9      -0.5610      2.00000
     10       0.2047      2.00000
     11       0.2294      2.00000
     12       0.5205      2.00000
     13       0.9409      2.00000
     14       1.0823      2.00000
     15       1.0963      2.00000
     16       1.2460      2.00000
     17       1.2865      2.00000
     18       1.7992      2.00000
     19       1.9082      2.00000
     20       2.1541      2.00000
     21       2.3598      2.00000
     22       3.2985      0.00000
     23       3.3807      0.00000
     24       3.4871      0.00000
     25       3.5395      0.00000
     26       3.6873      0.00000
     27       3.7988      0.00000
     28       3.8752      0.00000
     29       4.2873      0.00000
     30       4.5201      0.00000
     31       4.5673      0.00000
     32       4.9923      0.00000
     33       5.4199      0.00000
     34       5.5133      0.00000
     35       5.6384      0.00000
     36       6.2806      0.00000
     37       6.5922      0.00000
     38       7.1000      0.00000
     39       7.7426      0.00000
     40       7.8049      0.00000

 k-point    12 :       0.2895    0.0000    0.0000
  band No.  band energies     occupation 
      1      -4.5631      2.00000
      2      -3.8505      2.00000
      3      -3.0904      2.00000
      4      -2.4729      2.00000
      5      -2.0162      2.00000
      6      -1.5245      2.00000
      7      -1.4929      2.00000
      8      -1.4293      2.00000
      9      -0.3529      2.00000
     10       0.0709      2.00000
     11       0.0894      2.00000
     12       0.8031      2.00000
     13       0.8429      2.00000
     14       0.9389      2.00000
     15       1.1650      2.00000
     16       1.3815      2.00000
     17       1.5017      2.00000
     18       1.7251      2.00000
     19       1.9235      2.00000
     20       2.0326      2.00000
     21       2.3113      2.00000
     22       3.3027      0.00000
     23       3.3658      0.00000
     24       3.3920      0.00000
     25       3.3924      0.00000
     26       3.7167      0.00000
     27       3.9208      0.00000
     28       3.9466      0.00000
     29       4.2154      0.00000
     30       4.4544      0.00000
     31       4.6574      0.00000
     32       5.0093      0.00000
     33       5.5057      0.00000
     34       5.5917      0.00000
     35       5.7538      0.00000
     36       6.3132      0.00000
     37       6.7280      0.00000
     38       7.1378      0.00000
     39       7.8145      0.00000
     40       7.8548      0.00000

 k-point    13 :       0.3158    0.0000    0.0000
  band No.  band energies     occupation 
      1      -4.2813      2.00000
      2      -3.6845      2.00000
      3      -3.0838      2.00000
      4      -2.5330      2.00000
      5      -1.9971      2.00000
      6      -1.4562      2.00000
      7      -1.4545      2.00000
      8      -1.2779      2.00000
      9      -0.1514      2.00000
     10      -0.0494      2.00000
     11      -0.0384      2.00000
     12       0.7574      2.00000
     13       0.8056      2.00000
     14       1.0782      2.00000
     15       1.1835      2.00000
     16       1.5265      2.00000
     17       1.6526      2.00000
     18       1.7680      2.00000
     19       1.9156      2.00000
     20       1.9935      2.00000
     21       2.2545      2.00000
     22       3.1776      0.00000
     23       3.2839      0.00000
     24       3.3435      0.00000
     25       3.3453      0.00000
     26       3.7638      0.00000
     27       4.0041      0.00000
     28       4.0915      0.00000
     29       4.1392      0.00000
     30       4.4786      0.00000
     31       4.7205      0.00000
     32       5.0474      0.00000
     33       5.5852      0.00000
     34       5.6911      0.00000
     35       5.8656      0.00000
     36       6.3547      0.00000
     37       6.8636      0.00000
     38       7.1306      0.00000
     39       7.6319      0.00000
     40       7.8475      0.00000

 k-point    14 :       0.3421    0.0000    0.0000
  band No.  band energies     occupation 
      1      -3.9941      2.00000
      2      -3.5353      2.00000
      3      -3.0887      2.00000
      4      -2.5845      2.00000
      5      -2.0011      2.00000
      6      -1.4228      2.00000
      7      -1.3850      2.00000
      8      -1.1171      2.00000
      9      -0.1552      2.00000
     10      -0.1520      2.00000
     11       0.0388      2.00000
     12       0.6839      2.00000
     13       0.6858      2.00000
     14       1.1977      2.00000
     15       1.3250      2.00000
     16       1.4885      2.00000
     17       1.7666      2.00000
     18       1.8090      2.00000
     19       1.9065      2.00000
     20       2.1919      2.00000
     21       2.2281      2.00000
     22       3.0305      0.00000
     23       3.1685      0.00000
     24       3.2799      0.00000
     25       3.4221      0.00000
     26       3.8299      0.00000
     27       3.9369      0.00000
     28       4.1829      0.00000
     29       4.2725      0.00000
     30       4.5549      0.00000
     31       4.7586      0.00000
     32       5.1039      0.00000
     33       5.6455      0.00000
     34       5.7962      0.00000
     35       5.9710      0.00000
     36       6.3956      0.00000
     37       6.9867      0.00000
     38       7.1014      0.00000
     39       7.3430      0.00000
     40       7.8257      0.00000

 k-point    15 :       0.3684    0.0000    0.0000
  band No.  band energies     occupation 
      1      -3.7084      2.00000
      2      -3.4103      2.00000
      3      -3.0994      2.00000
      4      -2.6229      2.00000
      5      -2.0188      2.00000
      6      -1.3921      2.00000
      7      -1.3403      2.00000
      8      -0.9399      2.00000
      9      -0.2501      2.00000
     10      -0.2458      2.00000
     11       0.2149      2.00000
     12       0.5819      2.00000
     13       0.6220      2.00000
     14       1.2056      2.00000
     15       1.3119      2.00000
     16       1.5804      2.00000
     17       1.7164      2.00000
     18       1.9510      2.00000
     19       1.9613      2.00000
     20       2.1282      2.00000
     21       2.5547      2.00000
     22       2.9377      0.00020
     23       3.0550      0.00000
     24       3.2327      0.00000
     25       3.5391      0.00000
     26       3.8418      0.00000
     27       3.9114      0.00000
     28       4.2557      0.00000
     29       4.4471      0.00000
     30       4.6605      0.00000
     31       4.7857      0.00000
     32       5.1715      0.00000
     33       5.6774      0.00000
     34       5.8980      0.00000
     35       6.0669      0.00000
     36       6.4244      0.00000
     37       7.0710      0.00000
     38       7.0861      0.00000
     39       7.0895      0.00000
     40       7.7299      0.00000

 k-point    16 :       0.3947    0.0000    0.0000
  band No.  band energies     occupation 
      1      -3.4368      2.00000
      2      -3.3151      2.00000
      3      -3.1059      2.00000
      4      -2.6454      2.00000
      5      -2.0469      2.00000
      6      -1.3638      2.00000
      7      -1.3301      2.00000
      8      -0.7442      2.00000
      9      -0.3317      2.00000
     10      -0.3207      2.00000
     11       0.3767      2.00000
     12       0.4953      2.00000
     13       0.5715      2.00000
     14       1.1320      2.00000
     15       1.1988      2.00000
     16       1.6398      2.00000
     17       1.7708      2.00000
     18       1.9988      2.00000
     19       2.0686      2.00000
     20       2.1076      2.00000
     21       2.8771      0.04431
     22       2.9133      0.00242
     23       2.9514      0.00004
     24       3.2100      0.00000
     25       3.6875      0.00000
     26       3.7826      0.00000
     27       4.0016      0.00000
     28       4.3156      0.00000
     29       4.5824      0.00000
     30       4.7727      0.00000
     31       4.8384      0.00000
     32       5.2420      0.00000
     33       5.6775      0.00000
     34       5.9950      0.00000
     35       6.1513      0.00000
     36       6.4305      0.00000
     37       6.8784      0.00000
     38       7.0517      0.00000
     39       7.1681      0.00000
     40       7.5402      0.00000

 k-point    17 :       0.4211    0.0000    0.0000
  band No.  band energies     occupation 
      1      -3.2509      2.00000
      2      -3.2346      2.00000
      3      -3.0572      2.00000
      4      -2.6525      2.00000
      5      -2.0872      2.00000
      6      -1.3498      2.00000
      7      -1.3385      2.00000
      8      -0.5327      2.00000
      9      -0.3959      2.00000
     10      -0.3794      2.00000
     11       0.4272      2.00000
     12       0.5242      2.00000
     13       0.5322      2.00000
     14       0.9223      2.00000
     15       1.1706      2.00000
     16       1.5803      2.00000
     17       1.9280      2.00000
     18       2.0178      2.00000
     19       2.0284      2.00000
     20       2.2093      2.00000
     21       2.8642      0.10004
     22       2.9533      0.00003
     23       3.1101      0.00000
     24       3.2396      0.00000
     25       3.7925      0.00000
     26       3.8523      0.00000
     27       4.0918      0.00000
     28       4.3607      0.00000
     29       4.6365      0.00000
     30       4.8689      0.00000
     31       4.9607      0.00000
     32       5.3073      0.00000
     33       5.6515      0.00000
     34       6.0947      0.00000
     35       6.2252      0.00000
     36       6.4087      0.00000
     37       6.7230      0.00000
     38       7.0462      0.00000
     39       7.2224      0.00000
     40       7.2830      0.00000

 k-point    18 :       0.4474    0.0000    0.0000
  band No.  band energies     occupation 
      1      -3.2136      2.00000
      2      -3.1931      2.00000
      3      -2.8708      2.00000
      4      -2.6492      2.00000
      5      -2.1442      2.00000
      6      -1.3858      2.00000
      7      -1.3179      2.00000
      8      -0.4421      2.00000
      9      -0.4216      2.00000
     10      -0.3105      2.00000
     11       0.3781      2.00000
     12       0.5040      2.00000
     13       0.6564      2.00000
     14       0.6960      2.00000
     15       1.1207      2.00000
     16       1.5381      2.00000
     17       1.9791      2.00000
     18       2.0455      2.00000
     19       2.0525      2.00000
     20       2.2596      2.00000
     21       2.7983      1.17211
     22       3.0250      0.00000
     23       3.1276      0.00000
     24       3.3933      0.00000
     25       3.8854      0.00000
     26       4.0107      0.00000
     27       4.1707      0.00000
     28       4.3919      0.00000
     29       4.6399      0.00000
     30       4.9312      0.00000
     31       5.1142      0.00000
     32       5.3602      0.00000
     33       5.6130      0.00000
     34       6.2120      0.00000
     35       6.2920      0.00000
     36       6.3669      0.00000
     37       6.6148      0.00000
     38       7.0234      0.00000
     39       7.0502      0.00000
     40       7.2560      0.00000

 k-point    19 :       0.4737    0.0000    0.0000
  band No.  band energies     occupation 
      1      -3.1956      2.00000
      2      -3.1933      2.00000
      3      -2.6843      2.00000
      4      -2.6433      2.00000
      5      -2.2165      2.00000
      6      -1.4192      2.00000
      7      -1.3042      2.00000
      8      -0.4700      2.00000
      9      -0.4470      2.00000
     10      -0.0884      2.00000
     11       0.3485      2.00000
     12       0.4693      2.00000
     13       0.4871      2.00000
     14       0.7662      2.00000
     15       1.0582      2.00000
     16       1.5130      2.00000
     17       1.9549      2.00000
     18       2.0694      2.00000
     19       2.1194      2.00000
     20       2.2786      2.00000
     21       2.7574      1.83077
     22       3.0858      0.00000
     23       3.1084      0.00000
     24       3.4901      0.00000
     25       4.0084      0.00000
     26       4.1316      0.00000
     27       4.2258      0.00000
     28       4.4102      0.00000
     29       4.6286      0.00000
     30       4.9558      0.00000
     31       5.2410      0.00000
     32       5.3946      0.00000
     33       5.5794      0.00000
     34       6.3033      0.00000
     35       6.3616      0.00000
     36       6.3795      0.00000
     37       6.5397      0.00000
     38       6.7813      0.00000
     39       7.0564      0.00000
     40       7.1898      0.00000

 k-point    20 :       0.5000    0.0000    0.0000
  band No.  band energies     occupation 
      1      -3.1948      2.00000
      2      -3.1903      2.00000
      3      -2.6406      2.00000
      4      -2.5964      2.00000
      5      -2.2628      2.00000
      6      -1.4328      2.00000
      7      -1.2994      2.00000
      8      -0.4793      2.00000
      9      -0.4555      2.00000
     10       0.0568      2.00000
     11       0.3222      2.00000
     12       0.3386      2.00000
     13       0.4815      2.00000
     14       0.8195      2.00000
     15       1.0203      2.00000
     16       1.5047      2.00000
     17       1.9467      2.00000
     18       2.0756      2.00000
     19       2.1450      2.00000
     20       2.2828      2.00000
     21       2.7435      1.92281
     22       3.0996      0.00000
     23       3.1088      0.00000
     24       3.5196      0.00000
     25       4.0646      0.00000
     26       4.1786      0.00000
     27       4.2458      0.00000
     28       4.4161      0.00000
     29       4.6213      0.00000
     30       4.9591      0.00000
     31       5.2917      0.00000
     32       5.4066      0.00000
     33       5.5661      0.00000
     34       6.2839      0.00000
     35       6.4297      0.00000
     36       6.4936      0.00000
     37       6.5182      0.00000
     38       6.5924      0.00000
     39       7.0596      0.00000
     40       7.1541      0.00000

 k-point    21 :       0.5000    0.0000    0.0000
  band No.  band energies     occupation 
      1      -3.1948      2.00000
      2      -3.1903      2.00000
      3      -2.6406      2.00000
      4      -2.5964      2.00000
      5      -2.2628      2.00000
      6      -1.4328      2.00000
      7      -1.2994      2.00000
      8      -0.4793      2.00000
      9      -0.4555      2.00000
     10       0.0568      2.00000
     11       0.3222      2.00000
     12       0.3386      2.00000
     13       0.4815      2.00000
     14       0.8195      2.00000
     15       1.0203      2.00000
     16       1.5047      2.00000
     17       1.9467      2.00000
     18       2.0756      2.00000
     19       2.1450      2.00000
     20       2.2828      2.00000
     21       2.7435      1.92281
     22       3.0996      0.00000
     23       3.1088      0.00000
     24       3.5196      0.00000
     25       4.0646      0.00000
     26       4.1786      0.00000
     27       4.2458      0.00000
     28       4.4161      0.00000
     29       4.6213      0.00000
     30       4.9591      0.00000
     31       5.2917      0.00000
     32       5.4066      0.00000
     33       5.5661      0.00000
     34       6.2839      0.00000
     35       6.4297      0.00000
     36       6.4936      0.00000
     37       6.5182      0.00000
     38       6.5924      0.00000
     39       7.0612      0.00000
     40       7.1398      0.00000

 k-point    22 :       0.5000    0.0263    0.0000
  band No.  band energies     occupation 
      1      -3.1781      2.00000
      2      -3.1739      2.00000
      3      -2.6256      2.00000
      4      -2.5848      2.00000
      5      -2.2553      2.00000
      6      -1.4290      2.00000
      7      -1.2896      2.00000
      8      -0.4827      2.00000
      9      -0.4598      2.00000
     10       0.0321      2.00000
     11       0.3052      2.00000
     12       0.3060      2.00000
     13       0.4801      2.00000
     14       0.8431      2.00000
     15       0.9826      2.00000
     16       1.5335      2.00000
     17       1.8717      2.00000
     18       2.1357      2.00000
     19       2.1629      2.00000
     20       2.2951      2.00000
     21       2.7449      1.91618
     22       3.0463      0.00000
     23       3.1119      0.00000
     24       3.5107      0.00000
     25       4.0456      0.00000
     26       4.1684      0.00000
     27       4.2878      0.00000
     28       4.4267      0.00000
     29       4.6291      0.00000
     30       4.9731      0.00000
     31       5.1974      0.00000
     32       5.4805      0.00000
     33       5.5954      0.00000
     34       6.2771      0.00000
     35       6.4534      0.00000
     36       6.4696      0.00000
     37       6.5052      0.00000
     38       6.5304      0.00000
     39       7.0990      0.00000
     40       7.1741      0.00000

 k-point    23 :       0.5000    0.0526    0.0000
  band No.  band energies     occupation 
      1      -3.1285      2.00000
      2      -3.1249      2.00000
      3      -2.5811      2.00000
      4      -2.5513      2.00000
      5      -2.2344      2.00000
      6      -1.4192      2.00000
      7      -1.2619      2.00000
      8      -0.4924      2.00000
      9      -0.4723      2.00000
     10      -0.0304      2.00000
     11       0.2292      2.00000
     12       0.2653      2.00000
     13       0.4692      2.00000
     14       0.8820      2.00000
     15       0.8925      2.00000
     16       1.6087      2.00000
     17       1.7531      2.00000
     18       2.1086      2.00000
     19       2.3063      2.00000
     20       2.3296      2.00000
     21       2.7334      1.95993
     22       2.9176      0.00160
     23       3.1372      0.00000
     24       3.4774      0.00000
     25       4.0054      0.00000
     26       4.1424      0.00000
     27       4.3463      0.00000
     28       4.4860      0.00000
     29       4.6531      0.00000
     30       5.0251      0.00000
     31       5.0530      0.00000
     32       5.5669      0.00000
     33       5.6701      0.00000
     34       6.2494      0.00000
     35       6.3501      0.00000
     36       6.4338      0.00000
     37       6.5193      0.00000
     38       6.5745      0.00000
     39       7.1305      0.00000
     40       7.2146      0.00000

 k-point    24 :       0.5000    0.0789    0.0000
  band No.  band energies     occupation 
      1      -3.0467      2.00000
      2      -3.0442      2.00000
      3      -2.5087      2.00000
      4      -2.4995      2.00000
      5      -2.2049      2.00000
      6      -1.4072      2.00000
      7      -1.2218      2.00000
      8      -0.5071      2.00000
      9      -0.4913      2.00000
     10      -0.1067      2.00000
     11       0.1414      2.00000
     12       0.2275      2.00000
     13       0.4388      2.00000
     14       0.7432      2.00000
     15       0.9341      2.00000
     16       1.6147      2.00000
     17       1.7017      2.00000
     18       2.0695      2.00000
     19       2.3696      2.00000
     20       2.4590      2.00000
     21       2.6964      1.99808
     22       2.7663      1.73819
     23       3.2098      0.00000
     24       3.4025      0.00000
     25       3.9848      0.00000
     26       4.1122      0.00000
     27       4.3544      0.00000
     28       4.5905      0.00000
     29       4.6946      0.00000
     30       4.9040      0.00000
     31       5.1378      0.00000
     32       5.6314      0.00000
     33       5.7607      0.00000
     34       6.1991      0.00000
     35       6.2057      0.00000
     36       6.4259      0.00000
     37       6.6107      0.00000
     38       6.6684      0.00000
     39       7.1731      0.00000
     40       7.2960      0.00000

 k-point    25 :       0.5000    0.1053    0.0000
  band No.  band energies     occupation 
      1      -2.9341      2.00000
      2      -2.9334      2.00000
      3      -2.4365      2.00000
      4      -2.4109      2.00000
      5      -2.1746      2.00000
      6      -1.3968      2.00000
      7      -1.1788      2.00000
      8      -0.5246      2.00000
      9      -0.5144      2.00000
     10      -0.1737      2.00000
     11       0.0667      2.00000
     12       0.2166      2.00000
     13       0.3877      2.00000
     14       0.5873      2.00000
     15       0.9453      2.00000
     16       1.4545      2.00000
     17       1.7634      2.00000
     18       2.0456      2.00000
     19       2.3531      2.00000
     20       2.6009      2.00000
     21       2.6289      2.00000
     22       2.6905      1.99892
     23       3.2819      0.00000
     24       3.3279      0.00000
     25       4.0159      0.00000
     26       4.0912      0.00000
     27       4.3379      0.00000
     28       4.6818      0.00000
     29       4.7543      0.00000
     30       4.7627      0.00000
     31       5.3145      0.00000
     32       5.6800      0.00000
     33       5.8413      0.00000
     34       6.0909      0.00000
     35       6.1457      0.00000
     36       6.4426      0.00000
     37       6.7041      0.00000
     38       6.8251      0.00000
     39       7.2337      0.00000
     40       7.4279      0.00000

 k-point    26 :       0.5000    0.1316    0.0000
  band No.  band energies     occupation 
      1      -2.7949      2.00000
      2      -2.7929      2.00000
      3      -2.3739      2.00000
      4      -2.2922      2.00000
      5      -2.1537      2.00000
      6      -1.3871      2.00000
      7      -1.1463      2.00000
      8      -0.5415      2.00000
      9      -0.5377      2.00000
     10      -0.2123      2.00000
     11       0.0236      2.00000
     12       0.2504      2.00000
     13       0.3218      2.00000
     14       0.4282      2.00000
     15       0.9153      2.00000
     16       1.2760      2.00000
     17       1.7318      2.00000
     18       2.0840      2.00000
     19       2.2340      2.00000
     20       2.5252      2.00000
     21       2.6936      1.99853
     22       2.7711      1.67700
     23       3.1588      0.00000
     24       3.4762      0.00000
     25       4.0895      0.00000
     26       4.1006      0.00000
     27       4.3104      0.00000
     28       4.6400      0.00000
     29       4.7607      0.00000
     30       4.8319      0.00000
     31       5.5235      0.00000
     32       5.7214      0.00000
     33       5.9036      0.00000
     34       6.0117      0.00000
     35       6.1024      0.00000
     36       6.4732      0.00000
     37       6.7840      0.00000
     38       7.0411      0.00000
     39       7.3162      0.00000
     40       7.6098      0.00000

 k-point    27 :       0.5000    0.1579    0.0000
  band No.  band energies     occupation 
      1      -2.6323      2.00000
      2      -2.6270      2.00000
      3      -2.3277      2.00000
      4      -2.1589      2.00000
      5      -2.1513      2.00000
      6      -1.3702      2.00000
      7      -1.1365      2.00000
      8      -0.5560      2.00000
      9      -0.5529      2.00000
     10      -0.2095      2.00000
     11       0.0224      2.00000
     12       0.2520      2.00000
     13       0.2750      2.00000
     14       0.3358      2.00000
     15       0.8471      2.00000
     16       1.0857      2.00000
     17       1.6249      2.00000
     18       2.0575      2.00000
     19       2.1608      2.00000
     20       2.4619      2.00000
     21       2.6484      1.99999
     22       2.9007      0.00740
     23       3.1381      0.00000
     24       3.6422      0.00000
     25       4.1115      0.00000
     26       4.2259      0.00000
     27       4.2822      0.00000
     28       4.5461      0.00000
     29       4.8413      0.00000
     30       4.9259      0.00000
     31       5.7168      0.00000
     32       5.7613      0.00000
     33       5.9525      0.00000
     34       5.9822      0.00000
     35       6.0719      0.00000
     36       6.5119      0.00000
     37       6.8483      0.00000
     38       7.3007      0.00000
     39       7.4246      0.00000
     40       7.8297      0.00000

 k-point    28 :       0.5000    0.1842    0.0000
  band No.  band energies     occupation 
      1      -2.4513      2.00000
      2      -2.4465      2.00000
      3      -2.3138      2.00000
      4      -2.1668      2.00000
      5      -2.0205      2.00000
      6      -1.3351      2.00000
      7      -1.1523      2.00000
      8      -0.5623      2.00000
      9      -0.5519      2.00000
     10      -0.1662      2.00000
     11       0.0561      2.00000
     12       0.1338      2.00000
     13       0.1955      2.00000
     14       0.4697      2.00000
     15       0.7593      2.00000
     16       0.8915      2.00000
     17       1.4830      2.00000
     18       1.8576      2.00000
     19       2.2390      2.00000
     20       2.4373      2.00000
     21       2.4701      2.00000
     22       3.0514      0.00000
     23       3.2303      0.00000
     24       3.8176      0.00000
     25       4.1545      0.00000
     26       4.2627      0.00000
     27       4.3779      0.00000
     28       4.4907      0.00000
     29       4.9292      0.00000
     30       5.0334      0.00000
     31       5.8026      0.00000
     32       5.8123      0.00000
     33       5.9949      0.00000
     34       6.0529      0.00000
     35       6.0593      0.00000
     36       6.5547      0.00000
     37       6.9007      0.00000
     38       7.5625      0.00000
     39       7.5873      0.00000
     40       8.0717      0.00000

 k-point    29 :       0.5000    0.2105    0.0000
  band No.  band energies     occupation 
      1      -2.3391      2.00000
      2      -2.3179      2.00000
[...]
      3      -3.1498      2.00000
      4      -2.1878      2.00000
      5      -2.1839      2.00000
      6      -1.9868      2.00000
      7      -1.6046      2.00000
      8      -1.2216      2.00000
      9      -1.0391      2.00000
     10      -0.7501      2.00000
     11       0.0742      2.00000
     12       0.6594      2.00000
     13       0.8371      2.00000
     14       0.8418      2.00000
     15       0.9648      2.00000
     16       1.1642      2.00000
     17       1.3555      2.00000
     18       2.2093      2.00000
     19       2.2463      2.00000
     20       2.3328      2.00000
     21       2.3877      2.00000
     22       2.5898      2.00000
     23       3.1318      0.00000
     24       3.5214      0.00000
     25       3.5756      0.00000
     26       3.6545      0.00000
     27       3.8709      0.00000
     28       4.4899      0.00000
     29       4.7157      0.00000
     30       4.7737      0.00000
     31       4.8150      0.00000
     32       4.9490      0.00000
     33       5.5404      0.00000
     34       5.6632      0.00000
     35       5.7838      0.00000
     36       6.0140      0.00000
     37       6.3657      0.00000
     38       6.5840      0.00000
     39       6.6418      0.00000
     40       7.2365      0.00000

 k-point    56 :       0.1053    0.1053    0.0000
  band No.  band energies     occupation 
      1      -5.7984      2.00000
      2      -4.7277      2.00000
      3      -3.3129      2.00000
      4      -2.3965      2.00000
      5      -2.3421      2.00000
      6      -2.0741      2.00000
      7      -1.7684      2.00000
      8      -1.3859      2.00000
      9      -1.1327      2.00000
     10      -0.8241      2.00000
     11       0.1459      2.00000
     12       0.8515      2.00000
     13       1.0362      2.00000
     14       1.0365      2.00000
     15       1.1366      2.00000
     16       1.3780      2.00000
     17       1.7178      2.00000
     18       2.1620      2.00000
     19       2.2837      2.00000
     20       2.3668      2.00000
     21       2.3706      2.00000
     22       2.7583      1.82330
     23       2.9703      0.00000
     24       3.2904      0.00000
     25       3.6029      0.00000
     26       3.6078      0.00000
     27       3.7008      0.00000
     28       4.3019      0.00000
     29       4.7030      0.00000
     30       4.7378      0.00000
     31       4.9071      0.00000
     32       4.9550      0.00000
     33       5.5841      0.00000
     34       5.6364      0.00000
     35       5.6900      0.00000
     36       6.1426      0.00000
     37       6.4101      0.00000
     38       6.6373      0.00000
     39       6.8360      0.00000
     40       7.1910      0.00000

 k-point    57 :       0.0789    0.0789    0.0000
  band No.  band energies     occupation 
      1      -6.0123      2.00000
      2      -4.9125      2.00000
      3      -3.4406      2.00000
      4      -2.5606      2.00000
      5      -2.4735      2.00000
      6      -2.1447      2.00000
      7      -1.8984      2.00000
      8      -1.5174      2.00000
      9      -1.2136      2.00000
     10      -0.8843      2.00000
     11       0.2162      2.00000
     12       1.0610      2.00000
     13       1.2225      2.00000
     14       1.2364      2.00000
     15       1.2935      2.00000
     16       1.6229      2.00000
     17       1.9031      2.00000
     18       2.2269      2.00000
     19       2.2538      2.00000
     20       2.3073      2.00000
     21       2.3240      2.00000
     22       2.8369      0.38239
     23       2.8572      0.14789
     24       3.0454      0.00000
     25       3.5484      0.00000
     26       3.5695      0.00000
     27       3.7077      0.00000
     28       4.1344      0.00000
     29       4.6149      0.00000
     30       4.6748      0.00000
     31       4.9862      0.00000
     32       5.0703      0.00000
     33       5.5176      0.00000
     34       5.7349      0.00000
     35       5.8432      0.00000
     36       6.1728      0.00000
     37       6.3207      0.00000
     38       6.9063      0.00000
     39       6.9530      0.00000
     40       7.1550      0.00000

 k-point    58 :       0.0526    0.0526    0.0000
  band No.  band energies     occupation 
      1      -6.1683      2.00000
      2      -5.0461      2.00000
      3      -3.5321      2.00000
      4      -2.6786      2.00000
      5      -2.5713      2.00000
      6      -2.1966      2.00000
      7      -1.9926      2.00000
      8      -1.6127      2.00000
      9      -1.2751      2.00000
     10      -0.9287      2.00000
     11       0.2772      2.00000
     12       1.2850      2.00000
     13       1.3958      2.00000
     14       1.4161      2.00000
     15       1.4235      2.00000
     16       1.8340      2.00000
     17       1.9204      2.00000
     18       2.1699      2.00000
     19       2.2129      2.00000
     20       2.2652      2.00000
     21       2.4370      2.00000
     22       2.7153      1.98970
     23       2.8059      1.00200
     24       2.8760      0.04776
     25       3.4766      0.00000
     26       3.5416      0.00000
     27       3.7129      0.00000
     28       4.0010      0.00000
     29       4.6285      0.00000
     30       4.7580      0.00000
     31       4.8768      0.00000
     32       5.1889      0.00000
     33       5.4670      0.00000
     34       5.8198      0.00000
     35       6.1129      0.00000
     36       6.2274      0.00000
     37       6.3015      0.00000
     38       6.8636      0.00000
     39       6.8912      0.00000
     40       7.1259      0.00000

 k-point    59 :       0.0263    0.0263    0.0000
  band No.  band energies     occupation 
      1      -6.2631      2.00000
      2      -5.1268      2.00000
      3      -3.5870      2.00000
      4      -2.7498      2.00000
      5      -2.6315      2.00000
      6      -2.2283      2.00000
      7      -2.0496      2.00000
      8      -1.6703      2.00000
      9      -1.3133      2.00000
     10      -0.9559      2.00000
     11       0.3196      2.00000
     12       1.5113      2.00000
     13       1.5153      2.00000
     14       1.5191      2.00000
     15       1.5602      2.00000
     16       1.8555      2.00000
     17       2.0054      2.00000
     18       2.0316      2.00000
     19       2.1265      2.00000
     20       2.3592      2.00000
     21       2.5011      2.00000
     22       2.5447      2.00000
     23       2.7645      1.76012
     24       2.7942      1.26282
     25       3.4202      0.00000
     26       3.5173      0.00000
     27       3.7251      0.00000
     28       3.9151      0.00000
     29       4.6003      0.00000
     30       4.6523      0.00000
     31       5.1395      0.00000
     32       5.2712      0.00000
     33       5.4350      0.00000
     34       5.8767      0.00000
     35       5.9548      0.00000
     36       6.3045      0.00000
     37       6.6472      0.00000
     38       6.7550      0.00000
     39       6.7734      0.00000
     40       7.1088      0.00000

 k-point    60 :       0.0000    0.0000    0.0000
  band No.  band energies     occupation 
      1      -6.2949      2.00000
      2      -5.1538      2.00000
      3      -3.6053      2.00000
      4      -2.7736      2.00000
      5      -2.6518      2.00000
      6      -2.2390      2.00000
      7      -2.0687      2.00000
      8      -1.6895      2.00000
      9      -1.3262      2.00000
     10      -0.9650      2.00000
     11       0.3349      2.00000
     12       1.5427      2.00000
     13       1.5427      2.00000
     14       1.6807      2.00000
     15       1.6807      2.00000
     16       1.7701      2.00000
     17       1.8772      2.00000
     18       2.1102      2.00000
     19       2.1102      2.00000
     20       2.4062      2.00000
     21       2.4382      2.00000
     22       2.5154      2.00000
     23       2.7723      1.65921
     24       2.7723      1.65921
     25       3.3904      0.00000
     26       3.4009      0.00000
     27       3.8856      0.00000
     28       3.8856      0.00000
     29       4.4948      0.00000
     30       4.5909      0.00000
     31       5.2999      0.00000
     32       5.4241      0.00000
     33       5.4241      0.00000
     34       5.7744      0.00000
     35       5.8963      0.00000
     36       6.3064      0.00000
     37       6.7120      0.00000
     38       6.7175      0.00000
     39       6.9137      0.00000
     40       7.1028      0.00000


--------------------------------------------------------------------------------------------------------


 soft charge-density along one line, spin component           1
         0         1         2         3         4         5         6         7         8         9
 total charge-density along one line
 
 pseudopotential strength for first ion, spin component:           1
 -7.752   0.000  -0.000   0.000  -0.000   0.000   0.000   0.000  -0.000   0.000   0.045   0.000  -0.000   0.000  -0.000   0.000
 -0.000   0.000  -7.784   0.000   0.000   0.000  -0.000   0.000  -0.000   0.000  -0.000   0.000   0.043   0.000   0.000   0.000
 -0.000   0.000   0.000   0.000  -7.792   0.000  -0.000   0.000   0.000   0.000  -0.000   0.000   0.000   0.000   0.043   0.000
  0.000   0.000  -0.000   0.000  -0.000   0.000  -7.784   0.000  -0.000   0.000   0.000   0.000  -0.000   0.000  -0.000   0.000
 -0.000   0.000  -0.000   0.000   0.000   0.000  -0.000   0.000  -7.750   0.000  -0.000   0.000  -0.000   0.000   0.000   0.000
  0.045   0.000  -0.000   0.000  -0.000   0.000   0.000   0.000  -0.000   0.000   0.079   0.000  -0.000   0.000   0.000   0.000
 -0.000   0.000   0.043   0.000   0.000   0.000  -0.000   0.000  -0.000   0.000  -0.000   0.000   0.078   0.000   0.000   0.000
 -0.000   0.000   0.000   0.000   0.043   0.000  -0.000   0.000   0.000   0.000   0.000   0.000   0.000   0.000   0.078   0.000
  0.000   0.000  -0.000   0.000  -0.000   0.000   0.043   0.000  -0.000   0.000   0.000   0.000   0.000   0.000   0.000   0.000
 -0.000   0.000  -0.000   0.000   0.000   0.000  -0.000   0.000   0.046   0.000   0.000   0.000  -0.000   0.000   0.000   0.000
  0.000   0.000  -0.000   0.000   0.016   0.000   0.000   0.000   0.000   0.000   0.000   0.000  -0.000   0.000   0.001   0.000
 -0.000   0.000   0.000   0.000  -0.002   0.000  -0.000   0.000  -0.000   0.000  -0.000   0.000   0.000   0.000  -0.000   0.000
  0.000   0.000  -0.026   0.000   0.000   0.000   0.000   0.000   0.000   0.000   0.000   0.000  -0.001   0.000   0.000   0.000
  0.000   0.000  -0.000   0.000  -0.045   0.000  -0.000   0.000  -0.000   0.000  -0.000   0.000  -0.000   0.000  -0.001   0.000
 -0.000   0.000   0.000   0.000  -0.000   0.000  -0.026   0.000   0.000   0.000  -0.000   0.000  -0.000   0.000  -0.000   0.000
 -0.000   0.000   0.021   0.000  -0.000   0.000  -0.000   0.000  -0.000   0.000  -0.000   0.000   0.001   0.000  -0.000   0.000
 -0.000   0.000   0.000   0.000   0.032   0.000   0.000   0.000   0.000   0.000   0.000   0.000   0.000   0.000   0.001   0.000
  0.000   0.000  -0.000   0.000   0.000   0.000   0.021   0.000  -0.000   0.000   0.000   0.000   0.000   0.000   0.000   0.000
 total augmentation occupancy for first ion, spin component:           1
  1.000   0.000   0.000   0.000   0.000   0.000   0.000   0.000   0.000   0.000   0.000   0.000   0.000   0.000   0.000   0.000
  0.000   1.000   0.000   0.000   0.000   0.000   0.000   0.000   0.000   0.000   0.000   0.000   0.000   0.000   0.000   0.000
  0.000   0.000   1.000   0.000   0.000   0.000   0.000   0.000   0.000   0.000   0.000   0.000   0.000   0.000   0.000   0.000
  0.000   0.000   0.000   1.000   0.000   0.000   0.000   0.000   0.000   0.000   0.000   0.000   0.000   0.000   0.000   0.000
  0.000   0.000   0.000   0.000   1.000   0.000   0.000   0.000   0.000   0.000   0.000   0.000   0.000   0.000   0.000   0.000
  0.000   0.000   0.000   0.000   0.000   0.000   0.000   0.000   0.000   0.000   0.000   0.000   0.000   0.000   0.000   0.000
  0.000   0.000   0.000   0.000   0.000   0.000   0.000   0.000   0.000   0.000   0.000   0.000   0.000   0.000   0.000   0.000
  0.000   0.000   0.000   0.000   0.000   0.000   0.000   0.000   0.000   0.000   0.000   0.000   0.000   0.000   0.000   0.000
  0.000   0.000   0.000   0.000   0.000   0.000   0.000   0.000   0.000   0.000   0.000   0.000   0.000   0.000   0.000   0.000
  0.000   0.000   0.000   0.000   0.000   0.000   0.000   0.000   0.000   0.000   0.000   0.000   0.000   0.000   0.000   0.000
  0.000   0.000   0.000   0.000   0.000   0.000   0.000   0.000   0.000   0.000   1.000   0.000   0.000   0.000   0.000   0.000
  0.000   0.000   0.000   0.000   0.000   0.000   0.000   0.000   0.000   0.000   0.000   0.000   0.000   0.000   0.000   0.000
  0.000   0.000   0.000   0.000   0.000   0.000   0.000   0.000   0.000   0.000   0.000   0.000   0.000   0.000   0.000   0.000
  0.000   0.000   0.000   0.000   0.000   0.000   0.000   0.000   0.000   0.000   0.000   0.000   0.000   0.000   0.000   0.000
  0.000   0.000   0.000   0.000   0.000   0.000   0.000   0.000   0.000   0.000   0.000   0.000   0.000   0.000   0.000   0.000
  0.000   0.000   0.000   0.000   0.000   0.000   0.000   0.000   0.000   0.000   0.000   0.000   0.000   0.000   0.000   0.000
  0.000   0.000   0.000   0.000   0.000   0.000   0.000   0.000   0.000   0.000   0.000   0.000   0.000   0.000   0.000   0.000
  0.000   0.000   0.000   0.000   0.000   0.000   0.000   0.000   0.000   0.000   0.000   0.000   0.000   0.000   0.000   0.000


------------------------ aborting loop because EDIFF is reached ----------------------------------------


    CHARGE:  cpu time    0.0560: real time    0.0604
    FORLOC:  cpu time    0.0004: real time    0.0019
    FORNL :  cpu time    0.5014: real time    0.5059
    STRESS:  cpu time    2.1340: real time    2.1419
    FORCOR:  cpu time    0.0043: real time    0.0055
    FORHAR:  cpu time    0.0030: real time    0.0039
    OFIELD:  cpu time    0.0009: real time    0.0014

  FORCE on cell =-STRESS in cart. coord.  units (eV):
  Direction    XX          YY          ZZ          XY          YZ          ZX
  --------------------------------------------------------------------------------------
  Alpha Z   180.65856   180.65856   180.65856
  Ewald    3798.59004  3798.59004 -5156.86231     0.00000     0.00000    -0.00000
  Hartree  4192.44286  4192.44286 -4175.12469    -0.00000    -0.00000    -0.00000
  E(xc)    -186.88935  -186.88935  -186.89324    -0.00000     0.00000    -0.00000
  Local   -8481.95390 -8481.95390  8835.57391     0.00000     0.00000    -0.00000
  n-local  -108.56117   -92.50443  -101.80953     1.94606    -0.00000     0.00000
  augment    37.15654    37.15654    37.10891     0.00000     0.00000     0.00000
  Kinetic   521.07505   569.87800   556.80650     2.07361     0.00000     0.00000
  Fock        0.00000     0.00000     0.00000     0.00000     0.00000     0.00000
  -------------------------------------------------------------------------------------
  Total     -15.05152   -15.05152   -10.54189     0.00000    -0.00000     0.00000
  in kB    -127.37335  -127.37335   -89.21058     0.00000    -0.00000     0.00000
  external pressure =     -114.65 kB  Pullay stress =        0.00 kB


 VOLUME and BASIS-vectors are now :
 -----------------------------------------------------------------------------
  energy-cutoff  :      600.00
  volume of cell :      189.33
      direct lattice vectors                 reciprocal lattice vectors
     3.160000000  0.000000000  0.000000000     0.316455696  0.000000000  0.000000000
     0.000000000  3.160000000  0.000000000     0.000000000  0.316455696  0.000000000
     0.000000000  0.000000000 18.960000000     0.000000000  0.000000000  0.052742616

  length of vectors
     3.160000000  3.160000000 18.960000000     0.316455696  0.316455696  0.052742616


 FORCES acting on ions
    electron-ion (+dipol)            ewald-force                    non-local-force                 convergence-correction
 -----------------------------------------------------------------------------------------------
   -.296E-14 -.521E-15 0.782E+03   0.639E-14 -.114E-14 -.777E+03   0.000E+00 0.132E-22 -.424E+01   0.126E-14 0.763E-14 0.136E+01
   -.147E-14 -.122E-15 0.550E+03   0.206E-14 -.218E-14 -.546E+03   -.662E-23 0.000E+00 -.289E+00   -.161E-13 -.111E-13 -.442E+01
   -.104E-14 0.406E-14 0.276E+03   0.505E-14 -.214E-14 -.272E+03   0.000E+00 0.000E+00 -.804E+00   0.571E-14 0.543E-14 -.345E+01
   -.149E-14 -.154E-13 0.117E-11   0.337E-14 -.196E-14 0.000E+00   0.000E+00 0.000E+00 -.331E-23   0.287E-14 0.939E-14 0.498E-12
   -.424E-15 0.543E-14 -.276E+03   0.170E-14 -.179E-14 0.272E+03   0.000E+00 0.000E+00 0.804E+00   -.184E-14 -.672E-15 0.345E+01
   -.561E-15 -.247E-13 -.550E+03   0.469E-14 -.174E-14 0.546E+03   0.662E-23 0.000E+00 0.289E+00   0.308E-14 -.506E-14 0.442E+01
   -.118E-15 0.388E-14 -.782E+03   0.349E-15 -.278E-14 0.777E+03   0.000E+00 0.132E-22 0.424E+01   -.189E-14 0.239E-15 -.136E+01
 -----------------------------------------------------------------------------------------------
   -.807E-14 -.274E-13 0.253E-11   0.236E-13 -.137E-13 -.114E-12   0.000E+00 0.265E-22 -.888E-15   -.686E-14 0.583E-14 -.414E-12
 
 
 POSITION                                       TOTAL-FORCE (eV/Angst)
 -----------------------------------------------------------------------------------
      0.00000      0.00000      0.00000        -0.000000     -0.000000      1.683970
      1.58000      1.58000      1.58000        -0.000000     -0.000000     -0.890303
      0.00000      0.00000      3.16000        -0.000000     -0.000000     -0.195271
      1.58000      1.58000      4.74000         0.000000     -0.000000      0.000000
      0.00000      0.00000      6.32000        -0.000000      0.000000      0.195271
      1.58000      1.58000      7.90000        -0.000000     -0.000000      0.890303
      0.00000      0.00000      9.48000        -0.000000     -0.000000     -1.683970
 -----------------------------------------------------------------------------------
    total drift:                                0.000000     -0.000000      0.000000


--------------------------------------------------------------------------------------------------------



  FREE ENERGIE OF THE ION-ELECTRON SYSTEM (eV)
  ---------------------------------------------------
  free  energy   TOTEN  =       -92.65635322 eV

  energy  without entropy=      -92.64927648  energy(sigma->0) =      -92.65281485
 


--------------------------------------------------------------------------------------------------------


    POTLOK:  cpu time    0.0077: real time    0.0104


--------------------------------------------------------------------------------------------------------


 writing wavefunctions
     LOOP+:  cpu time   18.0516: real time   18.3097
    4ORBIT:  cpu time    0.0000: real time    0.0000

 total amount of memory used by VASP MPI-rank0    95393. kBytes
=======================================================================

   base      :      30000. kBytes
   nonl-proj :      55662. kBytes
   fftplans  :       1060. kBytes
   grid      :       2304. kBytes
   one-center:        108. kBytes
   wavefun   :       6259. kBytes
 
  
  
 General timing and accounting informations for this job:
 ========================================================
  
                  Total CPU time used (sec):       21.136
                            User time (sec):       19.302
                          System time (sec):        1.834
                         Elapsed time (sec):       21.666
  
                   Maximum memory used (kb):      146564.
                   Average memory used (kb):           0.
  
                          Minor page faults:        29765
                          Major page faults:           54
                 Voluntary context switches:         1325
