   5   5   0   0
  0.3786540E+02  0.3160000E-09  0.3160000E-09  0.1896000E-08  0.5000000E-15
  1.000000000000000E-004
  CAR 
 unknown system                          
     14.82285367     -9.12201726  301      0.76993281      1.00000000
     -9.122  0.0000E+00  0.0000E+00
     -9.042  0.0000E+00  0.0000E+00
     -8.962  0.0000E+00  0.0000E+00
     -8.883  0.0000E+00  0.0000E+00
     -8.803  0.0000E+00  0.0000E+00
     -8.723  0.0000E+00  0.0000E+00
     -8.643  0.0000E+00  0.0000E+00
     -8.563  0.0000E+00  0.0000E+00
     -8.483  0.0000E+00  0.0000E+00
     -8.404  0.0000E+00  0.0000E+00
     -8.324  0.9273E-16  0.7401E-17
     -8.244  0.1145E-08  0.9138E-10
     -8.164  0.1007E-03  0.8036E-05
     -8.084  0.8026E-01  0.6414E-02
     -8.005  0.1130E+01  0.9661E-01
     -7.925  0.1059E+01  0.1811E+00
     -7.845  0.6358E+00  0.2319E+00
     -7.765  0.5114E+00  0.2727E+00
     -7.685  0.4164E+00  0.3059E+00
     -7.606  0.3350E+00  0.3327E+00
     -7.526  0.4032E+00  0.3648E+00
     -7.446  0.4051E+00  0.3972E+00
     -7.366  0.6483E-01  0.4024E+00
     -7.286  0.5055E+00  0.4427E+00
     -7.206  0.2963E+00  0.4663E+00
     -7.127  0.1091E+00  0.4751E+00
     -7.047  0.3034E+00  0.4993E+00
     -6.967  0.2904E+00  0.5224E+00
     -6.887  0.2978E+00  0.5462E+00
     -6.807  0.2463E+00  0.5659E+00
     -6.728  0.1447E-01  0.5670E+00
     -6.648  0.3163E+00  0.5923E+00
     -6.568  0.4937E+00  0.6317E+00
     -6.488  0.2154E-01  0.6334E+00
     -6.408  0.1079E+00  0.6420E+00
     -6.328  0.3049E+00  0.6663E+00
     -6.249  0.3019E+00  0.6904E+00
     -6.169  0.5353E+00  0.7332E+00
     -6.089  0.1867E+01  0.8822E+00
     -6.009  0.1030E+01  0.9644E+00
     -5.929  0.7808E+00  0.1027E+01
     -5.850  0.1129E+01  0.1117E+01
     -5.770  0.7191E+00  0.1174E+01
     -5.690  0.4468E+00  0.1210E+01
     -5.610  0.7031E+00  0.1266E+01
     -5.530  0.8760E+00  0.1336E+01
     -5.450  0.6263E+00  0.1386E+01
     -5.371  0.7156E+00  0.1443E+01
     -5.291  0.7619E+00  0.1504E+01
     -5.211  0.9722E+00  0.1581E+01
     -5.131  0.1518E+01  0.1703E+01
     -5.051  0.3880E+01  0.2012E+01
     -4.972  0.2345E+01  0.2199E+01
     -4.892  0.1105E+01  0.2288E+01
     -4.812  0.1443E+01  0.2403E+01
     -4.732  0.3248E+01  0.2662E+01
     -4.652  0.3625E+01  0.2951E+01
     -4.572  0.4581E+01  0.3317E+01
     -4.493  0.5238E+01  0.3735E+01
     -4.413  0.5832E+01  0.4201E+01
     -4.333  0.6149E+01  0.4691E+01
     -4.253  0.3806E+01  0.4995E+01
     -4.173  0.1625E+01  0.5125E+01
     -4.094  0.2706E+01  0.5341E+01
     -4.014  0.3033E+01  0.5583E+01
     -3.934  0.2823E+01  0.5808E+01
     -3.854  0.2346E+01  0.5996E+01
     -3.774  0.1848E+01  0.6143E+01
     -3.695  0.1623E+01  0.6273E+01
     -3.615  0.2108E+01  0.6441E+01
     -3.535  0.3579E+01  0.6726E+01
     -3.455  0.7382E+01  0.7316E+01
     -3.375  0.8420E+01  0.7988E+01
     -3.295  0.6523E+01  0.8508E+01
     -3.216  0.7542E+01  0.9110E+01
     -3.136  0.6026E+01  0.9591E+01
     -3.056  0.2755E+01  0.9811E+01
     -2.976  0.1946E+01  0.9967E+01
     -2.896  0.3011E+01  0.1021E+02
     -2.817  0.3254E+01  0.1047E+02
     -2.737  0.5751E+01  0.1093E+02
     -2.657  0.3318E+01  0.1119E+02
     -2.577  0.3355E+01  0.1146E+02
     -2.497  0.3469E+01  0.1174E+02
     -2.417  0.4964E+01  0.1213E+02
     -2.338  0.1013E+02  0.1294E+02
     -2.258  0.8697E+01  0.1363E+02
     -2.178  0.4824E+01  0.1402E+02
     -2.098  0.4757E+01  0.1440E+02
     -2.018  0.4465E+01  0.1475E+02
     -1.939  0.4111E+01  0.1508E+02
     -1.859  0.4705E+01  0.1546E+02
     -1.779  0.5872E+01  0.1593E+02
     -1.699  0.8569E+01  0.1661E+02
     -1.619  0.7801E+01  0.1723E+02
     -1.539  0.7852E+01  0.1786E+02
     -1.460  0.7433E+01  0.1845E+02
     -1.380  0.4389E+01  0.1880E+02
     -1.300  0.4198E+01  0.1914E+02
     -1.220  0.3863E+01  0.1945E+02
     -1.140  0.3709E+01  0.1974E+02
     -1.061  0.2633E+01  0.1995E+02
     -0.981  0.3587E+01  0.2024E+02
     -0.901  0.4197E+01  0.2057E+02
     -0.821  0.5181E+01  0.2099E+02
     -0.741  0.4533E+01  0.2135E+02
     -0.661  0.5603E+01  0.2180E+02
     -0.582  0.5758E+01  0.2226E+02
     -0.502  0.6799E+01  0.2280E+02
     -0.422  0.6890E+01  0.2335E+02
     -0.342  0.4016E+01  0.2367E+02
     -0.262  0.4878E+01  0.2406E+02
     -0.183  0.5518E+01  0.2450E+02
     -0.103  0.6615E+01  0.2503E+02
     -0.023  0.6082E+01  0.2551E+02
      0.057  0.6882E+01  0.2606E+02
      0.137  0.5140E+01  0.2647E+02
      0.216  0.3476E+01  0.2675E+02
      0.296  0.4306E+01  0.2709E+02
      0.376  0.5867E+01  0.2756E+02
      0.456  0.7331E+01  0.2815E+02
      0.536  0.6245E+01  0.2865E+02
      0.616  0.6570E+01  0.2917E+02
      0.695  0.5913E+01  0.2964E+02
      0.775  0.4900E+01  0.3003E+02
      0.855  0.6554E+01  0.3056E+02
      0.935  0.4719E+01  0.3093E+02
      1.015  0.2959E+01  0.3117E+02
      1.094  0.3971E+01  0.3149E+02
      1.174  0.3418E+01  0.3176E+02
      1.254  0.3188E+01  0.3201E+02
      1.334  0.3821E+01  0.3232E+02
      1.414  0.4416E+01  0.3267E+02
      1.494  0.5317E+01  0.3310E+02
      1.573  0.4801E+01  0.3348E+02
      1.653  0.3895E+01  0.3379E+02
      1.733  0.4321E+01  0.3413E+02
      1.813  0.4990E+01  0.3453E+02
      1.893  0.6971E+01  0.3509E+02
      1.972  0.5714E+01  0.3555E+02
      2.052  0.7449E+01  0.3614E+02
      2.132  0.9532E+01  0.3690E+02
      2.212  0.7671E+01  0.3751E+02
      2.292  0.8107E+01  0.3816E+02
      2.372  0.5769E+01  0.3862E+02
      2.451  0.8601E+01  0.3931E+02
      2.531  0.9514E+01  0.4007E+02
      2.611  0.8242E+01  0.4072E+02
      2.691  0.7755E+01  0.4134E+02
      2.771  0.5756E+01  0.4180E+02
      2.850  0.4153E+01  0.4213E+02
      2.930  0.3155E+01  0.4239E+02
      3.010  0.3693E+01  0.4268E+02
      3.090  0.4262E+01  0.4302E+02
      3.170  0.5052E+01  0.4342E+02
      3.249  0.7203E+01  0.4400E+02
      3.329  0.6822E+01  0.4454E+02
      3.409  0.6819E+01  0.4509E+02
      3.489  0.5984E+01  0.4557E+02
      3.569  0.4747E+01  0.4594E+02
      3.649  0.5404E+01  0.4638E+02
      3.728  0.6976E+01  0.4693E+02
      3.808  0.6322E+01  0.4744E+02
      3.888  0.8063E+01  0.4808E+02
      3.968  0.7583E+01  0.4869E+02
      4.048  0.8845E+01  0.4939E+02
      4.127  0.9079E+01  0.5012E+02
      4.207  0.8377E+01  0.5079E+02
      4.287  0.7575E+01  0.5139E+02
      4.367  0.5356E+01  0.5182E+02
      4.447  0.7177E+01  0.5239E+02
      4.527  0.5333E+01  0.5282E+02
      4.606  0.5095E+01  0.5322E+02
      4.686  0.6692E+01  0.5376E+02
      4.766  0.3483E+01  0.5403E+02
      4.846  0.2879E+01  0.5426E+02
      4.926  0.3833E+01  0.5457E+02
      5.005  0.5107E+01  0.5498E+02
      5.085  0.4983E+01  0.5538E+02
      5.165  0.4062E+01  0.5570E+02
      5.245  0.3153E+01  0.5595E+02
      5.325  0.2539E+01  0.5615E+02
      5.405  0.4339E+01  0.5650E+02
      5.484  0.5048E+01  0.5690E+02
      5.564  0.3870E+01  0.5721E+02
      5.644  0.2968E+01  0.5745E+02
      5.724  0.2344E+01  0.5764E+02
      5.804  0.3120E+01  0.5789E+02
      5.883  0.3150E+01  0.5814E+02
      5.963  0.4715E+01  0.5851E+02
      6.043  0.3856E+01  0.5882E+02
      6.123  0.3113E+01  0.5907E+02
      6.203  0.2815E+01  0.5929E+02
      6.283  0.1575E+01  0.5942E+02
      6.362  0.2179E+01  0.5959E+02
      6.442  0.2538E+01  0.5980E+02
      6.522  0.1022E+01  0.5988E+02
      6.602  0.2196E+01  0.6005E+02
      6.682  0.1894E+01  0.6020E+02
      6.761  0.7612E+00  0.6026E+02
      6.841  0.2165E+01  0.6044E+02
      6.921  0.2371E+01  0.6063E+02
      7.001  0.2751E+01  0.6085E+02
      7.081  0.2482E+01  0.6104E+02
      7.160  0.2691E+01  0.6126E+02
      7.240  0.2962E+01  0.6150E+02
      7.320  0.3978E+01  0.6181E+02
      7.400  0.3134E+01  0.6206E+02
      7.480  0.1737E+01  0.6220E+02
      7.560  0.2542E+01  0.6240E+02
      7.639  0.1811E+01  0.6255E+02
      7.719  0.3007E+01  0.6279E+02
      7.799  0.3349E+01  0.6306E+02
      7.879  0.3264E+01  0.6332E+02
      7.959  0.1918E+01  0.6347E+02
      8.038  0.2956E+01  0.6371E+02
      8.118  0.3535E+01  0.6399E+02
      8.198  0.2507E+01  0.6419E+02
      8.278  0.2125E+01  0.6436E+02
      8.358  0.2487E+01  0.6456E+02
      8.438  0.3050E+01  0.6480E+02
      8.517  0.3781E+01  0.6510E+02
      8.597  0.5051E+01  0.6551E+02
      8.677  0.5035E+01  0.6591E+02
      8.757  0.4741E+01  0.6629E+02
      8.837  0.5884E+01  0.6675E+02
      8.916  0.4247E+01  0.6709E+02
      8.996  0.1849E+01  0.6724E+02
      9.076  0.2379E+01  0.6743E+02
      9.156  0.3490E+01  0.6771E+02
      9.236  0.2712E+01  0.6793E+02
      9.316  0.2364E+01  0.6812E+02
      9.395  0.2342E+01  0.6830E+02
      9.475  0.1996E+01  0.6846E+02
      9.555  0.2873E+01  0.6869E+02
      9.635  0.2535E+01  0.6889E+02
      9.715  0.3170E+01  0.6915E+02
      9.794  0.5442E+01  0.6958E+02
      9.874  0.4095E+01  0.6991E+02
      9.954  0.2809E+01  0.7013E+02
     10.034  0.2308E+01  0.7032E+02
     10.114  0.2287E+01  0.7050E+02
     10.194  0.3063E+01  0.7074E+02
     10.273  0.5631E+01  0.7119E+02
     10.353  0.5091E+01  0.7160E+02
     10.433  0.4262E+01  0.7194E+02
     10.513  0.5189E+01  0.7235E+02
     10.593  0.3889E+01  0.7266E+02
     10.672  0.3139E+01  0.7291E+02
     10.752  0.6085E+01  0.7340E+02
     10.832  0.7100E+01  0.7397E+02
     10.912  0.5063E+01  0.7437E+02
     10.992  0.2908E+01  0.7460E+02
     11.071  0.3472E+01  0.7488E+02
     11.151  0.3060E+01  0.7512E+02
     11.231  0.3992E+01  0.7544E+02
     11.311  0.5160E+01  0.7585E+02
     11.391  0.2536E+01  0.7606E+02
     11.471  0.2697E+01  0.7627E+02
     11.550  0.3203E+01  0.7653E+02
     11.630  0.3247E+01  0.7679E+02
     11.710  0.2361E+01  0.7698E+02
     11.790  0.1953E+01  0.7713E+02
     11.870  0.1474E+01  0.7725E+02
     11.949  0.1158E+01  0.7734E+02
     12.029  0.1403E+01  0.7745E+02
     12.109  0.1735E+01  0.7759E+02
     12.189  0.1538E+01  0.7771E+02
     12.269  0.1257E+01  0.7781E+02
     12.349  0.1065E+01  0.7790E+02
     12.428  0.3068E+01  0.7814E+02
     12.508  0.2605E+01  0.7835E+02
     12.588  0.2194E+01  0.7853E+02
     12.668  0.2952E+01  0.7876E+02
     12.748  0.2611E+01  0.7897E+02
     12.827  0.1179E+01  0.7907E+02
     12.907  0.1316E+01  0.7917E+02
     12.987  0.1535E+01  0.7929E+02
     13.067  0.1044E+01  0.7938E+02
     13.147  0.6242E+00  0.7943E+02
     13.227  0.3738E+00  0.7946E+02
     13.306  0.1069E+01  0.7954E+02
     13.386  0.1165E+01  0.7963E+02
     13.466  0.9776E+00  0.7971E+02
     13.546  0.1651E+01  0.7984E+02
     13.626  0.1203E+01  0.7994E+02
     13.705  0.4037E+00  0.7997E+02
     13.785  0.3153E+00  0.8000E+02
     13.865  0.3146E-01  0.8000E+02
     13.945  0.4607E-04  0.8000E+02
     14.025  0.5541E-09  0.8000E+02
     14.105  0.4637E-16  0.8000E+02
     14.184  0.0000E+00  0.8000E+02
     14.264  0.0000E+00  0.8000E+02
     14.344  0.0000E+00  0.8000E+02
     14.424  0.0000E+00  0.8000E+02
     14.504  0.0000E+00  0.8000E+02
     14.583  0.0000E+00  0.8000E+02
     14.663  0.0000E+00  0.8000E+02
     14.743  0.0000E+00  0.8000E+02
     14.823  0.0000E+00  0.8000E+02
