    5    5    1    1
  0.3786540E+02  0.3160000E-09  0.3160000E-09  0.1896000E-08  0.5000000E-15
  1.000000000000000E-004
  CAR 
 unknown system                          
     30     60     40
 
  0.0000000E+00  0.0000000E+00  0.0000000E+00  0.1666667E-01
    1       -8.033614   1.000000
    2       -6.147605   1.000000
    3       -4.639518   1.000000
    4       -4.544017   1.000000
    5       -4.017162   1.000000
    6       -3.365042   1.000000
    7       -3.356916   1.000000
    8       -1.652412   1.000000
    9       -0.455083   1.000000
   10       -0.455083   1.000000
   11       -0.111166   1.000000
   12       -0.022691   1.000000
   13       -0.022691   1.000000
   14        0.344920   1.000000
   15        0.404712   1.000000
   16        0.464149   1.000000
   17        0.825757   0.057173
   18        0.825757   0.057173
   19        1.043805   0.000000
   20        2.216707   0.000000
   21        2.454269   0.000000
   22        2.454269   0.000000
   23        2.504785   0.000000
   24        3.446993   0.000000
   25        4.182268   0.000000
   26        4.252051   0.000000
   27        4.503282   0.000000
   28        4.640966   0.000000
   29        4.640966   0.000000
   30        5.352325   0.000000
   31        5.443323   0.000000
   32        5.443839   0.000000
   33        7.497034   0.000000
   34        7.675529   0.000000
   35       10.178552   0.000000
   36       10.497463   0.000000
   37       10.497463   0.000000
   38       12.378158   0.000000
   39       13.531415   0.000000
   40       13.531437   0.000000
 
  0.2631579E-01  0.0000000E+00  0.0000000E+00  0.1666667E-01
    1       -8.018144   1.000000
    2       -6.136132   1.000000
    3       -4.628381   1.000000
    4       -4.534851   1.000000
    5       -4.009927   1.000000
    6       -3.364110   1.000000
    7       -3.342564   1.000000
    8       -1.658397   1.000000
    9       -0.474982   1.000000
   10       -0.468011   1.000000
   11       -0.224709   1.000000
   12       -0.009002   1.000000
   13        0.076454   1.000000
   14        0.300043   1.000000
   15        0.418703   1.000000
   16        0.467119   1.000000
   17        0.717005   0.932808
   18        0.896639   0.000169
   19        1.158809   0.000000
   20        2.206692   0.000000
   21        2.244874   0.000000
   22        2.450621   0.000000
   23        2.719651   0.000000
   24        3.433843   0.000000
   25        4.102873   0.000000
   26        4.247370   0.000000
   27        4.517380   0.000000
   28        4.560891   0.000000
   29        4.725793   0.000000
   30        5.385243   0.000000
   31        5.417971   0.000000
   32        5.467950   0.000000
   33        7.558524   0.000000
   34        7.692415   0.000000
   35       10.199058   0.000000
   36       10.422050   0.000000
   37       10.556401   0.000000
   38       12.396307   0.000000
   39       13.396714   0.000000
   40       13.543227   0.000000
 
  0.5263158E-01  0.0000000E+00  0.0000000E+00  0.1666667E-01
    1       -7.971879   1.000000
    2       -6.102103   1.000000
    3       -4.597643   1.000000
    4       -4.505393   1.000000
    5       -3.989078   1.000000
    6       -3.371494   1.000000
    7       -3.289641   1.000000
    8       -1.672587   1.000000
    9       -0.528764   1.000000
   10       -0.508634   1.000000
   11       -0.381384   1.000000
   12        0.025855   1.000000
   13        0.187640   1.000000
   14        0.199006   1.000000
   15        0.476063   1.000000
   16        0.478839   1.000000
   17        0.558700   1.000000
   18        1.054302   0.000000
   19        1.335765   0.000000
   20        2.028527   0.000000
   21        2.172763   0.000000
   22        2.447679   0.000000
   23        2.952415   0.000000
   24        3.395770   0.000000
   25        3.951880   0.000000
   26        4.231697   0.000000
   27        4.360965   0.000000
   28        4.557476   0.000000
   29        4.894547   0.000000
   30        5.347739   0.000000
   31        5.459975   0.000000
   32        5.539248   0.000000
   33        7.727509   0.000000
   34        7.742746   0.000000
   35       10.209168   0.000000
   36       10.259615   0.000000
   37       10.727895   0.000000
   38       12.447107   0.000000
   39       13.052765   0.000000
   40       13.579385   0.000000
 
  0.7894737E-01  0.0000000E+00  0.0000000E+00  0.1666667E-01
    1       -7.895348   1.000000
    2       -6.046701   1.000000
    3       -4.554997   1.000000
    4       -4.450194   1.000000
    5       -3.957006   1.000000
    6       -3.384844   1.000000
    7       -3.201343   1.000000
    8       -1.685064   1.000000
    9       -0.603171   1.000000
   10       -0.580925   1.000000
   11       -0.544787   1.000000
   12        0.063841   1.000000
   13        0.095506   1.000000
   14        0.267653   1.000000
   15        0.419374   1.000000
   16        0.508649   1.000000
   17        0.564776   1.000000
   18        1.243412   0.000000
   19        1.504310   0.000000
   20        1.840120   0.000000
   21        2.113916   0.000000
   22        2.455640   0.000000
   23        3.167777   0.000000
   24        3.337690   0.000000
   25        3.804583   0.000000
   26        4.082799   0.000000
   27        4.221022   0.000000
   28        4.618794   0.000000
   29        5.076453   0.000000
   30        5.253285   0.000000
   31        5.551662   0.000000
   32        5.649931   0.000000
   33        7.825277   0.000000
   34        7.969045   0.000000
   35        9.889879   0.000000
   36       10.355295   0.000000
   37       10.998360   0.000000
   38       12.523848   0.000000
   39       12.603113   0.000000
   40       13.641880   0.000000
 
  0.1052632E+00  0.0000000E+00  0.0000000E+00  0.1666667E-01
    1       -7.789434   1.000000
    2       -5.971943   1.000000
    3       -4.508102   1.000000
    4       -4.365788   1.000000
    5       -3.916908   1.000000
    6       -3.403802   1.000000
    7       -3.079297   1.000000
    8       -1.682705   1.000000
    9       -0.710166   1.000000
   10       -0.686608   1.000000
   11       -0.684246   1.000000
   12        0.007147   1.000000
   13        0.080624   1.000000
   14        0.302022   1.000000
   15        0.310510   1.000000
   16        0.570186   1.000000
   17        0.674753   0.996450
   18        1.441219   0.000000
   19        1.645778   0.000000
   20        1.692553   0.000000
   21        2.042239   0.000000
   22        2.469226   0.000000
   23        3.270337   0.000000
   24        3.349882   0.000000
   25        3.690621   0.000000
   26        3.788527   0.000000
   27        4.191269   0.000000
   28        4.697070   0.000000
   29        5.163153   0.000000
   30        5.249040   0.000000
   31        5.655600   0.000000
   32        5.789608   0.000000
   33        7.936927   0.000000
   34        8.247192   0.000000
   35        9.498294   0.000000
   36       10.467298   0.000000
   37       11.350900   0.000000
   38       12.133073   0.000000
   39       12.621732   0.000000
   40       13.734450   0.000000
 
  0.1315789E+00  0.0000000E+00  0.0000000E+00  0.1666667E-01
    1       -7.655371   1.000000
    2       -5.880712   1.000000
    3       -4.460005   1.000000
    4       -4.256181   1.000000
    5       -3.871082   1.000000
    6       -3.428024   1.000000
    7       -2.925386   1.000000
    8       -1.652134   1.000000
    9       -0.874675   1.000000
   10       -0.821292   1.000000
   11       -0.760162   1.000000
   12       -0.061762   1.000000
   13        0.061068   1.000000
   14        0.230712   1.000000
   15        0.281018   1.000000
   16        0.669016   0.997844
   17        0.799993   0.197602
   18        1.593537   0.000000
   19        1.634196   0.000000
   20        1.747826   0.000000
   21        1.973974   0.000000
   22        2.468966   0.000000
   23        3.213280   0.000000
   24        3.481323   0.000000
   25        3.486462   0.000000
   26        3.627186   0.000000
   27        4.160003   0.000000
   28        4.789807   0.000000
   29        5.108596   0.000000
   30        5.402519   0.000000
   31        5.773281   0.000000
   32        5.947164   0.000000
   33        8.069977   0.000000
   34        8.533249   0.000000
   35        9.065994   0.000000
   36       10.527005   0.000000
   37       11.748118   0.000000
   38       11.769368   0.000000
   39       12.736548   0.000000
   40       13.445982   0.000000
 
  0.1578947E+00  0.0000000E+00  0.0000000E+00  0.1666667E-01
    1       -7.494826   1.000000
    2       -5.776808   1.000000
    3       -4.413571   1.000000
    4       -4.130265   1.000000
    5       -3.817697   1.000000
    6       -3.456558   1.000000
    7       -2.742145   1.000000
    8       -1.582058   1.000000
    9       -1.036105   1.000000
   10       -0.975579   1.000000
   11       -0.821703   1.000000
   12       -0.110562   1.000000
   13        0.006788   1.000000
   14        0.171243   1.000000
   15        0.206861   1.000000
   16        0.797103   0.221102
   17        0.936383   0.000001
   18        1.537723   0.000000
   19        1.805813   0.000000
   20        1.808919   0.000000
   21        1.920760   0.000000
   22        2.429576   0.000000
   23        3.192661   0.000000
   24        3.197601   0.000000
   25        3.551158   0.000000
   26        3.621879   0.000000
   27        4.128683   0.000000
   28        4.895757   0.000000
   29        5.113171   0.000000
   30        5.531656   0.000000
   31        5.906088   0.000000
   32        6.112716   0.000000
   33        8.191881   0.000000
   34        8.640399   0.000000
   35        8.804557   0.000000
   36       10.377673   0.000000
   37       11.626724   0.000000
   38       12.240199   0.000000
   39       12.802534   0.000000
   40       12.970732   0.000000
 
  0.1842105E+00  0.0000000E+00  0.0000000E+00  0.1666667E-01
    1       -7.309832   1.000000
    2       -5.664950   1.000000
    3       -4.374448   1.000000
    4       -4.001709   1.000000
    5       -3.746346   1.000000
    6       -3.487583   1.000000
    7       -2.533013   1.000000
    8       -1.465158   1.000000
    9       -1.192616   1.000000
   10       -1.139384   1.000000
   11       -0.862066   1.000000
   12       -0.139586   1.000000
   13       -0.072972   1.000000
   14        0.094070   1.000000
   15        0.121532   1.000000
   16        0.942301   0.000001
   17        1.079903   0.000000
   18        1.506690   0.000000
   19        1.826647   0.000000
   20        1.887548   0.000000
   21        1.946733   0.000000
   22        2.338610   0.000000
   23        2.943609   0.000000
   24        3.224135   0.000000
   25        3.567067   0.000000
   26        3.669687   0.000000
   27        4.102221   0.000000
   28        5.013910   0.000000
   29        5.179838   0.000000
   30        5.634197   0.000000
   31        6.054239   0.000000
   32        6.278148   0.000000
   33        8.032009   0.000000
   34        8.498546   0.000000
   35        9.030374   0.000000
   36       10.020305   0.000000
   37       11.793397   0.000000
   38       12.354729   0.000000
   39       12.752619   0.000000
   40       13.053528   0.000000
 
  0.2105263E+00  0.0000000E+00  0.0000000E+00  0.1666667E-01
    1       -7.102936   1.000000
    2       -5.550716   1.000000
    3       -4.349900   1.000000
    4       -3.887273   1.000000
    5       -3.640043   1.000000
    6       -3.518310   1.000000
    7       -2.302624   1.000000
    8       -1.342613   1.000000
    9       -1.304593   1.000000
   10       -1.299002   1.000000
   11       -0.876473   1.000000
   12       -0.168144   1.000000
   13       -0.149604   1.000000
   14       -0.039521   1.000000
   15        0.072768   1.000000
   16        1.093165   0.000000
   17        1.224078   0.000000
   18        1.478991   0.000000
   19        1.826148   0.000000
   20        1.872411   0.000000
   21        2.019688   0.000000
   22        2.210510   0.000000
   23        2.755688   0.000000
   24        3.300870   0.000000
   25        3.554097   0.000000
   26        3.755281   0.000000
   27        4.087228   0.000000
   28        5.142601   0.000000
   29        5.291497   0.000000
   30        5.710528   0.000000
   31        6.216913   0.000000
   32        6.435746   0.000000
   33        7.602588   0.000000
   34        8.627575   0.000000
   35        9.082772   0.000000
   36        9.723272   0.000000
   37       11.878365   0.000000
   38       12.096358   0.000000
   39       13.119601   0.000000
   40       13.222362   0.000000
 
  0.2368421E+00  0.0000000E+00  0.0000000E+00  0.1666667E-01
    1       -6.877283   1.000000
    2       -5.440295   1.000000
    3       -4.345022   1.000000
    4       -3.789007   1.000000
    5       -3.545229   1.000000
    6       -3.497027   1.000000
    7       -2.057198   1.000000
    8       -1.484660   1.000000
    9       -1.465400   1.000000
   10       -1.085690   1.000000
   11       -0.861572   1.000000
   12       -0.269577   1.000000
   13       -0.179714   1.000000
   14       -0.141993   1.000000
   15        0.019200   1.000000
   16        1.235188   0.000000
   17        1.354139   0.000000
   18        1.438957   0.000000
   19        1.821319   0.000000
   20        1.862240   0.000000
   21        2.011912   0.000000
   22        2.083292   0.000000
   23        2.660942   0.000000
   24        3.406719   0.000000
   25        3.538879   0.000000
   26        3.860045   0.000000
   27        4.090774   0.000000
   28        5.278425   0.000000
   29        5.425598   0.000000
   30        5.763526   0.000000
   31        6.392471   0.000000
   32        6.571228   0.000000
   33        7.171475   0.000000
   34        8.753443   0.000000
   35        8.758339   0.000000
   36        9.765778   0.000000
   37       11.460063   0.000000
   38       12.385600   0.000000
   39       12.702062   0.000000
   40       13.357500   0.000000
 
  0.2631579E+00  0.0000000E+00  0.0000000E+00  0.1666667E-01
    1       -6.636608   1.000000
    2       -5.339887   1.000000
    3       -4.359272   1.000000
    4       -3.694893   1.000000
    5       -3.564640   1.000000
    6       -3.334616   1.000000
    7       -1.805121   1.000000
    8       -1.617785   1.000000
    9       -1.617460   1.000000
   10       -0.830863   1.000000
   11       -0.814949   1.000000
   12       -0.370032   1.000000
   13       -0.317121   1.000000
   14       -0.119255   1.000000
   15       -0.041612   1.000000
   16        1.337812   0.000000
   17        1.379579   0.000000
   18        1.434708   0.000000
   19        1.824565   0.000000
   20        1.827751   0.000000
   21        1.984830   0.000000
   22        2.025726   0.000000
   23        2.632829   0.000000
   24        3.527873   0.000000
   25        3.538329   0.000000
   26        3.967308   0.000000
   27        4.117621   0.000000
   28        5.413742   0.000000
   29        5.564266   0.000000
   30        5.798135   0.000000
   31        6.578594   0.000000
   32        6.584437   0.000000
   33        6.868502   0.000000
   34        8.272839   0.000000
   35        8.840884   0.000000
   36        9.939666   0.000000
   37       11.126772   0.000000
   38       12.083187   0.000000
   39       12.894220   0.000000
   40       12.921850   0.000000
 
  0.2894737E+00  0.0000000E+00  0.0000000E+00  0.1666667E-01
    1       -6.385543   1.000000
    2       -5.254773   1.000000
    3       -4.387144   1.000000
    4       -3.600577   1.000000
    5       -3.573567   1.000000
    6       -3.167370   1.000000
    7       -1.758922   1.000000
    8       -1.739827   1.000000
    9       -1.557296   1.000000
   10       -0.735106   1.000000
   11       -0.543675   1.000000
   12       -0.464747   1.000000
   13       -0.445937   1.000000
   14       -0.109128   1.000000
   15       -0.085604   1.000000
   16        1.301594   0.000000
   17        1.343380   0.000000
   18        1.428794   0.000000
   19        1.815355   0.000000
   20        1.842167   0.000000
   21        2.033139   0.000000
   22        2.056486   0.000000
   23        2.620177   0.000000
   24        3.558285   0.000000
   25        3.654075   0.000000
   26        4.064002   0.000000
   27        4.166804   0.000000
   28        5.527958   0.000000
   29        5.695874   0.000000
   30        5.820715   0.000000
   31        6.296441   0.000000
   32        6.772350   0.000000
   33        6.888783   0.000000
   34        7.772226   0.000000
   35        8.853558   0.000000
   36       10.113531   0.000000
   37       10.892724   0.000000
   38       11.658226   0.000000
   39       12.443662   0.000000
   40       13.291259   0.000000
 
  0.3157895E+00  0.0000000E+00  0.0000000E+00  0.1666667E-01
    1       -6.129879   1.000000
    2       -5.188314   1.000000
    3       -4.421207   1.000000
    4       -3.570692   1.000000
    5       -3.511251   1.000000
    6       -3.001605   1.000000
    7       -1.886794   1.000000
    8       -1.850660   1.000000
    9       -1.326319   1.000000
   10       -0.623080   1.000000
   11       -0.562639   1.000000
   12       -0.557815   1.000000
   13       -0.232560   1.000000
   14       -0.180644   1.000000
   15       -0.046768   1.000000
   16        1.210760   0.000000
   17        1.255904   0.000000
   18        1.375396   0.000000
   19        1.867030   0.000000
   20        1.875269   0.000000
   21        2.138642   0.000000
   22        2.149481   0.000000
   23        2.606242   0.000000
   24        3.596842   0.000000
   25        3.777412   0.000000
   26        4.140860   0.000000
   27        4.230399   0.000000
   28        5.551933   0.000000
   29        5.813575   0.000000
   30        5.837928   0.000000
   31        6.044415   0.000000
   32        6.949850   0.000000
   33        6.970207   0.000000
   34        7.279843   0.000000
   35        8.810783   0.000000
   36       10.229873   0.000000
   37       10.728392   0.000000
   38       11.310038   0.000000
   39       12.068055   0.000000
   40       13.294522   0.000000
 
  0.3421053E+00  0.0000000E+00  0.0000000E+00  0.1666667E-01
    1       -5.876984   1.000000
    2       -5.141146   1.000000
    3       -4.453984   1.000000
    4       -3.556969   1.000000
    5       -3.436743   1.000000
    6       -2.837058   1.000000
    7       -1.999909   1.000000
    8       -1.948953   1.000000
    9       -1.122993   1.000000
   10       -0.665172   1.000000
   11       -0.651700   1.000000
   12       -0.488043   1.000000
   13       -0.252343   1.000000
   14       -0.006683   1.000000
   15        0.079182   1.000000
   16        1.114787   0.000000
   17        1.158857   0.000000
   18        1.337166   0.000000
   19        1.921529   0.000000
   20        1.931098   0.000000
   21        2.255681   0.000000
   22        2.263865   0.000000
   23        2.617288   0.000000
   24        3.648251   0.000000
   25        3.891728   0.000000
   26        4.192687   0.000000
   27        4.295776   0.000000
   28        5.390472   0.000000
   29        5.855250   0.000000
   30        5.913801   0.000000
   31        5.968986   0.000000
   32        6.806510   0.000000
   33        6.989317   0.000000
   34        7.168677   0.000000
   35        8.763047   0.000000
   36       10.201569   0.000000
   37       10.552805   0.000000
   38       11.130811   0.000000
   39       11.808260   0.000000
   40       12.925793   0.000000
 
  0.3684211E+00  0.0000000E+00  0.0000000E+00  0.1666667E-01
    1       -5.636656   1.000000
    2       -5.111273   1.000000
    3       -4.478111   1.000000
    4       -3.535436   1.000000
    5       -3.387036   1.000000
    6       -2.669077   1.000000
    7       -2.097150   1.000000
    8       -2.033785   1.000000
    9       -0.951687   1.000000
   10       -0.758880   1.000000
   11       -0.752394   1.000000
   12       -0.356873   1.000000
   13       -0.320209   1.000000
   14        0.042635   1.000000
   15        0.353762   1.000000
   16        1.021251   0.000000
   17        1.124729   0.000000
   18        1.341550   0.000000
   19        1.976512   0.000000
   20        1.985092   0.000000
   21        2.305201   0.000000
   22        2.389545   0.000000
   23        2.710647   0.000000
   24        3.705674   0.000000
   25        3.993009   0.000000
   26        4.218824   0.000000
   27        4.349475   0.000000
   28        5.154841   0.000000
   29        5.875617   0.000000
   30        5.926832   0.000000
   31        5.995283   0.000000
   32        6.361112   0.000000
   33        7.036230   0.000000
   34        7.362782   0.000000
   35        8.754859   0.000000
   36       10.005471   0.000000
   37       10.307716   0.000000
   38       11.140161   0.000000
   39       11.648660   0.000000
   40       12.649113   0.000000
 
  0.3947368E+00  0.0000000E+00  0.0000000E+00  0.1666667E-01
    1       -5.421938   1.000000
    2       -5.094891   1.000000
    3       -4.485773   1.000000
    4       -3.510308   1.000000
    5       -3.367701   1.000000
    6       -2.492527   1.000000
    7       -2.177694   1.000000
    8       -2.104360   1.000000
    9       -0.889575   1.000000
   10       -0.823762   1.000000
   11       -0.811008   1.000000
   12       -0.380610   1.000000
   13       -0.272613   1.000000
   14        0.126542   1.000000
   15        0.524445   1.000000
   16        0.936593   0.000001
   17        1.223571   0.000000
   18        1.385491   0.000000
   19        2.027691   0.000000
   20        2.034579   0.000000
   21        2.286054   0.000000
   22        2.521765   0.000000
   23        2.875581   0.000000
   24        3.762554   0.000000
   25        4.080502   0.000000
   26        4.223070   0.000000
   27        4.380709   0.000000
   28        4.939124   0.000000
   29        5.799040   0.000000
   30        5.898929   0.000000
   31        5.951987   0.000000
   32        6.058375   0.000000
   33        7.137226   0.000000
   34        7.548317   0.000000
   35        8.787856   0.000000
   36        9.748223   0.000000
   37       10.023151   0.000000
   38       11.217942   0.000000
   39       11.479120   0.000000
   40       12.552815   0.000000
 
  0.4210526E+00  0.0000000E+00  0.0000000E+00  0.1666667E-01
    1       -5.248732   1.000000
    2       -5.087606   1.000000
    3       -4.469721   1.000000
    4       -3.485891   1.000000
    5       -3.376956   1.000000
    6       -2.305135   1.000000
    7       -2.240919   1.000000
    8       -2.159992   1.000000
    9       -1.047792   1.000000
   10       -0.879115   1.000000
   11       -0.699128   1.000000
   12       -0.430564   1.000000
   13       -0.248392   1.000000
   14        0.247390   1.000000
   15        0.584978   1.000000
   16        0.865870   0.003329
   17        1.445160   0.000000
   18        1.445206   0.000000
   19        2.059937   0.000000
   20        2.089470   0.000000
   21        2.260105   0.000000
   22        2.636820   0.000000
   23        3.063283   0.000000
   24        3.813174   0.000000
   25        4.158227   0.000000
   26        4.212649   0.000000
   27        4.384515   0.000000
   28        4.764632   0.000000
   29        5.590717   0.000000
   30        5.591358   0.000000
   31        5.922655   0.000000
   32        6.104471   0.000000
   33        7.300827   0.000000
   34        7.719673   0.000000
   35        8.814819   0.000000
   36        9.502678   0.000000
   37        9.777462   0.000000
   38       11.241726   0.000000
   39       11.270279   0.000000
   40       12.461766   0.000000
 
  0.4473684E+00  0.0000000E+00  0.0000000E+00  0.1666667E-01
    1       -5.130015   1.000000
    2       -5.085445   1.000000
    3       -4.430090   1.000000
    4       -3.465829   1.000000
    5       -3.405083   1.000000
    6       -2.286377   1.000000
    7       -2.200131   1.000000
    8       -2.108838   1.000000
    9       -1.228855   1.000000
   10       -0.918501   1.000000
   11       -0.616561   1.000000
   12       -0.467799   1.000000
   13       -0.254779   1.000000
   14        0.368729   1.000000
   15        0.601126   0.999999
   16        0.812810   0.112614
   17        1.492275   0.000000
   18        1.690386   0.000000
   19        2.082463   0.000000
   20        2.134794   0.000000
   21        2.252368   0.000000
   22        2.721321   0.000000
   23        3.243529   0.000000
   24        3.852867   0.000000
   25        4.196379   0.000000
   26        4.235523   0.000000
   27        4.364618   0.000000
   28        4.631155   0.000000
   29        5.294981   0.000000
   30        5.360513   0.000000
   31        5.943150   0.000000
   32        6.135439   0.000000
   33        7.502016   0.000000
   34        7.867954   0.000000
   35        8.755828   0.000000
   36        9.298395   0.000000
   37        9.659938   0.000000
   38       10.985300   0.000000
   39       11.268374   0.000000
   40       12.463172   0.000000
 
  0.4736842E+00  0.0000000E+00  0.0000000E+00  0.1666667E-01
    1       -5.085389   1.000000
    2       -5.065988   1.000000
    3       -4.385049   1.000000
    4       -3.452757   1.000000
    5       -3.435410   1.000000
    6       -2.313775   1.000000
    7       -2.224384   1.000000
    8       -1.913493   1.000000
    9       -1.417912   1.000000
   10       -0.942051   1.000000
   11       -0.565507   1.000000
   12       -0.490753   1.000000
   13       -0.266458   1.000000
   14        0.456517   1.000000
   15        0.606181   0.999998
   16        0.779982   0.388116
   17        1.514636   0.000000
   18        1.878423   0.000000
   19        2.095705   0.000000
   20        2.164777   0.000000
   21        2.260961   0.000000
   22        2.767702   0.000000
   23        3.383870   0.000000
   24        3.878134   0.000000
   25        4.182595   0.000000
   26        4.322274   0.000000
   27        4.335336   0.000000
   28        4.526324   0.000000
   29        5.092772   0.000000
   30        5.173771   0.000000
   31        5.957003   0.000000
   32        6.153123   0.000000
   33        7.697906   0.000000
   34        7.976056   0.000000
   35        8.609520   0.000000
   36        9.156818   0.000000
   37        9.673240   0.000000
   38       10.777122   0.000000
   39       11.240922   0.000000
   40       12.553921   0.000000
 
  0.5000000E+00  0.0000000E+00  0.0000000E+00  0.1666667E-01
    1       -5.085578   1.000000
    2       -5.046548   1.000000
    3       -4.364881   1.000000
    4       -3.448684   1.000000
    5       -3.448229   1.000000
    6       -2.322928   1.000000
    7       -2.232497   1.000000
    8       -1.788952   1.000000
    9       -1.540892   1.000000
   10       -0.949887   1.000000
   11       -0.548192   1.000000
   12       -0.498507   1.000000
   13       -0.271489   1.000000
   14        0.488572   1.000000
   15        0.607548   0.999998
   16        0.768876   0.511928
   17        1.519767   0.000000
   18        1.950041   0.000000
   19        2.100040   0.000000
   20        2.175278   0.000000
   21        2.267396   0.000000
   22        2.780851   0.000000
   23        3.439558   0.000000
   24        3.886802   0.000000
   25        4.177274   0.000000
   26        4.320523   0.000000
   27        4.399646   0.000000
   28        4.448435   0.000000
   29        5.019280   0.000000
   30        5.099872   0.000000
   31        5.961893   0.000000
   32        6.158856   0.000000
   33        7.794305   0.000000
   34        8.017389   0.000000
   35        8.520585   0.000000
   36        9.104447   0.000000
   37        9.701444   0.000000
   38       10.692242   0.000000
   39       11.226941   0.000000
   40       12.621337   0.000000
 
  0.5000000E+00  0.0000000E+00  0.0000000E+00  0.1666667E-01
    1       -5.085578   1.000000
    2       -5.046548   1.000000
    3       -4.364881   1.000000
    4       -3.448684   1.000000
    5       -3.448229   1.000000
    6       -2.322928   1.000000
    7       -2.232497   1.000000
    8       -1.788952   1.000000
    9       -1.540892   1.000000
   10       -0.949887   1.000000
   11       -0.548192   1.000000
   12       -0.498507   1.000000
   13       -0.271489   1.000000
   14        0.488572   1.000000
   15        0.607548   0.999998
   16        0.768876   0.511928
   17        1.519767   0.000000
   18        1.950041   0.000000
   19        2.100040   0.000000
   20        2.175278   0.000000
   21        2.267396   0.000000
   22        2.780851   0.000000
   23        3.439558   0.000000
   24        3.886802   0.000000
   25        4.177274   0.000000
   26        4.320523   0.000000
   27        4.399646   0.000000
   28        4.448435   0.000000
   29        5.019280   0.000000
   30        5.099872   0.000000
   31        5.961893   0.000000
   32        6.158856   0.000000
   33        7.794305   0.000000
   34        8.017389   0.000000
   35        8.520585   0.000000
   36        9.104447   0.000000
   37        9.701444   0.000000
   38       10.692242   0.000000
   39       11.226941   0.000000
   40       12.621341   0.000000
 
  0.5000000E+00  0.2631579E-01  0.0000000E+00  0.1666667E-01
    1       -5.069033   1.000000
    2       -5.031166   1.000000
    3       -4.353446   1.000000
    4       -3.446084   1.000000
    5       -3.435821   1.000000
    6       -2.328308   1.000000
    7       -2.242192   1.000000
    8       -1.804495   1.000000
    9       -1.576118   1.000000
   10       -0.902102   1.000000
   11       -0.621459   1.000000
   12       -0.554198   1.000000
   13       -0.148899   1.000000
   14        0.457479   1.000000
   15        0.619562   0.999989
   16        0.786441   0.320283
   17        1.438593   0.000000
   18        1.924982   0.000000
   19        2.102262   0.000000
   20        2.254588   0.000000
   21        2.277584   0.000000