       N       E                     dE             d eps       ncg     rms          rms(c)
DAV:   1     0.659552186366E+02    0.65955E+02   -0.13255E+04  4800   0.665E+02
DAV:   2    -0.623101356968E+02   -0.12827E+03   -0.12658E+03  7520   0.120E+02
DAV:   3    -0.646855255820E+02   -0.23754E+01   -0.23732E+01  5040   0.195E+01
DAV:   4    -0.646979548176E+02   -0.12429E-01   -0.12429E-01  9400   0.123E+00
DAV:   5    -0.646979554063E+02   -0.58873E-06   -0.58879E-06  5160   0.924E-03
DAV:   6    -0.646979554113E+02   -0.49674E-08   -0.49180E-08  9440   0.591E-04
   1 F= -.64697955E+02 E0= -.64694042E+02  d E =-.782765E-02
