 vasp.5.4.4.18Apr17-6-g9f103f2a35 (build May 20 2018 16:52:39) complex          
  
 executed on             LinuxIFC date 2022.11.18  01:53:25
 running on   40 total cores
 distrk:  each k-point on   40 cores,    1 groups
 distr:  one band on NCORES_PER_BAND=   1 cores,   40 groups


--------------------------------------------------------------------------------------------------------


 INCAR:
 POTCAR:    PAW W                                 

 ----------------------------------------------------------------------------- 
|                                                                             |
|           W    W    AA    RRRRR   N    N  II  N    N   GGGG   !!!           |
|           W    W   A  A   R    R  NN   N  II  NN   N  G    G  !!!           |
|           W    W  A    A  R    R  N N  N  II  N N  N  G       !!!           |
|           W WW W  AAAAAA  RRRRR   N  N N  II  N  N N  G  GGG   !            |
|           WW  WW  A    A  R   R   N   NN  II  N   NN  G    G                |
|           W    W  A    A  R    R  N    N  II  N    N   GGGG   !!!           |
|                                                                             |
|      For optimal performance we recommend to set                            |
|        NCORE= 4 - approx SQRT( number of cores)                             |
|      NCORE specifies how many cores store one orbital (NPAR=cpu/NCORE).     |
|      This setting can  greatly improve the performance of VASP for DFT.     |
|      The default,   NCORE=1            might be grossly inefficient         |
|      on modern multi-core architectures or massively parallel machines.     |
|      Do your own testing !!!!                                               |
|      Unfortunately you need to use the default for GW and RPA calculations. |
|      (for HF NCORE is supported but not extensively tested yet)             |
|                                                                             |
 ----------------------------------------------------------------------------- 

 POTCAR:    PAW W                                 
   VRHFIN =W: 5p6s5d                                                            
   LEXCH  = CA                                                                  
   EATOM  =   206.5370 eV,   15.1800 Ry                                         
                                                                                
   TITEL  = PAW W                                                               
   LULTRA =        F    use ultrasoft PP ?                                      
   IUNSCR =        1    unscreen: 0-lin 1-nonlin 2-no                           
   RPACOR =    2.330    partial core radius                                     
   POMASS =  183.850; ZVAL   =    6.000    mass and valenz                      
   RCORE  =    2.750    outmost cutoff radius                                   
   RWIGS  =    2.750; RWIGS  =    1.455    wigner-seitz radius (au A)           
   ENMAX  =  223.126; ENMIN  =  167.344 eV                                      
   RCLOC  =    2.147    cutoff for local pot                                    
   LCOR   =        T    correct aug charges                                     
   LPAW   =        T    paw PP                                                  
   EAUG   =  373.438                                                            
   DEXC   =    -.048                                                            
   RMAX   =    3.087    core radius for proj-oper                               
   RAUG   =    1.300    factor for augmentation sphere                          
   RDEP   =    2.886    radius for radial grids                                 
   QCUT   =   -4.050; QGAM   =    8.099    optimization parameters              
                                                                                
   Description                                                                  
     l     E      TYP  RCUT    TYP  RCUT                                        
     2   .000     23  2.500                                                     
     2   .000     23  2.500                                                     
     0   .000     23  2.500                                                     
     0   .000     23  2.500                                                     
     1   .200     23  2.750                                                     
     1  2.000     23  2.750                                                     
     3   .000      7   .000                                                     
  local pseudopotential read in
  partial core-charges read in
  atomic valenz-charges read in
  non local Contribution for L=           2  read in
    real space projection operators read in
  non local Contribution for L=           2  read in
    real space projection operators read in
  non local Contribution for L=           0  read in
    real space projection operators read in
  non local Contribution for L=           0  read in
    real space projection operators read in
  non local Contribution for L=           1  read in
    real space projection operators read in
  non local Contribution for L=           1  read in
    real space projection operators read in
    PAW grid and wavefunctions read in
 
   number of l-projection  operators is LMAX  =           6
   number of lm-projection operators is LMMAX =          18
 
  PAW W                                 :
 energy of atom  1       EATOM= -206.5370
 kinetic energy error for atom=    0.0005 (will be added to EATOM!!)
 
 
 POSCAR: BCC W 5-layers                          
  positions in direct lattice
  No initial velocities read in
 exchange correlation table for  LEXCH =        2
   RHO(1)=    0.500       N(1)  =     2000
   RHO(2)=  100.500       N(2)  =     4000
 


--------------------------------------------------------------------------------------------------------


 ion  position               nearest neighbor table
   1  0.000  0.000  0.000-   2 2.74   2 2.74   2 2.74   2 2.74   3 3.16
   2  0.500  0.500  0.083-   1 2.74   1 2.74   1 2.74   1 2.74   3 2.74   3 2.74   3 2.74   3 2.74
                             4 3.16
   3  0.000  0.000  0.167-   4 2.74   4 2.74   4 2.74   4 2.74   2 2.74   2 2.74   2 2.74   2 2.74
                             5 3.16   1 3.16
   4  0.500  0.500  0.250-   3 2.74   5 2.74   3 2.74   5 2.74   3 2.74   5 2.74   3 2.74   5 2.74
                             2 3.16
   5  0.000  0.000  0.333-   4 2.74   4 2.74   4 2.74   4 2.74   3 3.16
 
  LATTYP: Found a simple tetragonal cell.
 ALAT       =     3.1600000000
 C/A-ratio  =     6.0000000000
  
  Lattice vectors:
  
 A1 = (   3.1600000000,   0.0000000000,   0.0000000000)
 A2 = (   0.0000000000,   3.1600000000,   0.0000000000)
 A3 = (   0.0000000000,   0.0000000000,  18.9600000000)


Analysis of symmetry for initial positions (statically):
=====================================================================
 Subroutine PRICEL returns:
 Original cell was already a primitive cell.
 

 Routine SETGRP: Setting up the symmetry group for a 
 simple tetragonal supercell.


 Subroutine GETGRP returns: Found 16 space group operations
 (whereof  8 operations were pure point group operations)
 out of a pool of 16 trial point group operations.


The static configuration has the point symmetry C_4v.
 The point group associated with its full space group is D_4h.


Analysis of symmetry for dynamics (positions and initial velocities):
=====================================================================
 Subroutine PRICEL returns:
 Original cell was already a primitive cell.
 

 Routine SETGRP: Setting up the symmetry group for a 
 simple tetragonal supercell.


 Subroutine GETGRP returns: Found 16 space group operations
 (whereof  8 operations were pure point group operations)
 out of a pool of 16 trial point group operations.


The dynamic configuration has the point symmetry C_4v.
 The point group associated with its full space group is D_4h.


 Subroutine INISYM returns: Found 16 space group operations
 (whereof  8 operations are pure point group operations),
 and found     1 'primitive' translations

 
 
 KPOINTS: K-Path Generated by VASPKIT.            
  interpolating k-points between supplied coordinates
  k-points in reciprocal lattice
Space group operators:
 irot       det(A)        alpha          n_x          n_y          n_z        tau_x        tau_y        tau_z
    1     1.000000     0.000000     1.000000     0.000000     0.000000     0.000000     0.000000     0.000000
    2     1.000000    90.000000     0.000000     0.000000    -1.000000     0.000000     0.000000     0.000000
    3     1.000000   180.000000     0.000000     0.000000     1.000000     0.000000     0.000000     0.000000
    4     1.000000    90.000000     0.000000     0.000000     1.000000     0.000000     0.000000     0.000000
    5    -1.000000   179.999999     0.000000     1.000000     0.000000     0.000000     0.000000     0.000000
    6    -1.000000   180.000000     0.707107     0.707107     0.000000     0.000000     0.000000     0.000000
    7    -1.000000   180.000000     1.000000     0.000000     0.000000     0.000000     0.000000     0.000000
    8    -1.000000   180.000000     0.707107    -0.707107     0.000000     0.000000     0.000000     0.000000
    9    -1.000000     0.000000     1.000000     0.000000     0.000000     0.000000     0.000000     0.333333
   10    -1.000000    90.000000     0.000000     0.000000    -1.000000     0.000000     0.000000     0.333333
   11    -1.000000   180.000000     0.000000     0.000000     1.000000     0.000000     0.000000     0.333333
   12    -1.000000    90.000000     0.000000     0.000000     1.000000     0.000000     0.000000     0.333333
   13     1.000000   179.999999     0.000000     1.000000     0.000000     0.000000     0.000000     0.333333
   14     1.000000   180.000000     0.707107     0.707107     0.000000     0.000000     0.000000     0.333333
   15     1.000000   180.000000     1.000000     0.000000     0.000000     0.000000     0.000000     0.333333
   16     1.000000   180.000000     0.707107    -0.707107     0.000000     0.000000     0.000000     0.333333


--------------------------------------------------------------------------------------------------------




 Dimension of arrays:
   k-points           NKPTS =     60   k-points in BZ     NKDIM =     60   number of bands    NBANDS=     40
   number of dos      NEDOS =    301   number of ions     NIONS =      5
   non local maximal  LDIM  =      6   non local SUM 2l+1 LMDIM =     18
   total plane-waves  NPLWV =  48000
   max r-space proj   IRMAX =      1   max aug-charges    IRDMAX=  14669
   dimension x,y,z NGX =    20 NGY =   20 NGZ =  120
   dimension x,y,z NGXF=    40 NGYF=   40 NGZF=  240
   support grid    NGXF=    40 NGYF=   40 NGZF=  240
   ions per type =               5
   NGX,Y,Z   is equivalent  to a cutoff of  10.52, 10.52, 10.52 a.u.
   NGXF,Y,Z  is equivalent  to a cutoff of  21.04, 21.04, 21.04 a.u.

 SYSTEM =  unknown system                          
 POSCAR =  BCC W 5-layers                          

 Startparameter for this run:
   NWRITE =      2    write-flag & timer
   PREC   = normal    normal or accurate (medium, high low for compatibility)
   ISTART =      0    job   : 0-new  1-cont  2-samecut
   ICHARG =     11    charge: 1-file 2-atom 10-const
   ISPIN  =      1    spin polarized calculation?
   LNONCOLLINEAR =      F non collinear calculations
   LSORBIT =      F    spin-orbit coupling
   INIWAV =      1    electr: 0-lowe 1-rand  2-diag
   LASPH  =      F    aspherical Exc in radial PAW
   METAGGA=      F    non-selfconsistent MetaGGA calc.

 Electronic Relaxation 1
   ENCUT  =  600.0 eV  44.10 Ry    6.64 a.u.   6.31  6.31 37.87*2*pi/ulx,y,z
   ENINI  =  600.0     initial cutoff
   ENAUG  =  373.4 eV  augmentation charge cutoff
   NELM   =     60;   NELMIN=  2; NELMDL= -5     # of ELM steps 
   EDIFF  = 0.1E-05   stopping-criterion for ELM
   LREAL  =      F    real-space projection
   NLSPLINE    = F    spline interpolate recip. space projectors
   LCOMPAT=      F    compatible to vasp.4.4
   GGA_COMPAT  = T    GGA compatible to vasp.4.4-vasp.4.6
   LMAXPAW     = -100 max onsite density
   LMAXMIX     =    2 max onsite mixed and CHGCAR
   VOSKOWN=      0    Vosko Wilk Nusair interpolation
   ROPT   =    0.00000
 Ionic relaxation
   EDIFFG = 0.1E-04   stopping-criterion for IOM
   NSW    =      0    number of steps for IOM
   NBLOCK =      1;   KBLOCK =      1    inner block; outer block 
   IBRION =     -1    ionic relax: 0-MD 1-quasi-New 2-CG
   NFREE  =      0    steps in history (QN), initial steepest desc. (CG)
   ISIF   =      2    stress and relaxation
   IWAVPR =     10    prediction:  0-non 1-charg 2-wave 3-comb
   ISYM   =      2    0-nonsym 1-usesym 2-fastsym
   LCORR  =      T    Harris-Foulkes like correction to forces

   POTIM  = 0.5000    time-step for ionic-motion
   TEIN   =    0.0    initial temperature
   TEBEG  =    0.0;   TEEND  =   0.0 temperature during run
   SMASS  =  -3.00    Nose mass-parameter (am)
   estimated Nose-frequenzy (Omega)   =  0.10E-29 period in steps =****** mass=  -0.228E-27a.u.
   SCALEE = 1.0000    scale energy and forces
   NPACO  =    256;   APACO  = 16.0  distance and # of slots for P.C.
   PSTRESS=    0.0 pullay stress

  Mass of Ions in am
   POMASS = 183.85
  Ionic Valenz
   ZVAL   =   6.00
  Atomic Wigner-Seitz radii
   RWIGS  =  -1.00
  virtual crystal weights 
   VCA    =   1.00
   NELECT =      30.0000    total number of electrons
   NUPDOWN=      -1.0000    fix difference up-down

 DOS related values:
   EMIN   =  10.00;   EMAX   =-10.00  energy-range for DOS
   EFERMI =   0.00
   ISMEAR =     0;   SIGMA  =   0.05  broadening in eV -4-tet -1-fermi 0-gaus

 Electronic relaxation 2 (details)
   IALGO  =     38    algorithm
   LDIAG  =      T    sub-space diagonalisation (order eigenvalues)
   LSUBROT=      F    optimize rotation matrix (better conditioning)
   TURBO    =      0    0=normal 1=particle mesh
   IRESTART =      0    0=no restart 2=restart with 2 vectors
   NREBOOT  =      0    no. of reboots
   NMIN     =      0    reboot dimension
   EREF     =   0.00    reference energy to select bands
   IMIX   =      4    mixing-type and parameters
     AMIX     =   0.40;   BMIX     =  1.00
     AMIX_MAG =   1.60;   BMIX_MAG =  1.00
     AMIN     =   0.10
     WC   =   100.;   INIMIX=   1;  MIXPRE=   1;  MAXMIX= -45

 Intra band minimization:
   WEIMIN = 0.0000     energy-eigenvalue tresh-hold
   EBREAK =  0.62E-08  absolut break condition
   DEPER  =   0.30     relativ break condition  

   TIME   =   0.40     timestep for ELM

  volume/ion in A,a.u.               =      37.87       255.53
  Fermi-wavevector in a.u.,A,eV,Ry     =   0.885886  1.674081 10.677766  0.784794
  Thomas-Fermi vector in A             =   2.006979
 
 Write flags
   LWAVE        =      T    write WAVECAR
   LDOWNSAMPLE  =      F    k-point downsampling of WAVECAR
   LCHARG       =      F    write CHGCAR
   LVTOT        =      F    write LOCPOT, total local potential
   LVHAR        =      F    write LOCPOT, Hartree potential only
   LELF         =      F    write electronic localiz. function (ELF)
   LORBIT       =      0    0 simple, 1 ext, 2 COOP (PROOUT), +10 PAW based schemes


 Dipole corrections
   LMONO  =      F    monopole corrections only (constant potential shift)
   LDIPOL =      F    correct potential (dipole corrections)
   IDIPOL =      0    1-x, 2-y, 3-z, 4-all directions 
   EPSILON=  1.0000000 bulk dielectric constant

 Exchange correlation treatment:
   GGA     =    --    GGA type
   LEXCH   =     2    internal setting for exchange type
   VOSKOWN=      0    Vosko Wilk Nusair interpolation
   LHFCALC =     F    Hartree Fock is set to
   LHFONE  =     F    Hartree Fock one center treatment
   AEXX    =    0.0000 exact exchange contribution

 Linear response parameters
   LEPSILON=     F    determine dielectric tensor
   LRPA    =     F    only Hartree local field effects (RPA)
   LNABLA  =     F    use nabla operator in PAW spheres
   LVEL    =     F    velocity operator in full k-point grid
   LINTERFAST=   F  fast interpolation
   KINTER  =     0    interpolate to denser k-point grid
   CSHIFT  =0.1000    complex shift for real part using Kramers Kronig
   OMEGAMAX=  -1.0    maximum frequency
   DEG_THRESHOLD= 0.2000000E-02 threshold for treating states as degnerate
   RTIME   =   -0.100 relaxation time in fs
  (WPLASMAI=    0.000 imaginary part of plasma frequency in eV, 0.658/RTIME)
   DFIELD  = 0.0000000 0.0000000 0.0000000 field for delta impulse in time
 
 Orbital magnetization related:
   ORBITALMAG=     F  switch on orbital magnetization
   LCHIMAG   =     F  perturbation theory with respect to B field
   DQ        =  0.001000  dq finite difference perturbation B field
   LLRAUG    =     F  two centre corrections for induced B field



--------------------------------------------------------------------------------------------------------


 Static calculation
 charge density and potential remain constant during run
 non-spin polarized calculation
 Variant of blocked Davidson
 Davidson routine will perform the subspace rotation
 perform sub-space diagonalisation
    after iterative eigenvector-optimisation
 no mixing
 using additional bands           25
 reciprocal scheme for non local part
 use partial core corrections
 calculate Harris-corrections to forces 
   (improved forces if not selfconsistent)
 use of overlap-Matrix (Vanderbilt PP)
 Gauss-broadening in eV      SIGMA  =   0.05


--------------------------------------------------------------------------------------------------------


  energy-cutoff  :      600.00
  volume of cell :      189.33
      direct lattice vectors                 reciprocal lattice vectors
     3.160000000  0.000000000  0.000000000     0.316455696  0.000000000  0.000000000
     0.000000000  3.160000000  0.000000000     0.000000000  0.316455696  0.000000000
     0.000000000  0.000000000 18.960000000     0.000000000  0.000000000  0.052742616

  length of vectors
     3.160000000  3.160000000 18.960000000     0.316455696  0.316455696  0.052742616


 
 k-points in units of 2pi/SCALE and weight: K-Path Generated by VASPKIT.            
   0.00000000  0.00000000  0.00000000       0.017
   0.02631579  0.00000000  0.00000000       0.017
   0.05263158  0.00000000  0.00000000       0.017
   0.07894737  0.00000000  0.00000000       0.017
   0.10526316  0.00000000  0.00000000       0.017
   0.13157895  0.00000000  0.00000000       0.017
   0.15789474  0.00000000  0.00000000       0.017
   0.18421053  0.00000000  0.00000000       0.017
   0.21052632  0.00000000  0.00000000       0.017
   0.23684211  0.00000000  0.00000000       0.017
   0.26315789  0.00000000  0.00000000       0.017
   0.28947368  0.00000000  0.00000000       0.017
   0.31578947  0.00000000  0.00000000       0.017
   0.34210526  0.00000000  0.00000000       0.017
   0.36842105  0.00000000  0.00000000       0.017
   0.39473684  0.00000000  0.00000000       0.017
   0.42105263  0.00000000  0.00000000       0.017
   0.44736842  0.00000000  0.00000000       0.017
   0.47368421  0.00000000  0.00000000       0.017
   0.50000000  0.00000000  0.00000000       0.017
   0.50000000  0.00000000  0.00000000       0.017
   0.50000000  0.02631579  0.00000000       0.017
   0.50000000  0.05263158  0.00000000       0.017
   0.50000000  0.07894737  0.00000000       0.017
   0.50000000  0.10526316  0.00000000       0.017
   0.50000000  0.13157895  0.00000000       0.017
   0.50000000  0.15789474  0.00000000       0.017
   0.50000000  0.18421053  0.00000000       0.017
   0.50000000  0.21052632  0.00000000       0.017
   0.50000000  0.23684211  0.00000000       0.017
   0.50000000  0.26315789  0.00000000       0.017
   0.50000000  0.28947368  0.00000000       0.017
   0.50000000  0.31578947  0.00000000       0.017
   0.50000000  0.34210526  0.00000000       0.017
   0.50000000  0.36842105  0.00000000       0.017
   0.50000000  0.39473684  0.00000000       0.017
   0.50000000  0.42105263  0.00000000       0.017
   0.50000000  0.44736842  0.00000000       0.017
   0.50000000  0.47368421  0.00000000       0.017
   0.50000000  0.50000000  0.00000000       0.017
   0.50000000  0.50000000  0.00000000       0.017
   0.47368421  0.47368421  0.00000000       0.017
   0.44736842  0.44736842  0.00000000       0.017
   0.42105263  0.42105263  0.00000000       0.017
   0.39473684  0.39473684  0.00000000       0.017
   0.36842105  0.36842105  0.00000000       0.017
   0.34210526  0.34210526  0.00000000       0.017
   0.31578947  0.31578947  0.00000000       0.017
   0.28947368  0.28947368  0.00000000       0.017
   0.26315789  0.26315789  0.00000000       0.017
   0.23684211  0.23684211  0.00000000       0.017
   0.21052632  0.21052632  0.00000000       0.017
   0.18421053  0.18421053  0.00000000       0.017
   0.15789474  0.15789474  0.00000000       0.017
   0.13157895  0.13157895  0.00000000       0.017
   0.10526316  0.10526316  0.00000000       0.017
   0.07894737  0.07894737  0.00000000       0.017
   0.05263158  0.05263158  0.00000000       0.017
   0.02631579  0.02631579  0.00000000       0.017
   0.00000000  0.00000000  0.00000000       0.017
 
 k-points in reciprocal lattice and weights: K-Path Generated by VASPKIT.            
   0.00000000  0.00000000  0.00000000       0.017
   0.02631579  0.00000000  0.00000000       0.017
   0.05263158  0.00000000  0.00000000       0.017
   0.07894737  0.00000000  0.00000000       0.017
   0.10526316  0.00000000  0.00000000       0.017
   0.13157895  0.00000000  0.00000000       0.017
   0.15789474  0.00000000  0.00000000       0.017
   0.18421053  0.00000000  0.00000000       0.017
   0.21052632  0.00000000  0.00000000       0.017
   0.23684211  0.00000000  0.00000000       0.017
   0.26315789  0.00000000  0.00000000       0.017
   0.28947368  0.00000000  0.00000000       0.017
   0.31578947  0.00000000  0.00000000       0.017
   0.34210526  0.00000000  0.00000000       0.017
   0.36842105  0.00000000  0.00000000       0.017
   0.39473684  0.00000000  0.00000000       0.017
   0.42105263  0.00000000  0.00000000       0.017
   0.44736842  0.00000000  0.00000000       0.017
   0.47368421  0.00000000  0.00000000       0.017
   0.50000000  0.00000000  0.00000000       0.017
   0.50000000  0.00000000  0.00000000       0.017
   0.50000000  0.02631579  0.00000000       0.017
   0.50000000  0.05263158  0.00000000       0.017
   0.50000000  0.07894737  0.00000000       0.017
   0.50000000  0.10526316  0.00000000       0.017
   0.50000000  0.13157895  0.00000000       0.017
   0.50000000  0.15789474  0.00000000       0.017
   0.50000000  0.18421053  0.00000000       0.017
   0.50000000  0.21052632  0.00000000       0.017
   0.50000000  0.23684211  0.00000000       0.017
   0.50000000  0.26315789  0.00000000       0.017
   0.50000000  0.28947368  0.00000000       0.017
   0.50000000  0.31578947  0.00000000       0.017
   0.50000000  0.34210526  0.00000000       0.017
   0.50000000  0.36842105  0.00000000       0.017
   0.50000000  0.39473684  0.00000000       0.017
   0.50000000  0.42105263  0.00000000       0.017
   0.50000000  0.44736842  0.00000000       0.017
   0.50000000  0.47368421  0.00000000       0.017
   0.50000000  0.50000000  0.00000000       0.017
   0.50000000  0.50000000  0.00000000       0.017
   0.47368421  0.47368421  0.00000000       0.017
   0.44736842  0.44736842  0.00000000       0.017
   0.42105263  0.42105263  0.00000000       0.017
   0.39473684  0.39473684  0.00000000       0.017
   0.36842105  0.36842105  0.00000000       0.017
   0.34210526  0.34210526  0.00000000       0.017
   0.31578947  0.31578947  0.00000000       0.017
   0.28947368  0.28947368  0.00000000       0.017
   0.26315789  0.26315789  0.00000000       0.017
   0.23684211  0.23684211  0.00000000       0.017
   0.21052632  0.21052632  0.00000000       0.017
   0.18421053  0.18421053  0.00000000       0.017
   0.15789474  0.15789474  0.00000000       0.017
   0.13157895  0.13157895  0.00000000       0.017
   0.10526316  0.10526316  0.00000000       0.017
   0.07894737  0.07894737  0.00000000       0.017
   0.05263158  0.05263158  0.00000000       0.017
   0.02631579  0.02631579  0.00000000       0.017
   0.00000000  0.00000000  0.00000000       0.017
 
 position of ions in fractional coordinates (direct lattice) 
   0.00000000  0.00000000  0.00000000
   0.50000000  0.50000000  0.08333333
   0.00000000  0.00000000  0.16666667
   0.50000000  0.50000000  0.25000000
   0.00000000  0.00000000  0.33333333
 
 position of ions in cartesian coordinates  (Angst):
   0.00000000  0.00000000  0.00000000
   1.58000000  1.58000000  1.58000000
   0.00000000  0.00000000  3.16000000
   1.58000000  1.58000000  4.74000000
   0.00000000  0.00000000  6.32000000
 


--------------------------------------------------------------------------------------------------------


 k-point  1 :   0.0000 0.0000 0.0000  plane waves:    6283
 k-point  2 :   0.0263 0.0000 0.0000  plane waves:    6277
 k-point  3 :   0.0526 0.0000 0.0000  plane waves:    6287
 k-point  4 :   0.0789 0.0000 0.0000  plane waves:    6311
 k-point  5 :   0.1053 0.0000 0.0000  plane waves:    6311
 k-point  6 :   0.1316 0.0000 0.0000  plane waves:    6321
 k-point  7 :   0.1579 0.0000 0.0000  plane waves:    6341
 k-point  8 :   0.1842 0.0000 0.0000  plane waves:    6335
 k-point  9 :   0.2105 0.0000 0.0000  plane waves:    6335
 k-point 10 :   0.2368 0.0000 0.0000  plane waves:    6341
 k-point 11 :   0.2632 0.0000 0.0000  plane waves:    6337
 k-point 12 :   0.2895 0.0000 0.0000  plane waves:    6349
 k-point 13 :   0.3158 0.0000 0.0000  plane waves:    6338
 k-point 14 :   0.3421 0.0000 0.0000  plane waves:    6358
 k-point 15 :   0.3684 0.0000 0.0000  plane waves:    6352
 k-point 16 :   0.3947 0.0000 0.0000  plane waves:    6348
 k-point 17 :   0.4211 0.0000 0.0000  plane waves:    6352
 k-point 18 :   0.4474 0.0000 0.0000  plane waves:    6346
 k-point 19 :   0.4737 0.0000 0.0000  plane waves:    6352
 k-point 20 :   0.5000 0.0000 0.0000  plane waves:    6352
 k-point 21 :   0.5000 0.0000 0.0000  plane waves:    6352
 k-point 22 :   0.5000 0.0263 0.0000  plane waves:    6356
 k-point 23 :   0.5000 0.0526 0.0000  plane waves:    6344
 k-point 24 :   0.5000 0.0789 0.0000  plane waves:    6332
 k-point 25 :   0.5000 0.1053 0.0000  plane waves:    6334
 k-point 26 :   0.5000 0.1316 0.0000  plane waves:    6320
 k-point 27 :   0.5000 0.1579 0.0000  plane waves:    6336
 k-point 28 :   0.5000 0.1842 0.0000  plane waves:    6336
 k-point 29 :   0.5000 0.2105 0.0000  plane waves:    6326
 k-point 30 :   0.5000 0.2368 0.0000  plane waves:    6314
 k-point 31 :   0.5000 0.2632 0.0000  plane waves:    6296
 k-point 32 :   0.5000 0.2895 0.0000  plane waves:    6292
 k-point 33 :   0.5000 0.3158 0.0000  plane waves:    6302
 k-point 34 :   0.5000 0.3421 0.0000  plane waves:    6294
 k-point 35 :   0.5000 0.3684 0.0000  plane waves:    6290
 k-point 36 :   0.5000 0.3947 0.0000  plane waves:    6306
 k-point 37 :   0.5000 0.4211 0.0000  plane waves:    6298
 k-point 38 :   0.5000 0.4474 0.0000  plane waves:    6280
 k-point 39 :   0.5000 0.4737 0.0000  plane waves:    6296
 k-point 40 :   0.5000 0.5000 0.0000  plane waves:    6280
 k-point 41 :   0.5000 0.5000 0.0000  plane waves:    6280
 k-point 42 :   0.4737 0.4737 0.0000  plane waves:    6292
 k-point 43 :   0.4474 0.4474 0.0000  plane waves:    6299
 k-point 44 :   0.4211 0.4211 0.0000  plane waves:    6281
 k-point 45 :   0.3947 0.3947 0.0000  plane waves:    6279
 k-point 46 :   0.3684 0.3684 0.0000  plane waves:    6281
 k-point 47 :   0.3421 0.3421 0.0000  plane waves:    6297
 k-point 48 :   0.3158 0.3158 0.0000  plane waves:    6291
 k-point 49 :   0.2895 0.2895 0.0000  plane waves:    6299
 k-point 50 :   0.2632 0.2632 0.0000  plane waves:    6295
 k-point 51 :   0.2368 0.2368 0.0000  plane waves:    6321
 k-point 52 :   0.2105 0.2105 0.0000  plane waves:    6327
 k-point 53 :   0.1842 0.1842 0.0000  plane waves:    6319
 k-point 54 :   0.1579 0.1579 0.0000  plane waves:    6343
 k-point 55 :   0.1316 0.1316 0.0000  plane waves:    6331
 k-point 56 :   0.1053 0.1053 0.0000  plane waves:    6323
 k-point 57 :   0.0789 0.0789 0.0000  plane waves:    6321
 k-point 58 :   0.0526 0.0526 0.0000  plane waves:    6301
 k-point 59 :   0.0263 0.0263 0.0000  plane waves:    6291
 k-point 60 :   0.0000 0.0000 0.0000  plane waves:    6283

 maximum and minimum number of plane-waves per node :      6358     6277

 maximum number of plane-waves:      6358
 maximum index in each direction: 
   IXMAX=    6   IYMAX=    6   IZMAX=   37
   IXMIN=   -6   IYMIN=   -6   IZMIN=  -37


 serial   3D FFT for wavefunctions
 parallel 3D FFT for charge:
    minimum data exchange during FFTs selected (reduces bandwidth)


 total amount of memory used by VASP MPI-rank0    95120. kBytes
=======================================================================

   base      :      30000. kBytes
   nonl-proj :      55459. kBytes
   fftplans  :       1060. kBytes
   grid      :       2304. kBytes
   one-center:         77. kBytes
   wavefun   :       6220. kBytes
 
     INWAV:  cpu time    0.0000: real time    0.0001
 initial charge density was supplied:
 number of electron      30.0000001 magnetization 
 keeping initial charge density in first step


--------------------------------------------------------------------------------------------------------


 Maximum index for augmentation-charges          697 (set IRDMAX)


--------------------------------------------------------------------------------------------------------


 First call to EWALD:  gamma=   0.309
 Maximum number of real-space cells 5x 5x 1
 Maximum number of reciprocal cells 2x 2x 8

    FEWALD:  cpu time    0.0015: real time    0.0025


--------------------------------------- Iteration      1(   1)  ---------------------------------------


    POTLOK:  cpu time    0.0117: real time    0.0179
    SETDIJ:  cpu time    0.0062: real time    0.0090
     EDDAV:  cpu time    1.3880: real time    1.4105
       DOS:  cpu time    0.0020: real time    0.0052
    --------------------------------------------
      LOOP:  cpu time    1.4080: real time    1.4427

 eigenvalue-minimisations  :  4800
 total energy-change (2. order) : 0.6595522E+02  (-0.1325534E+04)
 number of electron      30.0000001 magnetization 
 augmentation part       30.0000001 magnetization 

 Free energy of the ion-electron system (eV)
  ---------------------------------------------------
  alpha Z        PSCENC =        92.17273665
  Ewald energy   TEWEN  =      3037.32980781
  -Hartree energ DENC   =     -4208.03515457
  -exchange      EXHF   =         0.00000000
  -V(xc)+E(xc)   XCENC  =      -236.30637207
  PAW double counting   =      1120.75258868     -838.65035193
  entropy T*S    EENTRO =        -0.00433504
  eigenvalues    EBANDS =        66.01397604
  atomic energy  EATOM  =      1032.68232307
  Solvation  Ediel_sol  =         0.00000000
  ---------------------------------------------------
  free energy    TOTEN  =        65.95521864 eV

  energy without entropy =       65.95955368  energy(sigma->0) =       65.95738616


--------------------------------------------------------------------------------------------------------




--------------------------------------- Iteration      1(   2)  ---------------------------------------


     EDDAV:  cpu time    2.3386: real time    2.3561
       DOS:  cpu time    0.0009: real time    0.0007
    --------------------------------------------
      LOOP:  cpu time    2.3395: real time    2.3568

 eigenvalue-minimisations  :  7520
 total energy-change (2. order) :-0.1282654E+03  (-0.1265812E+03)
 number of electron      30.0000001 magnetization 
 augmentation part       30.0000001 magnetization 

 Free energy of the ion-electron system (eV)
  ---------------------------------------------------
  alpha Z        PSCENC =        92.17273665
  Ewald energy   TEWEN  =      3037.32980781
  -Hartree energ DENC   =     -4208.03515457
  -exchange      EXHF   =         0.00000000
  -V(xc)+E(xc)   XCENC  =      -236.30637207
  PAW double counting   =      1120.75258868     -838.65035193
  entropy T*S    EENTRO =        -0.00693714
  eigenvalues    EBANDS =       -62.24877619
  atomic energy  EATOM  =      1032.68232307
  Solvation  Ediel_sol  =         0.00000000
  ---------------------------------------------------
  free energy    TOTEN  =       -62.31013570 eV

  energy without entropy =      -62.30319855  energy(sigma->0) =      -62.30666713


--------------------------------------------------------------------------------------------------------




--------------------------------------- Iteration      1(   3)  ---------------------------------------


     EDDAV:  cpu time    1.4736: real time    1.4788
       DOS:  cpu time    0.0008: real time    0.0007
    --------------------------------------------
      LOOP:  cpu time    1.4744: real time    1.4795

 eigenvalue-minimisations  :  5040
 total energy-change (2. order) :-0.2375390E+01  (-0.2373169E+01)
 number of electron      30.0000001 magnetization 
 augmentation part       30.0000001 magnetization 

 Free energy of the ion-electron system (eV)
  ---------------------------------------------------
  alpha Z        PSCENC =        92.17273665
  Ewald energy   TEWEN  =      3037.32980781
  -Hartree energ DENC   =     -4208.03515457
  -exchange      EXHF   =         0.00000000
  -V(xc)+E(xc)   XCENC  =      -236.30637207
  PAW double counting   =      1120.75258868     -838.65035193
  entropy T*S    EENTRO =        -0.00782854
  eigenvalues    EBANDS =       -64.62327468
  atomic energy  EATOM  =      1032.68232307
  Solvation  Ediel_sol  =         0.00000000
  ---------------------------------------------------
  free energy    TOTEN  =       -64.68552558 eV

  energy without entropy =      -64.67769704  energy(sigma->0) =      -64.68161131


--------------------------------------------------------------------------------------------------------




--------------------------------------- Iteration      1(   4)  ---------------------------------------


     EDDAV:  cpu time    3.1955: real time    3.2085
       DOS:  cpu time    0.0008: real time    0.0007
    --------------------------------------------
      LOOP:  cpu time    3.1963: real time    3.2092

 eigenvalue-minimisations  :  9400
 total energy-change (2. order) :-0.1242924E-01  (-0.1242910E-01)
 number of electron      30.0000001 magnetization 
 augmentation part       30.0000001 magnetization 

 Free energy of the ion-electron system (eV)
  ---------------------------------------------------
  alpha Z        PSCENC =        92.17273665
  Ewald energy   TEWEN  =      3037.32980781
  -Hartree energ DENC   =     -4208.03515457
  -exchange      EXHF   =         0.00000000
  -V(xc)+E(xc)   XCENC  =      -236.30637207
  PAW double counting   =      1120.75258868     -838.65035193
  entropy T*S    EENTRO =        -0.00782765
  eigenvalues    EBANDS =       -64.63570480
  atomic energy  EATOM  =      1032.68232307
  Solvation  Ediel_sol  =         0.00000000
  ---------------------------------------------------
  free energy    TOTEN  =       -64.69795482 eV

  energy without entropy =      -64.69012716  energy(sigma->0) =      -64.69404099


--------------------------------------------------------------------------------------------------------




--------------------------------------- Iteration      1(   5)  ---------------------------------------


     EDDAV:  cpu time    1.5034: real time    1.5289
       DOS:  cpu time    0.0008: real time    0.0007
    --------------------------------------------
      LOOP:  cpu time    1.5042: real time    1.5296

 eigenvalue-minimisations  :  5160
 total energy-change (2. order) :-0.5887343E-06  (-0.5887925E-06)
 number of electron      30.0000001 magnetization 
 augmentation part       30.0000001 magnetization 

 Free energy of the ion-electron system (eV)
  ---------------------------------------------------
  alpha Z        PSCENC =        92.17273665
  Ewald energy   TEWEN  =      3037.32980781
  -Hartree energ DENC   =     -4208.03515457
  -exchange      EXHF   =         0.00000000
  -V(xc)+E(xc)   XCENC  =      -236.30637207
  PAW double counting   =      1120.75258868     -838.65035193
  entropy T*S    EENTRO =        -0.00782765
  eigenvalues    EBANDS =       -64.63570539
  atomic energy  EATOM  =      1032.68232307
  Solvation  Ediel_sol  =         0.00000000
  ---------------------------------------------------
  free energy    TOTEN  =       -64.69795541 eV

  energy without entropy =      -64.69012776  energy(sigma->0) =      -64.69404158


--------------------------------------------------------------------------------------------------------




--------------------------------------- Iteration      1(   6)  ---------------------------------------


     EDDAV:  cpu time    3.1808: real time    3.2201
       DOS:  cpu time    0.0007: real time    0.0007
    --------------------------------------------
      LOOP:  cpu time    3.1816: real time    3.2208

 eigenvalue-minimisations  :  9440
 total energy-change (2. order) :-0.4967433E-08  (-0.4918026E-08)
 number of electron      30.0000001 magnetization 
 augmentation part       30.0000001 magnetization 

 Free energy of the ion-electron system (eV)
  ---------------------------------------------------
  alpha Z        PSCENC =        92.17273665
  Ewald energy   TEWEN  =      3037.32980781
  -Hartree energ DENC   =     -4208.03515457
  -exchange      EXHF   =         0.00000000
  -V(xc)+E(xc)   XCENC  =      -236.30637207
  PAW double counting   =      1120.75258868     -838.65035193
  entropy T*S    EENTRO =        -0.00782765
  eigenvalues    EBANDS =       -64.63570540
  atomic energy  EATOM  =      1032.68232307
  Solvation  Ediel_sol  =         0.00000000
  ---------------------------------------------------
  free energy    TOTEN  =       -64.69795541 eV

  energy without entropy =      -64.69012776  energy(sigma->0) =      -64.69404159


--------------------------------------------------------------------------------------------------------




 average (electrostatic) potential at core
  the test charge radii are     1.1823
  (the norm of the test charge is              1.0000)
       1 -45.3056       2 -45.1263       3 -45.3392       4 -45.1266       5 -45.3055
 
 
 
 E-fermi :   0.7699     XC(G=0):  -6.8825     alpha+bet : -6.1607


 k-point     1 :       0.0000    0.0000    0.0000
  band No.  band energies     occupation 
      1      -8.0336      2.00000
      2      -6.1476      2.00000
      3      -4.6395      2.00000
      4      -4.5440      2.00000
      5      -4.0172      2.00000
      6      -3.3650      2.00000
      7      -3.3569      2.00000
      8      -1.6524      2.00000
      9      -0.4551      2.00000
     10      -0.4551      2.00000
     11      -0.1112      2.00000
     12      -0.0227      2.00000
     13      -0.0227      2.00000
     14       0.3449      2.00000
     15       0.4047      2.00000
     16       0.4641      2.00000
     17       0.8258      0.11435
     18       0.8258      0.11435
     19       1.0438      0.00000
     20       2.2167      0.00000
     21       2.4543      0.00000
     22       2.4543      0.00000
     23       2.5048      0.00000
     24       3.4470      0.00000
     25       4.1823      0.00000
     26       4.2521      0.00000
     27       4.5033      0.00000
     28       4.6410      0.00000
     29       4.6410      0.00000
     30       5.3523      0.00000
     31       5.4433      0.00000
     32       5.4438      0.00000
     33       7.4970      0.00000
     34       7.6755      0.00000
     35      10.1786      0.00000
     36      10.4975      0.00000
     37      10.4975      0.00000
     38      12.3782      0.00000
     39      13.5314      0.00000
     40      13.5314      0.00000

 k-point     2 :       0.0263    0.0000    0.0000
  band No.  band energies     occupation 
      1      -8.0181      2.00000
      2      -6.1361      2.00000
      3      -4.6284      2.00000
      4      -4.5349      2.00000
      5      -4.0099      2.00000
      6      -3.3641      2.00000
      7      -3.3426      2.00000
      8      -1.6584      2.00000
      9      -0.4750      2.00000
     10      -0.4680      2.00000
     11      -0.2247      2.00000
     12      -0.0090      2.00000
     13       0.0765      2.00000
     14       0.3000      2.00000
     15       0.4187      2.00000
     16       0.4671      2.00000
     17       0.7170      1.86562
     18       0.8966      0.00034
     19       1.1588      0.00000
     20       2.2067      0.00000
     21       2.2449      0.00000
     22       2.4506      0.00000
     23       2.7197      0.00000
     24       3.4338      0.00000
     25       4.1029      0.00000
     26       4.2474      0.00000
     27       4.5174      0.00000
     28       4.5609      0.00000
     29       4.7258      0.00000
     30       5.3852      0.00000
     31       5.4180      0.00000
     32       5.4679      0.00000
     33       7.5585      0.00000
     34       7.6924      0.00000
     35      10.1991      0.00000
     36      10.4220      0.00000
     37      10.5564      0.00000
     38      12.3963      0.00000
     39      13.3967      0.00000
     40      13.5432      0.00000

 k-point     3 :       0.0526    0.0000    0.0000
  band No.  band energies     occupation 
      1      -7.9719      2.00000
      2      -6.1021      2.00000
      3      -4.5976      2.00000
      4      -4.5054      2.00000
      5      -3.9891      2.00000
      6      -3.3715      2.00000
      7      -3.2896      2.00000
      8      -1.6726      2.00000
      9      -0.5288      2.00000
     10      -0.5086      2.00000
     11      -0.3814      2.00000
     12       0.0259      2.00000
     13       0.1876      2.00000
     14       0.1990      2.00000
     15       0.4761      2.00000
     16       0.4788      2.00000
     17       0.5587      2.00000
     18       1.0543      0.00000
     19       1.3358      0.00000
     20       2.0285      0.00000
     21       2.1728      0.00000
     22       2.4477      0.00000
     23       2.9524      0.00000
     24       3.3958      0.00000
     25       3.9519      0.00000
     26       4.2317      0.00000
     27       4.3610      0.00000
     28       4.5575      0.00000
     29       4.8945      0.00000
     30       5.3477      0.00000
     31       5.4600      0.00000
     32       5.5392      0.00000
     33       7.7275      0.00000
     34       7.7427      0.00000
     35      10.2092      0.00000
     36      10.2596      0.00000
     37      10.7279      0.00000
     38      12.4471      0.00000
     39      13.0528      0.00000
     40      13.5794      0.00000

 k-point     4 :       0.0789    0.0000    0.0000
  band No.  band energies     occupation 
      1      -7.8953      2.00000
      2      -6.0467      2.00000
      3      -4.5550      2.00000
      4      -4.4502      2.00000
      5      -3.9570      2.00000
      6      -3.3848      2.00000
      7      -3.2013      2.00000
      8      -1.6851      2.00000
      9      -0.6032      2.00000
     10      -0.5809      2.00000
     11      -0.5448      2.00000
     12       0.0638      2.00000
     13       0.0955      2.00000
     14       0.2677      2.00000
     15       0.4194      2.00000
     16       0.5086      2.00000
     17       0.5648      2.00000
     18       1.2434      0.00000
     19       1.5043      0.00000
     20       1.8401      0.00000
     21       2.1139      0.00000
     22       2.4556      0.00000
     23       3.1678      0.00000
     24       3.3377      0.00000
     25       3.8046      0.00000
     26       4.0828      0.00000
     27       4.2210      0.00000
     28       4.6188      0.00000
     29       5.0765      0.00000
     30       5.2533      0.00000
     31       5.5517      0.00000
     32       5.6499      0.00000
     33       7.8253      0.00000
     34       7.9690      0.00000
     35       9.8899      0.00000
     36      10.3553      0.00000
     37      10.9984      0.00000
     38      12.5238      0.00000
     39      12.6031      0.00000
     40      13.6419      0.00000

 k-point     5 :       0.1053    0.0000    0.0000
  band No.  band energies     occupation 
      1      -7.7894      2.00000
      2      -5.9719      2.00000
      3      -4.5081      2.00000
      4      -4.3658      2.00000
      5      -3.9169      2.00000
      6      -3.4038      2.00000
      7      -3.0793      2.00000
      8      -1.6827      2.00000
      9      -0.7102      2.00000
     10      -0.6866      2.00000
     11      -0.6842      2.00000
     12       0.0071      2.00000
     13       0.0806      2.00000
     14       0.3020      2.00000
     15       0.3105      2.00000
     16       0.5702      2.00000
     17       0.6748      1.99290
     18       1.4412      0.00000
     19       1.6458      0.00000
     20       1.6926      0.00000
     21       2.0422      0.00000
     22       2.4692      0.00000
     23       3.2703      0.00000
     24       3.3499      0.00000
     25       3.6906      0.00000
     26       3.7885      0.00000
     27       4.1913      0.00000
     28       4.6971      0.00000
     29       5.1632      0.00000
     30       5.2490      0.00000
     31       5.6556      0.00000
     32       5.7896      0.00000
     33       7.9369      0.00000
     34       8.2472      0.00000
     35       9.4983      0.00000
     36      10.4673      0.00000
     37      11.3509      0.00000
     38      12.1331      0.00000
     39      12.6217      0.00000
     40      13.7345      0.00000

 k-point     6 :       0.1316    0.0000    0.0000
  band No.  band energies     occupation 
      1      -7.6554      2.00000
      2      -5.8807      2.00000
      3      -4.4600      2.00000
      4      -4.2562      2.00000
      5      -3.8711      2.00000
      6      -3.4280      2.00000
      7      -2.9254      2.00000
      8      -1.6521      2.00000
      9      -0.8747      2.00000
     10      -0.8213      2.00000
     11      -0.7602      2.00000
     12      -0.0618      2.00000
     13       0.0611      2.00000
     14       0.2307      2.00000
     15       0.2810      2.00000
     16       0.6690      1.99569
     17       0.8000      0.39520
     18       1.5935      0.00000
     19       1.6342      0.00000
     20       1.7478      0.00000
     21       1.9740      0.00000
     22       2.4690      0.00000
     23       3.2133      0.00000
     24       3.4813      0.00000
     25       3.4865      0.00000
     26       3.6272      0.00000
     27       4.1600      0.00000
     28       4.7898      0.00000
     29       5.1086      0.00000
     30       5.4025      0.00000
     31       5.7733      0.00000
     32       5.9472      0.00000
     33       8.0700      0.00000
     34       8.5332      0.00000
     35       9.0660      0.00000
     36      10.5270      0.00000
     37      11.7481      0.00000
     38      11.7694      0.00000
     39      12.7365      0.00000
     40      13.4460      0.00000

 k-point     7 :       0.1579    0.0000    0.0000
  band No.  band energies     occupation 
      1      -7.4948      2.00000
      2      -5.7768      2.00000
      3      -4.4136      2.00000
      4      -4.1303      2.00000
      5      -3.8177      2.00000
      6      -3.4566      2.00000
      7      -2.7421      2.00000
      8      -1.5821      2.00000
      9      -1.0361      2.00000
     10      -0.9756      2.00000
     11      -0.8217      2.00000
     12      -0.1106      2.00000
     13       0.0068      2.00000
     14       0.1712      2.00000
     15       0.2069      2.00000
     16       0.7971      0.44220
     17       0.9364      0.00000
     18       1.5377      0.00000
     19       1.8058      0.00000
     20       1.8089      0.00000
     21       1.9208      0.00000
     22       2.4296      0.00000
     23       3.1927      0.00000
     24       3.1976      0.00000
     25       3.5512      0.00000
     26       3.6219      0.00000
     27       4.1287      0.00000
     28       4.8958      0.00000
     29       5.1132      0.00000
     30       5.5317      0.00000
     31       5.9061      0.00000
     32       6.1127      0.00000
     33       8.1919      0.00000
     34       8.6404      0.00000
     35       8.8046      0.00000
     36      10.3777      0.00000
     37      11.6267      0.00000
     38      12.2402      0.00000
     39      12.8025      0.00000
     40      12.9707      0.00000

 k-point     8 :       0.1842    0.0000    0.0000
  band No.  band energies     occupation 
      1      -7.3098      2.00000
      2      -5.6649      2.00000
      3      -4.3744      2.00000
      4      -4.0017      2.00000
      5      -3.7463      2.00000
      6      -3.4876      2.00000
      7      -2.5330      2.00000
      8      -1.4652      2.00000
      9      -1.1926      2.00000
     10      -1.1394      2.00000
     11      -0.8621      2.00000
     12      -0.1396      2.00000
     13      -0.0730      2.00000
     14       0.0941      2.00000
     15       0.1215      2.00000
     16       0.9423      0.00000
     17       1.0799      0.00000
     18       1.5067      0.00000
     19       1.8266      0.00000
     20       1.8875      0.00000
     21       1.9467      0.00000
     22       2.3386      0.00000
     23       2.9436      0.00000
     24       3.2241      0.00000
     25       3.5671      0.00000
     26       3.6697      0.00000
     27       4.1022      0.00000
     28       5.0139      0.00000
     29       5.1798      0.00000
     30       5.6342      0.00000
     31       6.0542      0.00000
     32       6.2781      0.00000
     33       8.0320      0.00000
     34       8.4985      0.00000
     35       9.0304      0.00000
     36      10.0203      0.00000
     37      11.7934      0.00000
     38      12.3547      0.00000
     39      12.7526      0.00000
     40      13.0535      0.00000

 k-point     9 :       0.2105    0.0000    0.0000
  band No.  band energies     occupation 
      1      -7.1029      2.00000
      2      -5.5507      2.00000
      3      -4.3499      2.00000
      4      -3.8873      2.00000
      5      -3.6400      2.00000
      6      -3.5183      2.00000
      7      -2.3026      2.00000
      8      -1.3426      2.00000
      9      -1.3046      2.00000
     10      -1.2990      2.00000
     11      -0.8765      2.00000
     12      -0.1681      2.00000
     13      -0.1496      2.00000
     14      -0.0395      2.00000
     15       0.0728      2.00000
     16       1.0932      0.00000
     17       1.2241      0.00000
     18       1.4790      0.00000
     19       1.8261      0.00000
     20       1.8724      0.00000
     21       2.0197      0.00000
     22       2.2105      0.00000
     23       2.7557      0.00000
     24       3.3009      0.00000
     25       3.5541      0.00000
     26       3.7553      0.00000
     27       4.0872      0.00000
     28       5.1426      0.00000
     29       5.2915      0.00000
     30       5.7105      0.00000
     31       6.2169      0.00000
     32       6.4357      0.00000
     33       7.6026      0.00000
     34       8.6276      0.00000
     35       9.0828      0.00000
     36       9.7233      0.00000
     37      11.8784      0.00000
     38      12.0964      0.00000
     39      13.1196      0.00000
     40      13.2224      0.00000

 k-point    10 :       0.2368    0.0000    0.0000
  band No.  band energies     occupation 
      1      -6.8773      2.00000
      2      -5.4403      2.00000
      3      -4.3450      2.00000
      4      -3.7890      2.00000
      5      -3.5452      2.00000
      6      -3.4970      2.00000
      7      -2.0572      2.00000
      8      -1.4847      2.00000
      9      -1.4654      2.00000
     10      -1.0857      2.00000
     11      -0.8616      2.00000
     12      -0.2696      2.00000
     13      -0.1797      2.00000
     14      -0.1420      2.00000
     15       0.0192      2.00000
     16       1.2352      0.00000
     17       1.3541      0.00000
     18       1.4390      0.00000
     19       1.8213      0.00000
     20       1.8622      0.00000
     21       2.0119      0.00000
     22       2.0833      0.00000
     23       2.6609      0.00000
     24       3.4067      0.00000
     25       3.5389      0.00000
     26       3.8600      0.00000
     27       4.0908      0.00000
     28       5.2784      0.00000
     29       5.4256      0.00000
     30       5.7635      0.00000
     31       6.3925      0.00000
     32       6.5712      0.00000
     33       7.1715      0.00000
     34       8.7534      0.00000
     35       8.7583      0.00000
     36       9.7658      0.00000
     37      11.4601      0.00000
     38      12.3856      0.00000
     39      12.7021      0.00000
     40      13.3575      0.00000

 k-point    11 :       0.2632    0.0000    0.0000
  band No.  band energies     occupation 
      1      -6.6366      2.00000
      2      -5.3399      2.00000
      3      -4.3593      2.00000
      4      -3.6949      2.00000
      5      -3.5646      2.00000
      6      -3.3346      2.00000
      7      -1.8051      2.00000
      8      -1.6178      2.00000
      9      -1.6175      2.00000
     10      -0.8309      2.00000
     11      -0.8149      2.00000
     12      -0.3700      2.00000
     13      -0.3171      2.00000
     14      -0.1193      2.00000
     15      -0.0416      2.00000
     16       1.3378      0.00000
     17       1.3796      0.00000
     18       1.4347      0.00000
     19       1.8246      0.00000
     20       1.8278      0.00000
     21       1.9848      0.00000
     22       2.0257      0.00000
     23       2.6328      0.00000
     24       3.5279      0.00000
     25       3.5383      0.00000
     26       3.9673      0.00000
     27       4.1176      0.00000
     28       5.4137      0.00000
     29       5.5643      0.00000
     30       5.7981      0.00000
     31       6.5786      0.00000
     32       6.5844      0.00000
     33       6.8685      0.00000
     34       8.2728      0.00000
     35       8.8409      0.00000
     36       9.9397      0.00000
     37      11.1268      0.00000
     38      12.0832      0.00000
     39      12.8942      0.00000
     40      12.9218      0.00000

 k-point    12 :       0.2895    0.0000    0.0000
  band No.  band energies     occupation 
      1      -6.3855      2.00000
      2      -5.2548      2.00000
      3      -4.3871      2.00000
      4      -3.6006      2.00000
      5      -3.5736      2.00000
      6      -3.1674      2.00000
      7      -1.7589      2.00000
      8      -1.7398      2.00000
      9      -1.5573      2.00000
     10      -0.7351      2.00000
     11      -0.5437      2.00000
     12      -0.4647      2.00000
     13      -0.4459      2.00000
     14      -0.1091      2.00000
     15      -0.0856      2.00000
     16       1.3016      0.00000
     17       1.3434      0.00000
     18       1.4288      0.00000
     19       1.8154      0.00000
     20       1.8422      0.00000
     21       2.0331      0.00000
     22       2.0565      0.00000
     23       2.6202      0.00000
     24       3.5583      0.00000
     25       3.6541      0.00000
     26       4.0640      0.00000
     27       4.1668      0.00000
     28       5.5280      0.00000
     29       5.6959      0.00000
     30       5.8207      0.00000
     31       6.2964      0.00000
     32       6.7724      0.00000
     33       6.8888      0.00000
     34       7.7722      0.00000
     35       8.8536      0.00000
     36      10.1135      0.00000
     37      10.8927      0.00000
     38      11.6582      0.00000
     39      12.4437      0.00000
     40      13.2913      0.00000

 k-point    13 :       0.3158    0.0000    0.0000
  band No.  band energies     occupation 
      1      -6.1299      2.00000
      2      -5.1883      2.00000
      3      -4.4212      2.00000
      4      -3.5707      2.00000
      5      -3.5113      2.00000
      6      -3.0016      2.00000
      7      -1.8868      2.00000
      8      -1.8507      2.00000
      9      -1.3263      2.00000
     10      -0.6231      2.00000
     11      -0.5626      2.00000
     12      -0.5578      2.00000
     13      -0.2326      2.00000
     14      -0.1806      2.00000
     15      -0.0468      2.00000
     16       1.2108      0.00000
     17       1.2559      0.00000
     18       1.3754      0.00000
     19       1.8670      0.00000
     20       1.8753      0.00000
     21       2.1386      0.00000
     22       2.1495      0.00000
     23       2.6062      0.00000
     24       3.5968      0.00000
     25       3.7774      0.00000
     26       4.1409      0.00000
     27       4.2304      0.00000
     28       5.5519      0.00000
     29       5.8136      0.00000
     30       5.8379      0.00000
     31       6.0444      0.00000
     32       6.9498      0.00000
     33       6.9702      0.00000
     34       7.2798      0.00000
     35       8.8108      0.00000
     36      10.2299      0.00000
     37      10.7284      0.00000
     38      11.3100      0.00000
     39      12.0681      0.00000
     40      13.2945      0.00000

 k-point    14 :       0.3421    0.0000    0.0000
  band No.  band energies     occupation 
      1      -5.8770      2.00000
      2      -5.1411      2.00000
      3      -4.4540      2.00000
      4      -3.5570      2.00000
      5      -3.4367      2.00000
      6      -2.8371      2.00000
      7      -1.9999      2.00000
      8      -1.9490      2.00000
      9      -1.1230      2.00000
     10      -0.6652      2.00000
     11      -0.6517      2.00000
     12      -0.4880      2.00000
     13      -0.2523      2.00000
     14      -0.0067      2.00000
     15       0.0792      2.00000
     16       1.1148      0.00000
     17       1.1589      0.00000
     18       1.3372      0.00000
     19       1.9215      0.00000
     20       1.9311      0.00000
     21       2.2557      0.00000
     22       2.2639      0.00000
     23       2.6173      0.00000
     24       3.6483      0.00000
     25       3.8917      0.00000
     26       4.1927      0.00000
     27       4.2958      0.00000
     28       5.3905      0.00000
     29       5.8552      0.00000
     30       5.9138      0.00000
     31       5.9690      0.00000
     32       6.8065      0.00000
     33       6.9893      0.00000
     34       7.1687      0.00000
     35       8.7630      0.00000
     36      10.2016      0.00000
     37      10.5528      0.00000
     38      11.1308      0.00000
     39      11.8083      0.00000
     40      12.9258      0.00000

 k-point    15 :       0.3684    0.0000    0.0000
  band No.  band energies     occupation 
      1      -5.6367      2.00000
      2      -5.1113      2.00000
      3      -4.4781      2.00000
      4      -3.5354      2.00000
      5      -3.3870      2.00000
      6      -2.6691      2.00000
      7      -2.0972      2.00000
      8      -2.0338      2.00000
      9      -0.9517      2.00000
     10      -0.7589      2.00000
     11      -0.7524      2.00000
     12      -0.3569      2.00000
     13      -0.3202      2.00000
     14       0.0426      2.00000
     15       0.3538      2.00000
     16       1.0213      0.00000
     17       1.1247      0.00000
     18       1.3415      0.00000
     19       1.9765      0.00000
     20       1.9851      0.00000
     21       2.3052      0.00000
     22       2.3895      0.00000
     23       2.7106      0.00000
     24       3.7057      0.00000
     25       3.9930      0.00000
     26       4.2188      0.00000
     27       4.3495      0.00000
     28       5.1548      0.00000
     29       5.8756      0.00000
     30       5.9268      0.00000
     31       5.9953      0.00000
     32       6.3611      0.00000
     33       7.0362      0.00000
     34       7.3628      0.00000
     35       8.7549      0.00000
     36      10.0055      0.00000
     37      10.3077      0.00000
     38      11.1402      0.00000
     39      11.6487      0.00000
     40      12.6491      0.00000

 k-point    16 :       0.3947    0.0000    0.0000
  band No.  band energies     occupation 
      1      -5.4219      2.00000
      2      -5.0949      2.00000
      3      -4.4858      2.00000
      4      -3.5103      2.00000
      5      -3.3677      2.00000
      6      -2.4925      2.00000
      7      -2.1777      2.00000
      8      -2.1044      2.00000
      9      -0.8896      2.00000
     10      -0.8238      2.00000
     11      -0.8110      2.00000
     12      -0.3806      2.00000
     13      -0.2726      2.00000
     14       0.1265      2.00000
     15       0.5244      2.00000
     16       0.9366      0.00000
     17       1.2236      0.00000
     18       1.3855      0.00000
     19       2.0277      0.00000
     20       2.0346      0.00000
     21       2.2861      0.00000
     22       2.5218      0.00000
     23       2.8756      0.00000
     24       3.7626      0.00000
     25       4.0805      0.00000
     26       4.2231      0.00000
     27       4.3807      0.00000
     28       4.9391      0.00000
     29       5.7990      0.00000
     30       5.8989      0.00000
     31       5.9520      0.00000
     32       6.0584      0.00000
     33       7.1372      0.00000
     34       7.5483      0.00000
     35       8.7879      0.00000
     36       9.7482      0.00000
     37      10.0232      0.00000
     38      11.2179      0.00000
     39      11.4791      0.00000
     40      12.5528      0.00000

 k-point    17 :       0.4211    0.0000    0.0000
  band No.  band energies     occupation 
      1      -5.2487      2.00000
      2      -5.0876      2.00000
      3      -4.4697      2.00000
      4      -3.4859      2.00000
      5      -3.3770      2.00000
      6      -2.3051      2.00000
      7      -2.2409      2.00000
      8      -2.1600      2.00000
      9      -1.0478      2.00000
     10      -0.8791      2.00000
     11      -0.6991      2.00000
     12      -0.4306      2.00000
     13      -0.2484      2.00000
     14       0.2474      2.00000
     15       0.5850      2.00000
     16       0.8659      0.00666
     17       1.4452      0.00000
     18       1.4452      0.00000
     19       2.0599      0.00000
     20       2.0895      0.00000
     21       2.2601      0.00000
     22       2.6368      0.00000
     23       3.0633      0.00000
     24       3.8132      0.00000
     25       4.1582      0.00000
     26       4.2126      0.00000
     27       4.3845      0.00000
     28       4.7646      0.00000
     29       5.5907      0.00000
     30       5.5914      0.00000
     31       5.9227      0.00000
     32       6.1045      0.00000
     33       7.3008      0.00000
     34       7.7197      0.00000
     35       8.8148      0.00000
     36       9.5027      0.00000
     37       9.7775      0.00000
     38      11.2417      0.00000
     39      11.2703      0.00000
     40      12.4618      0.00000

 k-point    18 :       0.4474    0.0000    0.0000
  band No.  band energies     occupation 
      1      -5.1300      2.00000
      2      -5.0854      2.00000
      3      -4.4301      2.00000
      4      -3.4658      2.00000
      5      -3.4051      2.00000
      6      -2.2864      2.00000
      7      -2.2001      2.00000
      8      -2.1088      2.00000
      9      -1.2289      2.00000
     10      -0.9185      2.00000
     11      -0.6166      2.00000
     12      -0.4678      2.00000
     13      -0.2548      2.00000
     14       0.3687      2.00000
     15       0.6011      2.00000
     16       0.8128      0.22523
     17       1.4923      0.00000
     18       1.6904      0.00000
     19       2.0825      0.00000
     20       2.1348      0.00000
     21       2.2524      0.00000
     22       2.7213      0.00000
     23       3.2435      0.00000
     24       3.8529      0.00000
     25       4.1964      0.00000
     26       4.2355      0.00000
     27       4.3646      0.00000
     28       4.6312      0.00000
     29       5.2950      0.00000
     30       5.3605      0.00000
     31       5.9431      0.00000
     32       6.1354      0.00000
     33       7.5020      0.00000
     34       7.8680      0.00000
     35       8.7558      0.00000
     36       9.2984      0.00000
     37       9.6599      0.00000
     38      10.9853      0.00000
     39      11.2684      0.00000
     40      12.4632      0.00000

 k-point    19 :       0.4737    0.0000    0.0000
  band No.  band energies     occupation 
      1      -5.0854      2.00000
      2      -5.0660      2.00000
      3      -4.3850      2.00000
      4      -3.4528      2.00000
      5      -3.4354      2.00000
      6      -2.3138      2.00000
      7      -2.2244      2.00000
      8      -1.9135      2.00000
      9      -1.4179      2.00000
     10      -0.9421      2.00000
     11      -0.5655      2.00000
     12      -0.4908      2.00000
     13      -0.2665      2.00000
     14       0.4565      2.00000
     15       0.6062      2.00000
     16       0.7800      0.77623
     17       1.5146      0.00000
     18       1.8784      0.00000
     19       2.0957      0.00000
     20       2.1648      0.00000
     21       2.2610      0.00000
     22       2.7677      0.00000
     23       3.3839      0.00000
     24       3.8781      0.00000
     25       4.1826      0.00000
     26       4.3223      0.00000
     27       4.3353      0.00000
     28       4.5263      0.00000
     29       5.0928      0.00000
     30       5.1738      0.00000
     31       5.9570      0.00000
     32       6.1531      0.00000
     33       7.6979      0.00000
     34       7.9761      0.00000
     35       8.6095      0.00000
     36       9.1568      0.00000
     37       9.6732      0.00000
     38      10.7771      0.00000
     39      11.2409      0.00000
     40      12.5539      0.00000

 k-point    20 :       0.5000    0.0000    0.0000
  band No.  band energies     occupation 
      1      -5.0856      2.00000
      2      -5.0465      2.00000
      3      -4.3649      2.00000
      4      -3.4487      2.00000
      5      -3.4482      2.00000
      6      -2.3229      2.00000
      7      -2.2325      2.00000
      8      -1.7890      2.00000
      9      -1.5409      2.00000
     10      -0.9499      2.00000
     11      -0.5482      2.00000
     12      -0.4985      2.00000
     13      -0.2715      2.00000
     14       0.4886      2.00000
     15       0.6075      2.00000
     16       0.7689      1.02386
     17       1.5198      0.00000
     18       1.9500      0.00000
     19       2.1000      0.00000
     20       2.1753      0.00000
     21       2.2674      0.00000
     22       2.7809      0.00000
     23       3.4396      0.00000
     24       3.8868      0.00000
     25       4.1773      0.00000
     26       4.3205      0.00000
     27       4.3996      0.00000
     28       4.4484      0.00000
     29       5.0193      0.00000
     30       5.0999      0.00000
     31       5.9619      0.00000
     32       6.1589      0.00000
     33       7.7943      0.00000
     34       8.0174      0.00000
     35       8.5206      0.00000
     36       9.1044      0.00000
     37       9.7014      0.00000
     38      10.6922      0.00000
     39      11.2269      0.00000
     40      12.6213      0.00000

 k-point    21 :       0.5000    0.0000    0.0000
  band No.  band energies     occupation 
      1      -5.0856      2.00000
      2      -5.0465      2.00000
      3      -4.3649      2.00000
      4      -3.4487      2.00000
      5      -3.4482      2.00000
      6      -2.3229      2.00000
      7      -2.2325      2.00000
      8      -1.7890      2.00000
      9      -1.5409      2.00000
     10      -0.9499      2.00000
     11      -0.5482      2.00000
     12      -0.4985      2.00000
     13      -0.2715      2.00000
     14       0.4886      2.00000
     15       0.6075      2.00000
     16       0.7689      1.02386
     17       1.5198      0.00000
     18       1.9500      0.00000
     19       2.1000      0.00000
     20       2.1753      0.00000
     21       2.2674      0.00000
     22       2.7809      0.00000
     23       3.4396      0.00000
     24       3.8868      0.00000
     25       4.1773      0.00000
     26       4.3205      0.00000
     27       4.3996      0.00000
     28       4.4484      0.00000
     29       5.0193      0.00000
     30       5.0999      0.00000
     31       5.9619      0.00000
     32       6.1589      0.00000
     33       7.7943      0.00000
     34       8.0174      0.00000
     35       8.5206      0.00000
     36       9.1044      0.00000
     37       9.7014      0.00000
     38      10.6922      0.00000
     39      11.2269      0.00000
     40      12.6213      0.00000

 k-point    22 :       0.5000    0.0263    0.0000
  band No.  band energies     occupation 
      1      -5.0690      2.00000
      2      -5.0312      2.00000
      3      -4.3534      2.00000
      4      -3.4461      2.00000
      5      -3.4358      2.00000
      6      -2.3283      2.00000
      7      -2.2422      2.00000
      8      -1.8045      2.00000
      9      -1.5761      2.00000
     10      -0.9021      2.00000
     11      -0.6215      2.00000
     12      -0.5542      2.00000
     13      -0.1489      2.00000
     14       0.4575      2.00000
     15       0.6196      1.99998
     16       0.7864      0.64057
     17       1.4386      0.00000
     18       1.9250      0.00000
     19       2.1023      0.00000
     20       2.2546      0.00000
     21       2.2776      0.00000
     22       2.7675      0.00000
     23       3.4234      0.00000
     24       3.8498      0.00000
     25       4.1212      0.00000
     26       4.3973      0.00000
     27       4.4193      0.00000
     28       4.4965      0.00000
     29       5.0261      0.00000
     30       5.1274      0.00000
     31       6.0113      0.00000
     32       6.2090      0.00000
     33       7.8041      0.00000
     34       8.0262      0.00000
     35       8.5314      0.00000
     36       9.1160      0.00000
     37       9.7106      0.00000
     38      10.6993      0.00000
     39      11.2298      0.00000
     40      12.6296      0.00000

 k-point    23 :       0.5000    0.0526    0.0000
  band No.  band energies     occupation 
      1      -5.0196      2.00000
      2      -4.9855      2.00000
      3      -4.3203      2.00000
      4      -3.4404      2.00000
      5      -3.3998      2.00000
      6      -2.3429      2.00000
      7      -2.2698      2.00000
      8      -1.8479      2.00000
      9      -1.6508      2.00000
     10      -0.8127      2.00000
     11      -0.7880      2.00000
     12      -0.5740      2.00000
     13       0.0397      2.00000
     14       0.3694      2.00000
     15       0.6551      1.99884
     16       0.8314      0.08218
     17       1.2686      0.00000
     18       1.8582      0.00000
     19       2.1077      0.00000
     20       2.3088      0.00000
     21       2.4118      0.00000
     22       2.7309      0.00000
     23       3.3897      0.00000
     24       3.7758      0.00000
     25       4.0568      0.00000
     26       4.3933      0.00000
     27       4.5959      0.00000
     28       4.6069      0.00000
     29       5.0491      0.00000
     30       5.2157      0.00000
     31       6.1503      0.00000
     32       6.3523      0.00000
     33       7.8334      0.00000
     34       8.0523      0.00000
     35       8.5635      0.00000
     36       9.1506      0.00000
     37       9.7381      0.00000
     38      10.7199      0.00000
     39      11.2376      0.00000
     40      12.6536      0.00000

 k-point    24 :       0.5000    0.0789    0.0000
  band No.  band energies     occupation 
      1      -4.9381      2.00000
      2      -4.9111      2.00000
      3      -4.2689      2.00000
      4      -3.4377      2.00000
      5      -3.3440      2.00000
      6      -2.3621      2.00000
      7      -2.3104      2.00000
      8      -1.9114      2.00000
      9      -1.7196      2.00000
     10      -1.0078      2.00000
     11      -0.6480      2.00000
     12      -0.6125      2.00000
     13       0.1774      2.00000
     14       0.2864      2.00000
     15       0.7126      1.89539
     16       0.8786      0.00211
     17       1.0859      0.00000
     18       1.7765      0.00000
     19       2.1123      0.00000
     20       2.3624      0.00000
     21       2.5468      0.00000
     22       2.6821      0.00000
     23       3.3810      0.00000
     24       3.7089      0.00000
     25       4.0147      0.00000
     26       4.3939      0.00000
     27       4.6893      0.00000
     28       4.8412      0.00000
     29       5.0929      0.00000
     30       5.3710      0.00000
     31       6.3588      0.00000
     32       6.5714      0.00000
     33       7.8826      0.00000
     34       8.0956      0.00000
     35       8.6168      0.00000
     36       9.2077      0.00000
     37       9.7836      0.00000
     38      10.7522      0.00000
     39      11.2470      0.00000
     40      12.6906      0.00000

 k-point    25 :       0.5000    0.1053    0.0000
  band No.  band energies     occupation 
      1      -4.8259      2.00000
      2      -4.8109      2.00000
      3      -4.2056      2.00000
      4      -3.4454      2.00000
      5      -3.2757      2.00000
      6      -2.3781      2.00000
      7      -2.3552      2.00000
      8      -1.9858      2.00000
      9      -1.7538      2.00000
     10      -1.1977      2.00000
     11      -0.6754      2.00000
     12      -0.5043      2.00000
     13       0.0297      2.00000
     14       0.4471      2.00000
     15       0.7894      0.58248
     16       0.8836      0.00130
     17       0.9207      0.00002
     18       1.7278      0.00000
     19       2.1102      0.00000
     20       2.4388      0.00000
     21       2.6009      0.00000
     22       2.6395      0.00000
     23       3.4451      0.00000
     24       3.6640      0.00000
     25       3.9910      0.00000
     26       4.4036      0.00000
     27       4.7602      0.00000
     28       5.1111      0.00000
     29       5.1619      0.00000
     30       5.5826      0.00000
     31       6.6159      0.00000
     32       6.8462      0.00000
     33       7.9523      0.00000
     34       8.1554      0.00000
     35       8.6904      0.00000
     36       9.2867      0.00000
     37       9.8467      0.00000
     38      10.7928      0.00000
     39      11.2522      0.00000
     40      12.7378      0.00000

 k-point    26 :       0.5000    0.1316    0.0000
  band No.  band energies     occupation 
      1      -4.6900      2.00000
      2      -4.6847      2.00000
      3      -4.1406      2.00000
      4      -3.4682      2.00000
      5      -3.2066      2.00000
      6      -2.3905      2.00000
      7      -2.3795      2.00000
      8      -2.0635      2.00000
      9      -1.7378      2.00000
     10      -1.3787      2.00000
     11      -0.7661      2.00000
     12      -0.3681      2.00000
     13      -0.1750      2.00000
     14       0.6329      1.99989
     15       0.7853      0.66322
     16       0.7985      0.41833
     17       0.8883      0.00081
     18       1.7573      0.00000
     19       2.0969      0.00000
     20       2.5368      0.00000
     21       2.5769      0.00000
     22       2.6216      0.00000
     23       3.5808      0.00000
     24       3.6415      0.00000
     25       3.9806      0.00000
     26       4.4238      0.00000
     27       4.8149      0.00000
     28       5.2597      0.00000
     29       5.4073      0.00000
     30       5.8292      0.00000
     31       6.9048      0.00000
     32       7.1579      0.00000
     33       8.0445      0.00000
     34       8.2308      0.00000
     35       8.7833      0.00000
     36       9.3863      0.00000
     37       9.9269      0.00000
     38      10.8358      0.00000
     39      11.2435      0.00000
     40      12.7263      0.00000

 k-point    27 :       0.5000    0.1579    0.0000
  band No.  band energies     occupation 
      1      -4.5577      2.00000
      2      -4.5173      2.00000
      3      -4.0867      2.00000
      4      -3.5024      2.00000
      5      -3.1514      2.00000
      6      -2.3991      2.00000
      7      -2.3541      2.00000
      8      -2.1393      2.00000
      9      -1.6669      2.00000
     10      -1.5478      2.00000
     11      -0.8826      2.00000
     12      -0.3977      2.00000
     13      -0.2438      2.00000
     14       0.6385      1.99980
     15       0.6837      1.98527
     16       0.8147      0.20590
     17       0.9977      0.00000
     18       1.8617      0.00000
     19       2.0762      0.00000
     20       2.5192      0.00000
     21       2.6369      0.00000
     22       2.6540      0.00000
     23       3.6372      0.00000
     24       3.7459      0.00000
     25       3.9796      0.00000
     26       4.4535      0.00000
     27       4.8608      0.00000
     28       5.3889      0.00000
     29       5.7210      0.00000
     30       6.0929      0.00000
     31       7.2129      0.00000
     32       7.4877      0.00000
     33       8.1645      0.00000
     34       8.3203      0.00000
     35       8.8936      0.00000
     36       9.5048      0.00000
     37      10.0233      0.00000
     38      10.8724      0.00000
     39      11.2077      0.00000
     40      12.6040      0.00000

 k-point    28 :       0.5000    0.1842    0.0000
  band No.  band energies     occupation 
      1      -4.4308      2.00000
      2      -4.3272      2.00000
      3      -4.0574      2.00000
      4      -3.5308      2.00000
      5      -3.1219      2.00000
      6      -2.3647      2.00000
      7      -2.2965      2.00000
      8      -2.2093      2.00000
      9      -1.7022      2.00000
     10      -1.5474      2.00000
     11      -1.0165      2.00000
     12      -0.6286      2.00000
     13      -0.1303      2.00000
     14       0.4313      2.00000
     15       0.6158      1.99999
     16       0.9910      0.00000
     17       1.1217      0.00000
     18       2.0087      0.00000
     19       2.0596      0.00000
     20       2.4612      0.00000
     21       2.6816      0.00000
     22       2.7866      0.00000
     23       3.6467      0.00000
     24       3.9081      0.00000
     25       3.9850      0.00000
     26       4.4902      0.00000
     27       4.9013      0.00000
     28       5.5501      0.00000
     29       6.0445      0.00000
     30       6.3614      0.00000
     31       7.5302      0.00000
     32       7.8098      0.00000
     33       8.3273      0.00000
     34       8.4216      0.00000
     35       9.0182      0.00000
     36       9.6392      0.00000
     37      10.1350      0.00000
     38      10.8898      0.00000
     39      11.1313      0.00000
     40      12.4722      0.00000

 k-point    29 :       0.5000    0.2105    0.0000
  band No.  band energies     occupation 
      1      -4.3371      2.00000
      2      -4.1191      2.00000
      3      -4.0613      2.00000
      4      -3.5227      2.00000
      5      -3.1192      2.00000
      6      -2.2977      2.00000
      7      -2.2504      2.00000
      8      -2.2167      2.00000
      9      -1.8388      2.00000
     10      -1.3933      2.00000
     11      -1.1545      2.00000
     12      -0.8607      2.00000
     13      -0.0187      2.00000
     14       0.2037      2.00000
     15       0.5823      2.00000
     16       1.1624      0.00000
[...]
     34       9.5203      0.00000
     35       9.8357      0.00000
     36      10.5231      0.00000
     37      11.0126      0.00000
     38      11.9449      0.00000
     39      12.0226      0.00000
     40      12.2235      0.00000

 k-point    55 :       0.1316    0.1316    0.0000
  band No.  band energies     occupation 
      1      -7.2892      2.00000
      2      -5.5819      2.00000
      3      -4.1347      2.00000
      4      -4.0830      2.00000
      5      -3.6547      2.00000
      6      -3.0316      2.00000
      7      -2.9737      2.00000
      8      -1.8736      2.00000
      9      -1.2292      2.00000
     10      -1.1929      2.00000
     11      -1.0271      2.00000
     12      -0.3258      2.00000
     13      -0.0363      2.00000
     14       0.1805      2.00000
     15       0.3520      2.00000
     16       0.5878      2.00000
     17       1.0314      0.00000
     18       1.5728      0.00000
     19       1.6405      0.00000
     20       1.7885      0.00000
     21       2.3280      0.00000
     22       2.9524      0.00000
     23       2.9727      0.00000
     24       3.0585      0.00000
     25       3.4911      0.00000
     26       4.1245      0.00000
     27       4.1711      0.00000
     28       4.7393      0.00000
     29       4.7750      0.00000
     30       5.2254      0.00000
     31       6.1864      0.00000
     32       6.6236      0.00000
     33       8.5184      0.00000
     34       9.1903      0.00000
     35      10.0457      0.00000
     36      10.4438      0.00000
     37      11.0907      0.00000
     38      11.7013      0.00000
     39      12.3733      0.00000
     40      12.8623      0.00000

 k-point    56 :       0.1053    0.1053    0.0000
  band No.  band energies     occupation 
      1      -7.5500      2.00000
      2      -5.7831      2.00000
      3      -4.2808      2.00000
      4      -4.2727      2.00000
      5      -3.7827      2.00000
      6      -3.1440      2.00000
      7      -3.1068      2.00000
      8      -1.8106      2.00000
      9      -1.0074      2.00000
     10      -0.9555      2.00000
     11      -0.8633      2.00000
     12      -0.0313      2.00000
     13       0.0425      2.00000
     14       0.1268      2.00000
     15       0.3750      2.00000
     16       0.5091      2.00000
     17       0.9526      0.00000
     18       1.5142      0.00000
     19       1.6233      0.00000
     20       1.6854      0.00000
     21       2.2396      0.00000
     22       2.8243      0.00000
     23       3.0820      0.00000
     24       3.1217      0.00000
     25       3.3570      0.00000
     26       4.1604      0.00000
     27       4.4574      0.00000
     28       4.6595      0.00000
     29       4.7287      0.00000
     30       5.0512      0.00000
     31       5.9415      0.00000
     32       6.2721      0.00000
     33       8.2228      0.00000
     34       8.7905      0.00000
     35      10.2131      0.00000
     36      10.4098      0.00000
     37      10.8446      0.00000
     38      11.9673      0.00000
     39      12.7085      0.00000
     40      12.8900      0.00000

 k-point    57 :       0.0789    0.0789    0.0000
  band No.  band energies     occupation 
      1      -7.7585      2.00000
      2      -5.9416      2.00000
      3      -4.4366      2.00000
      4      -4.3872      2.00000
      5      -3.8850      2.00000
      6      -3.2352      2.00000
      7      -3.2169      2.00000
      8      -1.7505      2.00000
      9      -0.8211      2.00000
     10      -0.6983      2.00000
     11      -0.6823      2.00000
     12      -0.0161      2.00000
     13       0.0732      2.00000
     14       0.3150      2.00000
     15       0.3972      2.00000
     16       0.4243      2.00000
     17       0.8271      0.10580
     18       1.2576      0.00000
     19       1.6431      0.00000
     20       1.6967      0.00000
     21       2.1923      0.00000
     22       2.6997      0.00000
     23       3.1633      0.00000
     24       3.2674      0.00000
     25       3.3239      0.00000
     26       4.1897      0.00000
     27       4.6372      0.00000
     28       4.6502      0.00000
     29       4.6910      0.00000
     30       5.0292      0.00000
     31       5.7348      0.00000
     32       5.9460      0.00000
     33       7.9838      0.00000
     34       8.3547      0.00000
     35      10.3400      0.00000
     36      10.4141      0.00000
     37      10.5576      0.00000
     38      12.4344      0.00000
     39      12.6794      0.00000
     40      13.0161      0.00000

 k-point    58 :       0.0526    0.0526    0.0000
  band No.  band energies     occupation 
      1      -7.9104      2.00000
      2      -6.0558      2.00000
      3      -4.5490      2.00000
      4      -4.4730      2.00000
      5      -3.9585      2.00000
      6      -3.3022      2.00000
      7      -3.2984      2.00000
      8      -1.6996      2.00000
      9      -0.6465      2.00000
     10      -0.5267      2.00000
     11      -0.4868      2.00000
     12       0.0247      2.00000
     13       0.0855      2.00000
     14       0.2900      2.00000
     15       0.4105      2.00000
     16       0.4547      2.00000
     17       0.7399      1.60480
     18       1.0368      0.00000
     19       1.5193      0.00000
     20       1.8179      0.00000
     21       2.1837      0.00000
     22       2.5851      0.00000
     23       3.0259      0.00000
     24       3.3473      0.00000
     25       3.6661      0.00000
     26       4.2199      0.00000
     27       4.5997      0.00000
     28       4.6596      0.00000
     29       4.6634      0.00000
     30       5.2134      0.00000
     31       5.5597      0.00000
     32       5.6778      0.00000
     33       7.8119      0.00000
     34       7.9360      0.00000
     35      10.3454      0.00000
     36      10.4284      0.00000
     37      10.4449      0.00000
     38      12.5185      0.00000
     39      12.9356      0.00000
     40      13.2775      0.00000

 k-point    59 :       0.0263    0.0263    0.0000
  band No.  band energies     occupation 
      1      -8.0027      2.00000
      2      -6.1246      2.00000
      3      -4.6168      2.00000
      4      -4.5261      2.00000
      5      -4.0025      2.00000
      6      -3.3483      2.00000
      7      -3.3431      2.00000
      8      -1.6648      2.00000
      9      -0.5099      2.00000
     10      -0.4657      2.00000
     11      -0.2818      2.00000
     12      -0.0100      2.00000
     13       0.1341      2.00000
     14       0.2610      2.00000
     15       0.4098      2.00000
     16       0.4680      2.00000
     17       0.7372      1.64480
     18       0.8817      0.00156
     19       1.2463      0.00000
     20       2.1301      0.00000
     21       2.2017      0.00000
     22       2.4936      0.00000
     23       2.7905      0.00000
     24       3.4208      0.00000
     25       4.0154      0.00000
     26       4.2433      0.00000
     27       4.5309      0.00000
     28       4.6466      0.00000
     29       4.6560      0.00000
     30       5.3816      0.00000
     31       5.4171      0.00000
     32       5.5033      0.00000
     33       7.6184      0.00000
     34       7.7094      0.00000
     35      10.2198      0.00000
     36      10.4803      0.00000
     37      10.4812      0.00000
     38      12.4146      0.00000
     39      13.3559      0.00000
     40      13.4625      0.00000

 k-point    60 :       0.0000    0.0000    0.0000
  band No.  band energies     occupation 
      1      -8.0336      2.00000
      2      -6.1476      2.00000
      3      -4.6395      2.00000
      4      -4.5440      2.00000
      5      -4.0172      2.00000
      6      -3.3650      2.00000
      7      -3.3569      2.00000
      8      -1.6524      2.00000
      9      -0.4551      2.00000
     10      -0.4551      2.00000
     11      -0.1112      2.00000
     12      -0.0227      2.00000
     13      -0.0227      2.00000
     14       0.3449      2.00000
     15       0.4047      2.00000
     16       0.4641      2.00000
     17       0.8258      0.11435
     18       0.8258      0.11435
     19       1.0438      0.00000
     20       2.2167      0.00000
     21       2.4543      0.00000
     22       2.4543      0.00000
     23       2.5048      0.00000
     24       3.4470      0.00000
     25       4.1823      0.00000
     26       4.2521      0.00000
     27       4.5033      0.00000
     28       4.6410      0.00000
     29       4.6410      0.00000
     30       5.3523      0.00000
     31       5.4433      0.00000
     32       5.4438      0.00000
     33       7.4970      0.00000
     34       7.6755      0.00000
     35      10.1786      0.00000
     36      10.4975      0.00000
     37      10.4975      0.00000
     38      12.3782      0.00000
     39      13.5314      0.00000
     40      13.5314      0.00000


--------------------------------------------------------------------------------------------------------


 soft charge-density along one line, spin component           1
         0         1         2         3         4         5         6         7         8         9
 total charge-density along one line
 
 pseudopotential strength for first ion, spin component:           1
 -8.129   0.000   0.000   0.000   0.000   0.000  -0.000   0.000   0.000   0.000   0.011   0.000   0.000   0.000   0.000   0.000
  0.000   0.000  -8.160   0.000  -0.000   0.000  -0.000   0.000   0.000   0.000   0.000   0.000   0.009   0.000  -0.000   0.000
  0.000   0.000  -0.000   0.000  -8.168   0.000   0.000   0.000   0.000   0.000   0.000   0.000  -0.000   0.000   0.008   0.000
 -0.000   0.000  -0.000   0.000   0.000   0.000  -8.160   0.000   0.000   0.000  -0.000   0.000  -0.000   0.000   0.000   0.000
  0.000   0.000   0.000   0.000   0.000   0.000   0.000   0.000  -8.127   0.000   0.000   0.000   0.000   0.000   0.000   0.000
  0.011   0.000   0.000   0.000   0.000   0.000  -0.000   0.000   0.000   0.000   0.076   0.000   0.000   0.000   0.000   0.000
  0.000   0.000   0.009   0.000  -0.000   0.000  -0.000   0.000   0.000   0.000   0.000   0.000   0.076   0.000  -0.000   0.000
  0.000   0.000  -0.000   0.000   0.008   0.000   0.000   0.000   0.000   0.000   0.000   0.000  -0.000   0.000   0.076   0.000
 -0.000   0.000  -0.000   0.000   0.000   0.000   0.009   0.000   0.000   0.000  -0.000   0.000  -0.000   0.000   0.000   0.000
  0.000   0.000   0.000   0.000   0.000   0.000   0.000   0.000   0.011   0.000  -0.000   0.000   0.000   0.000   0.000   0.000
  0.000   0.000   0.000   0.000   0.016   0.000  -0.000   0.000   0.000   0.000   0.000   0.000   0.000   0.000   0.001   0.000
 -0.000   0.000  -0.000   0.000  -0.002   0.000   0.000   0.000  -0.000   0.000  -0.000   0.000  -0.000   0.000  -0.000   0.000
  0.000   0.000  -0.025   0.000   0.000   0.000  -0.000   0.000   0.000   0.000   0.000   0.000  -0.001   0.000   0.000   0.000
 -0.000   0.000  -0.000   0.000  -0.043   0.000   0.000   0.000  -0.000   0.000   0.000   0.000  -0.000   0.000  -0.001   0.000
 -0.000   0.000  -0.000   0.000  -0.000   0.000  -0.025   0.000   0.000   0.000  -0.000   0.000   0.000   0.000  -0.000   0.000
 -0.000   0.000   0.021   0.000  -0.000   0.000   0.000   0.000  -0.000   0.000  -0.000   0.000   0.001   0.000  -0.000   0.000
  0.000   0.000   0.000   0.000   0.031   0.000  -0.000   0.000   0.000   0.000  -0.000   0.000   0.000   0.000   0.001   0.000
  0.000   0.000   0.000   0.000   0.000   0.000   0.021   0.000  -0.000   0.000   0.000   0.000  -0.000   0.000   0.000   0.000
 total augmentation occupancy for first ion, spin component:           1
  1.000   0.000   0.000   0.000   0.000   0.000   0.000   0.000   0.000   0.000   0.000   0.000   0.000   0.000   0.000   0.000
  0.000   1.000   0.000   0.000   0.000   0.000   0.000   0.000   0.000   0.000   0.000   0.000   0.000   0.000   0.000   0.000
  0.000   0.000   1.000   0.000   0.000   0.000   0.000   0.000   0.000   0.000   0.000   0.000   0.000   0.000   0.000   0.000
  0.000   0.000   0.000   1.000   0.000   0.000   0.000   0.000   0.000   0.000   0.000   0.000   0.000   0.000   0.000   0.000
  0.000   0.000   0.000   0.000   1.000   0.000   0.000   0.000   0.000   0.000   0.000   0.000   0.000   0.000   0.000   0.000
  0.000   0.000   0.000   0.000   0.000   0.000   0.000   0.000   0.000   0.000   0.000   0.000   0.000   0.000   0.000   0.000
  0.000   0.000   0.000   0.000   0.000   0.000   0.000   0.000   0.000   0.000   0.000   0.000   0.000   0.000   0.000   0.000
  0.000   0.000   0.000   0.000   0.000   0.000   0.000   0.000   0.000   0.000   0.000   0.000   0.000   0.000   0.000   0.000
  0.000   0.000   0.000   0.000   0.000   0.000   0.000   0.000   0.000   0.000   0.000   0.000   0.000   0.000   0.000   0.000
  0.000   0.000   0.000   0.000   0.000   0.000   0.000   0.000   0.000   0.000   0.000   0.000   0.000   0.000   0.000   0.000
  0.000   0.000   0.000   0.000   0.000   0.000   0.000   0.000   0.000   0.000   1.000   0.000   0.000   0.000   0.000   0.000
  0.000   0.000   0.000   0.000   0.000   0.000   0.000   0.000   0.000   0.000   0.000   0.000   0.000   0.000   0.000   0.000
  0.000   0.000   0.000   0.000   0.000   0.000   0.000   0.000   0.000   0.000   0.000   0.000   0.000   0.000   0.000   0.000
  0.000   0.000   0.000   0.000   0.000   0.000   0.000   0.000   0.000   0.000   0.000   0.000   0.000   0.000   0.000   0.000
  0.000   0.000   0.000   0.000   0.000   0.000   0.000   0.000   0.000   0.000   0.000   0.000   0.000   0.000   0.000   0.000
  0.000   0.000   0.000   0.000   0.000   0.000   0.000   0.000   0.000   0.000   0.000   0.000   0.000   0.000   0.000   0.000
  0.000   0.000   0.000   0.000   0.000   0.000   0.000   0.000   0.000   0.000   0.000   0.000   0.000   0.000   0.000   0.000
  0.000   0.000   0.000   0.000   0.000   0.000   0.000   0.000   0.000   0.000   0.000   0.000   0.000   0.000   0.000   0.000


------------------------ aborting loop because EDIFF is reached ----------------------------------------


    CHARGE:  cpu time    0.0568: real time    0.0645
    FORLOC:  cpu time    0.0012: real time    0.0021
    FORNL :  cpu time    0.3258: real time    0.3304
    STRESS:  cpu time    1.8223: real time    1.8306
    FORCOR:  cpu time    0.0038: real time    0.0051
    FORHAR:  cpu time    0.0029: real time    0.0035
    OFIELD:  cpu time    0.0009: real time    0.0013

  FORCE on cell =-STRESS in cart. coord.  units (eV):
  Direction    XX          YY          ZZ          XY          YZ          ZX
  --------------------------------------------------------------------------------------
  Alpha Z    92.17274    92.17274    92.17274
  Ewald    3997.59375  3997.59375 -4957.85860     0.00000     0.00000    -0.00000
  Hartree  4159.01834  4159.01834 -4145.31490    -0.00000    -0.00000    -0.00000
  E(xc)    -132.30111  -132.30111  -132.26730    -0.00000    -0.00000     0.00000
  Local   -8469.42432 -8469.42432  8784.75792     0.00000    -0.00000     0.00000
  n-local   -81.28892   -69.40677   -77.20290     1.56186     0.00000     0.00000
  augment    26.47425    26.47425    26.52802    -0.00000     0.00000     0.00000
  Kinetic   371.21433   400.86766   401.07766     1.21249     0.00000    -0.00000
  Fock        0.00000     0.00000     0.00000     0.00000     0.00000     0.00000
  -------------------------------------------------------------------------------------
  Total     -15.77322   -15.77322    -8.10735     0.00000     0.00000     0.00000
  in kB    -133.48068  -133.48068   -68.60837     0.00000     0.00000     0.00000
  external pressure =     -111.86 kB  Pullay stress =        0.00 kB


 VOLUME and BASIS-vectors are now :
 -----------------------------------------------------------------------------
  energy-cutoff  :      600.00
  volume of cell :      189.33
      direct lattice vectors                 reciprocal lattice vectors
     3.160000000  0.000000000  0.000000000     0.316455696  0.000000000  0.000000000
     0.000000000  3.160000000  0.000000000     0.000000000  0.316455696  0.000000000
     0.000000000  0.000000000 18.960000000     0.000000000  0.000000000  0.052742616

  length of vectors
     3.160000000  3.160000000 18.960000000     0.316455696  0.316455696  0.052742616


 FORCES acting on ions
    electron-ion (+dipol)            ewald-force                    non-local-force                 convergence-correction
 -----------------------------------------------------------------------------------------------
   -.260E-14 0.288E-14 0.725E+03   0.639E-14 -.114E-14 -.723E+03   0.000E+00 0.452E-25 -.457E+01   -.320E-13 0.393E-13 0.392E+01
   -.644E-14 -.252E-13 0.382E+03   0.205E-14 -.219E-14 -.383E+03   -.103E-24 0.000E+00 0.328E+00   0.160E-13 0.673E-15 -.257E-01
   -.160E-14 0.443E-14 -.210E-07   0.496E-14 -.218E-14 -.106E-08   0.000E+00 0.103E-24 -.203E-19   0.399E-14 -.389E-15 -.120E-02
   -.559E-14 0.859E-15 -.382E+03   0.293E-14 -.181E-14 0.383E+03   0.207E-24 0.000E+00 -.328E+00   -.443E-13 0.916E-14 0.263E-01
   -.103E-14 0.266E-14 -.725E+03   0.522E-15 -.247E-14 0.723E+03   0.000E+00 -.207E-24 0.457E+01   0.194E-13 -.880E-15 -.392E+01
 -----------------------------------------------------------------------------------------------
   -.173E-13 -.143E-13 -.211E-07   0.169E-13 -.980E-14 0.000E+00   0.103E-24 -.582E-25 -.888E-15   -.369E-13 0.479E-13 0.101E-02
 
 
 POSITION                                       TOTAL-FORCE (eV/Angst)
 -----------------------------------------------------------------------------------
      0.00000      0.00000      0.00000        -0.000000     -0.000000      1.083349
      1.58000      1.58000      1.58000         0.000000     -0.000000     -0.578444
      0.00000      0.00000      3.16000        -0.000000     -0.000000      0.000000
      1.58000      1.58000      4.74000        -0.000000      0.000000      0.578444
      0.00000      0.00000      6.32000         0.000000     -0.000000     -1.083349
 -----------------------------------------------------------------------------------
    total drift:                               -0.000000      0.000000      0.001013


--------------------------------------------------------------------------------------------------------



  FREE ENERGIE OF THE ION-ELECTRON SYSTEM (eV)
  ---------------------------------------------------
  free  energy   TOTEN  =       -64.69795541 eV

  energy  without entropy=      -64.69012776  energy(sigma->0) =      -64.69404159
 


--------------------------------------------------------------------------------------------------------


    POTLOK:  cpu time    0.0069: real time    0.0094


--------------------------------------------------------------------------------------------------------


 writing wavefunctions
     LOOP+:  cpu time   16.1804: real time   16.4130
    4ORBIT:  cpu time    0.0000: real time    0.0000

 total amount of memory used by VASP MPI-rank0    95120. kBytes
=======================================================================

   base      :      30000. kBytes
   nonl-proj :      55459. kBytes
   fftplans  :       1060. kBytes
   grid      :       2304. kBytes
   one-center:         77. kBytes
   wavefun   :       6220. kBytes
 
  
  
 General timing and accounting informations for this job:
 ========================================================
  
                  Total CPU time used (sec):       19.317
                            User time (sec):       17.386
                          System time (sec):        1.931
                         Elapsed time (sec):       19.833
  
                   Maximum memory used (kb):      146684.
                   Average memory used (kb):           0.
  
                          Minor page faults:        31533
                          Major page faults:           58
                 Voluntary context switches:         1302
