<?xml version="1.0" encoding="ISO-8859-1"?>
<modeling>
 <generator>
  <i name="program" type="string">vasp </i>
  <i name="version" type="string">5.4.4.18Apr17-6-g9f103f2a35  </i>
  <i name="subversion" type="string">(build May 20 2018 16:52:39) complex            parallel </i>
  <i name="platform" type="string">LinuxIFC </i>
  <i name="date" type="string">2022 11 18 </i>
  <i name="time" type="string">01:53:25 </i>
 </generator>
 <incar>
  <i type="string" name="PREC">normal</i>
  <i type="int" name="ICHARG">    11</i>
  <i name="EDIFF">      0.00000100</i>
  <i name="ENCUT">    600.00000000</i>
  <i type="int" name="ISMEAR">     0</i>
  <i name="SIGMA">      0.05000000</i>
  <i type="logical" name="LCHARG"> F  </i>
  <v type="int" name="KPOINT_BSE">    -1     0     0     0</v>
 </incar>
 <structure name="primitive_cell" >
  <crystal>
   <varray name="basis" >
    <v>       3.16000000       0.00000000       0.00000000 </v>
    <v>       0.00000000       3.16000000       0.00000000 </v>
    <v>       0.00000000       0.00000000      18.96000000 </v>
   </varray>
   <i name="volume">    189.32697600 </i>
   <varray name="rec_basis" >
    <v>       0.31645570       0.00000000       0.00000000 </v>
    <v>       0.00000000       0.31645570       0.00000000 </v>
    <v>       0.00000000       0.00000000       0.05274262 </v>
   </varray>
  </crystal>
  <varray name="positions" >
   <v>       0.00000000       0.00000000       0.00000000 </v>
   <v>      -0.50000000      -0.50000000       0.08333333 </v>
   <v>       0.00000000       0.00000000       0.16666667 </v>
   <v>      -0.50000000      -0.50000000       0.25000000 </v>
   <v>       0.00000000       0.00000000       0.33333333 </v>
  </varray>
 </structure>
 <varray name="primitive_index" >
  <v type="int" >        1 </v>
  <v type="int" >        2 </v>
  <v type="int" >        3 </v>
  <v type="int" >        4 </v>
  <v type="int" >        5 </v>
 </varray>
 <kpoints>
  <generation param="listgenerated">
   <i name="divisions" type="int">      20 </i>
   <v>       0.00000000       0.00000000       0.00000000 </v>
   <v>       0.50000000       0.00000000       0.00000000 </v>
   <v>       0.50000000       0.50000000       0.00000000 </v>
   <v>       0.00000000       0.00000000       0.00000000 </v>
  </generation>
  <varray name="kpointlist" >
   <v>       0.00000000       0.00000000       0.00000000 </v>
   <v>       0.02631579       0.00000000       0.00000000 </v>
   <v>       0.05263158       0.00000000       0.00000000 </v>
   <v>       0.07894737       0.00000000       0.00000000 </v>
   <v>       0.10526316       0.00000000       0.00000000 </v>
   <v>       0.13157895       0.00000000       0.00000000 </v>
   <v>       0.15789474       0.00000000       0.00000000 </v>
   <v>       0.18421053       0.00000000       0.00000000 </v>
   <v>       0.21052632       0.00000000       0.00000000 </v>
   <v>       0.23684211       0.00000000       0.00000000 </v>
   <v>       0.26315789       0.00000000       0.00000000 </v>
   <v>       0.28947368       0.00000000       0.00000000 </v>
   <v>       0.31578947       0.00000000       0.00000000 </v>
   <v>       0.34210526       0.00000000       0.00000000 </v>
   <v>       0.36842105       0.00000000       0.00000000 </v>
   <v>       0.39473684       0.00000000       0.00000000 </v>
   <v>       0.42105263       0.00000000       0.00000000 </v>
   <v>       0.44736842       0.00000000       0.00000000 </v>
   <v>       0.47368421       0.00000000       0.00000000 </v>
   <v>       0.50000000       0.00000000       0.00000000 </v>
   <v>       0.50000000       0.00000000       0.00000000 </v>
   <v>       0.50000000       0.02631579       0.00000000 </v>
   <v>       0.50000000       0.05263158       0.00000000 </v>
   <v>       0.50000000       0.07894737       0.00000000 </v>
   <v>       0.50000000       0.10526316       0.00000000 </v>
   <v>       0.50000000       0.13157895       0.00000000 </v>
   <v>       0.50000000       0.15789474       0.00000000 </v>
   <v>       0.50000000       0.18421053       0.00000000 </v>
   <v>       0.50000000       0.21052632       0.00000000 </v>
   <v>       0.50000000       0.23684211       0.00000000 </v>
   <v>       0.50000000       0.26315789       0.00000000 </v>
   <v>       0.50000000       0.28947368       0.00000000 </v>
   <v>       0.50000000       0.31578947       0.00000000 </v>
   <v>       0.50000000       0.34210526       0.00000000 </v>
   <v>       0.50000000       0.36842105       0.00000000 </v>
   <v>       0.50000000       0.39473684       0.00000000 </v>
   <v>       0.50000000       0.42105263       0.00000000 </v>
   <v>       0.50000000       0.44736842       0.00000000 </v>
   <v>       0.50000000       0.47368421       0.00000000 </v>
   <v>       0.50000000       0.50000000       0.00000000 </v>
   <v>       0.50000000       0.50000000       0.00000000 </v>
   <v>       0.47368421       0.47368421       0.00000000 </v>
   <v>       0.44736842       0.44736842       0.00000000 </v>
   <v>       0.42105263       0.42105263       0.00000000 </v>
   <v>       0.39473684       0.39473684       0.00000000 </v>
   <v>       0.36842105       0.36842105       0.00000000 </v>
   <v>       0.34210526       0.34210526       0.00000000 </v>
   <v>       0.31578947       0.31578947       0.00000000 </v>
   <v>       0.28947368       0.28947368       0.00000000 </v>
   <v>       0.26315789       0.26315789       0.00000000 </v>
   <v>       0.23684211       0.23684211       0.00000000 </v>
   <v>       0.21052632       0.21052632       0.00000000 </v>
   <v>       0.18421053       0.18421053       0.00000000 </v>
   <v>       0.15789474       0.15789474       0.00000000 </v>
   <v>       0.13157895       0.13157895       0.00000000 </v>
   <v>       0.10526316       0.10526316       0.00000000 </v>
   <v>       0.07894737       0.07894737       0.00000000 </v>
   <v>       0.05263158       0.05263158       0.00000000 </v>
   <v>       0.02631579       0.02631579       0.00000000 </v>
   <v>       0.00000000       0.00000000       0.00000000 </v>
  </varray>
  <varray name="weights" >
   <v>       0.01666667 </v>
   <v>       0.01666667 </v>
   <v>       0.01666667 </v>
   <v>       0.01666667 </v>
   <v>       0.01666667 </v>
   <v>       0.01666667 </v>
   <v>       0.01666667 </v>
   <v>       0.01666667 </v>
   <v>       0.01666667 </v>
   <v>       0.01666667 </v>
   <v>       0.01666667 </v>
   <v>       0.01666667 </v>
   <v>       0.01666667 </v>
   <v>       0.01666667 </v>
   <v>       0.01666667 </v>
   <v>       0.01666667 </v>
   <v>       0.01666667 </v>
   <v>       0.01666667 </v>
   <v>       0.01666667 </v>
   <v>       0.01666667 </v>
   <v>       0.01666667 </v>
   <v>       0.01666667 </v>
   <v>       0.01666667 </v>
   <v>       0.01666667 </v>
   <v>       0.01666667 </v>
   <v>       0.01666667 </v>
   <v>       0.01666667 </v>
   <v>       0.01666667 </v>
   <v>       0.01666667 </v>
   <v>       0.01666667 </v>
   <v>       0.01666667 </v>
   <v>       0.01666667 </v>
   <v>       0.01666667 </v>
   <v>       0.01666667 </v>
   <v>       0.01666667 </v>
   <v>       0.01666667 </v>
   <v>       0.01666667 </v>
   <v>       0.01666667 </v>
   <v>       0.01666667 </v>
   <v>       0.01666667 </v>
   <v>       0.01666667 </v>
   <v>       0.01666667 </v>
   <v>       0.01666667 </v>
   <v>       0.01666667 </v>
   <v>       0.01666667 </v>
   <v>       0.01666667 </v>
   <v>       0.01666667 </v>
   <v>       0.01666667 </v>
   <v>       0.01666667 </v>
   <v>       0.01666667 </v>
   <v>       0.01666667 </v>
   <v>       0.01666667 </v>
   <v>       0.01666667 </v>
   <v>       0.01666667 </v>
   <v>       0.01666667 </v>
   <v>       0.01666667 </v>
   <v>       0.01666667 </v>
   <v>       0.01666667 </v>
   <v>       0.01666667 </v>
   <v>       0.01666667 </v>
  </varray>
 </kpoints>
 <parameters>
  <separator name="general" >
   <i type="string" name="SYSTEM">unknown system</i>
   <i type="logical" name="LCOMPAT"> F  </i>
  </separator>
  <separator name="electronic" >
   <i type="string" name="PREC">normal</i>
   <i name="ENMAX">    600.00000000</i>
   <i name="ENAUG">    373.43800000</i>
   <i name="EDIFF">      0.00000100</i>
   <i type="int" name="IALGO">    38</i>
   <i type="int" name="IWAVPR">    10</i>
   <i type="int" name="NBANDS">    40</i>
   <i name="NELECT">     30.00000000</i>
   <i type="int" name="TURBO">     0</i>
   <i type="int" name="IRESTART">     0</i>
   <i type="int" name="NREBOOT">     0</i>
   <i type="int" name="NMIN">     0</i>
   <i name="EREF">      0.00000000</i>
   <separator name="electronic smearing" >
    <i type="int" name="ISMEAR">     0</i>
    <i name="SIGMA">      0.05000000</i>
    <i name="KSPACING">      0.50000000</i>
    <i type="logical" name="KGAMMA"> T  </i>
   </separator>
   <separator name="electronic projectors" >
    <i type="logical" name="LREAL"> F  </i>
    <v name="ROPT">      0.00000000</v>
    <i type="int" name="LMAXPAW">  -100</i>
    <i type="int" name="LMAXMIX">     2</i>
    <i type="logical" name="NLSPLINE"> F  </i>
   </separator>
   <separator name="electronic startup" >
    <i type="int" name="ISTART">     0</i>
    <i type="int" name="ICHARG">    11</i>
    <i type="int" name="INIWAV">     1</i>
   </separator>
   <separator name="electronic spin" >
    <i type="int" name="ISPIN">     1</i>
    <i type="logical" name="LNONCOLLINEAR"> F  </i>
    <v name="MAGMOM">      1.00000000      1.00000000      1.00000000      1.00000000      1.00000000</v>
    <i name="NUPDOWN">     -1.00000000</i>
    <i type="logical" name="LSORBIT"> F  </i>
    <v name="SAXIS">      0.00000000      0.00000000      1.00000000</v>
    <i type="logical" name="LSPIRAL"> F  </i>
    <v name="QSPIRAL">      0.00000000      0.00000000      0.00000000</v>
    <i type="logical" name="LZEROZ"> F  </i>
   </separator>
   <separator name="electronic exchange-correlation" >
    <i type="logical" name="LASPH"> F  </i>
    <i type="logical" name="LMETAGGA"> F  </i>
   </separator>
   <separator name="electronic convergence" >
    <i type="int" name="NELM">    60</i>
    <i type="int" name="NELMDL">    -5</i>
    <i type="int" name="NELMIN">     2</i>
    <i name="ENINI">    600.00000000</i>
    <separator name="electronic convergence detail" >
     <i type="logical" name="LDIAG"> T  </i>
     <i type="logical" name="LSUBROT"> F  </i>
     <i name="WEIMIN">      0.00000000</i>
     <i name="EBREAK">      0.00000001</i>
     <i name="DEPER">      0.30000000</i>
     <i type="int" name="NRMM">     4</i>
     <i name="TIME">      0.40000000</i>
    </separator>
   </separator>
   <separator name="electronic mixer" >
    <i name="AMIX">      0.40000000</i>
    <i name="BMIX">      1.00000000</i>
    <i name="AMIN">      0.10000000</i>
    <i name="AMIX_MAG">      1.60000000</i>
    <i name="BMIX_MAG">      1.00000000</i>
    <separator name="electronic mixer details" >
     <i type="int" name="IMIX">     4</i>
     <i type="logical" name="MIXFIRST"> F  </i>
     <i type="int" name="MAXMIX">   -45</i>
     <i name="WC">    100.00000000</i>
     <i type="int" name="INIMIX">     1</i>
     <i type="int" name="MIXPRE">     1</i>
     <i type="int" name="MREMOVE">     5</i>
    </separator>
   </separator>
   <separator name="electronic dipolcorrection" >
    <i type="logical" name="LDIPOL"> F  </i>
    <i type="logical" name="LMONO"> F  </i>
    <i type="int" name="IDIPOL">     0</i>
    <i name="EPSILON">      1.00000000</i>
    <v name="DIPOL">   -100.00000000   -100.00000000   -100.00000000</v>
    <i name="EFIELD">      0.00000000</i>
   </separator>
  </separator>
  <separator name="grids" >
   <i type="int" name="NGX">    20</i>
   <i type="int" name="NGY">    20</i>
   <i type="int" name="NGZ">   120</i>
   <i type="int" name="NGXF">    40</i>
   <i type="int" name="NGYF">    40</i>
   <i type="int" name="NGZF">   240</i>
   <i type="logical" name="ADDGRID"> F  </i>
  </separator>
  <separator name="ionic" >
   <i type="int" name="NSW">     0</i>
   <i type="int" name="IBRION">    -1</i>
   <i type="int" name="MDALGO">     0</i>
   <i type="int" name="ISIF">     2</i>
   <i name="PSTRESS">      0.00000000</i>
   <i name="EDIFFG">      0.00001000</i>
   <i type="int" name="NFREE">     0</i>
   <i name="POTIM">      0.50000000</i>
   <i name="SMASS">     -3.00000000</i>
   <i name="SCALEE">      1.00000000</i>
  </separator>
  <separator name="ionic md" >
   <i name="TEBEG">      0.00010000</i>
   <i name="TEEND">      0.00010000</i>
   <i type="int" name="NBLOCK">     1</i>
   <i type="int" name="KBLOCK">     1</i>
   <i type="int" name="NPACO">   256</i>
   <i name="APACO">     16.00000000</i>
  </separator>
  <separator name="symmetry" >
   <i type="int" name="ISYM">     2</i>
   <i name="SYMPREC">      0.00001000</i>
  </separator>
  <separator name="dos" >
   <i type="int" name="LORBIT">     0</i>
   <v name="RWIGS">     -1.00000000</v>
   <i type="int" name="NEDOS">   301</i>
   <i name="EMIN">     10.00000000</i>
   <i name="EMAX">    -10.00000000</i>
   <i name="EFERMI">      0.00000000</i>
  </separator>
  <separator name="writing" >
   <i type="int" name="NWRITE">     2</i>
   <i type="logical" name="LWAVE"> T  </i>
   <i type="logical" name="LDOWNSAMPLE"> F  </i>
   <i type="logical" name="LCHARG"> F  </i>
   <i type="logical" name="LPARD"> F  </i>
   <i type="logical" name="LVTOT"> F  </i>
   <i type="logical" name="LVHAR"> F  </i>
   <i type="logical" name="LELF"> F  </i>
   <i type="logical" name="LOPTICS"> F  </i>
   <v name="STM">      0.00000000      0.00000000      0.00000000      0.00000000      0.00000000      0.00000000      0.00000000</v>
  </separator>
  <separator name="performance" >
   <i type="int" name="NPAR">    40</i>
   <i type="int" name="NSIM">     4</i>
   <i type="int" name="NBLK">    -1</i>
   <i type="logical" name="LPLANE"> T  </i>
   <i type="logical" name="LSCALAPACK"> T  </i>
   <i type="logical" name="LSCAAWARE"> F  </i>
   <i type="logical" name="LSCALU"> F  </i>
   <i type="logical" name="LASYNC"> F  </i>
   <i type="logical" name="LORBITALREAL"> F  </i>
  </separator>
  <separator name="miscellaneous" >
   <i type="int" name="IDIOT">     3</i>
   <i type="int" name="ISPECIAL">     0</i>
   <i type="logical" name="LMUSIC"> F  </i>
   <v name="POMASS">    183.85000000</v>
   <v name="DARWINR">      0.00000000</v>
   <v name="DARWINV">      1.00000000</v>
   <i type="logical" name="LCORR"> T  </i>
  </separator>
  <i type="logical" name="GGA_COMPAT"> T  </i>
  <i type="logical" name="LBERRY"> F  </i>
  <i type="int" name="ICORELEVEL">     0</i>
  <i type="logical" name="LDAU"> F  </i>
  <i type="int" name="I_CONSTRAINED_M">     0</i>
  <separator name="electronic exchange-correlation" >
   <i type="string" name="GGA">--</i>
   <i type="int" name="VOSKOWN">     0</i>
   <i type="logical" name="LHFCALC"> F  </i>
   <i type="string" name="PRECFOCK"></i>
   <i type="logical" name="LSYMGRAD"> F  </i>
   <i type="logical" name="LHFONE"> F  </i>
   <i type="logical" name="LRHFCALC"> F  </i>
   <i type="logical" name="LTHOMAS"> F  </i>
   <i type="logical" name="LMODELHF"> F  </i>
   <i name="ENCUT4O">     -1.00000000</i>
   <i type="int" name="EXXOEP">     0</i>
   <i type="int" name="FOURORBIT">     0</i>
   <i name="AEXX">      0.00000000</i>
   <i name="HFALPHA">      0.00000000</i>
   <i name="MCALPHA">      0.00000000</i>
   <i name="ALDAX">      1.00000000</i>
   <i name="AGGAX">      1.00000000</i>
   <i name="ALDAC">      1.00000000</i>
   <i name="AGGAC">      1.00000000</i>
   <i type="int" name="NKREDX">     1</i>
   <i type="int" name="NKREDY">     1</i>
   <i type="int" name="NKREDZ">     1</i>
   <i type="logical" name="SHIFTRED"> F  </i>
   <i type="logical" name="ODDONLY"> F  </i>
   <i type="logical" name="EVENONLY"> F  </i>
   <i type="int" name="LMAXFOCK">     0</i>
   <i type="int" name="NMAXFOCKAE">     0</i>
   <i type="logical" name="LFOCKAEDFT"> F  </i>
   <i name="HFSCREEN">      0.00000000</i>
   <i name="HFSCREENC">      0.00000000</i>
   <i type="int" name="NBANDSGWLOW">     0</i>
  </separator>
  <separator name="vdW DFT" >
   <i type="logical" name="LUSE_VDW"> F  </i>
   <i name="Zab_VDW">     -0.84910000</i>
   <i name="PARAM1">      0.12340000</i>
   <i name="PARAM2">      1.00000000</i>
   <i name="PARAM3">      0.00000000</i>
  </separator>
  <separator name="model GW" >
   <i type="int" name="MODEL_GW">     0</i>
   <i name="MODEL_EPS0">     22.71923712</i>
   <i name="MODEL_ALPHA">      1.00000000</i>
  </separator>
  <separator name="linear response parameters" >
   <i type="logical" name="LEPSILON"> F  </i>
   <i type="logical" name="LRPA"> F  </i>
   <i type="logical" name="LNABLA"> F  </i>
   <i type="logical" name="LVEL"> F  </i>
   <i type="int" name="KINTER">     0</i>
   <i name="CSHIFT">      0.10000000</i>
   <i name="OMEGAMAX">     -1.00000000</i>
   <i name="DEG_THRESHOLD">      0.00200000</i>
   <i name="RTIME">     -0.10000000</i>
   <i name="WPLASMAI">      0.00000000</i>
   <v name="DFIELD">      0.00000000      0.00000000      0.00000000</v>
   <v name="WPLASMA">      0.00000000      0.00000000      0.00000000      0.00000000      0.00000000      0.00000000      0.00000000      0.00000000      0.00000000</v>
  </separator>
  <separator name="orbital magnetization" >
   <i type="logical" name="NUCIND"> F  </i>
   <v name="MAGPOS">      0.00000000      0.00000000      0.00000000</v>
   <i type="logical" name="LNICSALL"> T  </i>
   <i type="logical" name="ORBITALMAG"> F  </i>
   <i type="logical" name="LMAGBLOCH"> F  </i>
   <i type="logical" name="LCHIMAG"> F  </i>
   <i type="logical" name="LGAUGE"> T  </i>
   <i type="int" name="MAGATOM">     0</i>
   <v name="MAGDIPOL">      0.00000000      0.00000000      0.00000000</v>
   <v name="AVECCONST">      0.00000000      0.00000000      0.00000000</v>
  </separator>
  <separator name="response functions" >
   <i type="logical" name="LADDER"> F  </i>
   <i type="logical" name="LRPAFORCE"> F  </i>
   <i type="logical" name="LFXC"> F  </i>
   <i type="logical" name="LHARTREE"> T  </i>
   <i type="int" name="IBSE">     0</i>
   <v type="int" name="KPOINT">    -1     0     0     0</v>
   <i type="logical" name="LTCTE"> F  </i>
   <i type="logical" name="LTETE"> F  </i>
   <i type="logical" name="LTRIPLET"> F  </i>
   <i type="logical" name="LFXCEPS"> F  </i>
   <i type="logical" name="LFXHEG"> F  </i>
   <i type="int" name="NATURALO">     2</i>
   <i type="logical" name="L2ORDER"> F  </i>
   <i type="logical" name="LMP2LT"> F  </i>
   <i type="logical" name="LUSEW"> F  </i>
   <i name="ENCUTGW">     -2.00000000</i>
   <i name="ENCUTGWSOFT">     -2.00000000</i>
   <i name="ENCUTLF">     -1.00000000</i>
   <i type="int" name="LMAXMP2">    -1</i>
   <i name="SCISSOR">      0.00000000</i>
   <i type="int" name="NOMEGA">     0</i>
   <i type="int" name="NOMEGAR">     0</i>
   <i type="int" name="NBANDSGW">    -1</i>
   <i type="int" name="NBANDSO">    -1</i>
   <i type="int" name="NBANDSV">    -1</i>
   <i type="int" name="NELM">     1</i>
   <i type="int" name="NELMHF">     1</i>
   <i type="int" name="DIM">     3</i>
   <i type="int" name="ANTIRES">     0</i>
   <i name="OMEGAMAX">    -30.00000000</i>
   <i name="OMEGAMIN">    -30.00000000</i>
   <i name="OMEGATL">   -200.00000000</i>
   <i type="int" name="OMEGAGRID">   140</i>
   <i name="CSHIFT">     -0.10000000</i>
   <i type="logical" name="SELFENERGY"> F  </i>
   <i type="logical" name="LSPECTRAL"> F  </i>
   <i type="logical" name="LSPECTRALGW"> F  </i>
   <i type="logical" name="LSINGLES"> F  </i>
   <i type="logical" name="LFERMIGW"> F  </i>
   <i type="logical" name="ODDONLYGW"> F  </i>
   <i type="logical" name="EVENONLYGW"> F  </i>
   <i type="int" name="NKREDLFX">     1</i>
   <i type="int" name="NKREDLFY">     1</i>
   <i type="int" name="NKREDLFZ">     1</i>
   <i type="int" name="MAXMEM">  2800</i>
   <i type="int" name="TELESCOPE">     0</i>
   <i type="int" name="TAUPAR">     1</i>
   <i type="int" name="OMEGAPAR">    -1</i>
   <i name="LAMBDA">      1.00000000</i>
  </separator>
  <separator name="External order field" >
   <i name="OFIELD_KAPPA">      0.00000000</i>
   <v name="OFIELD_K">      0.00000000      0.00000000      0.00000000</v>
   <i name="OFIELD_Q6_NEAR">      0.00000000</i>
   <i name="OFIELD_Q6_FAR">      0.00000000</i>
   <i name="OFIELD_A">      0.00000000</i>
  </separator>
 </parameters>
 <atominfo>
  <atoms>       5 </atoms>
  <types>       1 </types>
  <array name="atoms" >
   <dimension dim="1">ion</dimension>
   <field type="string">element</field>
   <field type="int">atomtype</field>
   <set>
    <rc><c>W </c><c>   1</c></rc>
    <rc><c>W </c><c>   1</c></rc>
    <rc><c>W </c><c>   1</c></rc>
    <rc><c>W </c><c>   1</c></rc>
    <rc><c>W </c><c>   1</c></rc>
   </set>
  </array>
  <array name="atomtypes" >
   <dimension dim="1">type</dimension>
   <field type="int">atomspertype</field>
   <field type="string">element</field>
   <field>mass</field>
   <field>valence</field>
   <field type="string">pseudopotential</field>
   <set>
    <rc><c>   5</c><c>W </c><c>    183.85000000</c><c>      6.00000000</c><c>  PAW W                                 </c></rc>
   </set>
  </array>
 </atominfo>
 <structure name="initialpos" >
  <crystal>
   <varray name="basis" >
    <v>       3.16000000       0.00000000       0.00000000 </v>
    <v>       0.00000000       3.16000000       0.00000000 </v>
    <v>       0.00000000       0.00000000      18.96000000 </v>
   </varray>
   <i name="volume">    189.32697600 </i>
   <varray name="rec_basis" >
    <v>       0.31645570       0.00000000       0.00000000 </v>
    <v>       0.00000000       0.31645570       0.00000000 </v>
    <v>       0.00000000       0.00000000       0.05274262 </v>
   </varray>
  </crystal>
  <varray name="positions" >
   <v>       0.00000000       0.00000000       0.00000000 </v>
   <v>       0.50000000       0.50000000       0.08333333 </v>
   <v>       0.00000000       0.00000000       0.16666667 </v>
   <v>       0.50000000       0.50000000       0.25000000 </v>
   <v>       0.00000000       0.00000000       0.33333333 </v>
  </varray>
 </structure>
 <calculation>
  <scstep>
   <time name="dav">    1.39    1.41</time>
   <time name="total">    1.41    1.44</time>
   <energy>
    <i name="alphaZ">     92.17273665 </i>
    <i name="ewald">   3037.32980781 </i>
    <i name="hartreedc">  -4208.03515457 </i>
    <i name="XCdc">   -236.30637207 </i>
    <i name="pawpsdc">   1120.75258868 </i>
    <i name="pawaedc">   -838.65035193 </i>
    <i name="eentropy">     -0.00433504 </i>
    <i name="bandstr">     66.01397604 </i>
    <i name="atom">   1032.68232307 </i>
    <i name="e_fr_energy">     65.95521864 </i>
    <i name="e_wo_entrp">     65.95955368 </i>
    <i name="e_0_energy">     65.95738616 </i>
   </energy>
  </scstep>
  <scstep>
   <time name="dav">    2.34    2.36</time>
   <time name="total">    2.34    2.36</time>
   <energy>
    <i name="e_fr_energy">    -62.31013570 </i>
    <i name="e_wo_entrp">    -62.30319855 </i>
    <i name="e_0_energy">    -62.30666713 </i>
   </energy>
  </scstep>
  <scstep>
   <time name="dav">    1.47    1.48</time>
   <time name="total">    1.47    1.48</time>
   <energy>
    <i name="e_fr_energy">    -64.68552558 </i>
    <i name="e_wo_entrp">    -64.67769704 </i>
    <i name="e_0_energy">    -64.68161131 </i>
   </energy>
  </scstep>
  <scstep>
   <time name="dav">    3.20    3.21</time>
   <time name="total">    3.20    3.21</time>
   <energy>
    <i name="e_fr_energy">    -64.69795482 </i>
    <i name="e_wo_entrp">    -64.69012716 </i>
    <i name="e_0_energy">    -64.69404099 </i>
   </energy>
  </scstep>
  <scstep>
   <time name="dav">    1.50    1.53</time>
   <time name="total">    1.50    1.53</time>
   <energy>
    <i name="e_fr_energy">    -64.69795541 </i>
    <i name="e_wo_entrp">    -64.69012776 </i>
    <i name="e_0_energy">    -64.69404158 </i>
   </energy>
  </scstep>
  <scstep>
   <time name="dav">    3.18    3.22</time>
   <time name="total">    3.18    3.22</time>
   <energy>
    <i name="alphaZ">     92.17273665 </i>
    <i name="ewald">   3037.32980781 </i>
    <i name="hartreedc">  -4208.03515457 </i>
    <i name="XCdc">   -236.30637207 </i>
    <i name="pawpsdc">   1120.75258868 </i>
    <i name="pawaedc">   -838.65035193 </i>
    <i name="eentropy">     -0.00782765 </i>
    <i name="bandstr">    -64.63570540 </i>
    <i name="atom">   1032.68232307 </i>
    <i name="e_fr_energy">    -64.69795541 </i>
    <i name="e_wo_entrp">    -64.69012776 </i>
    <i name="e_0_energy">    -64.69404159 </i>
   </energy>
  </scstep>
  <structure>
   <crystal>
    <varray name="basis" >
     <v>       3.16000000       0.00000000       0.00000000 </v>
     <v>       0.00000000       3.16000000       0.00000000 </v>
     <v>       0.00000000       0.00000000      18.96000000 </v>
    </varray>
    <i name="volume">    189.32697600 </i>
    <varray name="rec_basis" >
     <v>       0.31645570       0.00000000       0.00000000 </v>
     <v>       0.00000000       0.31645570       0.00000000 </v>
     <v>       0.00000000       0.00000000       0.05274262 </v>
    </varray>
   </crystal>
   <varray name="positions" >
    <v>       0.00000000       0.00000000       0.00000000 </v>
    <v>       0.50000000       0.50000000       0.08333333 </v>
    <v>       0.00000000       0.00000000       0.16666667 </v>
    <v>       0.50000000       0.50000000       0.25000000 </v>
    <v>       0.00000000       0.00000000       0.33333333 </v>
   </varray>
  </structure>
  <varray name="forces" >
   <v>      -0.00000000      -0.00000000       1.08334940 </v>
   <v>       0.00000000      -0.00000000      -0.57844388 </v>
   <v>      -0.00000000      -0.00000000       0.00000000 </v>
   <v>      -0.00000000       0.00000000       0.57844388 </v>
   <v>       0.00000000      -0.00000000      -1.08334940 </v>
  </varray>
  <varray name="stress" >
   <v>    -133.48068291       0.00000000       0.00000000 </v>
   <v>       0.00000000    -133.48068291       0.00000000 </v>
   <v>       0.00000000       0.00000000     -68.60837327 </v>
  </varray>
  <energy>
   <i name="e_fr_energy">    -64.69795541 </i>
   <i name="e_wo_entrp">    -64.69404159 </i>
   <i name="e_0_energy">     -0.00782765 </i>
  </energy>
  <time name="totalsc">   16.18   16.41</time>
  <eigenvalues>
   <array>
    <dimension dim="1">band</dimension>
    <dimension dim="2">kpoint</dimension>
    <dimension dim="3">spin</dimension>
    <field>eigene</field>
    <field>occ</field>
    <set>
     <set comment="spin 1">
      <set comment="kpoint 1">
       <r>   -8.0336    1.0000 </r>
       <r>   -6.1476    1.0000 </r>
       <r>   -4.6395    1.0000 </r>
       <r>   -4.5440    1.0000 </r>
       <r>   -4.0172    1.0000 </r>
       <r>   -3.3650    1.0000 </r>
       <r>   -3.3569    1.0000 </r>
       <r>   -1.6524    1.0000 </r>
       <r>   -0.4551    1.0000 </r>
       <r>   -0.4551    1.0000 </r>
       <r>   -0.1112    1.0000 </r>
       <r>   -0.0227    1.0000 </r>
       <r>   -0.0227    1.0000 </r>
       <r>    0.3449    1.0000 </r>
       <r>    0.4047    1.0000 </r>
       <r>    0.4641    1.0000 </r>
       <r>    0.8258    0.0572 </r>
       <r>    0.8258    0.0572 </r>
       <r>    1.0438    0.0000 </r>
       <r>    2.2167    0.0000 </r>
       <r>    2.4543    0.0000 </r>
       <r>    2.4543    0.0000 </r>
       <r>    2.5048    0.0000 </r>
       <r>    3.4470    0.0000 </r>
       <r>    4.1823    0.0000 </r>
       <r>    4.2521    0.0000 </r>
       <r>    4.5033    0.0000 </r>
       <r>    4.6410    0.0000 </r>
       <r>    4.6410    0.0000 </r>
       <r>    5.3523    0.0000 </r>
       <r>    5.4433    0.0000 </r>
       <r>    5.4438    0.0000 </r>
       <r>    7.4970    0.0000 </r>
       <r>    7.6755    0.0000 </r>
       <r>   10.1786    0.0000 </r>
       <r>   10.4975    0.0000 </r>
       <r>   10.4975    0.0000 </r>
       <r>   12.3782    0.0000 </r>
       <r>   13.5314    0.0000 </r>
       <r>   13.5314    0.0000 </r>
      </set>
      <set comment="kpoint 2">
       <r>   -8.0181    1.0000 </r>
       <r>   -6.1361    1.0000 </r>
       <r>   -4.6284    1.0000 </r>
       <r>   -4.5349    1.0000 </r>
       <r>   -4.0099    1.0000 </r>
       <r>   -3.3641    1.0000 </r>
       <r>   -3.3426    1.0000 </r>
       <r>   -1.6584    1.0000 </r>
       <r>   -0.4750    1.0000 </r>
       <r>   -0.4680    1.0000 </r>
       <r>   -0.2247    1.0000 </r>
       <r>   -0.0090    1.0000 </r>
       <r>    0.0765    1.0000 </r>
       <r>    0.3000    1.0000 </r>
       <r>    0.4187    1.0000 </r>
       <r>    0.4671    1.0000 </r>
       <r>    0.7170    0.9328 </r>
       <r>    0.8966    0.0002 </r>
       <r>    1.1588    0.0000 </r>
       <r>    2.2067    0.0000 </r>
       <r>    2.2449    0.0000 </r>
       <r>    2.4506    0.0000 </r>
       <r>    2.7197    0.0000 </r>
       <r>    3.4338    0.0000 </r>
       <r>    4.1029    0.0000 </r>
       <r>    4.2474    0.0000 </r>
       <r>    4.5174    0.0000 </r>
       <r>    4.5609    0.0000 </r>
       <r>    4.7258    0.0000 </r>
       <r>    5.3852    0.0000 </r>
       <r>    5.4180    0.0000 </r>
       <r>    5.4679    0.0000 </r>
       <r>    7.5585    0.0000 </r>
       <r>    7.6924    0.0000 </r>
       <r>   10.1991    0.0000 </r>
       <r>   10.4220    0.0000 </r>
       <r>   10.5564    0.0000 </r>
       <r>   12.3963    0.0000 </r>
       <r>   13.3967    0.0000 </r>
       <r>   13.5432    0.0000 </r>
      </set>
      <set comment="kpoint 3">
       <r>   -7.9719    1.0000 </r>
       <r>   -6.1021    1.0000 </r>
       <r>   -4.5976    1.0000 </r>
       <r>   -4.5054    1.0000 </r>
       <r>   -3.9891    1.0000 </r>
       <r>   -3.3715    1.0000 </r>
       <r>   -3.2896    1.0000 </r>
       <r>   -1.6726    1.0000 </r>
       <r>   -0.5288    1.0000 </r>
       <r>   -0.5086    1.0000 </r>
       <r>   -0.3814    1.0000 </r>
       <r>    0.0259    1.0000 </r>
       <r>    0.1876    1.0000 </r>
       <r>    0.1990    1.0000 </r>
       <r>    0.4761    1.0000 </r>
       <r>    0.4788    1.0000 </r>
       <r>    0.5587    1.0000 </r>
       <r>    1.0543    0.0000 </r>
       <r>    1.3358    0.0000 </r>
       <r>    2.0285    0.0000 </r>
       <r>    2.1728    0.0000 </r>
       <r>    2.4477    0.0000 </r>
       <r>    2.9524    0.0000 </r>
       <r>    3.3958    0.0000 </r>
       <r>    3.9519    0.0000 </r>
       <r>    4.2317    0.0000 </r>
       <r>    4.3610    0.0000 </r>
       <r>    4.5575    0.0000 </r>
       <r>    4.8945    0.0000 </r>
       <r>    5.3477    0.0000 </r>
       <r>    5.4600    0.0000 </r>
       <r>    5.5392    0.0000 </r>
       <r>    7.7275    0.0000 </r>
       <r>    7.7427    0.0000 </r>
       <r>   10.2092    0.0000 </r>
       <r>   10.2596    0.0000 </r>
       <r>   10.7279    0.0000 </r>
       <r>   12.4471    0.0000 </r>
       <r>   13.0528    0.0000 </r>
       <r>   13.5794    0.0000 </r>
      </set>
      <set comment="kpoint 4">
       <r>   -7.8953    1.0000 </r>
       <r>   -6.0467    1.0000 </r>
       <r>   -4.5550    1.0000 </r>
       <r>   -4.4502    1.0000 </r>
       <r>   -3.9570    1.0000 </r>
       <r>   -3.3848    1.0000 </r>
       <r>   -3.2013    1.0000 </r>
       <r>   -1.6851    1.0000 </r>
       <r>   -0.6032    1.0000 </r>
       <r>   -0.5809    1.0000 </r>
       <r>   -0.5448    1.0000 </r>
       <r>    0.0638    1.0000 </r>
       <r>    0.0955    1.0000 </r>
       <r>    0.2677    1.0000 </r>
       <r>    0.4194    1.0000 </r>
       <r>    0.5086    1.0000 </r>
       <r>    0.5648    1.0000 </r>
       <r>    1.2434    0.0000 </r>
       <r>    1.5043    0.0000 </r>
       <r>    1.8401    0.0000 </r>
       <r>    2.1139    0.0000 </r>
       <r>    2.4556    0.0000 </r>
       <r>    3.1678    0.0000 </r>
       <r>    3.3377    0.0000 </r>
       <r>    3.8046    0.0000 </r>
       <r>    4.0828    0.0000 </r>
       <r>    4.2210    0.0000 </r>
       <r>    4.6188    0.0000 </r>
       <r>    5.0765    0.0000 </r>
       <r>    5.2533    0.0000 </r>
       <r>    5.5517    0.0000 </r>
       <r>    5.6499    0.0000 </r>
       <r>    7.8253    0.0000 </r>
       <r>    7.9690    0.0000 </r>
       <r>    9.8899    0.0000 </r>
       <r>   10.3553    0.0000 </r>
       <r>   10.9984    0.0000 </r>
       <r>   12.5238    0.0000 </r>
       <r>   12.6031    0.0000 </r>
       <r>   13.6419    0.0000 </r>
      </set>
      <set comment="kpoint 5">
       <r>   -7.7894    1.0000 </r>
       <r>   -5.9719    1.0000 </r>
       <r>   -4.5081    1.0000 </r>
       <r>   -4.3658    1.0000 </r>
       <r>   -3.9169    1.0000 </r>
       <r>   -3.4038    1.0000 </r>
       <r>   -3.0793    1.0000 </r>
       <r>   -1.6827    1.0000 </r>
       <r>   -0.7102    1.0000 </r>
       <r>   -0.6866    1.0000 </r>
       <r>   -0.6842    1.0000 </r>
       <r>    0.0071    1.0000 </r>
       <r>    0.0806    1.0000 </r>
       <r>    0.3020    1.0000 </r>
       <r>    0.3105    1.0000 </r>
       <r>    0.5702    1.0000 </r>
       <r>    0.6748    0.9964 </r>
       <r>    1.4412    0.0000 </r>
       <r>    1.6458    0.0000 </r>
       <r>    1.6926    0.0000 </r>
       <r>    2.0422    0.0000 </r>
       <r>    2.4692    0.0000 </r>
       <r>    3.2703    0.0000 </r>
       <r>    3.3499    0.0000 </r>
       <r>    3.6906    0.0000 </r>
       <r>    3.7885    0.0000 </r>
       <r>    4.1913    0.0000 </r>
       <r>    4.6971    0.0000 </r>
       <r>    5.1632    0.0000 </r>
       <r>    5.2490    0.0000 </r>
       <r>    5.6556    0.0000 </r>
       <r>    5.7896    0.0000 </r>
       <r>    7.9369    0.0000 </r>
       <r>    8.2472    0.0000 </r>
       <r>    9.4983    0.0000 </r>
       <r>   10.4673    0.0000 </r>
       <r>   11.3509    0.0000 </r>
       <r>   12.1331    0.0000 </r>
       <r>   12.6217    0.0000 </r>
       <r>   13.7345    0.0000 </r>
      </set>
      <set comment="kpoint 6">
       <r>   -7.6554    1.0000 </r>
       <r>   -5.8807    1.0000 </r>
       <r>   -4.4600    1.0000 </r>
       <r>   -4.2562    1.0000 </r>
       <r>   -3.8711    1.0000 </r>
       <r>   -3.4280    1.0000 </r>
       <r>   -2.9254    1.0000 </r>
       <r>   -1.6521    1.0000 </r>
       <r>   -0.8747    1.0000 </r>
       <r>   -0.8213    1.0000 </r>
       <r>   -0.7602    1.0000 </r>
       <r>   -0.0618    1.0000 </r>
       <r>    0.0611    1.0000 </r>
       <r>    0.2307    1.0000 </r>
       <r>    0.2810    1.0000 </r>
       <r>    0.6690    0.9978 </r>
       <r>    0.8000    0.1976 </r>
       <r>    1.5935    0.0000 </r>
       <r>    1.6342    0.0000 </r>
       <r>    1.7478    0.0000 </r>
       <r>    1.9740    0.0000 </r>
       <r>    2.4690    0.0000 </r>
       <r>    3.2133    0.0000 </r>
       <r>    3.4813    0.0000 </r>
       <r>    3.4865    0.0000 </r>
       <r>    3.6272    0.0000 </r>
       <r>    4.1600    0.0000 </r>
       <r>    4.7898    0.0000 </r>
       <r>    5.1086    0.0000 </r>
       <r>    5.4025    0.0000 </r>
       <r>    5.7733    0.0000 </r>
       <r>    5.9472    0.0000 </r>
       <r>    8.0700    0.0000 </r>
       <r>    8.5332    0.0000 </r>
       <r>    9.0660    0.0000 </r>
       <r>   10.5270    0.0000 </r>
       <r>   11.7481    0.0000 </r>
       <r>   11.7694    0.0000 </r>
       <r>   12.7365    0.0000 </r>
       <r>   13.4460    0.0000 </r>
      </set>
      <set comment="kpoint 7">
       <r>   -7.4948    1.0000 </r>
       <r>   -5.7768    1.0000 </r>
       <r>   -4.4136    1.0000 </r>
       <r>   -4.1303    1.0000 </r>
       <r>   -3.8177    1.0000 </r>
       <r>   -3.4566    1.0000 </r>
       <r>   -2.7421    1.0000 </r>
       <r>   -1.5821    1.0000 </r>
       <r>   -1.0361    1.0000 </r>
       <r>   -0.9756    1.0000 </r>
       <r>   -0.8217    1.0000 </r>
       <r>   -0.1106    1.0000 </r>
       <r>    0.0068    1.0000 </r>
       <r>    0.1712    1.0000 </r>
       <r>    0.2069    1.0000 </r>
       <r>    0.7971    0.2211 </r>
       <r>    0.9364    0.0000 </r>
       <r>    1.5377    0.0000 </r>
       <r>    1.8058    0.0000 </r>
       <r>    1.8089    0.0000 </r>
       <r>    1.9208    0.0000 </r>
       <r>    2.4296    0.0000 </r>
       <r>    3.1927    0.0000 </r>
       <r>    3.1976    0.0000 </r>
       <r>    3.5512    0.0000 </r>
       <r>    3.6219    0.0000 </r>
       <r>    4.1287    0.0000 </r>
       <r>    4.8958    0.0000 </r>
       <r>    5.1132    0.0000 </r>
       <r>    5.5317    0.0000 </r>
       <r>    5.9061    0.0000 </r>
       <r>    6.1127    0.0000 </r>
       <r>    8.1919    0.0000 </r>
       <r>    8.6404    0.0000 </r>
       <r>    8.8046    0.0000 </r>
       <r>   10.3777    0.0000 </r>
       <r>   11.6267    0.0000 </r>
       <r>   12.2402    0.0000 </r>
       <r>   12.8025    0.0000 </r>
       <r>   12.9707    0.0000 </r>
      </set>
      <set comment="kpoint 8">
       <r>   -7.3098    1.0000 </r>
       <r>   -5.6649    1.0000 </r>
       <r>   -4.3744    1.0000 </r>
       <r>   -4.0017    1.0000 </r>
       <r>   -3.7463    1.0000 </r>
       <r>   -3.4876    1.0000 </r>
       <r>   -2.5330    1.0000 </r>
       <r>   -1.4652    1.0000 </r>
       <r>   -1.1926    1.0000 </r>
       <r>   -1.1394    1.0000 </r>
       <r>   -0.8621    1.0000 </r>
       <r>   -0.1396    1.0000 </r>
       <r>   -0.0730    1.0000 </r>
       <r>    0.0941    1.0000 </r>
       <r>    0.1215    1.0000 </r>
       <r>    0.9423    0.0000 </r>
       <r>    1.0799    0.0000 </r>
       <r>    1.5067    0.0000 </r>
       <r>    1.8266    0.0000 </r>
       <r>    1.8875    0.0000 </r>
       <r>    1.9467    0.0000 </r>
       <r>    2.3386    0.0000 </r>
       <r>    2.9436    0.0000 </r>
       <r>    3.2241    0.0000 </r>
       <r>    3.5671    0.0000 </r>
       <r>    3.6697    0.0000 </r>
       <r>    4.1022    0.0000 </r>
       <r>    5.0139    0.0000 </r>
       <r>    5.1798    0.0000 </r>
       <r>    5.6342    0.0000 </r>
       <r>    6.0542    0.0000 </r>
       <r>    6.2781    0.0000 </r>
       <r>    8.0320    0.0000 </r>
       <r>    8.4985    0.0000 </r>
       <r>    9.0304    0.0000 </r>
       <r>   10.0203    0.0000 </r>
       <r>   11.7934    0.0000 </r>
       <r>   12.3547    0.0000 </r>
       <r>   12.7526    0.0000 </r>
       <r>   13.0535    0.0000 </r>
      </set>
      <set comment="kpoint 9">
       <r>   -7.1029    1.0000 </r>
       <r>   -5.5507    1.0000 </r>
       <r>   -4.3499    1.0000 </r>
       <r>   -3.8873    1.0000 </r>
       <r>   -3.6400    1.0000 </r>
       <r>   -3.5183    1.0000 </r>
       <r>   -2.3026    1.0000 </r>
       <r>   -1.3426    1.0000 </r>
       <r>   -1.3046    1.0000 </r>
       <r>   -1.2990    1.0000 </r>
       <r>   -0.8765    1.0000 </r>
       <r>   -0.1681    1.0000 </r>
       <r>   -0.1496    1.0000 </r>
       <r>   -0.0395    1.0000 </r>
       <r>    0.0728    1.0000 </r>
       <r>    1.0932    0.0000 </r>
       <r>    1.2241    0.0000 </r>
       <r>    1.4790    0.0000 </r>
       <r>    1.8261    0.0000 </r>
       <r>    1.8724    0.0000 </r>
       <r>    2.0197    0.0000 </r>
       <r>    2.2105    0.0000 </r>
       <r>    2.7557    0.0000 </r>
       <r>    3.3009    0.0000 </r>
       <r>    3.5541    0.0000 </r>
       <r>    3.7553    0.0000 </r>
       <r>    4.0872    0.0000 </r>
       <r>    5.1426    0.0000 </r>
       <r>    5.2915    0.0000 </r>
       <r>    5.7105    0.0000 </r>
       <r>    6.2169    0.0000 </r>
       <r>    6.4357    0.0000 </r>
       <r>    7.6026    0.0000 </r>
       <r>    8.6276    0.0000 </r>
       <r>    9.0828    0.0000 </r>
       <r>    9.7233    0.0000 </r>
       <r>   11.8784    0.0000 </r>
       <r>   12.0964    0.0000 </r>
       <r>   13.1196    0.0000 </r>
       <r>   13.2224    0.0000 </r>
      </set>
      <set comment="kpoint 10">
       <r>   -6.8773    1.0000 </r>
       <r>   -5.4403    1.0000 </r>
       <r>   -4.3450    1.0000 </r>
       <r>   -3.7890    1.0000 </r>
       <r>   -3.5452    1.0000 </r>
       <r>   -3.4970    1.0000 </r>
       <r>   -2.0572    1.0000 </r>
       <r>   -1.4847    1.0000 </r>
       <r>   -1.4654    1.0000 </r>
       <r>   -1.0857    1.0000 </r>
       <r>   -0.8616    1.0000 </r>
       <r>   -0.2696    1.0000 </r>
       <r>   -0.1797    1.0000 </r>
       <r>   -0.1420    1.0000 </r>
       <r>    0.0192    1.0000 </r>
       <r>    1.2352    0.0000 </r>
       <r>    1.3541    0.0000 </r>
       <r>    1.4390    0.0000 </r>
       <r>    1.8213    0.0000 </r>
       <r>    1.8622    0.0000 </r>
       <r>    2.0119    0.0000 </r>
       <r>    2.0833    0.0000 </r>
       <r>    2.6609    0.0000 </r>
       <r>    3.4067    0.0000 </r>
       <r>    3.5389    0.0000 </r>
       <r>    3.8600    0.0000 </r>
       <r>    4.0908    0.0000 </r>
       <r>    5.2784    0.0000 </r>
       <r>    5.4256    0.0000 </r>
       <r>    5.7635    0.0000 </r>
       <r>    6.3925    0.0000 </r>
       <r>    6.5712    0.0000 </r>
       <r>    7.1715    0.0000 </r>
       <r>    8.7534    0.0000 </r>
       <r>    8.7583    0.0000 </r>
       <r>    9.7658    0.0000 </r>
       <r>   11.4601    0.0000 </r>
       <r>   12.3856    0.0000 </r>
       <r>   12.7021    0.0000 </r>
       <r>   13.3575    0.0000 </r>
      </set>
      <set comment="kpoint 11">
       <r>   -6.6366    1.0000 </r>
       <r>   -5.3399    1.0000 </r>
       <r>   -4.3593    1.0000 </r>
       <r>   -3.6949    1.0000 </r>
       <r>   -3.5646    1.0000 </r>
       <r>   -3.3346    1.0000 </r>
       <r>   -1.8051    1.0000 </r>
       <r>   -1.6178    1.0000 </r>
       <r>   -1.6175    1.0000 </r>
       <r>   -0.8309    1.0000 </r>
       <r>   -0.8149    1.0000 </r>
       <r>   -0.3700    1.0000 </r>
       <r>   -0.3171    1.0000 </r>
       <r>   -0.1193    1.0000 </r>
       <r>   -0.0416    1.0000 </r>
       <r>    1.3378    0.0000 </r>
       <r>    1.3796    0.0000 </r>
       <r>    1.4347    0.0000 </r>
       <r>    1.8246    0.0000 </r>
       <r>    1.8278    0.0000 </r>
       <r>    1.9848    0.0000 </r>
       <r>    2.0257    0.0000 </r>
       <r>    2.6328    0.0000 </r>
       <r>    3.5279    0.0000 </r>
       <r>    3.5383    0.0000 </r>
       <r>    3.9673    0.0000 </r>
       <r>    4.1176    0.0000 </r>
       <r>    5.4137    0.0000 </r>
       <r>    5.5643    0.0000 </r>
       <r>    5.7981    0.0000 </r>
       <r>    6.5786    0.0000 </r>
       <r>    6.5844    0.0000 </r>
       <r>    6.8685    0.0000 </r>
       <r>    8.2728    0.0000 </r>
       <r>    8.8409    0.0000 </r>
       <r>    9.9397    0.0000 </r>
       <r>   11.1268    0.0000 </r>
       <r>   12.0832    0.0000 </r>
       <r>   12.8942    0.0000 </r>
       <r>   12.9218    0.0000 </r>
      </set>
      <set comment="kpoint 12">
       <r>   -6.3855    1.0000 </r>
       <r>   -5.2548    1.0000 </r>
       <r>   -4.3871    1.0000 </r>
       <r>   -3.6006    1.0000 </r>
       <r>   -3.5736    1.0000 </r>
       <r>   -3.1674    1.0000 </r>
       <r>   -1.7589    1.0000 </r>
       <r>   -1.7398    1.0000 </r>
       <r>   -1.5573    1.0000 </r>
       <r>   -0.7351    1.0000 </r>
       <r>   -0.5437    1.0000 </r>
       <r>   -0.4647    1.0000 </r>
       <r>   -0.4459    1.0000 </r>
       <r>   -0.1091    1.0000 </r>
       <r>   -0.0856    1.0000 </r>
       <r>    1.3016    0.0000 </r>
       <r>    1.3434    0.0000 </r>
       <r>    1.4288    0.0000 </r>
       <r>    1.8154    0.0000 </r>
       <r>    1.8422    0.0000 </r>
       <r>    2.0331    0.0000 </r>
       <r>    2.0565    0.0000 </r>
       <r>    2.6202    0.0000 </r>
       <r>    3.5583    0.0000 </r>
       <r>    3.6541    0.0000 </r>
       <r>    4.0640    0.0000 </r>
       <r>    4.1668    0.0000 </r>
       <r>    5.5280    0.0000 </r>
       <r>    5.6959    0.0000 </r>
       <r>    5.8207    0.0000 </r>
       <r>    6.2964    0.0000 </r>
       <r>    6.7724    0.0000 </r>
       <r>    6.8888    0.0000 </r>
       <r>    7.7722    0.0000 </r>
       <r>    8.8536    0.0000 </r>
       <r>   10.1135    0.0000 </r>
       <r>   10.8927    0.0000 </r>
       <r>   11.6582    0.0000 </r>
       <r>   12.4437    0.0000 </r>
       <r>   13.2913    0.0000 </r>
      </set>
      <set comment="kpoint 13">
       <r>   -6.1299    1.0000 </r>
       <r>   -5.1883    1.0000 </r>
       <r>   -4.4212    1.0000 </r>
       <r>   -3.5707    1.0000 </r>
       <r>   -3.5113    1.0000 </r>
       <r>   -3.0016    1.0000 </r>
       <r>   -1.8868    1.0000 </r>
       <r>   -1.8507    1.0000 </r>
       <r>   -1.3263    1.0000 </r>
       <r>   -0.6231    1.0000 </r>
       <r>   -0.5626    1.0000 </r>
       <r>   -0.5578    1.0000 </r>
       <r>   -0.2326    1.0000 </r>
       <r>   -0.1806    1.0000 </r>
       <r>   -0.0468    1.0000 </r>
       <r>    1.2108    0.0000 </r>
       <r>    1.2559    0.0000 </r>
       <r>    1.3754    0.0000 </r>
       <r>    1.8670    0.0000 </r>
       <r>    1.8753    0.0000 </r>
       <r>    2.1386    0.0000 </r>
       <r>    2.1495    0.0000 </r>
       <r>    2.6062    0.0000 </r>
       <r>    3.5968    0.0000 </r>
       <r>    3.7774    0.0000 </r>
       <r>    4.1409    0.0000 </r>
       <r>    4.2304    0.0000 </r>
       <r>    5.5519    0.0000 </r>
       <r>    5.8136    0.0000 </r>
       <r>    5.8379    0.0000 </r>
       <r>    6.0444    0.0000 </r>
       <r>    6.9498    0.0000 </r>
       <r>    6.9702    0.0000 </r>
       <r>    7.2798    0.0000 </r>
       <r>    8.8108    0.0000 </r>
       <r>   10.2299    0.0000 </r>
       <r>   10.7284    0.0000 </r>
       <r>   11.3100    0.0000 </r>
       <r>   12.0681    0.0000 </r>
       <r>   13.2945    0.0000 </r>
      </set>
      <set comment="kpoint 14">
       <r>   -5.8770    1.0000 </r>
       <r>   -5.1411    1.0000 </r>
       <r>   -4.4540    1.0000 </r>
       <r>   -3.5570    1.0000 </r>
       <r>   -3.4367    1.0000 </r>
       <r>   -2.8371    1.0000 </r>
       <r>   -1.9999    1.0000 </r>
       <r>   -1.9490    1.0000 </r>
       <r>   -1.1230    1.0000 </r>
       <r>   -0.6652    1.0000 </r>
       <r>   -0.6517    1.0000 </r>
       <r>   -0.4880    1.0000 </r>
       <r>   -0.2523    1.0000 </r>
       <r>   -0.0067    1.0000 </r>
       <r>    0.0792    1.0000 </r>
       <r>    1.1148    0.0000 </r>
       <r>    1.1589    0.0000 </r>
       <r>    1.3372    0.0000 </r>
       <r>    1.9215    0.0000 </r>
       <r>    1.9311    0.0000 </r>
       <r>    2.2557    0.0000 </r>
       <r>    2.2639    0.0000 </r>
       <r>    2.6173    0.0000 </r>
       <r>    3.6483    0.0000 </r>
       <r>    3.8917    0.0000 </r>
       <r>    4.1927    0.0000 </r>
       <r>    4.2958    0.0000 </r>
       <r>    5.3905    0.0000 </r>
       <r>    5.8552    0.0000 </r>
       <r>    5.9138    0.0000 </r>
       <r>    5.9690    0.0000 </r>
       <r>    6.8065    0.0000 </r>
       <r>    6.9893    0.0000 </r>
       <r>    7.1687    0.0000 </r>
       <r>    8.7630    0.0000 </r>
       <r>   10.2016    0.0000 </r>
       <r>   10.5528    0.0000 </r>
       <r>   11.1308    0.0000 </r>
       <r>   11.8083    0.0000 </r>
       <r>   12.9258    0.0000 </r>
      </set>
      <set comment="kpoint 15">
       <r>   -5.6367    1.0000 </r>
       <r>   -5.1113    1.0000 </r>
       <r>   -4.4781    1.0000 </r>
       <r>   -3.5354    1.0000 </r>
       <r>   -3.3870    1.0000 </r>
       <r>   -2.6691    1.0000 </r>
       <r>   -2.0972    1.0000 </r>
       <r>   -2.0338    1.0000 </r>
       <r>   -0.9517    1.0000 </r>
       <r>   -0.7589    1.0000 </r>
       <r>   -0.7524    1.0000 </r>
       <r>   -0.3569    1.0000 </r>
       <r>   -0.3202    1.0000 </r>
       <r>    0.0426    1.0000 </r>
       <r>    0.3538    1.0000 </r>
       <r>    1.0213    0.0000 </r>
       <r>    1.1247    0.0000 </r>
       <r>    1.3415    0.0000 </r>
       <r>    1.9765    0.0000 </r>
       <r>    1.9851    0.0000 </r>
       <r>    2.3052    0.0000 </r>
       <r>    2.3895    0.0000 </r>
       <r>    2.7106    0.0000 </r>
       <r>    3.7057    0.0000 </r>
       <r>    3.9930    0.0000 </r>
       <r>    4.2188    0.0000 </r>
       <r>    4.3495    0.0000 </r>
       <r>    5.1548    0.0000 </r>
       <r>    5.8756    0.0000 </r>
       <r>    5.9268    0.0000 </r>
       <r>    5.9953    0.0000 </r>
       <r>    6.3611    0.0000 </r>
       <r>    7.0362    0.0000 </r>
       <r>    7.3628    0.0000 </r>
       <r>    8.7549    0.0000 </r>
       <r>   10.0055    0.0000 </r>
       <r>   10.3077    0.0000 </r>
       <r>   11.1402    0.0000 </r>
       <r>   11.6487    0.0000 </r>
       <r>   12.6491    0.0000 </r>
      </set>
      <set comment="kpoint 16">
       <r>   -5.4219    1.0000 </r>
       <r>   -5.0949    1.0000 </r>
       <r>   -4.4858    1.0000 </r>
       <r>   -3.5103    1.0000 </r>
       <r>   -3.3677    1.0000 </r>
       <r>   -2.4925    1.0000 </r>
       <r>   -2.1777    1.0000 </r>
       <r>   -2.1044    1.0000 </r>
       <r>   -0.8896    1.0000 </r>
       <r>   -0.8238    1.0000 </r>
       <r>   -0.8110    1.0000 </r>
       <r>   -0.3806    1.0000 </r>
       <r>   -0.2726    1.0000 </r>
       <r>    0.1265    1.0000 </r>
       <r>    0.5244    1.0000 </r>
       <r>    0.9366    0.0000 </r>
       <r>    1.2236    0.0000 </r>
       <r>    1.3855    0.0000 </r>
       <r>    2.0277    0.0000 </r>
       <r>    2.0346    0.0000 </r>
       <r>    2.2861    0.0000 </r>
       <r>    2.5218    0.0000 </r>
       <r>    2.8756    0.0000 </r>
       <r>    3.7626    0.0000 </r>
       <r>    4.0805    0.0000 </r>
       <r>    4.2231    0.0000 </r>
       <r>    4.3807    0.0000 </r>
       <r>    4.9391    0.0000 </r>
       <r>    5.7990    0.0000 </r>
       <r>    5.8989    0.0000 </r>
       <r>    5.9520    0.0000 </r>
       <r>    6.0584    0.0000 </r>
       <r>    7.1372    0.0000 </r>
       <r>    7.5483    0.0000 </r>
       <r>    8.7879    0.0000 </r>
       <r>    9.7482    0.0000 </r>
       <r>   10.0232    0.0000 </r>
       <r>   11.2179    0.0000 </r>
       <r>   11.4791    0.0000 </r>
       <r>   12.5528    0.0000 </r>
      </set>
      <set comment="kpoint 17">
       <r>   -5.2487    1.0000 </r>
       <r>   -5.0876    1.0000 </r>
       <r>   -4.4697    1.0000 </r>
       <r>   -3.4859    1.0000 </r>
       <r>   -3.3770    1.0000 </r>
       <r>   -2.3051    1.0000 </r>
       <r>   -2.2409    1.0000 </r>
       <r>   -2.1600    1.0000 </r>
       <r>   -1.0478    1.0000 </r>
       <r>   -0.8791    1.0000 </r>
       <r>   -0.6991    1.0000 </r>
       <r>   -0.4306    1.0000 </r>
       <r>   -0.2484    1.0000 </r>
       <r>    0.2474    1.0000 </r>
       <r>    0.5850    1.0000 </r>
       <r>    0.8659    0.0033 </r>
       <r>    1.4452    0.0000 </r>
       <r>    1.4452    0.0000 </r>
       <r>    2.0599    0.0000 </r>
       <r>    2.0895    0.0000 </r>
       <r>    2.2601    0.0000 </r>
       <r>    2.6368    0.0000 </r>
       <r>    3.0633    0.0000 </r>
       <r>    3.8132    0.0000 </r>
       <r>    4.1582    0.0000 </r>
       <r>    4.2126    0.0000 </r>
       <r>    4.3845    0.0000 </r>
       <r>    4.7646    0.0000 </r>
       <r>    5.5907    0.0000 </r>
       <r>    5.5914    0.0000 </r>
       <r>    5.9227    0.0000 </r>
       <r>    6.1045    0.0000 </r>
       <r>    7.3008    0.0000 </r>
       <r>    7.7197    0.0000 </r>
       <r>    8.8148    0.0000 </r>
       <r>    9.5027    0.0000 </r>
       <r>    9.7775    0.0000 </r>
       <r>   11.2417    0.0000 </r>
       <r>   11.2703    0.0000 </r>
       <r>   12.4618    0.0000 </r>
      </set>
      <set comment="kpoint 18">
       <r>   -5.1300    1.0000 </r>
       <r>   -5.0854    1.0000 </r>
       <r>   -4.4301    1.0000 </r>
       <r>   -3.4658    1.0000 </r>
       <r>   -3.4051    1.0000 </r>
       <r>   -2.2864    1.0000 </r>
       <r>   -2.2001    1.0000 </r>
       <r>   -2.1088    1.0000 </r>
       <r>   -1.2289    1.0000 </r>
       <r>   -0.9185    1.0000 </r>
       <r>   -0.6166    1.0000 </r>
       <r>   -0.4678    1.0000 </r>
       <r>   -0.2548    1.0000 </r>
       <r>    0.3687    1.0000 </r>
       <r>    0.6011    1.0000 </r>
       <r>    0.8128    0.1126 </r>
       <r>    1.4923    0.0000 </r>
       <r>    1.6904    0.0000 </r>
       <r>    2.0825    0.0000 </r>
       <r>    2.1348    0.0000 </r>
       <r>    2.2524    0.0000 </r>
       <r>    2.7213    0.0000 </r>
       <r>    3.2435    0.0000 </r>
       <r>    3.8529    0.0000 </r>
       <r>    4.1964    0.0000 </r>
       <r>    4.2355    0.0000 </r>
       <r>    4.3646    0.0000 </r>
       <r>    4.6312    0.0000 </r>
       <r>    5.2950    0.0000 </r>
       <r>    5.3605    0.0000 </r>
       <r>    5.9431    0.0000 </r>
       <r>    6.1354    0.0000 </r>
       <r>    7.5020    0.0000 </r>
       <r>    7.8680    0.0000 </r>
       <r>    8.7558    0.0000 </r>
       <r>    9.2984    0.0000 </r>
       <r>    9.6599    0.0000 </r>
       <r>   10.9853    0.0000 </r>
       <r>   11.2684    0.0000 </r>
       <r>   12.4632    0.0000 </r>
      </set>
      <set comment="kpoint 19">
       <r>   -5.0854    1.0000 </r>
       <r>   -5.0660    1.0000 </r>
       <r>   -4.3850    1.0000 </r>
       <r>   -3.4528    1.0000 </r>
       <r>   -3.4354    1.0000 </r>
       <r>   -2.3138    1.0000 </r>
       <r>   -2.2244    1.0000 </r>
       <r>   -1.9135    1.0000 </r>
       <r>   -1.4179    1.0000 </r>
       <r>   -0.9421    1.0000 </r>
       <r>   -0.5655    1.0000 </r>
       <r>   -0.4908    1.0000 </r>
       <r>   -0.2665    1.0000 </r>
       <r>    0.4565    1.0000 </r>
       <r>    0.6062    1.0000 </r>
       <r>    0.7800    0.3881 </r>
       <r>    1.5146    0.0000 </r>
       <r>    1.8784    0.0000 </r>
       <r>    2.0957    0.0000 </r>
       <r>    2.1648    0.0000 </r>
       <r>    2.2610    0.0000 </r>
       <r>    2.7677    0.0000 </r>
       <r>    3.3839    0.0000 </r>
       <r>    3.8781    0.0000 </r>
       <r>    4.1826    0.0000 </r>
       <r>    4.3223    0.0000 </r>
       <r>    4.3353    0.0000 </r>
       <r>    4.5263    0.0000 </r>
       <r>    5.0928    0.0000 </r>
       <r>    5.1738    0.0000 </r>
       <r>    5.9570    0.0000 </r>
       <r>    6.1531    0.0000 </r>
       <r>    7.6979    0.0000 </r>
       <r>    7.9761    0.0000 </r>
       <r>    8.6095    0.0000 </r>
       <r>    9.1568    0.0000 </r>
       <r>    9.6732    0.0000 </r>
       <r>   10.7771    0.0000 </r>
       <r>   11.2409    0.0000 </r>
       <r>   12.5539    0.0000 </r>
      </set>
      <set comment="kpoint 20">
       <r>   -5.0856    1.0000 </r>
       <r>   -5.0465    1.0000 </r>
       <r>   -4.3649    1.0000 </r>
       <r>   -3.4487    1.0000 </r>
       <r>   -3.4482    1.0000 </r>
       <r>   -2.3229    1.0000 </r>
       <r>   -2.2325    1.0000 </r>
       <r>   -1.7890    1.0000 </r>
       <r>   -1.5409    1.0000 </r>
       <r>   -0.9499    1.0000 </r>
       <r>   -0.5482    1.0000 </r>
       <r>   -0.4985    1.0000 </r>
       <r>   -0.2715    1.0000 </r>
       <r>    0.4886    1.0000 </r>
       <r>    0.6075    1.0000 </r>
       <r>    0.7689    0.5119 </r>
       <r>    1.5198    0.0000 </r>
       <r>    1.9500    0.0000 </r>
       <r>    2.1000    0.0000 </r>
       <r>    2.1753    0.0000 </r>
       <r>    2.2674    0.0000 </r>
       <r>    2.7809    0.0000 </r>
       <r>    3.4396    0.0000 </r>
       <r>    3.8868    0.0000 </r>
       <r>    4.1773    0.0000 </r>
       <r>    4.3205    0.0000 </r>
       <r>    4.3996    0.0000 </r>
       <r>    4.4484    0.0000 </r>
       <r>    5.0193    0.0000 </r>
       <r>    5.0999    0.0000 </r>
       <r>    5.9619    0.0000 </r>
       <r>    6.1589    0.0000 </r>
       <r>    7.7943    0.0000 </r>
       <r>    8.0174    0.0000 </r>
       <r>    8.5206    0.0000 </r>
       <r>    9.1044    0.0000 </r>
       <r>    9.7014    0.0000 </r>
       <r>   10.6922    0.0000 </r>
       <r>   11.2269    0.0000 </r>
       <r>   12.6213    0.0000 </r>
      </set>
      <set comment="kpoint 21">
       <r>   -5.0856    1.0000 </r>
       <r>   -5.0465    1.0000 </r>
       <r>   -4.3649    1.0000 </r>
       <r>   -3.4487    1.0000 </r>
       <r>   -3.4482    1.0000 </r>
       <r>   -2.3229    1.0000 </r>
       <r>   -2.2325    1.0000 </r>
       <r>   -1.7890    1.0000 </r>
       <r>   -1.5409    1.0000 </r>
       <r>   -0.9499    1.0000 </r>
       <r>   -0.5482    1.0000 </r>
       <r>   -0.4985    1.0000 </r>
       <r>   -0.2715    1.0000 </r>
       <r>    0.4886    1.0000 </r>
       <r>    0.6075    1.0000 </r>
       <r>    0.7689    0.5119 </r>
       <r>    1.5198    0.0000 </r>
       <r>    1.9500    0.0000 </r>
       <r>    2.1000    0.0000 </r>
       <r>    2.1753    0.0000 </r>
       <r>    2.2674    0.0000 </r>
       <r>    2.7809    0.0000 </r>
       <r>    3.4396    0.0000 </r>
       <r>    3.8868    0.0000 </r>
       <r>    4.1773    0.0000 </r>
       <r>    4.3205    0.0000 </r>
       <r>    4.3996    0.0000 </r>
       <r>    4.4484    0.0000 </r>
       <r>    5.0193    0.0000 </r>
       <r>    5.0999    0.0000 </r>
       <r>    5.9619    0.0000 </r>
       <r>    6.1589    0.0000 </r>
       <r>    7.7943    0.0000 </r>
       <r>    8.0174    0.0000 </r>
       <r>    8.5206    0.0000 </r>
       <r>    9.1044    0.0000 </r>
       <r>    9.7014    0.0000 </r>
       <r>   10.6922    0.0000 </r>
       <r>   11.2269    0.0000 </r>
       <r>   12.6213    0.0000 </r>
      </set>
      <set comment="kpoint 22">
       <r>   -5.0690    1.0000 </r>
       <r>   -5.0312    1.0000 </r>
       <r>   -4.3534    1.0000 </r>
       <r>   -3.4461    1.0000 </r>
       <r>   -3.4358    1.0000 </r>
       <r>   -2.3283    1.0000 </r>
       <r>   -2.2422    1.0000 </r>
       <r>   -1.8045    1.0000 </r>
       <r>   -1.5761    1.0000 </r>
       <r>   -0.9021    1.0000 </r>
       <r>   -0.6215    1.0000 </r>
       <r>   -0.5542    1.0000 </r>
       <r>   -0.1489    1.0000 </r>
       <r>    0.4575    1.0000 </r>
       <r>    0.6196    1.0000 </r>
       <r>    0.7864    0.3203 </r>
       <r>    1.4386    0.0000 </r>
       <r>    1.9250    0.0000 </r>
       <r>    2.1023    0.0000 </r>
       <r>    2.2546    0.0000 </r>
       <r>    2.2776    0.0000 </r>
       <r>    2.7675    0.0000 </r>
       <r>    3.4234    0.0000 </r>
       <r>    3.8498    0.0000 </r>
       <r>    4.1212    0.0000 </r>
       <r>    4.3973    0.0000 </r>
       <r>    4.4193    0.0000 </r>
       <r>    4.4965    0.0000 </r>
       <r>    5.0261    0.0000 </r>
       <r>    5.1274    0.0000 </r>
       <r>    6.0113    0.0000 </r>
       <r>    6.2090    0.0000 </r>
       <r>    7.8041    0.0000 </r>
       <r>    8.0262    0.0000 </r>
       <r>    8.5314    0.0000 </r>
       <r>    9.1160    0.0000 </r>
       <r>    9.7106    0.0000 </r>
       <r>   10.6993    0.0000 </r>
       <r>   11.2298    0.0000 </r>
       <r>   12.6296    0.0000 </r>
      </set>
      <set comment="kpoint 23">
       <r>   -5.0196    1.0000 </r>
       <r>   -4.9855    1.0000 </r>
       <r>   -4.3203    1.0000 </r>
       <r>   -3.4404    1.0000 </r>
       <r>   -3.3998    1.0000 </r>
       <r>   -2.3429    1.0000 </r>
       <r>   -2.2698    1.0000 </r>
       <r>   -1.8479    1.0000 </r>
       <r>   -1.6508    1.0000 </r>
       <r>   -0.8127    1.0000 </r>
       <r>   -0.7880    1.0000 </r>
       <r>   -0.5740    1.0000 </r>
       <r>    0.0397    1.0000 </r>
       <r>    0.3694    1.0000 </r>
       <r>    0.6551    0.9994 </r>
       <r>    0.8314    0.0411 </r>
       <r>    1.2686    0.0000 </r>
       <r>    1.8582    0.0000 </r>
       <r>    2.1077    0.0000 </r>
       <r>    2.3088    0.0000 </r>
       <r>    2.4118    0.0000 </r>
       <r>    2.7309    0.0000 </r>
       <r>    3.3897    0.0000 </r>
       <r>    3.7758    0.0000 </r>
       <r>    4.0568    0.0000 </r>
       <r>    4.3933    0.0000 </r>
       <r>    4.5959    0.0000 </r>
       <r>    4.6069    0.0000 </r>
       <r>    5.0491    0.0000 </r>
       <r>    5.2157    0.0000 </r>
       <r>    6.1503    0.0000 </r>
       <r>    6.3523    0.0000 </r>
       <r>    7.8334    0.0000 </r>
       <r>    8.0523    0.0000 </r>
       <r>    8.5635    0.0000 </r>
       <r>    9.1506    0.0000 </r>
       <r>    9.7381    0.0000 </r>
       <r>   10.7199    0.0000 </r>
       <r>   11.2376    0.0000 </r>
       <r>   12.6536    0.0000 </r>
      </set>
      <set comment="kpoint 24">
       <r>   -4.9381    1.0000 </r>
       <r>   -4.9111    1.0000 </r>
       <r>   -4.2689    1.0000 </r>
       <r>   -3.4377    1.0000 </r>
       <r>   -3.3440    1.0000 </r>
       <r>   -2.3621    1.0000 </r>
       <r>   -2.3104    1.0000 </r>
       <r>   -1.9114    1.0000 </r>
       <r>   -1.7196    1.0000 </r>
       <r>   -1.0078    1.0000 </r>
       <r>   -0.6480    1.0000 </r>
       <r>   -0.6125    1.0000 </r>
       <r>    0.1774    1.0000 </r>
       <r>    0.2864    1.0000 </r>
       <r>    0.7126    0.9477 </r>
       <r>    0.8786    0.0011 </r>
       <r>    1.0859    0.0000 </r>
       <r>    1.7765    0.0000 </r>
       <r>    2.1123    0.0000 </r>
       <r>    2.3624    0.0000 </r>
       <r>    2.5468    0.0000 </r>
       <r>    2.6821    0.0000 </r>
       <r>    3.3810    0.0000 </r>
       <r>    3.7089    0.0000 </r>
       <r>    4.0147    0.0000 </r>
       <r>    4.3939    0.0000 </r>
       <r>    4.6893    0.0000 </r>
       <r>    4.8412    0.0000 </r>
       <r>    5.0929    0.0000 </r>
       <r>    5.3710    0.0000 </r>
       <r>    6.3588    0.0000 </r>
       <r>    6.5714    0.0000 </r>
       <r>    7.8826    0.0000 </r>
       <r>    8.0956    0.0000 </r>
       <r>    8.6168    0.0000 </r>
       <r>    9.2077    0.0000 </r>
       <r>    9.7836    0.0000 </r>
       <r>   10.7522    0.0000 </r>
       <r>   11.2470    0.0000 </r>
       <r>   12.6906    0.0000 </r>
      </set>
      <set comment="kpoint 25">
       <r>   -4.8259    1.0000 </r>
       <r>   -4.8109    1.0000 </r>
       <r>   -4.2056    1.0000 </r>
       <r>   -3.4454    1.0000 </r>
       <r>   -3.2757    1.0000 </r>
       <r>   -2.3781    1.0000 </r>
       <r>   -2.3552    1.0000 </r>
       <r>   -1.9858    1.0000 </r>
       <r>   -1.7538    1.0000 </r>
       <r>   -1.1977    1.0000 </r>
       <r>   -0.6754    1.0000 </r>
       <r>   -0.5043    1.0000 </r>
       <r>    0.0297    1.0000 </r>
       <r>    0.4471    1.0000 </r>
       <r>    0.7894    0.2912 </r>
       <r>    0.8836    0.0007 </r>
       <r>    0.9207    0.0000 </r>
       <r>    1.7278    0.0000 </r>
       <r>    2.1102    0.0000 </r>
       <r>    2.4388    0.0000 </r>
       <r>    2.6009    0.0000 </r>
       <r>    2.6395    0.0000 </r>
       <r>    3.4451    0.0000 </r>
       <r>    3.6640    0.0000 </r>
       <r>    3.9910    0.0000 </r>
       <r>    4.4036    0.0000 </r>
       <r>    4.7602    0.0000 </r>
       <r>    5.1111    0.0000 </r>
       <r>    5.1619    0.0000 </r>
       <r>    5.5826    0.0000 </r>
       <r>    6.6159    0.0000 </r>
       <r>    6.8462    0.0000 </r>
       <r>    7.9523    0.0000 </r>
       <r>    8.1554    0.0000 </r>
       <r>    8.6904    0.0000 </r>
       <r>    9.2867    0.0000 </r>
       <r>    9.8467    0.0000 </r>
       <r>   10.7928    0.0000 </r>
       <r>   11.2522    0.0000 </r>
       <r>   12.7378    0.0000 </r>
      </set>
      <set comment="kpoint 26">
       <r>   -4.6900    1.0000 </r>
       <r>   -4.6847    1.0000 </r>
       <r>   -4.1406    1.0000 </r>
       <r>   -3.4682    1.0000 </r>
       <r>   -3.2066    1.0000 </r>
       <r>   -2.3905    1.0000 </r>
       <r>   -2.3795    1.0000 </r>
       <r>   -2.0635    1.0000 </r>
       <r>   -1.7378    1.0000 </r>
       <r>   -1.3787    1.0000 </r>
       <r>   -0.7661    1.0000 </r>
       <r>   -0.3681    1.0000 </r>
       <r>   -0.1750    1.0000 </r>
       <r>    0.6329    0.9999 </r>
       <r>    0.7853    0.3316 </r>
       <r>    0.7985    0.2092 </r>
       <r>    0.8883    0.0004 </r>
       <r>    1.7573    0.0000 </r>
       <r>    2.0969    0.0000 </r>
       <r>    2.5368    0.0000 </r>
       <r>    2.5769    0.0000 </r>
       <r>    2.6216    0.0000 </r>
       <r>    3.5808    0.0000 </r>
       <r>    3.6415    0.0000 </r>
       <r>    3.9806    0.0000 </r>
       <r>    4.4238    0.0000 </r>
       <r>    4.8149    0.0000 </r>
       <r>    5.2597    0.0000 </r>
       <r>    5.4073    0.0000 </r>
       <r>    5.8292    0.0000 </r>
       <r>    6.9048    0.0000 </r>
       <r>    7.1579    0.0000 </r>
       <r>    8.0445    0.0000 </r>
       <r>    8.2308    0.0000 </r>
       <r>    8.7833    0.0000 </r>
       <r>    9.3863    0.0000 </r>
       <r>    9.9269    0.0000 </r>
       <r>   10.8358    0.0000 </r>
       <r>   11.2435    0.0000 </r>
       <r>   12.7263    0.0000 </r>
      </set>
      <set comment="kpoint 27">
       <r>   -4.5577    1.0000 </r>
       <r>   -4.5173    1.0000 </r>
       <r>   -4.0867    1.0000 </r>
       <r>   -3.5024    1.0000 </r>
       <r>   -3.1514    1.0000 </r>
       <r>   -2.3991    1.0000 </r>
       <r>   -2.3541    1.0000 </r>
       <r>   -2.1393    1.0000 </r>
       <r>   -1.6669    1.0000 </r>
       <r>   -1.5478    1.0000 </r>
       <r>   -0.8826    1.0000 </r>
       <r>   -0.3977    1.0000 </r>
       <r>   -0.2438    1.0000 </r>
       <r>    0.6385    0.9999 </r>
       <r>    0.6837    0.9926 </r>
       <r>    0.8147    0.1030 </r>
       <r>    0.9977    0.0000 </r>
       <r>    1.8617    0.0000 </r>
       <r>    2.0762    0.0000 </r>
       <r>    2.5192    0.0000 </r>
       <r>    2.6369    0.0000 </r>
       <r>    2.6540    0.0000 </r>
       <r>    3.6372    0.0000 </r>
       <r>    3.7459    0.0000 </r>
       <r>    3.9796    0.0000 </r>
       <r>    4.4535    0.0000 </r>
       <r>    4.8608    0.0000 </r>
       <r>    5.3889    0.0000 </r>
       <r>    5.7210    0.0000 </r>
       <r>    6.0929    0.0000 </r>
       <r>    7.2129    0.0000 </r>
       <r>    7.4877    0.0000 </r>
       <r>    8.1645    0.0000 </r>
       <r>    8.3203    0.0000 </r>
       <r>    8.8936    0.0000 </r>
       <r>    9.5048    0.0000 </r>
       <r>   10.0233    0.0000 </r>
       <r>   10.8724    0.0000 </r>
       <r>   11.2077    0.0000 </r>
       <r>   12.6040    0.0000 </r>
      </set>
      <set comment="kpoint 28">
       <r>   -4.4308    1.0000 </r>
       <r>   -4.3272    1.0000 </r>
       <r>   -4.0574    1.0000 </r>
       <r>   -3.5308    1.0000 </r>
       <r>   -3.1219    1.0000 </r>
       <r>   -2.3647    1.0000 </r>
       <r>   -2.2965    1.0000 </r>
       <r>   -2.2093    1.0000 </r>
       <r>   -1.7022    1.0000 </r>
       <r>   -1.5474    1.0000 </r>
       <r>   -1.0165    1.0000 </r>
       <r>   -0.6286    1.0000 </r>
       <r>   -0.1303    1.0000 </r>
       <r>    0.4313    1.0000 </r>
       <r>    0.6158    1.0000 </r>
       <r>    0.9910    0.0000 </r>
       <r>    1.1217    0.0000 </r>
       <r>    2.0087    0.0000 </r>
       <r>    2.0596    0.0000 </r>
       <r>    2.4612    0.0000 </r>
       <r>    2.6816    0.0000 </r>
       <r>    2.7866    0.0000 </r>
       <r>    3.6467    0.0000 </r>
       <r>    3.9081    0.0000 </r>
       <r>    3.9850    0.0000 </r>
       <r>    4.4902    0.0000 </r>
       <r>    4.9013    0.0000 </r>
       <r>    5.5501    0.0000 </r>
       <r>    6.0445    0.0000 </r>
       <r>    6.3614    0.0000 </r>
       <r>    7.5302    0.0000 </r>
       <r>    7.8098    0.0000 </r>
       <r>    8.3273    0.0000 </r>
       <r>    8.4216    0.0000 </r>
       <r>    9.0182    0.0000 </r>
       <r>    9.6392    0.0000 </r>
       <r>   10.1350    0.0000 </r>
       <r>   10.8898    0.0000 </r>
       <r>   11.1313    0.0000 </r>
       <r>   12.4722    0.0000 </r>
      </set>
      <set comment="kpoint 29">
       <r>   -4.3371    1.0000 </r>
       <r>   -4.1191    1.0000 </r>
       <r>   -4.0613    1.0000 </r>
       <r>   -3.5227    1.0000 </r>
       <r>   -3.1192    1.0000 </r>
       <r>   -2.2977    1.0000 </r>
       <r>   -2.2504    1.0000 </r>
       <r>   -2.2167    1.0000 </r>
       <r>   -1.8388    1.0000 </r>
       <r>   -1.3933    1.0000 </r>
       <r>   -1.1545    1.0000 </r>
       <r>   -0.8607    1.0000 </r>
       <r>   -0.0187    1.0000 </r>
       <r>    0.2037    1.0000 </r>
       <r>    0.5823    1.0000 </r>
       <r>    1.1624    0.0000 </r>
       <r>    1.2577    0.0000 </r>
       <r>    2.0573    0.0000 </r>
       <r>    2.1740    0.0000 </r>
       <r>    2.4189    0.0000 </r>
       <r>    2.7474    0.0000 </r>
       <r>    2.9302    0.0000 </r>
       <r>    3.6667    0.0000 </r>
       <r>    3.9948    0.0000 </r>
       <r>    4.0522    0.0000 </r>
       <r>    4.5302    0.0000 </r>
       <r>    4.9369    0.0000 </r>
       <r>    5.7407    0.0000 </r>
       <r>    6.3707    0.0000 </r>
       <r>    6.6249    0.0000 </r>
       <r>    7.8482    0.0000 </r>
       <r>    8.0864    0.0000 </r>
       <r>    8.5312    0.0000 </r>
       <r>    8.5615    0.0000 </r>
       <r>    9.1520    0.0000 </r>
       <r>    9.7850    0.0000 </r>
       <r>   10.2603    0.0000 </r>
       <r>   10.8742    0.0000 </r>
       <r>   11.0087    0.0000 </r>
       <r>   12.3405    0.0000 </r>
      </set>
      <set comment="kpoint 30">
       <r>   -4.3045    1.0000 </r>
       <r>   -4.0975    1.0000 </r>
       <r>   -3.8993    1.0000 </r>
       <r>   -3.4485    1.0000 </r>
       <r>   -3.1355    1.0000 </r>
       <r>   -2.3362    1.0000 </r>
       <r>   -2.1415    1.0000 </r>
       <r>   -2.1239    1.0000 </r>
       <r>   -1.9539    1.0000 </r>
       <r>   -1.2787    1.0000 </r>
       <r>   -1.2238    1.0000 </r>
       <r>   -1.0889    1.0000 </r>
       <r>   -0.0285    1.0000 </r>
       <r>    0.1079    1.0000 </r>
       <r>    0.5882    1.0000 </r>
       <r>    1.3297    0.0000 </r>
       <r>    1.4045    0.0000 </r>
       <r>    2.0739    0.0000 </r>
       <r>    2.3436    0.0000 </r>
       <r>    2.3977    0.0000 </r>
       <r>    2.8263    0.0000 </r>
       <r>    3.0795    0.0000 </r>
       <r>    3.6948    0.0000 </r>
       <r>    4.0072    0.0000 </r>
       <r>    4.1733    0.0000 </r>
       <r>    4.5690    0.0000 </r>
       <r>    4.9662    0.0000 </r>
       <r>    5.9542    0.0000 </r>
       <r>    6.6935    0.0000 </r>
       <r>    6.8744    0.0000 </r>
       <r>    8.1584    0.0000 </r>
       <r>    8.3006    0.0000 </r>
       <r>    8.6432    0.0000 </r>
       <r>    8.8756    0.0000 </r>
       <r>    9.2864    0.0000 </r>
       <r>    9.9341    0.0000 </r>
       <r>   10.3968    0.0000 </r>
       <r>   10.8204    0.0000 </r>
       <r>   10.8483    0.0000 </r>
       <r>   12.2468    0.0000 </r>
      </set>
      <set comment="kpoint 31">
       <r>   -4.3318    1.0000 </r>
       <r>   -4.1582    1.0000 </r>
       <r>   -3.6763    1.0000 </r>
       <r>   -3.3099    1.0000 </r>
       <r>   -3.1611    1.0000 </r>
       <r>   -2.3810    1.0000 </r>
       <r>   -2.1056    1.0000 </r>
       <r>   -2.0426    1.0000 </r>
       <r>   -1.9387    1.0000 </r>
       <r>   -1.3690    1.0000 </r>
       <r>   -1.3092    1.0000 </r>
       <r>   -1.0592    1.0000 </r>
       <r>   -0.2547    1.0000 </r>
       <r>    0.2716    1.0000 </r>
       <r>    0.6427    0.9998 </r>
       <r>    1.4938    0.0000 </r>
       <r>    1.5613    0.0000 </r>
       <r>    2.1080    0.0000 </r>
       <r>    2.3970    0.0000 </r>
       <r>    2.5090    0.0000 </r>
       <r>    2.9118    0.0000 </r>
       <r>    3.2291    0.0000 </r>
       <r>    3.7287    0.0000 </r>
       <r>    4.0210    0.0000 </r>
       <r>    4.2711    0.0000 </r>
       <r>    4.6015    0.0000 </r>
       <r>    4.9863    0.0000 </r>
       <r>    6.1817    0.0000 </r>
       <r>    7.0069    0.0000 </r>
       <r>    7.0996    0.0000 </r>
       <r>    8.4515    0.0000 </r>
       <r>    8.4786    0.0000 </r>
       <r>    8.7484    0.0000 </r>
       <r>    9.2352    0.0000 </r>
       <r>    9.4072    0.0000 </r>
       <r>   10.0734    0.0000 </r>
       <r>   10.5402    0.0000 </r>
       <r>   10.6700    0.0000 </r>
       <r>   10.7453    0.0000 </r>
       <r>   12.1945    0.0000 </r>
      </set>
      <set comment="kpoint 32">
       <r>   -4.3945    1.0000 </r>
       <r>   -4.2333    1.0000 </r>
       <r>   -3.4619    1.0000 </r>
       <r>   -3.1887    1.0000 </r>
       <r>   -3.1354    1.0000 </r>
       <r>   -2.4157    1.0000 </r>
       <r>   -2.1318    1.0000 </r>
       <r>   -2.0982    1.0000 </r>
       <r>   -1.7286    1.0000 </r>
       <r>   -1.5184    1.0000 </r>
       <r>   -1.4150    1.0000 </r>
       <r>   -0.9141    1.0000 </r>
       <r>   -0.4643    1.0000 </r>
       <r>    0.4911    1.0000 </r>
       <r>    0.7553    0.6602 </r>
       <r>    1.6551    0.0000 </r>
       <r>    1.7279    0.0000 </r>
       <r>    2.1554    0.0000 </r>
       <r>    2.4133    0.0000 </r>
       <r>    2.6649    0.0000 </r>
       <r>    2.9983    0.0000 </r>
       <r>    3.3735    0.0000 </r>
       <r>    3.7668    0.0000 </r>
       <r>    4.0351    0.0000 </r>
       <r>    4.3470    0.0000 </r>
       <r>    4.6215    0.0000 </r>
       <r>    4.9931    0.0000 </r>
       <r>    6.4130    0.0000 </r>
       <r>    7.2867    0.0000 </r>
       <r>    7.3057    0.0000 </r>
       <r>    8.6421    0.0000 </r>
       <r>    8.7144    0.0000 </r>
       <r>    8.8324    0.0000 </r>
       <r>    9.4953    0.0000 </r>
       <r>    9.6096    0.0000 </r>
       <r>   10.1843    0.0000 </r>
       <r>   10.4993    0.0000 </r>
       <r>   10.6815    0.0000 </r>
       <r>   10.6890    0.0000 </r>
       <r>   12.1386    0.0000 </r>
      </set>
      <set comment="kpoint 33">
       <r>   -4.4712    1.0000 </r>
       <r>   -4.3138    1.0000 </r>
       <r>   -3.2710    1.0000 </r>
       <r>   -3.2132    1.0000 </r>
       <r>   -2.9529    1.0000 </r>
       <r>   -2.4388    1.0000 </r>
       <r>   -2.2112    1.0000 </r>
       <r>   -2.1126    1.0000 </r>
       <r>   -1.7132    1.0000 </r>
       <r>   -1.5225    1.0000 </r>
       <r>   -1.4317    1.0000 </r>
       <r>   -0.7894    1.0000 </r>
       <r>   -0.6392    1.0000 </r>
       <r>    0.7718    0.4786 </r>
       <r>    0.9302    0.0000 </r>
       <r>    1.8136    0.0000 </r>
       <r>    1.9049    0.0000 </r>
       <r>    2.2108    0.0000 </r>
       <r>    2.4416    0.0000 </r>
       <r>    2.8079    0.0000 </r>
       <r>    3.0812    0.0000 </r>
       <r>    3.5072    0.0000 </r>
       <r>    3.8066    0.0000 </r>
       <r>    4.0484    0.0000 </r>
       <r>    4.4015    0.0000 </r>
       <r>    4.6224    0.0000 </r>
       <r>    4.9814    0.0000 </r>
       <r>    6.6378    0.0000 </r>
       <r>    7.4180    0.0000 </r>
       <r>    7.5850    0.0000 </r>
       <r>    8.7980    0.0000 </r>
       <r>    8.8759    0.0000 </r>
       <r>    8.9254    0.0000 </r>
       <r>    9.5393    0.0000 </r>
       <r>    9.9823    0.0000 </r>
       <r>   10.2525    0.0000 </r>
       <r>   10.3632    0.0000 </r>
       <r>   10.6906    0.0000 </r>
       <r>   10.8033    0.0000 </r>
       <r>   12.0129    0.0000 </r>
      </set>
      <set comment="kpoint 34">
       <r>   -4.5492    1.0000 </r>
       <r>   -4.3930    1.0000 </r>
       <r>   -3.2317    1.0000 </r>
       <r>   -3.1188    1.0000 </r>
       <r>   -2.7823    1.0000 </r>
       <r>   -2.4495    1.0000 </r>
       <r>   -2.3178    1.0000 </r>
       <r>   -2.0840    1.0000 </r>
       <r>   -1.8857    1.0000 </r>
       <r>   -1.4426    1.0000 </r>
       <r>   -1.3770    1.0000 </r>
       <r>   -0.7339    1.0000 </r>
       <r>   -0.6749    1.0000 </r>
       <r>    1.1056    0.0000 </r>
       <r>    1.1622    0.0000 </r>
       <r>    1.9683    0.0000 </r>
       <r>    2.0927    0.0000 </r>
       <r>    2.2694    0.0000 </r>
       <r>    2.4771    0.0000 </r>
       <r>    2.9351    0.0000 </r>
       <r>    3.1568    0.0000 </r>
       <r>    3.6253    0.0000 </r>
       <r>    3.8457    0.0000 </r>
       <r>    4.0598    0.0000 </r>
       <r>    4.4338    0.0000 </r>
       <r>    4.5973    0.0000 </r>
       <r>    4.9450    0.0000 </r>
       <r>    6.8454    0.0000 </r>
       <r>    7.4750    0.0000 </r>
       <r>    7.8402    0.0000 </r>
       <r>    8.8624    0.0000 </r>
       <r>    8.9457    0.0000 </r>
       <r>    9.0495    0.0000 </r>
       <r>    9.5570    0.0000 </r>
       <r>   10.2818    0.0000 </r>
       <r>   10.2983    0.0000 </r>
       <r>   10.3426    0.0000 </r>
       <r>   10.7537    0.0000 </r>
       <r>   10.8784    0.0000 </r>
       <r>   11.8009    0.0000 </r>
      </set>
      <set comment="kpoint 35">
       <r>   -4.6218    1.0000 </r>
       <r>   -4.4660    1.0000 </r>
       <r>   -3.2423    1.0000 </r>
       <r>   -3.0110    1.0000 </r>
       <r>   -2.6369    1.0000 </r>
       <r>   -2.4478    1.0000 </r>
       <r>   -2.4314    1.0000 </r>
       <r>   -2.0997    1.0000 </r>
       <r>   -1.9494    1.0000 </r>
       <r>   -1.4588    1.0000 </r>
       <r>   -1.3668    1.0000 </r>
       <r>   -0.6847    1.0000 </r>
       <r>   -0.5601    1.0000 </r>
       <r>    1.4375    0.0000 </r>
       <r>    1.4771    0.0000 </r>
       <r>    2.1172    0.0000 </r>
       <r>    2.2921    0.0000 </r>
       <r>    2.3277    0.0000 </r>
       <r>    2.5151    0.0000 </r>
       <r>    3.0449    0.0000 </r>
       <r>    3.2222    0.0000 </r>
       <r>    3.7237    0.0000 </r>
       <r>    3.8805    0.0000 </r>
       <r>    4.0682    0.0000 </r>
       <r>    4.4420    0.0000 </r>
       <r>    4.5407    0.0000 </r>
       <r>    4.8774    0.0000 </r>
       <r>    7.0248    0.0000 </r>
       <r>    7.4498    0.0000 </r>
       <r>    8.0669    0.0000 </r>
       <r>    8.7931    0.0000 </r>
       <r>    9.0561    0.0000 </r>
       <r>    9.0809    0.0000 </r>
       <r>    9.5834    0.0000 </r>
       <r>   10.2548    0.0000 </r>
       <r>   10.3809    0.0000 </r>
       <r>   10.6792    0.0000 </r>
       <r>   10.8377    0.0000 </r>
       <r>   10.8921    0.0000 </r>
       <r>   11.6017    0.0000 </r>
      </set>
      <set comment="kpoint 36">
       <r>   -4.6848    1.0000 </r>
       <r>   -4.5294    1.0000 </r>
       <r>   -3.2446    1.0000 </r>
       <r>   -2.9388    1.0000 </r>
       <r>   -2.5401    1.0000 </r>
       <r>   -2.5233    1.0000 </r>
       <r>   -2.4345    1.0000 </r>
       <r>   -2.2302    1.0000 </r>
       <r>   -1.8509    1.0000 </r>
       <r>   -1.4803    1.0000 </r>
       <r>   -1.4572    1.0000 </r>
       <r>   -0.5372    1.0000 </r>
       <r>   -0.4417    1.0000 </r>
       <r>    1.7367    0.0000 </r>
       <r>    1.8671    0.0000 </r>
       <r>    2.2565    0.0000 </r>
       <r>    2.3855    0.0000 </r>
       <r>    2.5024    0.0000 </r>
       <r>    2.5515    0.0000 </r>
       <r>    3.1358    0.0000 </r>
       <r>    3.2758    0.0000 </r>
       <r>    3.8004    0.0000 </r>
       <r>    3.9072    0.0000 </r>
       <r>    4.0722    0.0000 </r>
       <r>    4.4238    0.0000 </r>
       <r>    4.4492    0.0000 </r>
       <r>    4.7726    0.0000 </r>
       <r>    7.1652    0.0000 </r>
       <r>    7.3568    0.0000 </r>
       <r>    8.2596    0.0000 </r>
       <r>    8.6910    0.0000 </r>
       <r>    8.9654    0.0000 </r>
       <r>    9.1979    0.0000 </r>
       <r>    9.6345    0.0000 </r>
       <r>   10.2605    0.0000 </r>
       <r>   10.5345    0.0000 </r>
[...]
       <r>    1.8179    0.0000 </r>
       <r>    2.1837    0.0000 </r>
       <r>    2.5851    0.0000 </r>
       <r>    3.0259    0.0000 </r>
       <r>    3.3473    0.0000 </r>
       <r>    3.6661    0.0000 </r>
       <r>    4.2199    0.0000 </r>
       <r>    4.5997    0.0000 </r>
       <r>    4.6596    0.0000 </r>
       <r>    4.6634    0.0000 </r>
       <r>    5.2134    0.0000 </r>
       <r>    5.5597    0.0000 </r>
       <r>    5.6778    0.0000 </r>
       <r>    7.8119    0.0000 </r>
       <r>    7.9360    0.0000 </r>
       <r>   10.3454    0.0000 </r>
       <r>   10.4284    0.0000 </r>
       <r>   10.4449    0.0000 </r>
       <r>   12.5185    0.0000 </r>
       <r>   12.9356    0.0000 </r>
       <r>   13.2775    0.0000 </r>
      </set>
      <set comment="kpoint 59">
       <r>   -8.0027    1.0000 </r>
       <r>   -6.1246    1.0000 </r>
       <r>   -4.6168    1.0000 </r>
       <r>   -4.5261    1.0000 </r>
       <r>   -4.0025    1.0000 </r>
       <r>   -3.3483    1.0000 </r>
       <r>   -3.3431    1.0000 </r>
       <r>   -1.6648    1.0000 </r>
       <r>   -0.5099    1.0000 </r>
       <r>   -0.4657    1.0000 </r>
       <r>   -0.2818    1.0000 </r>
       <r>   -0.0100    1.0000 </r>
       <r>    0.1341    1.0000 </r>
       <r>    0.2610    1.0000 </r>
       <r>    0.4098    1.0000 </r>
       <r>    0.4680    1.0000 </r>
       <r>    0.7372    0.8224 </r>
       <r>    0.8817    0.0008 </r>
       <r>    1.2463    0.0000 </r>
       <r>    2.1301    0.0000 </r>
       <r>    2.2017    0.0000 </r>
       <r>    2.4936    0.0000 </r>
       <r>    2.7905    0.0000 </r>
       <r>    3.4208    0.0000 </r>
       <r>    4.0154    0.0000 </r>
       <r>    4.2433    0.0000 </r>
       <r>    4.5309    0.0000 </r>
       <r>    4.6466    0.0000 </r>
       <r>    4.6560    0.0000 </r>
       <r>    5.3816    0.0000 </r>
       <r>    5.4171    0.0000 </r>
       <r>    5.5033    0.0000 </r>
       <r>    7.6184    0.0000 </r>
       <r>    7.7094    0.0000 </r>
       <r>   10.2198    0.0000 </r>
       <r>   10.4803    0.0000 </r>
       <r>   10.4812    0.0000 </r>
       <r>   12.4146    0.0000 </r>
       <r>   13.3559    0.0000 </r>
       <r>   13.4625    0.0000 </r>
      </set>
      <set comment="kpoint 60">
       <r>   -8.0336    1.0000 </r>
       <r>   -6.1476    1.0000 </r>
       <r>   -4.6395    1.0000 </r>
       <r>   -4.5440    1.0000 </r>
       <r>   -4.0172    1.0000 </r>
       <r>   -3.3650    1.0000 </r>
       <r>   -3.3569    1.0000 </r>
       <r>   -1.6524    1.0000 </r>
       <r>   -0.4551    1.0000 </r>
       <r>   -0.4551    1.0000 </r>
       <r>   -0.1112    1.0000 </r>
       <r>   -0.0227    1.0000 </r>
       <r>   -0.0227    1.0000 </r>
       <r>    0.3449    1.0000 </r>
       <r>    0.4047    1.0000 </r>
       <r>    0.4641    1.0000 </r>
       <r>    0.8258    0.0572 </r>
       <r>    0.8258    0.0572 </r>
       <r>    1.0438    0.0000 </r>
       <r>    2.2167    0.0000 </r>
       <r>    2.4543    0.0000 </r>
       <r>    2.4543    0.0000 </r>
       <r>    2.5048    0.0000 </r>
       <r>    3.4470    0.0000 </r>
       <r>    4.1823    0.0000 </r>
       <r>    4.2521    0.0000 </r>
       <r>    4.5033    0.0000 </r>
       <r>    4.6410    0.0000 </r>
       <r>    4.6410    0.0000 </r>
       <r>    5.3523    0.0000 </r>
       <r>    5.4433    0.0000 </r>
       <r>    5.4438    0.0000 </r>
       <r>    7.4970    0.0000 </r>
       <r>    7.6755    0.0000 </r>
       <r>   10.1786    0.0000 </r>
       <r>   10.4975    0.0000 </r>
       <r>   10.4975    0.0000 </r>
       <r>   12.3782    0.0000 </r>
       <r>   13.5314    0.0000 </r>
       <r>   13.5314    0.0000 </r>
      </set>
     </set>
    </set>
   </array>
  </eigenvalues>
  <separator name="orbital magnetization" >
   <v name="MAGDIPOLOUT">      0.00000000      0.00000000      0.00000000</v>
  </separator>
  <dos>
   <i name="efermi">      0.76993281 </i>
   <total>
    <array>
     <dimension dim="1">gridpoints</dimension>
     <dimension dim="2">spin</dimension>
     <field>energy</field>
     <field>total</field>
     <field>integrated</field>
     <set>
      <set comment="spin 1">
       <r>    -9.1220     0.0000     0.0000 </r>
       <r>    -9.0422     0.0000     0.0000 </r>
       <r>    -8.9624     0.0000     0.0000 </r>
       <r>    -8.8826     0.0000     0.0000 </r>
       <r>    -8.8028     0.0000     0.0000 </r>
       <r>    -8.7229     0.0000     0.0000 </r>
       <r>    -8.6431     0.0000     0.0000 </r>
       <r>    -8.5633     0.0000     0.0000 </r>
       <r>    -8.4835     0.0000     0.0000 </r>
       <r>    -8.4037     0.0000     0.0000 </r>
       <r>    -8.3239     0.0000     0.0000 </r>
       <r>    -8.2440     0.0000     0.0000 </r>
       <r>    -8.1642     0.0001     0.0000 </r>
       <r>    -8.0844     0.0803     0.0064 </r>
       <r>    -8.0046     1.1301     0.0966 </r>
       <r>    -7.9248     1.0588     0.1811 </r>
       <r>    -7.8450     0.6358     0.2319 </r>
       <r>    -7.7651     0.5114     0.2727 </r>
       <r>    -7.6853     0.4164     0.3059 </r>
       <r>    -7.6055     0.3350     0.3327 </r>
       <r>    -7.5257     0.4032     0.3648 </r>
       <r>    -7.4459     0.4051     0.3972 </r>
       <r>    -7.3661     0.0648     0.4024 </r>
       <r>    -7.2862     0.5055     0.4427 </r>
       <r>    -7.2064     0.2963     0.4663 </r>
       <r>    -7.1266     0.1091     0.4751 </r>
       <r>    -7.0468     0.3034     0.4993 </r>
       <r>    -6.9670     0.2904     0.5224 </r>
       <r>    -6.8872     0.2978     0.5462 </r>
       <r>    -6.8073     0.2463     0.5659 </r>
       <r>    -6.7275     0.0145     0.5670 </r>
       <r>    -6.6477     0.3163     0.5923 </r>
       <r>    -6.5679     0.4937     0.6317 </r>
       <r>    -6.4881     0.0215     0.6334 </r>
       <r>    -6.4083     0.1079     0.6420 </r>
       <r>    -6.3284     0.3049     0.6663 </r>
       <r>    -6.2486     0.3019     0.6904 </r>
       <r>    -6.1688     0.5353     0.7332 </r>
       <r>    -6.0890     1.8667     0.8822 </r>
       <r>    -6.0092     1.0299     0.9644 </r>
       <r>    -5.9294     0.7808     1.0267 </r>
       <r>    -5.8496     1.1292     1.1168 </r>
       <r>    -5.7697     0.7191     1.1742 </r>
       <r>    -5.6899     0.4468     1.2099 </r>
       <r>    -5.6101     0.7031     1.2660 </r>
       <r>    -5.5303     0.8760     1.3359 </r>
       <r>    -5.4505     0.6263     1.3859 </r>
       <r>    -5.3707     0.7156     1.4430 </r>
       <r>    -5.2908     0.7619     1.5038 </r>
       <r>    -5.2110     0.9722     1.5814 </r>
       <r>    -5.1312     1.5176     1.7025 </r>
       <r>    -5.0514     3.8800     2.0122 </r>
       <r>    -4.9716     2.3454     2.1994 </r>
       <r>    -4.8918     1.1051     2.2876 </r>
       <r>    -4.8119     1.4434     2.4029 </r>
       <r>    -4.7321     3.2485     2.6621 </r>
       <r>    -4.6523     3.6250     2.9515 </r>
       <r>    -4.5725     4.5806     3.3171 </r>
       <r>    -4.4927     5.2380     3.7352 </r>
       <r>    -4.4129     5.8321     4.2006 </r>
       <r>    -4.3330     6.1493     4.6915 </r>
       <r>    -4.2532     3.8059     4.9952 </r>
       <r>    -4.1734     1.6245     5.1249 </r>
       <r>    -4.0936     2.7056     5.3409 </r>
       <r>    -4.0138     3.0332     5.5830 </r>
       <r>    -3.9340     2.8234     5.8083 </r>
       <r>    -3.8541     2.3460     5.9956 </r>
       <r>    -3.7743     1.8476     6.1430 </r>
       <r>    -3.6945     1.6230     6.2726 </r>
       <r>    -3.6147     2.1083     6.4408 </r>
       <r>    -3.5349     3.5786     6.7265 </r>
       <r>    -3.4551     7.3822     7.3157 </r>
       <r>    -3.3752     8.4203     7.9878 </r>
       <r>    -3.2954     6.5235     8.5084 </r>
       <r>    -3.2156     7.5422     9.1104 </r>
       <r>    -3.1358     6.0260     9.5914 </r>
       <r>    -3.0560     2.7545     9.8113 </r>
       <r>    -2.9762     1.9461     9.9666 </r>
       <r>    -2.8964     3.0110    10.2069 </r>
       <r>    -2.8165     3.2543    10.4667 </r>
       <r>    -2.7367     5.7509    10.9257 </r>
       <r>    -2.6569     3.3181    11.1905 </r>
       <r>    -2.5771     3.3554    11.4583 </r>
       <r>    -2.4973     3.4693    11.7352 </r>
       <r>    -2.4175     4.9637    12.1314 </r>
       <r>    -2.3376    10.1271    12.9397 </r>
       <r>    -2.2578     8.6971    13.6339 </r>
       <r>    -2.1780     4.8235    14.0189 </r>
       <r>    -2.0982     4.7574    14.3986 </r>
       <r>    -2.0184     4.4646    14.7549 </r>
       <r>    -1.9386     4.1107    15.0830 </r>
       <r>    -1.8587     4.7047    15.4586 </r>
       <r>    -1.7789     5.8717    15.9272 </r>
       <r>    -1.6991     8.5685    16.6111 </r>
       <r>    -1.6193     7.8007    17.2337 </r>
       <r>    -1.5395     7.8520    17.8605 </r>
       <r>    -1.4597     7.4332    18.4538 </r>
       <r>    -1.3798     4.3894    18.8041 </r>
       <r>    -1.3000     4.1984    19.1392 </r>
       <r>    -1.2202     3.8631    19.4475 </r>
       <r>    -1.1404     3.7088    19.7436 </r>
       <r>    -1.0606     2.6327    19.9537 </r>
       <r>    -0.9808     3.5872    20.2400 </r>
       <r>    -0.9009     4.1966    20.5750 </r>
       <r>    -0.8211     5.1814    20.9885 </r>
       <r>    -0.7413     4.5332    21.3503 </r>
       <r>    -0.6615     5.6033    21.7976 </r>
       <r>    -0.5817     5.7584    22.2572 </r>
       <r>    -0.5019     6.7993    22.7999 </r>
       <r>    -0.4220     6.8901    23.3498 </r>
       <r>    -0.3422     4.0163    23.6704 </r>
       <r>    -0.2624     4.8783    24.0598 </r>
       <r>    -0.1826     5.5184    24.5002 </r>
       <r>    -0.1028     6.6148    25.0282 </r>
       <r>    -0.0230     6.0824    25.5137 </r>
       <r>     0.0568     6.8819    26.0630 </r>
       <r>     0.1367     5.1396    26.4732 </r>
       <r>     0.2165     3.4756    26.7506 </r>
       <r>     0.2963     4.3063    27.0943 </r>
       <r>     0.3761     5.8675    27.5626 </r>
       <r>     0.4559     7.3312    28.1478 </r>
       <r>     0.5357     6.2451    28.6462 </r>
       <r>     0.6156     6.5699    29.1706 </r>
       <r>     0.6954     5.9126    29.6425 </r>
       <r>     0.7752     4.8995    30.0336 </r>
       <r>     0.8550     6.5538    30.5567 </r>
       <r>     0.9348     4.7193    30.9334 </r>
       <r>     1.0146     2.9593    31.1696 </r>
       <r>     1.0945     3.9707    31.4865 </r>
       <r>     1.1743     3.4176    31.7593 </r>
       <r>     1.2541     3.1883    32.0138 </r>
       <r>     1.3339     3.8213    32.3188 </r>
       <r>     1.4137     4.4156    32.6712 </r>
       <r>     1.4935     5.3168    33.0956 </r>
       <r>     1.5734     4.8014    33.4788 </r>
       <r>     1.6532     3.8946    33.7897 </r>
       <r>     1.7330     4.3215    34.1346 </r>
       <r>     1.8128     4.9904    34.5329 </r>
       <r>     1.8926     6.9706    35.0893 </r>
       <r>     1.9724     5.7136    35.5453 </r>
       <r>     2.0523     7.4490    36.1398 </r>
       <r>     2.1321     9.5316    36.9006 </r>
       <r>     2.2119     7.6706    37.5129 </r>
       <r>     2.2917     8.1075    38.1600 </r>
       <r>     2.3715     5.7689    38.6204 </r>
       <r>     2.4513     8.6015    39.3070 </r>
       <r>     2.5312     9.5143    40.0664 </r>
       <r>     2.6110     8.2424    40.7242 </r>
       <r>     2.6908     7.7549    41.3432 </r>
       <r>     2.7706     5.7558    41.8026 </r>
       <r>     2.8504     4.1525    42.1341 </r>
       <r>     2.9302     3.1551    42.3859 </r>
       <r>     3.0101     3.6933    42.6807 </r>
       <r>     3.0899     4.2624    43.0209 </r>
       <r>     3.1697     5.0523    43.4241 </r>
       <r>     3.2495     7.2028    43.9990 </r>
       <r>     3.3293     6.8223    44.5436 </r>
       <r>     3.4091     6.8193    45.0879 </r>
       <r>     3.4889     5.9840    45.5655 </r>
       <r>     3.5688     4.7473    45.9444 </r>
       <r>     3.6486     5.4036    46.3757 </r>
       <r>     3.7284     6.9756    46.9325 </r>
       <r>     3.8082     6.3221    47.4371 </r>
       <r>     3.8880     8.0629    48.0806 </r>
       <r>     3.9678     7.5831    48.6859 </r>
       <r>     4.0477     8.8447    49.3918 </r>
       <r>     4.1275     9.0791    50.1165 </r>
       <r>     4.2073     8.3766    50.7851 </r>
       <r>     4.2871     7.5748    51.3897 </r>
       <r>     4.3669     5.3558    51.8171 </r>
       <r>     4.4467     7.1769    52.3900 </r>
       <r>     4.5266     5.3334    52.8157 </r>
       <r>     4.6064     5.0953    53.2223 </r>
       <r>     4.6862     6.6921    53.7565 </r>
       <r>     4.7660     3.4828    54.0345 </r>
       <r>     4.8458     2.8790    54.2643 </r>
       <r>     4.9256     3.8327    54.5702 </r>
       <r>     5.0055     5.1066    54.9778 </r>
       <r>     5.0853     4.9826    55.3755 </r>
       <r>     5.1651     4.0620    55.6997 </r>
       <r>     5.2449     3.1535    55.9514 </r>
       <r>     5.3247     2.5391    56.1540 </r>
       <r>     5.4045     4.3387    56.5003 </r>
       <r>     5.4844     5.0483    56.9033 </r>
       <r>     5.5642     3.8703    57.2122 </r>
       <r>     5.6440     2.9681    57.4491 </r>
       <r>     5.7238     2.3440    57.6362 </r>
       <r>     5.8036     3.1202    57.8852 </r>
       <r>     5.8834     3.1500    58.1366 </r>
       <r>     5.9633     4.7154    58.5130 </r>
       <r>     6.0431     3.8563    58.8208 </r>
       <r>     6.1229     3.1128    59.0692 </r>
       <r>     6.2027     2.8145    59.2939 </r>
       <r>     6.2825     1.5746    59.4196 </r>
       <r>     6.3623     2.1788    59.5935 </r>
       <r>     6.4421     2.5384    59.7961 </r>
       <r>     6.5220     1.0218    59.8776 </r>
       <r>     6.6018     2.1960    60.0529 </r>
       <r>     6.6816     1.8936    60.2040 </r>
       <r>     6.7614     0.7612    60.2648 </r>
       <r>     6.8412     2.1647    60.4376 </r>
       <r>     6.9210     2.3712    60.6268 </r>
       <r>     7.0009     2.7513    60.8464 </r>
       <r>     7.0807     2.4821    61.0445 </r>
       <r>     7.1605     2.6906    61.2593 </r>
       <r>     7.2403     2.9616    61.4957 </r>
       <r>     7.3201     3.9784    61.8132 </r>
       <r>     7.3999     3.1335    62.0633 </r>
       <r>     7.4798     1.7373    62.2020 </r>
       <r>     7.5596     2.5419    62.4049 </r>
       <r>     7.6394     1.8112    62.5494 </r>
       <r>     7.7192     3.0070    62.7895 </r>
       <r>     7.7990     3.3491    63.0568 </r>
       <r>     7.8788     3.2644    63.3173 </r>
       <r>     7.9587     1.9179    63.4704 </r>
       <r>     8.0385     2.9562    63.7064 </r>
       <r>     8.1183     3.5352    63.9885 </r>
       <r>     8.1981     2.5067    64.1886 </r>
       <r>     8.2779     2.1246    64.3582 </r>
       <r>     8.3577     2.4869    64.5567 </r>
       <r>     8.4376     3.0505    64.8001 </r>
       <r>     8.5174     3.7806    65.1019 </r>
       <r>     8.5972     5.0506    65.5050 </r>
       <r>     8.6770     5.0353    65.9069 </r>
       <r>     8.7568     4.7407    66.2853 </r>
       <r>     8.8366     5.8835    66.7549 </r>
       <r>     8.9165     4.2467    67.0939 </r>
       <r>     8.9963     1.8488    67.2414 </r>
       <r>     9.0761     2.3788    67.4313 </r>
       <r>     9.1559     3.4904    67.7099 </r>
       <r>     9.2357     2.7122    67.9264 </r>
       <r>     9.3155     2.3635    68.1150 </r>
       <r>     9.3953     2.3425    68.3020 </r>
       <r>     9.4752     1.9960    68.4613 </r>
       <r>     9.5550     2.8732    68.6906 </r>
       <r>     9.6348     2.5348    68.8929 </r>
       <r>     9.7146     3.1704    69.1460 </r>
       <r>     9.7944     5.4422    69.5804 </r>
       <r>     9.8742     4.0952    69.9072 </r>
       <r>     9.9541     2.8087    70.1314 </r>
       <r>    10.0339     2.3078    70.3156 </r>
       <r>    10.1137     2.2867    70.4981 </r>
       <r>    10.1935     3.0625    70.7426 </r>
       <r>    10.2733     5.6314    71.1920 </r>
       <r>    10.3531     5.0911    71.5984 </r>
       <r>    10.4330     4.2619    71.9386 </r>
       <r>    10.5128     5.1887    72.3527 </r>
       <r>    10.5926     3.8887    72.6631 </r>
       <r>    10.6724     3.1386    72.9136 </r>
       <r>    10.7522     6.0850    73.3993 </r>
       <r>    10.8320     7.1000    73.9660 </r>
       <r>    10.9119     5.0635    74.3701 </r>
       <r>    10.9917     2.9078    74.6022 </r>
       <r>    11.0715     3.4719    74.8793 </r>
       <r>    11.1513     3.0599    75.1236 </r>
       <r>    11.2311     3.9918    75.4422 </r>
       <r>    11.3109     5.1604    75.8540 </r>
       <r>    11.3908     2.5358    76.0564 </r>
       <r>    11.4706     2.6970    76.2717 </r>
       <r>    11.5504     3.2027    76.5273 </r>
       <r>    11.6302     3.2475    76.7865 </r>
       <r>    11.7100     2.3614    76.9750 </r>
       <r>    11.7898     1.9535    77.1309 </r>
       <r>    11.8697     1.4745    77.2486 </r>
       <r>    11.9495     1.1576    77.3410 </r>
       <r>    12.0293     1.4029    77.4530 </r>
       <r>    12.1091     1.7352    77.5915 </r>
       <r>    12.1889     1.5376    77.7142 </r>
       <r>    12.2687     1.2571    77.8145 </r>
       <r>    12.3486     1.0647    77.8995 </r>
       <r>    12.4284     3.0684    78.1444 </r>
       <r>    12.5082     2.6050    78.3524 </r>
       <r>    12.5880     2.1936    78.5274 </r>
       <r>    12.6678     2.9522    78.7631 </r>
       <r>    12.7476     2.6109    78.9715 </r>
       <r>    12.8274     1.1788    79.0655 </r>
       <r>    12.9073     1.3157    79.1706 </r>
       <r>    12.9871     1.5347    79.2931 </r>
       <r>    13.0669     1.0442    79.3764 </r>
       <r>    13.1467     0.6242    79.4262 </r>
       <r>    13.2265     0.3738    79.4561 </r>
       <r>    13.3063     1.0685    79.5413 </r>
       <r>    13.3862     1.1647    79.6343 </r>
       <r>    13.4660     0.9776    79.7123 </r>
       <r>    13.5458     1.6509    79.8441 </r>
       <r>    13.6256     1.2027    79.9401 </r>
       <r>    13.7054     0.4037    79.9723 </r>
       <r>    13.7852     0.3153    79.9975 </r>
       <r>    13.8651     0.0315    80.0000 </r>
       <r>    13.9449     0.0000    80.0000 </r>
       <r>    14.0247     0.0000    80.0000 </r>
       <r>    14.1045     0.0000    80.0000 </r>
       <r>    14.1843     0.0000    80.0000 </r>
       <r>    14.2641     0.0000    80.0000 </r>
       <r>    14.3440     0.0000    80.0000 </r>
       <r>    14.4238     0.0000    80.0000 </r>
       <r>    14.5036     0.0000    80.0000 </r>
       <r>    14.5834     0.0000    80.0000 </r>
       <r>    14.6632     0.0000    80.0000 </r>
       <r>    14.7430     0.0000    80.0000 </r>
       <r>    14.8229     0.0000    80.0000 </r>
      </set>
     </set>
    </array>
   </total>
  </dos>
 </calculation>
 <structure name="finalpos" >
  <crystal>
   <varray name="basis" >
    <v>       3.16000000       0.00000000       0.00000000 </v>
    <v>       0.00000000       3.16000000       0.00000000 </v>
    <v>       0.00000000       0.00000000      18.96000000 </v>
   </varray>
   <i name="volume">    189.32697600 </i>
   <varray name="rec_basis" >
    <v>       0.31645570       0.00000000       0.00000000 </v>
    <v>       0.00000000       0.31645570       0.00000000 </v>
    <v>       0.00000000       0.00000000       0.05274262 </v>
   </varray>
  </crystal>
  <varray name="positions" >
   <v>       0.00000000       0.00000000       0.00000000 </v>
   <v>       0.50000000       0.50000000       0.08333333 </v>
   <v>       0.00000000       0.00000000       0.16666667 </v>
   <v>       0.50000000       0.50000000       0.25000000 </v>
   <v>       0.00000000       0.00000000       0.33333333 </v>
  </varray>
 </structure>
</modeling>
