unknown system                          
           1
     3.160000    0.000000    0.000000
     0.000000    3.160000    0.000000
     0.000000    0.000000   18.960000
   W 
   5
Direct configuration=     1
   0.00000000  0.00000000  0.00000000
   0.50000000  0.50000000  0.08333333
   0.00000000  0.00000000  0.16666667
   0.50000000  0.50000000  0.25000000
   0.00000000  0.00000000  0.33333333
