   2   2   0   0
  0.1798157E+02  0.3300800E-09  0.3300800E-09  0.3300800E-09  0.5000000E-15
  1.000000000000000E-004
  CAR 
 Nb gaussian                             
     49.75124474    -29.65975335  301      4.83944033      1.00000000
    -29.660  0.0000E+00  0.0000E+00
    -29.395  0.0000E+00  0.0000E+00
    -29.130  0.0000E+00  0.0000E+00
    -28.866  0.0000E+00  0.0000E+00
    -28.601  0.0000E+00  0.0000E+00
    -28.336  0.0000E+00  0.0000E+00
    -28.072  0.0000E+00  0.0000E+00
    -27.807  0.0000E+00  0.0000E+00
    -27.542  0.0000E+00  0.0000E+00
    -27.277  0.0000E+00  0.0000E+00
    -27.013  0.1417E-11  0.3751E-12
    -26.748  0.1420E-06  0.3759E-07
    -26.483  0.5717E-03  0.1514E-03
    -26.219  0.1222E+00  0.3250E-01
    -25.954  0.2347E+01  0.6536E+00
    -25.689  0.7100E+01  0.2533E+01
    -25.425  0.6994E+01  0.4384E+01
    -25.160  0.8375E+01  0.6601E+01
    -24.895  0.1030E+02  0.9329E+01
    -24.630  0.8520E+01  0.1158E+02
    -24.366  0.1546E+01  0.1199E+02
    -24.101  0.2542E-01  0.1200E+02
    -23.836  0.2239E-04  0.1200E+02
    -23.572  0.7990E-09  0.1200E+02
    -23.307  0.1033E-14  0.1200E+02
    -23.042  0.0000E+00  0.1200E+02
    -22.777  0.0000E+00  0.1200E+02
    -22.513  0.0000E+00  0.1200E+02
    -22.248  0.0000E+00  0.1200E+02
    -21.983  0.0000E+00  0.1200E+02
    -21.719  0.0000E+00  0.1200E+02
    -21.454  0.0000E+00  0.1200E+02
    -21.189  0.0000E+00  0.1200E+02
    -20.925  0.0000E+00  0.1200E+02
    -20.660  0.0000E+00  0.1200E+02
    -20.395  0.0000E+00  0.1200E+02
    -20.130  0.0000E+00  0.1200E+02
    -19.866  0.0000E+00  0.1200E+02
    -19.601  0.0000E+00  0.1200E+02
    -19.336  0.0000E+00  0.1200E+02
    -19.072  0.0000E+00  0.1200E+02
    -18.807  0.0000E+00  0.1200E+02
    -18.542  0.0000E+00  0.1200E+02
    -18.278  0.0000E+00  0.1200E+02
    -18.013  0.0000E+00  0.1200E+02
    -17.748  0.0000E+00  0.1200E+02
    -17.483  0.0000E+00  0.1200E+02
    -17.219  0.0000E+00  0.1200E+02
    -16.954  0.0000E+00  0.1200E+02
    -16.689  0.0000E+00  0.1200E+02
    -16.425  0.0000E+00  0.1200E+02
    -16.160  0.0000E+00  0.1200E+02
    -15.895  0.0000E+00  0.1200E+02
    -15.630  0.0000E+00  0.1200E+02
    -15.366  0.0000E+00  0.1200E+02
    -15.101  0.0000E+00  0.1200E+02
    -14.836  0.0000E+00  0.1200E+02
    -14.572  0.0000E+00  0.1200E+02
    -14.307  0.0000E+00  0.1200E+02
    -14.042  0.0000E+00  0.1200E+02
    -13.778  0.0000E+00  0.1200E+02
    -13.513  0.0000E+00  0.1200E+02
    -13.248  0.0000E+00  0.1200E+02
    -12.983  0.0000E+00  0.1200E+02
    -12.719  0.0000E+00  0.1200E+02
    -12.454  0.0000E+00  0.1200E+02
    -12.189  0.0000E+00  0.1200E+02
    -11.925  0.0000E+00  0.1200E+02
    -11.660  0.0000E+00  0.1200E+02
    -11.395  0.0000E+00  0.1200E+02
    -11.131  0.0000E+00  0.1200E+02
    -10.866  0.0000E+00  0.1200E+02
    -10.601  0.0000E+00  0.1200E+02
    -10.336  0.0000E+00  0.1200E+02
    -10.072  0.0000E+00  0.1200E+02
     -9.807  0.0000E+00  0.1200E+02
     -9.542  0.0000E+00  0.1200E+02
     -9.278  0.0000E+00  0.1200E+02
     -9.013  0.0000E+00  0.1200E+02
     -8.748  0.0000E+00  0.1200E+02
     -8.483  0.0000E+00  0.1200E+02
     -8.219  0.0000E+00  0.1200E+02
     -7.954  0.0000E+00  0.1200E+02
     -7.689  0.0000E+00  0.1200E+02
     -7.425  0.0000E+00  0.1200E+02
     -7.160  0.0000E+00  0.1200E+02
     -6.895  0.0000E+00  0.1200E+02
     -6.631  0.0000E+00  0.1200E+02
     -6.366  0.0000E+00  0.1200E+02
     -6.101  0.0000E+00  0.1200E+02
     -5.836  0.0000E+00  0.1200E+02
     -5.572  0.0000E+00  0.1200E+02
     -5.307  0.0000E+00  0.1200E+02
     -5.042  0.0000E+00  0.1200E+02
     -4.778  0.0000E+00  0.1200E+02
     -4.513  0.0000E+00  0.1200E+02
     -4.248  0.0000E+00  0.1200E+02
     -3.984  0.0000E+00  0.1200E+02
     -3.719  0.0000E+00  0.1200E+02
     -3.454  0.0000E+00  0.1200E+02
     -3.189  0.0000E+00  0.1200E+02
     -2.925  0.0000E+00  0.1200E+02
     -2.660  0.0000E+00  0.1200E+02
     -2.395  0.0000E+00  0.1200E+02
     -2.131  0.0000E+00  0.1200E+02
     -1.866  0.1202E-11  0.1200E+02
     -1.601  0.6678E-07  0.1200E+02
     -1.336  0.1274E-03  0.1200E+02
     -1.072  0.9625E-02  0.1200E+02
     -0.807  0.4393E-01  0.1201E+02
     -0.542  0.9244E-01  0.1204E+02
     -0.278  0.1292E+00  0.1207E+02
     -0.013  0.1407E+00  0.1211E+02
      0.252  0.1870E+00  0.1216E+02
      0.516  0.2891E+00  0.1224E+02
      0.781  0.2546E+00  0.1230E+02
      1.046  0.3917E+00  0.1241E+02
      1.311  0.1267E+01  0.1274E+02
      1.575  0.1784E+01  0.1322E+02
      1.840  0.2176E+01  0.1379E+02
      2.105  0.2497E+01  0.1445E+02
      2.369  0.2672E+01  0.1516E+02
      2.634  0.2763E+01  0.1589E+02
      2.899  0.1369E+01  0.1625E+02
      3.163  0.1708E+01  0.1671E+02
      3.428  0.3424E+01  0.1761E+02
      3.693  0.3804E+01  0.1862E+02
      3.958  0.2502E+01  0.1928E+02
      4.222  0.2399E+01  0.1992E+02
      4.487  0.2862E+01  0.2067E+02
      4.752  0.3811E+01  0.2168E+02
      5.016  0.2891E+01  0.2245E+02
      5.281  0.1510E+01  0.2285E+02
      5.546  0.1499E+01  0.2324E+02
      5.810  0.1007E+01  0.2351E+02
      6.075  0.7944E+00  0.2372E+02
      6.340  0.9578E+00  0.2397E+02
      6.605  0.1350E+01  0.2433E+02
      6.869  0.1934E+01  0.2484E+02
      7.134  0.1544E+01  0.2525E+02
      7.399  0.2056E+01  0.2580E+02
      7.663  0.2969E+01  0.2658E+02
      7.928  0.2205E+01  0.2717E+02
      8.193  0.2812E+01  0.2791E+02
      8.458  0.3059E+01  0.2872E+02
      8.722  0.3569E+01  0.2967E+02
      8.987  0.4451E+01  0.3084E+02
      9.252  0.2619E+01  0.3154E+02
      9.516  0.1946E+01  0.3205E+02
      9.781  0.1942E+01  0.3257E+02
     10.046  0.8717E+00  0.3280E+02
     10.310  0.9764E+00  0.3305E+02
     10.575  0.1483E+01  0.3345E+02
     10.840  0.9664E+00  0.3370E+02
     11.105  0.4372E+00  0.3382E+02
     11.369  0.6886E+00  0.3400E+02
     11.634  0.7363E+00  0.3420E+02
     11.899  0.6737E+00  0.3437E+02
     12.163  0.7147E+00  0.3456E+02
     12.428  0.5642E+00  0.3471E+02
     12.693  0.5231E+00  0.3485E+02
     12.957  0.4764E+00  0.3498E+02
     13.222  0.5541E+00  0.3512E+02
     13.487  0.6879E+00  0.3531E+02
     13.752  0.5399E+00  0.3545E+02
     14.016  0.3722E+00  0.3555E+02
     14.281  0.2696E+00  0.3562E+02
     14.546  0.4644E+00  0.3574E+02
     14.810  0.6227E+00  0.3591E+02
     15.075  0.3184E+00  0.3599E+02
     15.340  0.3749E+00  0.3609E+02
     15.605  0.6669E+00  0.3627E+02
     15.869  0.8055E+00  0.3648E+02
     16.134  0.1147E+01  0.3678E+02
     16.399  0.8995E+00  0.3702E+02
     16.663  0.1268E+01  0.3736E+02
     16.928  0.1204E+01  0.3768E+02
     17.193  0.8728E+00  0.3791E+02
     17.457  0.1105E+01  0.3820E+02
     17.722  0.1456E+01  0.3859E+02
     17.987  0.1458E+01  0.3897E+02
     18.252  0.1583E+01  0.3939E+02
     18.516  0.1728E+01  0.3985E+02
     18.781  0.2037E+01  0.4039E+02
     19.046  0.1602E+01  0.4081E+02
     19.310  0.1082E+01  0.4110E+02
     19.575  0.1345E+01  0.4145E+02
     19.840  0.1081E+01  0.4174E+02
     20.104  0.1323E+01  0.4209E+02
     20.369  0.2074E+01  0.4264E+02
     20.634  0.1513E+01  0.4304E+02
     20.899  0.8753E+00  0.4327E+02
     21.163  0.1015E+01  0.4354E+02
     21.428  0.1610E+01  0.4397E+02
     21.693  0.1976E+01  0.4449E+02
     21.957  0.1890E+01  0.4499E+02
     22.222  0.1710E+01  0.4544E+02
     22.487  0.1361E+01  0.4580E+02
     22.752  0.1288E+01  0.4614E+02
     23.016  0.1446E+01  0.4653E+02
     23.281  0.1064E+01  0.4681E+02
     23.546  0.6424E+00  0.4698E+02
     23.810  0.6007E+00  0.4714E+02
     24.075  0.1154E+01  0.4744E+02
     24.340  0.1529E+01  0.4785E+02
     24.604  0.1410E+01  0.4822E+02
     24.869  0.1461E+01  0.4861E+02
     25.134  0.1625E+01  0.4904E+02
     25.399  0.2022E+01  0.4957E+02
     25.663  0.1380E+01  0.4994E+02
     25.928  0.9154E+00  0.5018E+02
     26.193  0.1125E+01  0.5048E+02
     26.457  0.8608E+00  0.5071E+02
     26.722  0.1579E+01  0.5112E+02
     26.987  0.1392E+01  0.5149E+02
     27.251  0.6380E+00  0.5166E+02
     27.516  0.5596E+00  0.5181E+02
     27.781  0.1007E+01  0.5207E+02
     28.046  0.1457E+01  0.5246E+02
     28.310  0.1320E+01  0.5281E+02
     28.575  0.1750E+01  0.5327E+02
     28.840  0.1791E+01  0.5375E+02
     29.104  0.1187E+01  0.5406E+02
     29.369  0.1259E+01  0.5439E+02
     29.634  0.1345E+01  0.5475E+02
     29.898  0.1244E+01  0.5508E+02
     30.163  0.1427E+01  0.5546E+02
     30.428  0.1749E+01  0.5592E+02
     30.693  0.1538E+01  0.5633E+02
     30.957  0.1356E+01  0.5669E+02
     31.222  0.1156E+01  0.5699E+02
     31.487  0.7771E+00  0.5720E+02
     31.751  0.1274E+01  0.5754E+02
     32.016  0.2269E+01  0.5814E+02
     32.281  0.1512E+01  0.5854E+02
     32.546  0.1445E+01  0.5892E+02
     32.810  0.2068E+01  0.5947E+02
     33.075  0.1583E+01  0.5988E+02
     33.340  0.1598E+01  0.6031E+02
     33.604  0.1649E+01  0.6074E+02
     33.869  0.2070E+01  0.6129E+02
     34.134  0.1371E+01  0.6166E+02
     34.398  0.1563E+01  0.6207E+02
     34.663  0.1676E+01  0.6251E+02
     34.928  0.1681E+01  0.6296E+02
     35.193  0.1972E+01  0.6348E+02
     35.457  0.1599E+01  0.6390E+02
     35.722  0.1003E+01  0.6417E+02
     35.987  0.7547E+00  0.6437E+02
     36.251  0.1006E+01  0.6463E+02
     36.516  0.9293E+00  0.6488E+02
     36.781  0.1290E+01  0.6522E+02
     37.045  0.1807E+01  0.6570E+02
     37.310  0.2131E+01  0.6626E+02
     37.575  0.2435E+01  0.6691E+02
     37.840  0.2377E+01  0.6754E+02
     38.104  0.1422E+01  0.6791E+02
     38.369  0.1669E+01  0.6836E+02
     38.634  0.1661E+01  0.6880E+02
     38.898  0.9516E+00  0.6905E+02
     39.163  0.7936E+00  0.6926E+02
     39.428  0.1823E+01  0.6974E+02
     39.693  0.2029E+01  0.7028E+02
     39.957  0.1572E+01  0.7069E+02
     40.222  0.1654E+01  0.7113E+02
     40.487  0.2324E+01  0.7175E+02
     40.751  0.2178E+01  0.7232E+02
     41.016  0.1544E+01  0.7273E+02
     41.281  0.1326E+01  0.7308E+02
     41.545  0.1527E+01  0.7349E+02
     41.810  0.2952E+01  0.7427E+02
     42.075  0.5163E+01  0.7564E+02
     42.340  0.6513E+01  0.7736E+02
     42.604  0.3841E+01  0.7838E+02
     42.869  0.2004E+01  0.7891E+02
     43.134  0.1402E+01  0.7928E+02
     43.398  0.8414E+00  0.7950E+02
     43.663  0.5102E+00  0.7964E+02
     43.928  0.4228E+00  0.7975E+02
     44.192  0.3376E+00  0.7984E+02
     44.457  0.2401E+00  0.7990E+02
     44.722  0.1088E+00  0.7993E+02
     44.987  0.1336E+00  0.7996E+02
     45.251  0.1355E-01  0.7997E+02
     45.516  0.6828E-04  0.7997E+02
     45.781  0.6462E-03  0.7997E+02
     46.045  0.2934E-01  0.7998E+02
     46.310  0.7678E-01  0.8000E+02
     46.575  0.1399E-01  0.8000E+02
     46.840  0.1325E-03  0.8000E+02
     47.104  0.4855E-07  0.8000E+02
     47.369  0.6052E-12  0.8000E+02
     47.634  0.0000E+00  0.8000E+02
     47.898  0.0000E+00  0.8000E+02
     48.163  0.0000E+00  0.8000E+02
     48.428  0.0000E+00  0.8000E+02
     48.692  0.0000E+00  0.8000E+02
     48.957  0.0000E+00  0.8000E+02
     49.222  0.0000E+00  0.8000E+02
     49.487  0.0000E+00  0.8000E+02
     49.751  0.0000E+00  0.8000E+02
