   1   1   0   0
  0.1798157E+02  0.2858577E-09  0.2858577E-09  0.2858577E-09  0.5000000E-15
  1.000000000000000E-004
  CAR 
 Nb                                      
    102.44085936    -32.18057070  301      4.83583551      1.00000000
    -32.181  0.0000E+00  0.0000E+00
    -31.732  0.0000E+00  0.0000E+00
    -31.283  0.0000E+00  0.0000E+00
    -30.834  0.0000E+00  0.0000E+00
    -30.386  0.0000E+00  0.0000E+00
    -29.937  0.0000E+00  0.0000E+00
    -29.488  0.0000E+00  0.0000E+00
    -29.039  0.0000E+00  0.0000E+00
    -28.591  0.0000E+00  0.0000E+00
    -28.142  0.0000E+00  0.0000E+00
    -27.693  0.0000E+00  0.0000E+00
    -27.244  0.0000E+00  0.0000E+00
    -26.796  0.0000E+00  0.0000E+00
    -26.347  0.0000E+00  0.0000E+00
    -25.898  0.3479E+01  0.3180E+00
    -25.449  0.3254E+01  0.2069E+01
    -25.001  0.4458E+01  0.4085E+01
    -24.552  0.0000E+00  0.6000E+01
    -24.103  0.0000E+00  0.6000E+01
    -23.655  0.0000E+00  0.6000E+01
    -23.206  0.0000E+00  0.6000E+01
    -22.757  0.0000E+00  0.6000E+01
    -22.308  0.0000E+00  0.6000E+01
    -21.860  0.0000E+00  0.6000E+01
    -21.411  0.0000E+00  0.6000E+01
    -20.962  0.0000E+00  0.6000E+01
    -20.513  0.0000E+00  0.6000E+01
    -20.065  0.0000E+00  0.6000E+01
    -19.616  0.0000E+00  0.6000E+01
    -19.167  0.0000E+00  0.6000E+01
    -18.718  0.0000E+00  0.6000E+01
    -18.270  0.0000E+00  0.6000E+01
    -17.821  0.0000E+00  0.6000E+01
    -17.372  0.0000E+00  0.6000E+01
    -16.923  0.0000E+00  0.6000E+01
    -16.475  0.0000E+00  0.6000E+01
    -16.026  0.0000E+00  0.6000E+01
    -15.577  0.0000E+00  0.6000E+01
    -15.129  0.0000E+00  0.6000E+01
    -14.680  0.0000E+00  0.6000E+01
    -14.231  0.0000E+00  0.6000E+01
    -13.782  0.0000E+00  0.6000E+01
    -13.334  0.0000E+00  0.6000E+01
    -12.885  0.0000E+00  0.6000E+01
    -12.436  0.0000E+00  0.6000E+01
    -11.987  0.0000E+00  0.6000E+01
    -11.539  0.0000E+00  0.6000E+01
    -11.090  0.0000E+00  0.6000E+01
    -10.641  0.0000E+00  0.6000E+01
    -10.192  0.0000E+00  0.6000E+01
     -9.744  0.0000E+00  0.6000E+01
     -9.295  0.0000E+00  0.6000E+01
     -8.846  0.0000E+00  0.6000E+01
     -8.397  0.0000E+00  0.6000E+01
     -7.949  0.0000E+00  0.6000E+01
     -7.500  0.0000E+00  0.6000E+01
     -7.051  0.0000E+00  0.6000E+01
     -6.602  0.0000E+00  0.6000E+01
     -6.154  0.0000E+00  0.6000E+01
     -5.705  0.0000E+00  0.6000E+01
     -5.256  0.0000E+00  0.6000E+01
     -4.808  0.0000E+00  0.6000E+01
     -4.359  0.0000E+00  0.6000E+01
     -3.910  0.0000E+00  0.6000E+01
     -3.461  0.0000E+00  0.6000E+01
     -3.013  0.0000E+00  0.6000E+01
     -2.564  0.0000E+00  0.6000E+01
     -2.115  0.0000E+00  0.6000E+01
     -1.666  0.0000E+00  0.6000E+01
     -1.218  0.0000E+00  0.6000E+01
     -0.769  0.3721E-01  0.6006E+01
     -0.320  0.6652E-01  0.6028E+01
      0.129  0.9753E-01  0.6064E+01
      0.577  0.1354E+00  0.6116E+01
      1.026  0.2128E+00  0.6192E+01
      1.475  0.1004E+01  0.6483E+01
      1.924  0.1227E+01  0.6974E+01
      2.372  0.1494E+01  0.7619E+01
      2.821  0.5436E+00  0.8110E+01
      3.270  0.1705E+01  0.8433E+01
      3.718  0.1472E+01  0.9373E+01
      4.167  0.9937E+00  0.9875E+01
      4.616  0.2478E+01  0.1052E+02
      5.065  0.1125E+01  0.1132E+02
      5.513  0.4836E+00  0.1161E+02
      5.962  0.4655E+00  0.1182E+02
      6.411  0.5410E+00  0.1203E+02
      6.860  0.9434E+00  0.1236E+02
      7.308  0.1108E+01  0.1280E+02
      7.757  0.1341E+01  0.1339E+02
      8.206  0.1415E+01  0.1403E+02
      8.655  0.1694E+01  0.1465E+02
      9.103  0.1274E+01  0.1563E+02
      9.552  0.7700E+00  0.1607E+02
     10.001  0.6744E+00  0.1639E+02
     10.450  0.4779E+00  0.1667E+02
     10.898  0.3105E+00  0.1684E+02
     11.347  0.3768E+00  0.1700E+02
     11.796  0.3273E+00  0.1715E+02
     12.245  0.3088E+00  0.1730E+02
     12.693  0.2947E+00  0.1743E+02
     13.142  0.2834E+00  0.1756E+02
     13.591  0.2610E+00  0.1768E+02
     14.039  0.2317E+00  0.1780E+02
     14.488  0.1750E+00  0.1789E+02
     14.937  0.1266E+00  0.1799E+02
     15.386  0.2401E+00  0.1804E+02
     15.834  0.4836E+00  0.1820E+02
     16.283  0.5296E+00  0.1842E+02
     16.732  0.5958E+00  0.1867E+02
     17.181  0.5646E+00  0.1895E+02
     17.629  0.6421E+00  0.1921E+02
     18.078  0.8592E+00  0.1954E+02
     18.527  0.8339E+00  0.1994E+02
     18.976  0.7909E+00  0.2030E+02
     19.424  0.7388E+00  0.2065E+02
     19.873  0.7121E+00  0.2097E+02
     20.322  0.5756E+00  0.2126E+02
     20.771  0.6580E+00  0.2153E+02
     21.219  0.7563E+00  0.2186E+02
     21.668  0.9034E+00  0.2220E+02
     22.117  0.7986E+00  0.2263E+02
     22.565  0.6970E+00  0.2296E+02
     23.014  0.5686E+00  0.2326E+02
     23.463  0.4470E+00  0.2348E+02
     23.912  0.4810E+00  0.2368E+02
     24.360  0.5860E+00  0.2393E+02
     24.809  0.8027E+00  0.2419E+02
     25.258  0.8302E+00  0.2465E+02
     25.707  0.6210E+00  0.2497E+02
     26.155  0.5557E+00  0.2524E+02
     26.604  0.5472E+00  0.2549E+02
     27.053  0.4853E+00  0.2572E+02
     27.502  0.4770E+00  0.2593E+02
     27.950  0.6064E+00  0.2618E+02
     28.399  0.5567E+00  0.2644E+02
     28.848  0.7823E+00  0.2673E+02
     29.297  0.8065E+00  0.2716E+02
     29.745  0.7115E+00  0.2749E+02
     30.194  0.7317E+00  0.2781E+02
     30.643  0.6369E+00  0.2813E+02
     31.092  0.6019E+00  0.2841E+02
     31.540  0.6368E+00  0.2869E+02
     31.989  0.7008E+00  0.2898E+02
     32.438  0.9231E+00  0.2935E+02
     32.886  0.9106E+00  0.2975E+02
     33.335  0.9464E+00  0.3014E+02
     33.784  0.8590E+00  0.3054E+02
     34.233  0.9028E+00  0.3096E+02
     34.681  0.7724E+00  0.3132E+02
     35.130  0.6953E+00  0.3167E+02
     35.579  0.5288E+00  0.3195E+02
     36.028  0.5289E+00  0.3218E+02
     36.476  0.5803E+00  0.3243E+02
     36.925  0.7907E+00  0.3272E+02
     37.374  0.1133E+01  0.3316E+02
     37.823  0.1052E+01  0.3367E+02
     38.271  0.9239E+00  0.3412E+02
     38.720  0.6683E+00  0.3447E+02
     39.169  0.6867E+00  0.3477E+02
     39.618  0.8839E+00  0.3512E+02
     40.066  0.6612E+00  0.3551E+02
     40.515  0.7414E+00  0.3582E+02
     40.964  0.8384E+00  0.3620E+02
     41.412  0.1111E+01  0.3662E+02
     41.861  0.2005E+01  0.3736E+02
     42.310  0.2554E+01  0.3864E+02
     42.759  0.1458E+01  0.3944E+02
     43.207  0.1081E+01  0.3994E+02
     43.656  0.1253E+01  0.4046E+02
     44.105  0.1135E+01  0.4099E+02
     44.554  0.1023E+01  0.4148E+02
     45.002  0.9133E+00  0.4193E+02
     45.451  0.9910E+00  0.4232E+02
     45.900  0.7955E+00  0.4274E+02
     46.349  0.6489E+00  0.4305E+02
     46.797  0.5396E+00  0.4332E+02
     47.246  0.6067E+00  0.4356E+02
     47.695  0.1086E+01  0.4395E+02
     48.144  0.7979E+00  0.4437E+02
     48.592  0.7574E+00  0.4471E+02
     49.041  0.5784E+00  0.4501E+02
     49.490  0.7503E+00  0.4532E+02
     49.939  0.8272E+00  0.4568E+02
     50.387  0.1081E+01  0.4611E+02
     50.836  0.9725E+00  0.4655E+02
     51.285  0.9091E+00  0.4699E+02
     51.733  0.9630E+00  0.4743E+02
     52.182  0.8555E+00  0.4782E+02
     52.631  0.8743E+00  0.4821E+02
     53.080  0.1031E+01  0.4863E+02
     53.528  0.8073E+00  0.4905E+02
     53.977  0.8890E+00  0.4940E+02
     54.426  0.8702E+00  0.4980E+02
     54.875  0.8352E+00  0.5019E+02
     55.323  0.9665E+00  0.5063E+02
     55.772  0.9690E+00  0.5106E+02
     56.221  0.9766E+00  0.5149E+02
     56.670  0.1051E+01  0.5195E+02
     57.118  0.9592E+00  0.5239E+02
     57.567  0.9030E+00  0.5282E+02
     58.016  0.9935E+00  0.5325E+02
     58.465  0.1093E+01  0.5370E+02
     58.913  0.1127E+01  0.5419E+02
     59.362  0.1081E+01  0.5468E+02
     59.811  0.1089E+01  0.5518E+02
     60.259  0.1036E+01  0.5564E+02
     60.708  0.1060E+01  0.5613E+02
     61.157  0.9724E+00  0.5658E+02
     61.606  0.9479E+00  0.5701E+02
     62.054  0.1149E+01  0.5747E+02
     62.503  0.1071E+01  0.5797E+02
     62.952  0.6706E+00  0.5836E+02
     63.401  0.7376E+00  0.5866E+02
     63.849  0.1076E+01  0.5906E+02
     64.298  0.1229E+01  0.5962E+02
     64.747  0.8734E+00  0.6009E+02
     65.196  0.7716E+00  0.6042E+02
     65.644  0.9846E+00  0.6081E+02
     66.093  0.1073E+01  0.6128E+02
     66.542  0.1097E+01  0.6178E+02
     66.991  0.9230E+00  0.6224E+02
     67.439  0.9128E+00  0.6264E+02
     67.888  0.1127E+01  0.6312E+02
     68.337  0.1226E+01  0.6363E+02
     68.786  0.9530E+00  0.6412E+02
     69.234  0.9432E+00  0.6453E+02
     69.683  0.9288E+00  0.6495E+02
     70.132  0.9278E+00  0.6538E+02
     70.580  0.1044E+01  0.6582E+02
     71.029  0.9641E+00  0.6627E+02
     71.478  0.1032E+01  0.6671E+02
     71.927  0.1069E+01  0.6718E+02
     72.375  0.1266E+01  0.6769E+02
     72.824  0.1109E+01  0.6824E+02
     73.273  0.1048E+01  0.6872E+02
     73.722  0.1039E+01  0.6920E+02
     74.170  0.9667E+00  0.6962E+02
     74.619  0.1040E+01  0.7011E+02
     75.068  0.1124E+01  0.7056E+02
     75.517  0.1066E+01  0.7104E+02
     75.965  0.1058E+01  0.7152E+02
     76.414  0.1179E+01  0.7198E+02
     76.863  0.1114E+01  0.7246E+02
     77.312  0.1149E+01  0.7296E+02
     77.760  0.1075E+01  0.7346E+02
     78.209  0.1109E+01  0.7394E+02
     78.658  0.1089E+01  0.7443E+02
     79.106  0.1148E+01  0.7492E+02
     79.555  0.1094E+01  0.7543E+02
     80.004  0.8517E+00  0.7585E+02
     80.453  0.9320E+00  0.7625E+02
     80.901  0.1102E+01  0.7670E+02
     81.350  0.1123E+01  0.7721E+02
     81.799  0.9776E+00  0.7769E+02
     82.248  0.1202E+01  0.7815E+02
     82.696  0.1137E+01  0.7868E+02
     83.145  0.7306E+00  0.7913E+02
     83.594  0.4676E+00  0.7939E+02
     84.043  0.3285E+00  0.7957E+02
     84.491  0.2639E+00  0.7970E+02
     84.940  0.1574E+00  0.7980E+02
     85.389  0.8712E-01  0.7985E+02
     85.838  0.5513E-01  0.7988E+02
     86.286  0.4252E-01  0.7990E+02
     86.735  0.3240E-01  0.7992E+02
     87.184  0.2464E-01  0.7993E+02
     87.633  0.1783E-01  0.7994E+02
     88.081  0.1352E-01  0.7995E+02
     88.530  0.1274E-01  0.7995E+02
     88.979  0.1237E-01  0.7996E+02
     89.427  0.1169E-01  0.7996E+02
     89.876  0.1104E-01  0.7997E+02
     90.325  0.1090E-01  0.7997E+02
     90.774  0.9509E-02  0.7998E+02
     91.222  0.5632E-02  0.7998E+02
     91.671  0.5172E-02  0.7998E+02
     92.120  0.4729E-02  0.7999E+02
     92.569  0.4304E-02  0.7999E+02
     93.017  0.3895E-02  0.7999E+02
     93.466  0.3503E-02  0.7999E+02
     93.915  0.3128E-02  0.7999E+02
     94.364  0.2771E-02  0.7999E+02
     94.812  0.2430E-02  0.8000E+02
     95.261  0.2106E-02  0.8000E+02
     95.710  0.1799E-02  0.8000E+02
     96.159  0.4167E-02  0.8000E+02
     96.607  0.0000E+00  0.8000E+02
     97.056  0.0000E+00  0.8000E+02
     97.505  0.0000E+00  0.8000E+02
     97.953  0.0000E+00  0.8000E+02
     98.402  0.0000E+00  0.8000E+02
     98.851  0.0000E+00  0.8000E+02
     99.300  0.0000E+00  0.8000E+02
     99.748  0.0000E+00  0.8000E+02
    100.197  0.0000E+00  0.8000E+02
    100.646  0.0000E+00  0.8000E+02
    101.095  0.0000E+00  0.8000E+02
    101.543  0.0000E+00  0.8000E+02
    101.992  0.0000E+00  0.8000E+02
    102.441  0.0000E+00  0.8000E+02
