    1    1    1    1
  0.1798157E+02  0.2858577E-09  0.2858577E-09  0.2858577E-09  0.5000000E-15
  1.000000000000000E-004
  CAR 
 Nb                                      
     11    140     40
 
  0.3125000E-01  0.3125000E-01  0.3125000E-01  0.1953125E-02
    1      -24.784708   1.000000
    2      -24.700966   1.000000
    3      -24.700966   1.000000
    4       -0.845237   1.000000
    5        5.055356  -0.067980
    6        5.055356  -0.003890
    7        5.448525   0.000000
    8        7.973936   0.000000
    9        7.973936   0.000000
   10       20.565648   0.000000
   11       20.861800   0.000000
   12       20.861800   0.000000
   13       29.408891   0.000000
   14       29.408891   0.000000
   15       32.824188   0.000000
   16       35.593973   0.000000
   17       35.593973   0.000000
   18       39.817522   0.000000
   19       40.888394   0.000000
   20       40.888394   0.000000
   21       41.936171   0.000000
   22       44.357575   0.000000
   23       53.728471   0.000000
   24       53.728471   0.000000
   25       54.144016   0.000000
   26       62.789843   0.000000
   27       62.789843   0.000000
   28       64.483665   0.000000
   29       67.439275   0.000000
   30       67.976461   0.000000
   31       67.976461   0.000000
   32       68.898226   0.000000
   33       70.448564   0.000000
   34       70.448564   0.000000
   35       71.450292   0.000000
   36       73.383447   0.000000
   37       73.383447   0.000000
   38       74.525528   0.000000
   39       75.538183   0.000000
   40       75.538183   0.000000
 
  0.9375000E-01  0.3125000E-01  0.3125000E-01  0.5859375E-02
    1      -24.945705   1.000000
    2      -24.745823   1.000000
    3      -24.702833   1.000000
    4       -0.390045   1.000000
    5        4.778119   0.795999
    6        4.927575   0.137660
    7        5.957903   0.000000
    8        7.693633   0.000000
    9        8.032119   0.000000
   10       20.867431   0.000000
   11       21.535589   0.000000
   12       21.576480   0.000000
   13       27.798858   0.000000
   14       28.991087   0.000000
   15       31.279296   0.000000
   16       35.307565   0.000000
   17       38.044177   0.000000
   18       38.209745   0.000000
   19       40.609149   0.000000
   20       41.042292   0.000000
   21       42.117860   0.000000
   22       46.265249   0.000000
   23       52.896959   0.000000
   24       54.111619   0.000000
   25       55.418425   0.000000
   26       59.806989   0.000000
   27       60.371875   0.000000
   28       64.227504   0.000000
   29       64.546986   0.000000
   30       66.667514   0.000000
   31       67.797620   0.000000
   32       68.650165   0.000000
   33       69.760935   0.000000
   34       71.030460   0.000000
   35       72.550656   0.000000
   36       73.363835   0.000000
   37       74.114745   0.000000
   38       76.877290   0.000000
   39       76.916856   0.000000
   40       78.146103   0.000000
 
  0.1562500E+00  0.3125000E-01  0.3125000E-01  0.5859375E-02
    1      -25.172237   1.000000
    2      -24.820650   1.000000
    3      -24.705640   1.000000
    4        0.268349   1.000000
    5        4.404380   1.012085
    6        4.729460   0.935865
    7        6.732448   0.000000
    8        7.535462   0.000000
    9        8.122521   0.000000
   10       20.948945   0.000000
   11       21.999514   0.000000
   12       22.547446   0.000000
   13       26.987853   0.000000
   14       28.192652   0.000000
   15       30.276210   0.000000
   16       34.273777   0.000000
   17       36.728876   0.000000
   18       39.727833   0.000000
   19       40.649011   0.000000
   20       42.172975   0.000000
   21       42.179961   0.000000
   22       48.851884   0.000000
   23       51.147178   0.000000
   24       54.303412   0.000000
   25       56.620020   0.000000
   26       57.055569   0.000000
   27       58.110462   0.000000
   28       60.418895   0.000000
   29       62.924555   0.000000
   30       66.397223   0.000000
   31       67.699202   0.000000
   32       68.789395   0.000000
   33       71.944290   0.000000
   34       72.400556   0.000000
   35       74.048196   0.000000
   36       74.140658   0.000000
   37       75.694732   0.000000
   38       77.369590   0.000000
   39       78.589920   0.000000
   40       78.773629   0.000000
 
  0.2187500E+00  0.3125000E-01  0.3125000E-01  0.5859375E-02
    1      -25.429071   1.000000
    2      -24.909791   1.000000
    3      -24.709010   1.000000
    4        0.932927   1.000000
    5        4.009942   1.000000
    6        4.615897   1.018864
    7        7.570004   0.000000
    8        7.775382   0.000000
    9        8.248883   0.000000
   10       20.328750   0.000000
   11       21.399495   0.000000
   12       23.923066   0.000000
   13       27.245712   0.000000
   14       27.452906   0.000000
   15       29.808492   0.000000
   16       32.796026   0.000000
   17       36.411385   0.000000
   18       39.916312   0.000000
   19       41.123558   0.000000
   20       42.191906   0.000000
   21       44.633335   0.000000
   22       48.431295   0.000000
   23       50.905525   0.000000
   24       54.207607   0.000000
   25       54.742905   0.000000
   26       56.155840   0.000000
   27       57.820210   0.000000
   28       58.215745   0.000000
   29       60.602473   0.000000
   30       66.617526   0.000000
   31       67.947429   0.000000
   32       69.743917   0.000000
   33       71.679409   0.000000
   34       72.672912   0.000000
   35       75.121110   0.000000
   36       75.483665   0.000000
   37       76.081639   0.000000
   38       79.064500   0.000000
   39       80.481583   0.000000
   40       81.234207   0.000000
 
  0.2812500E+00  0.3125000E-01  0.3125000E-01  0.5859375E-02
    1      -25.677114   1.000000
    2      -24.998121   1.000000
    3      -24.712456   1.000000
    4        1.308206   1.000000
    5        3.653163   1.000000
    6        4.928870   0.328473
    7        7.809554   0.000000
    8        8.410749   0.000000
    9        8.918571   0.000000
   10       19.306228   0.000000
   11       20.011354   0.000000
   12       25.594945   0.000000
   13       25.682652   0.000000
   14       28.870076   0.000000
   15       30.187119   0.000000
   16       31.006557   0.000000
   17       37.693187   0.000000
   18       39.620174   0.000000
   19       41.906321   0.000000
   20       42.225747   0.000000
   21       44.971016   0.000000
   22       47.212577   0.000000
   23       51.238280   0.000000
   24       52.229673   0.000000
   25       52.689714   0.000000
   26       57.235110   0.000000
   27       57.263497   0.000000
   28       58.697905   0.000000
   29       59.668587   0.000000
   30       64.899655   0.000000
   31       67.913115   0.000000
   32       68.417990   0.000000
   33       72.430592   0.000000
   34       73.384807   0.000000
   35       76.215008   0.000000
   36       76.534873   0.000000
   37       78.725329   0.000000
   38       79.977865   0.000000
   39       81.484242   0.000000
   40       81.992082   0.000000
 
  0.3437500E+00  0.3125000E-01  0.3125000E-01  0.5859375E-02
    1      -25.881335   1.000000
    2      -25.072162   1.000000
    3      -24.715375   1.000000
    4        1.326810   1.000000
    5        3.373737   1.000000
    6        5.722124  -0.039482
    7        8.041409   0.000000
    8        8.588289   0.000000
    9       10.099997   0.000000
   10       18.335715   0.000000
   11       18.488070   0.000000
   12       23.973266   0.000000
   13       27.410674   0.000000
   14       29.384397   0.000000
   15       30.769945   0.000000
   16       30.818078   0.000000
   17       38.944902   0.000000
   18       39.871570   0.000000
   19       42.055526   0.000000
   20       42.178357   0.000000
   21       43.084722   0.000000
   22       47.792593   0.000000
   23       50.042695   0.000000
   24       50.835286   0.000000
   25       51.848416   0.000000
   26       55.983548   0.000000
   27       58.310205   0.000000
   28       58.778260   0.000000
   29       60.242914   0.000000
   30       63.209638   0.000000
   31       68.451554   0.000000
   32       69.009205   0.000000
   33       73.662557   0.000000
   34       74.070177   0.000000
   35       75.648388   0.000000
   36       75.703218   0.000000
   37       80.339323   0.000000
   38       81.268581   0.000000
   39       82.423086   0.000000
   40       82.848107   0.000000
 
  0.4062500E+00  0.3125000E-01  0.3125000E-01  0.5859375E-02
    1      -26.015005   1.000000
    2      -25.121196   1.000000
    3      -24.717387   1.000000
    4        1.223821   1.000000
    5        3.196726   1.000000
    6        6.609007   0.000000
    7        8.150771   0.000000
    8        8.732424   0.000000
    9       11.057710   0.000000
   10       17.297880   0.000000
   11       17.664102   0.000000
   12       22.646797   0.000000
   13       28.323444   0.000000
   14       29.042212   0.000000
   15       31.233789   0.000000
   16       32.845878   0.000000
   17       37.674233   0.000000
   18       39.753093   0.000000
   19       41.873385   0.000000
   20       42.194613   0.000000
   21       44.863849   0.000000
   22       46.872511   0.000000
   23       48.766020   0.000000
   24       50.696313   0.000000
   25       50.911465   0.000000
   26       55.015677   0.000000
   27       56.796765   0.000000
   28       58.888725   0.000000
   29       60.102939   0.000000
   30       66.878716   0.000000
   31       69.323434   0.000000
   32       69.436234   0.000000
   33       73.839488   0.000000
   34       73.979806   0.000000
   35       74.821593   0.000000
   36       75.437489   0.000000
   37       77.730822   0.000000
   38       79.766122   0.000000
   39       81.483296   0.000000
   40       82.495637   0.000000
 
  0.4687500E+00  0.3125000E-01  0.3125000E-01  0.2929688E-02
    1      -26.061415   1.000000
    2      -25.138279   1.000000
    3      -24.718117   1.000000
    4        1.173325   1.000000
    5        3.136574   1.000000
    6        7.043954   0.000000
    7        8.132865   0.000000
    8        8.788747   0.000000
    9       11.445072   0.000000
   10       16.835649   0.000000
   11       17.424687   0.000000
   12       22.131893   0.000000
   13       27.949600   0.000000
   14       29.780739   0.000000
   15       31.382370   0.000000
   16       34.318236   0.000000
   17       36.359080   0.000000
   18       38.914590   0.000000
   19       42.181179   0.000000
   20       42.616257   0.000000
   21       46.421420   0.000000
   22       46.800788   0.000000
   23       48.068968   0.000000
   24       49.227322   0.000000
   25       51.019496   0.000000
   26       55.097220   0.000000
   27       55.204737   0.000000
   28       58.864455   0.000000
   29       61.056927   0.000000
   30       68.790123   0.000000
   31       69.455065   0.000000
   32       70.301970   0.000000
   33       73.576949   0.000000
   34       73.806895   0.000000
   35       73.962588   0.000000
   36       75.902500   0.000000
   37       76.142626   0.000000
   38       78.159297   0.000000
   39       80.995473   0.000000
   40       81.834951   0.000000
 
 -0.3125000E-01  0.3125000E-01  0.3125000E-01  0.1464844E-02
    1      -24.712158   1.000000
    2      -24.700337   1.000000
    3      -24.700337   1.000000
    4       -1.005896   1.000000
    5        5.158956  -0.003946
    6        5.158956   0.000000
    7        5.204860   0.000000
    8        7.952538   0.000000
    9        8.113751   0.000000
   10       20.508467   0.000000
   11       20.544391   0.000000
   12       20.544391   0.000000
   13       29.494049   0.000000
   14       30.567142   0.000000
   15       34.152524   0.000000
   16       34.152524   0.000000
   17       35.000770   0.000000
   18       40.849193   0.000000
   19       40.849240   0.000000
   20       40.863818   0.000000
   21       41.685525   0.000000
   22       43.704955   0.000000
   23       53.161412   0.000000
   24       53.970233   0.000000
   25       53.970258   0.000000
   26       63.877508   0.000000
   27       64.112820   0.000000
   28       64.333626   0.000000
   29       66.642062   0.000000
   30       69.531518   0.000000
   31       69.531519   0.000000
   32       70.633361   0.000000
   33       70.633362   0.000000
   34       70.731643   0.000000
   35       71.542748   0.000000
   36       72.235484   0.000000
   37       72.982578   0.000000
   38       74.212657   0.000000
   39       74.212665   0.000000
   40       75.132704   0.000000
 
  0.9375000E-01  0.9375000E-01  0.3125000E-01  0.5859375E-02
    1      -25.135640   1.000000
    2      -24.776158   1.000000
    3      -24.729184   1.000000
    4        0.160961   1.000000
    5        4.521642   1.016774
    6        4.602003   1.047830
    7        6.694451   0.000000
    8        7.572747   0.000000
    9        8.090377   0.000000
   10       21.267261   0.000000
   11       21.807141   0.000000
   12       22.100472   0.000000
   13       27.271532   0.000000
   14       28.890333   0.000000
   15       29.291413   0.000000
   16       35.859526   0.000000
   17       36.301014   0.000000
   18       38.339842   0.000000
   19       41.759340   0.000000
   20       41.801850   0.000000
   21       42.196478   0.000000
   22       48.091296   0.000000
   23       52.239516   0.000000
   24       54.843401   0.000000
   25       55.088289   0.000000
   26       57.203223   0.000000
   27       57.540382   0.000000
   28       63.351105   0.000000
   29       64.037093   0.000000
   30       65.767220   0.000000
   31       66.793013   0.000000
   32       69.126260   0.000000
   33       69.193673   0.000000
   34       71.912344   0.000000
   35       74.142394   0.000000
   36       74.693429   0.000000
   37       76.968840   0.000000
   38       77.931974   0.000000
   39       79.578205   0.000000
   40       80.407777   0.000000
 
  0.1562500E+00  0.9375000E-01  0.3125000E-01  0.1171875E-01
    1      -25.358432   1.000000
    2      -24.856284   1.000000
    3      -24.742119   1.000000
    4        0.851810   1.000000
    5        4.154134   1.000028
    6        4.347567   1.007003
    7        7.498565   0.000000
    8        7.680257   0.000000
    9        8.265083   0.000000
   10       21.050513   0.000000
   11       21.663964   0.000000
   12       22.768567   0.000000
   13       26.506136   0.000000
   14       27.889032   0.000000
   15       30.350554   0.000000
   16       34.593214   0.000000
   17       35.061515   0.000000
   18       38.545552   0.000000
   19       42.130462   0.000000
   20       42.669004   0.000000
   21       43.875674   0.000000
   22       49.365841   0.000000
   23       50.571128   0.000000
   24       53.645638   0.000000
   25       55.139522   0.000000
   26       55.494588   0.000000
   27       57.352976   0.000000
   28       60.722333   0.000000
   29       63.059885   0.000000
   30       65.244716   0.000000
   31       67.591059   0.000000
   32       68.165583   0.000000
   33       70.813965   0.000000
   34       73.062333   0.000000
   35       74.487091   0.000000
   36       75.759845   0.000000
   37       77.560968   0.000000
   38       78.047261   0.000000
   39       79.193566   0.000000
   40       80.308817   0.000000
 
  0.2187500E+00  0.9375000E-01  0.3125000E-01  0.1171875E-01
    1      -25.583919   1.000000
    2      -24.957516   1.000000
    3      -24.749592   1.000000
    4        1.433859   1.000000
    5        3.785397   1.000000
    6        4.356811   1.037934
    7        7.625483   0.000000
    8        8.445655   0.000000
    9        8.833053   0.000000
   10       19.998397   0.000000
   11       20.761514   0.000000
   12       24.029357   0.000000
   13       24.917937   0.000000
   14       28.999086   0.000000
   15       31.237540   0.000000
   16       32.740585   0.000000
   17       35.427926   0.000000
   18       38.523974   0.000000
   19       42.153846   0.000000
   20       43.451198   0.000000
   21       45.321434   0.000000
   22       47.915055   0.000000
   23       50.014972   0.000000
   24       51.828638   0.000000
   25       53.623458   0.000000
   26       57.123219   0.000000
   27       57.824130   0.000000
   28       59.612618   0.000000
   29       61.733967   0.000000
   30       64.321054   0.000000
   31       67.452409   0.000000
   32       68.893224   0.000000
   33       70.226601   0.000000
   34       72.676155   0.000000
   35       74.791265   0.000000
   36       76.860644   0.000000
   37       77.063697   0.000000
   38       78.478055   0.000000
   39       80.582247   0.000000
   40       81.101773   0.000000
 
  0.2812500E+00  0.9375000E-01  0.3125000E-01  0.1171875E-01
    1      -25.782964   1.000000
    2      -25.054692   1.000000
    3      -24.755452   1.000000
    4        1.628028   1.000000
    5        3.486882   1.000000
    6        4.880741   0.461736
    7        7.860905   0.000000
    8        8.612873   0.000000
    9       10.069279   0.000000
   10       18.820480   0.000000
   11       19.366151   0.000000
   12       23.497521   0.000000
   13       25.683809   0.000000
   14       29.958731   0.000000
   15       31.399359   0.000000
   16       31.752817   0.000000
   17       37.502481   0.000000
   18       38.246686   0.000000
   19       42.161926   0.000000
   20       43.580666   0.000000
   21       44.256949   0.000000
   22       47.414457   0.000000
   23       48.776646   0.000000
   24       51.862064   0.000000
   25       51.961305   0.000000
   26       57.505499   0.000000
   27       59.207927   0.000000
   28       59.512803   0.000000
   29       61.515693   0.000000
   30       63.394959   0.000000
   31       65.047722   0.000000
   32       68.226261   0.000000
   33       71.111578   0.000000
   34       73.529126   0.000000
   35       76.145612   0.000000
   36       76.813087   0.000000
   37       78.466541   0.000000
   38       79.595968   0.000000
   39       81.766019   0.000000
   40       82.334648   0.000000
 
  0.3437500E+00  0.9375000E-01  0.3125000E-01  0.1171875E-01
    1      -25.930691   1.000000
    2      -25.129934   1.000000
    3      -24.759809   1.000000
    4        1.550025   1.000000
    5        3.278984   1.000000
    6        5.715662  -0.061392
    7        8.074507   0.000000
    8        8.766268   0.000000
    9       11.200450   0.000000
   10       17.568815   0.000000
   11       18.315525   0.000000
   12       22.339298   0.000000
   13       27.362679   0.000000
   14       29.089053   0.000000
   15       31.541140   0.000000
   16       32.939462   0.000000
   17       37.656912   0.000000
   18       40.154996   0.000000
   19       41.593049   0.000000
   20       42.166596   0.000000
   21       44.982628   0.000000
   22       45.955765   0.000000
   23       47.499243   0.000000
   24       50.932872   0.000000
   25       52.658451   0.000000
   26       57.012911   0.000000
   27       58.545292   0.000000
   28       59.571506   0.000000
   29       60.552062   0.000000
   30       64.399854   0.000000
   31       66.074362   0.000000
   32       68.483910   0.000000
   33       70.625180   0.000000
   34       73.489524   0.000000
   35       76.279242   0.000000
   36       77.662058   0.000000
   37       79.223046   0.000000
   38       80.474134   0.000000
   39       81.723345   0.000000
   40       83.494186   0.000000
 
  0.4062500E+00  0.9375000E-01  0.3125000E-01  0.1171875E-01
    1      -26.009101   1.000000
    2      -25.170763   1.000000
    3      -24.762132   1.000000
    4        1.456267   1.000000
    5        3.172507   1.000000
    6        6.361852  -0.000194
    7        8.142730   0.000000
    8        8.900589   0.000000
    9       11.927043   0.000000
   10       16.672996   0.000000
   11       17.824676   0.000000
   12       21.620805   0.000000
   13       28.100294   0.000000
   14       28.930192   0.000000
   15       31.737260   0.000000
   16       33.754163   0.000000
   17       37.277324   0.000000
   18       40.297461   0.000000
   19       42.120699   0.000000
   20       42.435527   0.000000
   21       44.425767   0.000000
   22       45.485465   0.000000
   23       47.543366   0.000000
   24       49.765497   0.000000
   25       52.499271   0.000000
   26       55.528348   0.000000
   27       58.624354   0.000000
   28       59.847453   0.000000
   29       60.350515   0.000000
   30       65.129916   0.000000
   31       68.315828   0.000000
   32       68.516174   0.000000
   33       71.273095   0.000000
   34       73.712037   0.000000
   35       74.316289   0.000000
   36       76.246579   0.000000
   37       78.635144   0.000000
   38       81.383897   0.000000
   39       82.515624   0.000000
   40       83.064065   0.000000
 
 -0.9375000E-01  0.9375000E-01  0.3125000E-01  0.5859375E-02
    1      -24.820548   1.000000
    2      -24.734193   1.000000
    3      -24.704349   1.000000
    4       -0.687514   1.000000
    5        4.985911   0.002076
    6        5.116720  -0.008428
    7        5.506579   0.000000
    8        7.646784   0.000000
    9        8.174002   0.000000
   10       20.746900   0.000000
   11       21.087484   0.000000
   12       21.153622   0.000000
   13       27.766792   0.000000
   14       30.229676   0.000000
   15       33.488961   0.000000
   16       33.692335   0.000000
   17       36.909667   0.000000
   18       40.027451   0.000000
   19       40.163339   0.000000
   20       40.812611   0.000000
   21       42.047302   0.000000
   22       44.844696   0.000000
   23       52.411561   0.000000
   24       54.631108   0.000000
   25       55.291534   0.000000
   26       61.944229   0.000000
   27       62.643920   0.000000
   28       64.155642   0.000000
   29       65.858400   0.000000
   30       67.079057   0.000000
   31       67.759019   0.000000
   32       68.228850   0.000000
   33       69.808505   0.000000
   34       70.003433   0.000000
   35       72.512733   0.000000
   36       72.521662   0.000000
   37       74.016562   0.000000
   38       74.477823   0.000000
   39       77.132192   0.000000
   40       77.389154   0.000000
 
  0.1562500E+00  0.1562500E+00  0.3125000E-01  0.5859375E-02
    1      -25.546410   1.000000
    2      -24.931568   1.000000
    3      -24.779491   1.000000
    4        1.518041   1.000000
    5        3.913615   1.000000
    6        4.026340   1.000073
    7        7.513461   0.000000
    8        8.497124   0.000000
    9        8.829818   0.000000
   10       20.408126   0.000000
   11       21.178979   0.000000
   12       23.315521   0.000000
   13       24.392954   0.000000
   14       28.998728   0.000000
   15       32.276879   0.000000
   16       33.902392   0.000000
   17       34.100372   0.000000
   18       37.540556   0.000000
   19       42.149963   0.000000
   20       44.476933   0.000000
   21       44.939395   0.000000
   22       48.529423   0.000000
   23       49.343893   0.000000
   24       51.259300   0.000000
   25       55.133766   0.000000
   26       56.830648   0.000000
   27       56.910510   0.000000
   28       60.961448   0.000000
   29       61.730313   0.000000
   30       65.922976   0.000000
   31       66.715482   0.000000
   32       69.092022   0.000000
   33       69.970991   0.000000
   34       71.681777   0.000000
   35       72.119286   0.000000
   36       75.808553   0.000000
   37       77.029996   0.000000
   38       79.841212   0.000000
   39       80.440657   0.000000
   40       82.951338   0.000000
 
  0.2187500E+00  0.1562500E+00  0.3125000E-01  0.1171875E-01
    1      -25.712365   1.000000
    2      -25.041174   1.000000
    3      -24.800448   1.000000
    4        1.979019   1.000000
    5        3.607470   1.000000
    6        4.161587   1.024602
    7        7.661482   0.000000
    8        8.683308   0.000000
    9       10.122406   0.000000
   10       19.194631   0.000000
   11       20.331657   0.000000
   12       22.758034   0.000000
   13       24.395362   0.000000
   14       29.888168   0.000000
   15       32.929034   0.000000
   16       33.275187   0.000000
   17       35.373449   0.000000
   18       37.116371   0.000000
   19       42.143790   0.000000
   20       44.032044   0.000000
   21       44.806863   0.000000
   22       47.789971   0.000000
   23       48.893249   0.000000
   24       50.704439   0.000000
   25       53.786243   0.000000
   26       56.429392   0.000000
   27       58.830083   0.000000
   28       61.654031   0.000000
   29       61.823812   0.000000
   30       63.889712   0.000000
   31       66.908100   0.000000
   32       67.718843   0.000000
   33       69.292205   0.000000
   34       71.646446   0.000000
   35       72.275063   0.000000
   36       76.137923   0.000000
   37       76.959014   0.000000
   38       81.305384   0.000000
   39       82.003576   0.000000
   40       83.407440   0.000000
 
  0.2812500E+00  0.1562500E+00  0.3125000E-01  0.1171875E-01
    1      -25.839801   1.000000
    2      -25.149951   1.000000
    3      -24.812433   1.000000
    4        2.031378   1.000000
    5        3.399330   1.000000
    6        4.757675   0.695273
    7        7.902978   0.000000
    8        8.806557   0.000000
    9       11.415239   0.000000
   10       17.853916   0.000000
   11       19.203418   0.000000
   12       21.748295   0.000000
   13       25.780848   0.000000
   14       29.623746   0.000000
   15       32.292874   0.000000
   16       33.880947   0.000000
   17       37.212790   0.000000
   18       38.344678   0.000000
   19       41.864699   0.000000
   20       42.255171   0.000000
   21       44.210190   0.000000
   22       46.219579   0.000000
   23       48.835183   0.000000
   24       51.911812   0.000000
   25       52.565142   0.000000
   26       56.414434   0.000000
   27       59.492024   0.000000
   28       60.154044   0.000000
   29       62.857790   0.000000
   30       64.064854   0.000000
   31       64.829539   0.000000
   32       66.999158   0.000000
   33       69.431310   0.000000
   34       72.827060   0.000000
   35       74.415875   0.000000
   36       76.864414   0.000000
   37       77.141435   0.000000
   38       80.448683   0.000000
   39       83.817741   0.000000
   40       84.166867   0.000000
 
  0.3437500E+00  0.1562500E+00  0.3125000E-01  0.1171875E-01
    1      -25.919017   1.000000
    2      -25.228184   1.000000
    3      -24.819167   1.000000
    4        1.926612   1.000000
    5        3.281040   1.000000
    6        5.419231  -0.095762
    7        8.094372   0.000000
    8        8.926295   0.000000
    9       12.476650   0.000000
   10       16.628897   0.000000
   11       18.426334   0.000000
   12       21.112003   0.000000
   13       27.126935   0.000000
   14       28.776252   0.000000
   15       32.340198   0.000000
   16       34.050541   0.000000
   17       37.886186   0.000000
   18       40.598001   0.000000
   19       41.400799   0.000000
   20       42.229591   0.000000
   21       43.457940   0.000000
   22       44.190370   0.000000
   23       48.942546   0.000000
   24       50.655002   0.000000
   25       53.378060   0.000000
   26       56.184838   0.000000
   27       58.327700   0.000000
   28       60.557143   0.000000
   29       62.463559   0.000000
   30       63.015249   0.000000
   31       65.852870   0.000000
   32       68.183380   0.000000
   33       69.656717   0.000000
   34       73.432844   0.000000
   35       74.227867   0.000000
   36       77.095219   0.000000
   37       78.793229   0.000000
   38       81.182320   0.000000
   39       82.676786   0.000000
   40       84.974382   0.000000
 
  0.4062500E+00  0.1562500E+00  0.3125000E-01  0.5859375E-02
    1      -25.945764   1.000000
    2      -25.256509   1.000000
    3      -24.821329   1.000000
    4        1.874287   1.000000
    5        3.242496   1.000000
    6        5.703597  -0.036868
    7        8.143319   0.000000
    8        9.009518   0.000000
    9       12.924402   0.000000
   10       16.103435   0.000000
   11       18.143940   0.000000
   12       20.879150   0.000000
   13       27.939209   0.000000
   14       28.187245   0.000000
   15       32.540434   0.000000
   16       33.771891   0.000000
   17       38.192581   0.000000
   18       41.576691   0.000000
   19       41.628768   0.000000
   20       42.576724   0.000000
   21       42.825759   0.000000
   22       43.298348   0.000000
   23       49.497769   0.000000
   24       49.604418   0.000000
   25       52.873486   0.000000
   26       56.064140   0.000000
   27       58.707468   0.000000
   28       60.601607   0.000000
   29       61.930989   0.000000
   30       63.086869   0.000000
   31       66.154382   0.000000
   32       68.546132   0.000000
   33       70.312631   0.000000
   34       72.280849   0.000000
   35       75.571084   0.000000
   36       77.240035   0.000000
   37       79.586475   0.000000
   38       80.960063   0.000000
   39       81.157475   0.000000
   40       83.616392   0.000000
 
 -0.1562500E+00  0.1562500E+00  0.3125000E-01  0.5859375E-02
    1      -25.022200   1.000000
    2      -24.796148   1.000000
    3      -24.705907   1.000000
    4       -0.110612   1.000000
    5        4.662052   1.009237
    6        4.976323   0.042544
    7        6.122265   0.000000
    8        7.367868   0.000000
    9        8.232668   0.000000
   10       20.971598   0.000000
   11       21.899681   0.000000
   12       22.112929   0.000000
   13       26.409137   0.000000
   14       29.218649   0.000000
   15       32.024286   0.000000
   16       33.485525   0.000000
   17       38.102289   0.000000
   18       39.669416   0.000000
   19       40.011791   0.000000
   20       40.726723   0.000000
   21       42.172855   0.000000