 vasp.5.4.4.18Apr17-6-g9f103f2a35 (build May 20 2018 16:52:39) complex          
  
 executed on             LinuxIFC date 2022.11.17  21:34:40
 running on   40 total cores
 distrk:  each k-point on   40 cores,    1 groups
 distr:  one band on NCORES_PER_BAND=   1 cores,   40 groups


--------------------------------------------------------------------------------------------------------


 INCAR:
 POTCAR:    PAW Nb_pv 09Jan2002                   

 ----------------------------------------------------------------------------- 
|                                                                             |
|           W    W    AA    RRRRR   N    N  II  N    N   GGGG   !!!           |
|           W    W   A  A   R    R  NN   N  II  NN   N  G    G  !!!           |
|           W    W  A    A  R    R  N N  N  II  N N  N  G       !!!           |
|           W WW W  AAAAAA  RRRRR   N  N N  II  N  N N  G  GGG   !            |
|           WW  WW  A    A  R   R   N   NN  II  N   NN  G    G                |
|           W    W  A    A  R    R  N    N  II  N    N   GGGG   !!!           |
|                                                                             |
|      For optimal performance we recommend to set                            |
|        NCORE= 4 - approx SQRT( number of cores)                             |
|      NCORE specifies how many cores store one orbital (NPAR=cpu/NCORE).     |
|      This setting can  greatly improve the performance of VASP for DFT.     |
|      The default,   NCORE=1            might be grossly inefficient         |
|      on modern multi-core architectures or massively parallel machines.     |
|      Do your own testing !!!!                                               |
|      Unfortunately you need to use the default for GW and RPA calculations. |
|      (for HF NCORE is supported but not extensively tested yet)             |
|                                                                             |
 ----------------------------------------------------------------------------- 

 POTCAR:    PAW Nb_pv 09Jan2002                   
   VRHFIN =Nb: s1d4                                                             
   LEXCH  = CA                                                                  
   EATOM  =  1046.3740 eV,   76.9063 Ry                                         
                                                                                
   TITEL  = PAW Nb_pv 09Jan2002                                                 
   LULTRA =        F    use ultrasoft PP ?                                      
   IUNSCR =        1    unscreen: 0-lin 1-nonlin 2-no                           
   RPACOR =    2.200    partial core radius                                     
   POMASS =   92.910; ZVAL   =   11.000    mass and valenz                      
   RCORE  =    2.750    outmost cutoff radius                                   
   RWIGS  =    2.840; RWIGS  =    1.503    wigner-seitz radius (au A)           
   ENMAX  =  207.263; ENMIN  =  155.447 eV                                      
   RCLOC  =    2.209    cutoff for local pot                                    
   LCOR   =        T    correct aug charges                                     
   LPAW   =        T    paw PP                                                  
   EAUG   =  352.745                                                            
   DEXC   =    0.000                                                            
   RMAX   =    2.814    core radius for proj-oper                               
   RAUG   =    1.300    factor for augmentation sphere                          
   RDEP   =    2.785    radius for radial grids                                 
   RDEPT  =    2.205    core radius for aug-charge                              
                                                                                
   Atomic configuration                                                         
   11 entries                                                                   
     n  l   j            E        occ.                                          
     1  0  0.50    -18704.9804   2.0000                                         
     2  0  0.50     -2619.6337   2.0000                                         
     2  1  1.50     -2343.2033   6.0000                                         
     3  0  0.50      -436.6391   2.0000                                         
     3  1  1.50      -345.9106   6.0000                                         
     3  2  2.50      -196.5794  10.0000                                         
     4  0  0.50       -58.2950   2.0000                                         
     4  1  1.50       -34.5590   6.0000                                         
     4  2  2.50        -3.2208   4.0000                                         
     5  0  0.50        -4.1880   1.0000                                         
     4  3  2.50        -1.3606   0.0000                                         
   Description                                                                  
     l       E           TYP  RCUT    TYP  RCUT                                 
     1    -34.5590103     23  2.600                                             
     1     -1.3605826     23  2.600                                             
     2     -3.2207521     23  2.600                                             
     2     -1.6263194     23  2.600                                             
     0     -4.1879630     23  2.750                                             
     0     20.4087390     23  2.750                                             
  local pseudopotential read in
  partial core-charges read in
  partial kinetic energy density read in
  atomic valenz-charges read in
  non local Contribution for L=           1  read in
    real space projection operators read in
  non local Contribution for L=           1  read in
    real space projection operators read in
  non local Contribution for L=           2  read in
    real space projection operators read in
  non local Contribution for L=           2  read in
    real space projection operators read in
  non local Contribution for L=           0  read in
    real space projection operators read in
  non local Contribution for L=           0  read in
    real space projection operators read in
    PAW grid and wavefunctions read in
 
   number of l-projection  operators is LMAX  =           6
   number of lm-projection operators is LMMAX =          18
 
  PAW Nb_pv 09Jan2002                   :
 energy of atom  1       EATOM=-1046.3740
 kinetic energy error for atom=    0.0109 (will be added to EATOM!!)
 
 
 POSCAR: primitive Nb                            
  positions in direct lattice
  No initial velocities read in
 exchange correlation table for  LEXCH =        2
   RHO(1)=    0.500       N(1)  =     2000
   RHO(2)=  100.500       N(2)  =     4000
 


--------------------------------------------------------------------------------------------------------


 ion  position               nearest neighbor table
   1  0.000  0.000  0.000-
 
  LATTYP: Found a body centered cubic cell.
 ALAT       =     3.3008000000
  
  Lattice vectors:
  
 A1 = (  -1.6504000000,   1.6504000000,   1.6504000000)
 A2 = (   1.6504000000,  -1.6504000000,   1.6504000000)
 A3 = (   1.6504000000,   1.6504000000,  -1.6504000000)


Analysis of symmetry for initial positions (statically):
=====================================================================
 Subroutine PRICEL returns:
 Original cell was already a primitive cell.
 

 Routine SETGRP: Setting up the symmetry group for a 
 body centered cubic supercell.


 Subroutine GETGRP returns: Found 48 space group operations
 (whereof 48 operations were pure point group operations)
 out of a pool of 48 trial point group operations.


The static configuration has the point symmetry O_h .


Analysis of symmetry for dynamics (positions and initial velocities):
=====================================================================
 Subroutine PRICEL returns:
 Original cell was already a primitive cell.
 

 Routine SETGRP: Setting up the symmetry group for a 
 body centered cubic supercell.


 Subroutine GETGRP returns: Found 48 space group operations
 (whereof 48 operations were pure point group operations)
 out of a pool of 48 trial point group operations.


The dynamic configuration has the point symmetry O_h .


 Subroutine INISYM returns: Found 48 space group operations
 (whereof 48 operations are pure point group operations),
 and found     1 'primitive' translations

 
 
 KPOINTS: 16*16*16                                

Automatic generation of k-mesh.
Space group operators:
 irot       det(A)        alpha          n_x          n_y          n_z        tau_x        tau_y        tau_z
    1     1.000000     0.000000     1.000000     0.000000     0.000000     0.000000     0.000000     0.000000
    2    -1.000000     0.000000     1.000000     0.000000     0.000000     0.000000     0.000000     0.000000
    3     1.000000   120.000000    -0.577350    -0.577350    -0.577350     0.000000     0.000000     0.000000
    4    -1.000000   120.000000    -0.577350    -0.577350    -0.577350     0.000000     0.000000     0.000000
    5     1.000000   120.000000     0.577350     0.577350     0.577350     0.000000     0.000000     0.000000
    6    -1.000000   120.000000     0.577350     0.577350     0.577350     0.000000     0.000000     0.000000
    7     1.000000    90.000000     0.000000     0.000000    -1.000000     0.000000     0.000000     0.000000
    8    -1.000000    90.000000     0.000000     0.000000    -1.000000     0.000000     0.000000     0.000000
    9     1.000000   180.000000     0.000000     0.707107     0.707107     0.000000     0.000000     0.000000
   10    -1.000000   180.000000     0.000000     0.707107     0.707107     0.000000     0.000000     0.000000
   11     1.000000    90.000000     0.000000     1.000000     0.000000     0.000000     0.000000     0.000000
   12    -1.000000    90.000000     0.000000     1.000000     0.000000     0.000000     0.000000     0.000000
   13     1.000000   180.000000     0.000000     0.000000     1.000000     0.000000     0.000000     0.000000
   14    -1.000000   180.000000     0.000000     0.000000     1.000000     0.000000     0.000000     0.000000
   15     1.000000   120.000000    -0.577350     0.577350     0.577350     0.000000     0.000000     0.000000
   16    -1.000000   120.000000    -0.577350     0.577350     0.577350     0.000000     0.000000     0.000000
   17     1.000000   120.000000    -0.577350     0.577350    -0.577350     0.000000     0.000000     0.000000
   18    -1.000000   120.000000    -0.577350     0.577350    -0.577350     0.000000     0.000000     0.000000
   19     1.000000    90.000000     0.000000     0.000000     1.000000     0.000000     0.000000     0.000000
   20    -1.000000    90.000000     0.000000     0.000000     1.000000     0.000000     0.000000     0.000000
   21     1.000000    90.000000    -1.000000     0.000000     0.000000     0.000000     0.000000     0.000000
   22    -1.000000    90.000000    -1.000000     0.000000     0.000000     0.000000     0.000000     0.000000
   23     1.000000   180.000000     0.707107     0.000000     0.707107     0.000000     0.000000     0.000000
   24    -1.000000   180.000000     0.707107     0.000000     0.707107     0.000000     0.000000     0.000000
   25     1.000000   120.000000     0.577350    -0.577350     0.577350     0.000000     0.000000     0.000000
   26    -1.000000   120.000000     0.577350    -0.577350     0.577350     0.000000     0.000000     0.000000
   27     1.000000   120.000000    -0.577350    -0.577350     0.577350     0.000000     0.000000     0.000000
   28    -1.000000   120.000000    -0.577350    -0.577350     0.577350     0.000000     0.000000     0.000000
   29     1.000000   180.000000     1.000000     0.000000     0.000000     0.000000     0.000000     0.000000
   30    -1.000000   180.000000     1.000000     0.000000     0.000000     0.000000     0.000000     0.000000
   31     1.000000    90.000000     0.000000    -1.000000     0.000000     0.000000     0.000000     0.000000
   32    -1.000000    90.000000     0.000000    -1.000000     0.000000     0.000000     0.000000     0.000000
   33     1.000000   180.000000     0.707107     0.707107     0.000000     0.000000     0.000000     0.000000
   34    -1.000000   180.000000     0.707107     0.707107     0.000000     0.000000     0.000000     0.000000
   35     1.000000    90.000000     1.000000     0.000000     0.000000     0.000000     0.000000     0.000000
   36    -1.000000    90.000000     1.000000     0.000000     0.000000     0.000000     0.000000     0.000000
   37     1.000000   120.000000     0.577350    -0.577350    -0.577350     0.000000     0.000000     0.000000
   38    -1.000000   120.000000     0.577350    -0.577350    -0.577350     0.000000     0.000000     0.000000
   39     1.000000   180.000000     0.000000     1.000000     0.000000     0.000000     0.000000     0.000000
   40    -1.000000   180.000000     0.000000     1.000000     0.000000     0.000000     0.000000     0.000000
   41     1.000000   120.000000     0.577350     0.577350    -0.577350     0.000000     0.000000     0.000000
   42    -1.000000   120.000000     0.577350     0.577350    -0.577350     0.000000     0.000000     0.000000
   43     1.000000   180.000000     0.000000    -0.707107     0.707107     0.000000     0.000000     0.000000
   44    -1.000000   180.000000     0.000000    -0.707107     0.707107     0.000000     0.000000     0.000000
   45     1.000000   180.000000     0.707107    -0.707107     0.000000     0.000000     0.000000     0.000000
   46    -1.000000   180.000000     0.707107    -0.707107     0.000000     0.000000     0.000000     0.000000
   47     1.000000   180.000000     0.707107     0.000000    -0.707107     0.000000     0.000000     0.000000
   48    -1.000000   180.000000     0.707107     0.000000    -0.707107     0.000000     0.000000     0.000000
 
 Subroutine IBZKPT returns following result:
 ===========================================
 
 Found    140 irreducible k-points:
 
 Following reciprocal coordinates:
            Coordinates               Weight
  0.031250  0.031250  0.031250      8.000000
  0.093750  0.031250  0.031250     24.000000
  0.156250  0.031250  0.031250     24.000000
  0.218750  0.031250  0.031250     24.000000
  0.281250  0.031250  0.031250     24.000000
  0.343750  0.031250  0.031250     24.000000
  0.406250  0.031250  0.031250     24.000000
  0.468750  0.031250  0.031250     12.000000
 -0.031250  0.031250  0.031250      6.000000
  0.093750  0.093750  0.031250     24.000000
  0.156250  0.093750  0.031250     48.000000
  0.218750  0.093750  0.031250     48.000000
  0.281250  0.093750  0.031250     48.000000
  0.343750  0.093750  0.031250     48.000000
  0.406250  0.093750  0.031250     48.000000
 -0.093750  0.093750  0.031250     24.000000
  0.156250  0.156250  0.031250     24.000000
  0.218750  0.156250  0.031250     48.000000
  0.281250  0.156250  0.031250     48.000000
  0.343750  0.156250  0.031250     48.000000
  0.406250  0.156250  0.031250     24.000000
 -0.156250  0.156250  0.031250     24.000000
 -0.093750  0.156250  0.031250     24.000000
  0.218750  0.218750  0.031250     24.000000
  0.281250  0.218750  0.031250     48.000000
  0.343750  0.218750  0.031250     48.000000
 -0.218750  0.218750  0.031250     24.000000
 -0.156250  0.218750  0.031250     48.000000
  0.281250  0.281250  0.031250     24.000000
  0.343750  0.281250  0.031250     24.000000
 -0.281250  0.281250  0.031250     24.000000
 -0.218750  0.281250  0.031250     48.000000
 -0.156250  0.281250  0.031250     24.000000
 -0.343750  0.343750  0.031250     24.000000
 -0.281250  0.343750  0.031250     48.000000
 -0.218750  0.343750  0.031250     48.000000
 -0.406250  0.406250  0.031250     24.000000
 -0.343750  0.406250  0.031250     48.000000
 -0.281250  0.406250  0.031250     48.000000
 -0.218750  0.406250  0.031250     24.000000
 -0.468750  0.468750  0.031250     24.000000
 -0.406250  0.468750  0.031250     48.000000
 -0.343750  0.468750  0.031250     48.000000
 -0.281250  0.468750  0.031250     48.000000
 -0.468750 -0.468750  0.031250     24.000000
 -0.406250 -0.468750  0.031250     48.000000
 -0.343750 -0.468750  0.031250     48.000000
 -0.281250 -0.468750  0.031250     24.000000
 -0.406250 -0.406250  0.031250     24.000000
 -0.343750 -0.406250  0.031250     48.000000
 -0.343750 -0.343750  0.031250      8.000000
  0.093750  0.093750  0.093750      8.000000
  0.156250  0.093750  0.093750     24.000000
  0.218750  0.093750  0.093750     24.000000
  0.281250  0.093750  0.093750     24.000000
  0.343750  0.093750  0.093750     24.000000
  0.406250  0.093750  0.093750     12.000000
 -0.093750  0.093750  0.093750      6.000000
  0.156250  0.156250  0.093750     24.000000
  0.218750  0.156250  0.093750     48.000000
  0.281250  0.156250  0.093750     48.000000
  0.343750  0.156250  0.093750     48.000000
 -0.156250  0.156250  0.093750     24.000000
  0.218750  0.218750  0.093750     24.000000
  0.281250  0.218750  0.093750     48.000000
  0.343750  0.218750  0.093750     24.000000
 -0.218750  0.218750  0.093750     24.000000
 -0.156250  0.218750  0.093750     24.000000
  0.281250  0.281250  0.093750     24.000000
 -0.281250  0.281250  0.093750     24.000000
 -0.218750  0.281250  0.093750     48.000000
 -0.343750  0.343750  0.093750     24.000000
 -0.281250  0.343750  0.093750     48.000000
 -0.218750  0.343750  0.093750     24.000000
 -0.406250  0.406250  0.093750     24.000000
 -0.343750  0.406250  0.093750     48.000000
 -0.281250  0.406250  0.093750     48.000000
 -0.468750  0.468750  0.093750     24.000000
 -0.406250  0.468750  0.093750     48.000000
 -0.343750  0.468750  0.093750     48.000000
 -0.281250  0.468750  0.093750     24.000000
 -0.468750 -0.468750  0.093750     24.000000
 -0.406250 -0.468750  0.093750     48.000000
 -0.343750 -0.468750  0.093750     48.000000
 -0.406250 -0.406250  0.093750     24.000000
 -0.343750 -0.406250  0.093750     24.000000
  0.156250  0.156250  0.156250      8.000000
  0.218750  0.156250  0.156250     24.000000
  0.281250  0.156250  0.156250     24.000000
  0.343750  0.156250  0.156250     12.000000
 -0.156250  0.156250  0.156250      6.000000
  0.218750  0.218750  0.156250     24.000000
  0.281250  0.218750  0.156250     48.000000
 -0.218750  0.218750  0.156250     24.000000
  0.281250  0.281250  0.156250      8.000000
 -0.281250  0.281250  0.156250     24.000000
 -0.218750  0.281250  0.156250     24.000000
 -0.343750  0.343750  0.156250     24.000000
 -0.281250  0.343750  0.156250     48.000000
 -0.406250  0.406250  0.156250     24.000000
 -0.343750  0.406250  0.156250     48.000000
 -0.281250  0.406250  0.156250     24.000000
 -0.468750  0.468750  0.156250     24.000000
 -0.406250  0.468750  0.156250     48.000000
 -0.343750  0.468750  0.156250     48.000000
 -0.468750 -0.468750  0.156250     24.000000
 -0.406250 -0.468750  0.156250     48.000000
 -0.343750 -0.468750  0.156250     24.000000
 -0.406250 -0.406250  0.156250     24.000000
  0.218750  0.218750  0.218750      8.000000
  0.281250  0.218750  0.218750     12.000000
 -0.218750  0.218750  0.218750      6.000000
 -0.281250  0.281250  0.218750     24.000000
 -0.343750  0.343750  0.218750     24.000000
 -0.281250  0.343750  0.218750     24.000000
 -0.406250  0.406250  0.218750     24.000000
 -0.343750  0.406250  0.218750     48.000000
 -0.468750  0.468750  0.218750     24.000000
 -0.406250  0.468750  0.218750     48.000000
 -0.343750  0.468750  0.218750     24.000000
 -0.468750 -0.468750  0.218750     24.000000
 -0.406250 -0.468750  0.218750     48.000000
 -0.406250 -0.406250  0.218750      8.000000
 -0.281250  0.281250  0.281250      6.000000
 -0.343750  0.343750  0.281250     24.000000
 -0.406250  0.406250  0.281250     24.000000
 -0.343750  0.406250  0.281250     24.000000
 -0.468750  0.468750  0.281250     24.000000
 -0.406250  0.468750  0.281250     48.000000
 -0.468750 -0.468750  0.281250     24.000000
 -0.406250 -0.468750  0.281250     24.000000
 -0.343750  0.343750  0.343750      6.000000
 -0.406250  0.406250  0.343750     24.000000
 -0.468750  0.468750  0.343750     24.000000
 -0.406250  0.468750  0.343750     24.000000
 -0.468750 -0.468750  0.343750     24.000000
 -0.406250  0.406250  0.406250      6.000000
 -0.468750  0.468750  0.406250     24.000000
 -0.468750 -0.468750  0.406250      8.000000
 -0.468750  0.468750  0.468750      6.000000
 
 Following cartesian coordinates:
            Coordinates               Weight
  0.062500  0.062500  0.062500      8.000000
  0.062500  0.125000  0.125000     24.000000
  0.062500  0.187500  0.187500     24.000000
  0.062500  0.250000  0.250000     24.000000
  0.062500  0.312500  0.312500     24.000000
  0.062500  0.375000  0.375000     24.000000
  0.062500  0.437500  0.437500     24.000000
  0.062500  0.500000  0.500000     12.000000
  0.062500  0.000000  0.000000      6.000000
  0.125000  0.125000  0.187500     24.000000
  0.125000  0.187500  0.250000     48.000000
  0.125000  0.250000  0.312500     48.000000
  0.125000  0.312500  0.375000     48.000000
  0.125000  0.375000  0.437500     48.000000
  0.125000  0.437500  0.500000     48.000000
  0.125000 -0.062500  0.000000     24.000000
  0.187500  0.187500  0.312500     24.000000
  0.187500  0.250000  0.375000     48.000000
  0.187500  0.312500  0.437500     48.000000
  0.187500  0.375000  0.500000     48.000000
  0.187500  0.437500  0.562500     24.000000
  0.187500 -0.125000  0.000000     24.000000
  0.187500 -0.062500  0.062500     24.000000
  0.250000  0.250000  0.437500     24.000000
  0.250000  0.312500  0.500000     48.000000
  0.250000  0.375000  0.562500     48.000000
  0.250000 -0.187500  0.000000     24.000000
  0.250000 -0.125000  0.062500     48.000000
  0.312500  0.312500  0.562500     24.000000
  0.312500  0.375000  0.625000     24.000000
  0.312500 -0.250000  0.000000     24.000000
  0.312500 -0.187500  0.062500     48.000000
  0.312500 -0.125000  0.125000     24.000000
  0.375000 -0.312500  0.000000     24.000000
  0.375000 -0.250000  0.062500     48.000000
  0.375000 -0.187500  0.125000     48.000000
  0.437500 -0.375000  0.000000     24.000000
  0.437500 -0.312500  0.062500     48.000000
  0.437500 -0.250000  0.125000     48.000000
  0.437500 -0.187500  0.187500     24.000000
  0.500000 -0.437500  0.000000     24.000000
  0.500000 -0.375000  0.062500     48.000000
  0.500000 -0.312500  0.125000     48.000000
  0.500000 -0.250000  0.187500     48.000000
 -0.437500 -0.437500 -0.937500     24.000000
 -0.437500 -0.375000 -0.875000     48.000000
 -0.437500 -0.312500 -0.812500     48.000000
 -0.437500 -0.250000 -0.750000     24.000000
 -0.375000 -0.375000 -0.812500     24.000000
 -0.375000 -0.312500 -0.750000     48.000000
 -0.312500 -0.312500 -0.687500      8.000000
  0.187500  0.187500  0.187500      8.000000
  0.187500  0.250000  0.250000     24.000000
  0.187500  0.312500  0.312500     24.000000
  0.187500  0.375000  0.375000     24.000000
  0.187500  0.437500  0.437500     24.000000
  0.187500  0.500000  0.500000     12.000000
  0.187500  0.000000  0.000000      6.000000
  0.250000  0.250000  0.312500     24.000000
  0.250000  0.312500  0.375000     48.000000
  0.250000  0.375000  0.437500     48.000000
  0.250000  0.437500  0.500000     48.000000
  0.250000 -0.062500  0.000000     24.000000
  0.312500  0.312500  0.437500     24.000000
  0.312500  0.375000  0.500000     48.000000
  0.312500  0.437500  0.562500     24.000000
  0.312500 -0.125000  0.000000     24.000000
  0.312500 -0.062500  0.062500     24.000000
  0.375000  0.375000  0.562500     24.000000
  0.375000 -0.187500  0.000000     24.000000
  0.375000 -0.125000  0.062500     48.000000
  0.437500 -0.250000  0.000000     24.000000
  0.437500 -0.187500  0.062500     48.000000
  0.437500 -0.125000  0.125000     24.000000
  0.500000 -0.312500  0.000000     24.000000
  0.500000 -0.250000  0.062500     48.000000
  0.500000 -0.187500  0.125000     48.000000
  0.562500 -0.375000  0.000000     24.000000
  0.562500 -0.312500  0.062500     48.000000
  0.562500 -0.250000  0.125000     48.000000
  0.562500 -0.187500  0.187500     24.000000
 -0.375000 -0.375000 -0.937500     24.000000
 -0.375000 -0.312500 -0.875000     48.000000
 -0.375000 -0.250000 -0.812500     48.000000
 -0.312500 -0.312500 -0.812500     24.000000
 -0.312500 -0.250000 -0.750000     24.000000
  0.312500  0.312500  0.312500      8.000000
  0.312500  0.375000  0.375000     24.000000
  0.312500  0.437500  0.437500     24.000000
  0.312500  0.500000  0.500000     12.000000
  0.312500  0.000000  0.000000      6.000000
  0.375000  0.375000  0.437500     24.000000
  0.375000  0.437500  0.500000     48.000000
  0.375000 -0.062500  0.000000     24.000000
  0.437500  0.437500  0.562500      8.000000
  0.437500 -0.125000  0.000000     24.000000
  0.437500 -0.062500  0.062500     24.000000
  0.500000 -0.187500  0.000000     24.000000
  0.500000 -0.125000  0.062500     48.000000
  0.562500 -0.250000  0.000000     24.000000
  0.562500 -0.187500  0.062500     48.000000
  0.562500 -0.125000  0.125000     24.000000
  0.625000 -0.312500  0.000000     24.000000
  0.625000 -0.250000  0.062500     48.000000
  0.625000 -0.187500  0.125000     48.000000
 -0.312500 -0.312500 -0.937500     24.000000
 -0.312500 -0.250000 -0.875000     48.000000
 -0.312500 -0.187500 -0.812500     24.000000
 -0.250000 -0.250000 -0.812500     24.000000
  0.437500  0.437500  0.437500      8.000000
  0.437500  0.500000  0.500000     12.000000
  0.437500  0.000000  0.000000      6.000000
  0.500000 -0.062500  0.000000     24.000000
  0.562500 -0.125000  0.000000     24.000000
  0.562500 -0.062500  0.062500     24.000000
  0.625000 -0.187500  0.000000     24.000000
  0.625000 -0.125000  0.062500     48.000000
  0.687500 -0.250000  0.000000     24.000000
  0.687500 -0.187500  0.062500     48.000000
  0.687500 -0.125000  0.125000     24.000000
 -0.250000 -0.250000 -0.937500     24.000000
 -0.250000 -0.187500 -0.875000     48.000000
 -0.187500 -0.187500 -0.812500      8.000000
  0.562500  0.000000  0.000000      6.000000
  0.625000 -0.062500  0.000000     24.000000
  0.687500 -0.125000  0.000000     24.000000
  0.687500 -0.062500  0.062500     24.000000
  0.750000 -0.187500  0.000000     24.000000
  0.750000 -0.125000  0.062500     48.000000
 -0.187500 -0.187500 -0.937500     24.000000
 -0.187500 -0.125000 -0.875000     24.000000
  0.687500  0.000000  0.000000      6.000000
  0.750000 -0.062500  0.000000     24.000000
  0.812500 -0.125000  0.000000     24.000000
  0.812500 -0.062500  0.062500     24.000000
 -0.125000 -0.125000 -0.937500     24.000000
  0.812500  0.000000  0.000000      6.000000
  0.875000 -0.062500  0.000000     24.000000
 -0.062500 -0.062500 -0.937500      8.000000
  0.937500  0.000000  0.000000      6.000000
 
 TETIRR: Found   4772 inequivalent tetrahedra from    24576


--------------------------------------------------------------------------------------------------------




 Dimension of arrays:
   k-points           NKPTS =    140   k-points in BZ     NKDIM =    140   number of bands    NBANDS=     40
   number of dos      NEDOS =    301   number of ions     NIONS =      1
   non local maximal  LDIM  =      6   non local SUM 2l+1 LMDIM =     18
   total plane-waves  NPLWV =   1728
   max r-space proj   IRMAX =      1   max aug-charges    IRDMAX=   6174
   dimension x,y,z NGX =    12 NGY =   12 NGZ =   12
   dimension x,y,z NGXF=    24 NGYF=   24 NGZF=   24
   support grid    NGXF=    24 NGYF=   24 NGZF=   24
   ions per type =               1
   NGX,Y,Z   is equivalent  to a cutoff of   6.98,  6.98,  6.98 a.u.
   NGXF,Y,Z  is equivalent  to a cutoff of  13.96, 13.96, 13.96 a.u.

 SYSTEM =  Nb                                      
 POSCAR =  primitive Nb                            

 Startparameter for this run:
   NWRITE =      2    write-flag & timer
   PREC   = normal    normal or accurate (medium, high low for compatibility)
   ISTART =      0    job   : 0-new  1-cont  2-samecut
   ICHARG =      2    charge: 1-file 2-atom 10-const
   ISPIN  =      1    spin polarized calculation?
   LNONCOLLINEAR =      F non collinear calculations
   LSORBIT =      F    spin-orbit coupling
   INIWAV =      1    electr: 0-lowe 1-rand  2-diag
   LASPH  =      F    aspherical Exc in radial PAW
   METAGGA=      F    non-selfconsistent MetaGGA calc.

 Electronic Relaxation 1
   ENCUT  =  300.0 eV  22.05 Ry    4.70 a.u.   4.04  4.04  4.04*2*pi/ulx,y,z
   ENINI  =  300.0     initial cutoff
   ENAUG  =  352.7 eV  augmentation charge cutoff
   NELM   =     60;   NELMIN=  2; NELMDL= -5     # of ELM steps 
   EDIFF  = 0.1E-06   stopping-criterion for ELM
   LREAL  =      F    real-space projection
   NLSPLINE    = F    spline interpolate recip. space projectors
   LCOMPAT=      F    compatible to vasp.4.4
   GGA_COMPAT  = T    GGA compatible to vasp.4.4-vasp.4.6
   LMAXPAW     = -100 max onsite density
   LMAXMIX     =    2 max onsite mixed and CHGCAR
   VOSKOWN=      0    Vosko Wilk Nusair interpolation
   ROPT   =    0.00000
 Ionic relaxation
   EDIFFG = 0.1E-05   stopping-criterion for IOM
   NSW    =      0    number of steps for IOM
   NBLOCK =      1;   KBLOCK =      1    inner block; outer block 
   IBRION =     -1    ionic relax: 0-MD 1-quasi-New 2-CG
   NFREE  =      0    steps in history (QN), initial steepest desc. (CG)
   ISIF   =      2    stress and relaxation
   IWAVPR =     10    prediction:  0-non 1-charg 2-wave 3-comb
   ISYM   =      2    0-nonsym 1-usesym 2-fastsym
   LCORR  =      T    Harris-Foulkes like correction to forces

   POTIM  = 0.5000    time-step for ionic-motion
   TEIN   =    0.0    initial temperature
   TEBEG  =    0.0;   TEEND  =   0.0 temperature during run
   SMASS  =  -3.00    Nose mass-parameter (am)
   estimated Nose-frequenzy (Omega)   =  0.10E-29 period in steps =****** mass=  -0.187E-27a.u.
   SCALEE = 1.0000    scale energy and forces
   NPACO  =    256;   APACO  = 16.0  distance and # of slots for P.C.
   PSTRESS=    0.0 pullay stress

  Mass of Ions in am
   POMASS =  92.91
  Ionic Valenz
   ZVAL   =  11.00
  Atomic Wigner-Seitz radii
   RWIGS  =  -1.00
  virtual crystal weights 
   VCA    =   1.00
   NELECT =      11.0000    total number of electrons
   NUPDOWN=      -1.0000    fix difference up-down

 DOS related values:
   EMIN   =  10.00;   EMAX   =-10.00  energy-range for DOS
   EFERMI =   0.00
   ISMEAR =    -5;   SIGMA  =   0.20  broadening in eV -4-tet -1-fermi 0-gaus

 Electronic relaxation 2 (details)
   IALGO  =     38    algorithm
   LDIAG  =      T    sub-space diagonalisation (order eigenvalues)
   LSUBROT=      F    optimize rotation matrix (better conditioning)
   TURBO    =      0    0=normal 1=particle mesh
   IRESTART =      0    0=no restart 2=restart with 2 vectors
   NREBOOT  =      0    no. of reboots
   NMIN     =      0    reboot dimension
   EREF     =   0.00    reference energy to select bands
   IMIX   =      4    mixing-type and parameters
     AMIX     =   0.40;   BMIX     =  1.00
     AMIX_MAG =   1.60;   BMIX_MAG =  1.00
     AMIN     =   0.10
     WC   =   100.;   INIMIX=   1;  MIXPRE=   1;  MAXMIX= -45

 Intra band minimization:
   WEIMIN = 0.0000     energy-eigenvalue tresh-hold
   EBREAK =  0.63E-09  absolut break condition
   DEPER  =   0.30     relativ break condition  

   TIME   =   0.40     timestep for ELM

  volume/ion in A,a.u.               =      17.98       121.35
  Fermi-wavevector in a.u.,A,eV,Ry     =   1.389728  2.626205 26.277534  1.931344
  Thomas-Fermi vector in A             =   2.513731
 
 Write flags
   LWAVE        =      T    write WAVECAR
   LDOWNSAMPLE  =      F    k-point downsampling of WAVECAR
   LCHARG       =      T    write CHGCAR
   LVTOT        =      F    write LOCPOT, total local potential
   LVHAR        =      F    write LOCPOT, Hartree potential only
   LELF         =      F    write electronic localiz. function (ELF)
   LORBIT       =      0    0 simple, 1 ext, 2 COOP (PROOUT), +10 PAW based schemes


 Dipole corrections
   LMONO  =      F    monopole corrections only (constant potential shift)
   LDIPOL =      F    correct potential (dipole corrections)
   IDIPOL =      0    1-x, 2-y, 3-z, 4-all directions 
   EPSILON=  1.0000000 bulk dielectric constant

 Exchange correlation treatment:
   GGA     =    --    GGA type
   LEXCH   =     2    internal setting for exchange type
   VOSKOWN=      0    Vosko Wilk Nusair interpolation
   LHFCALC =     F    Hartree Fock is set to
   LHFONE  =     F    Hartree Fock one center treatment
   AEXX    =    0.0000 exact exchange contribution

 Linear response parameters
   LEPSILON=     F    determine dielectric tensor
   LRPA    =     F    only Hartree local field effects (RPA)
   LNABLA  =     F    use nabla operator in PAW spheres
   LVEL    =     F    velocity operator in full k-point grid
   LINTERFAST=   F  fast interpolation
   KINTER  =     0    interpolate to denser k-point grid
   CSHIFT  =0.1000    complex shift for real part using Kramers Kronig
   OMEGAMAX=  -1.0    maximum frequency
   DEG_THRESHOLD= 0.2000000E-02 threshold for treating states as degnerate
   RTIME   =   -0.100 relaxation time in fs
  (WPLASMAI=    0.000 imaginary part of plasma frequency in eV, 0.658/RTIME)
   DFIELD  = 0.0000000 0.0000000 0.0000000 field for delta impulse in time
 
 Orbital magnetization related:
   ORBITALMAG=     F  switch on orbital magnetization
   LCHIMAG   =     F  perturbation theory with respect to B field
   DQ        =  0.001000  dq finite difference perturbation B field
   LLRAUG    =     F  two centre corrections for induced B field



--------------------------------------------------------------------------------------------------------


 Static calculation
 charge density and potential will be updated during run
 non-spin polarized calculation
 Variant of blocked Davidson
 Davidson routine will perform the subspace rotation
 perform sub-space diagonalisation
    after iterative eigenvector-optimisation
 modified Broyden-mixing scheme, WC =      100.0
 initial mixing is a Kerker type mixing with AMIX =  0.4000 and BMIX =      1.0000
 Hartree-type preconditioning will be used
 using additional bands           34
 reciprocal scheme for non local part
 use partial core corrections
 calculate Harris-corrections to forces 
   (improved forces if not selfconsistent)
 use of overlap-Matrix (Vanderbilt PP)
 Fermi weights with tetrahedron method with Bloechl corrections


--------------------------------------------------------------------------------------------------------


  energy-cutoff  :      300.00
  volume of cell :       17.98
      direct lattice vectors                 reciprocal lattice vectors
    -1.650400000  1.650400000  1.650400000     0.000000000  0.302956859  0.302956859
     1.650400000 -1.650400000  1.650400000     0.302956859  0.000000000  0.302956859
     1.650400000  1.650400000 -1.650400000     0.302956859  0.302956859  0.000000000

  length of vectors
     2.858576653  2.858576653  2.858576653     0.428445699  0.428445699  0.428445699


 
 k-points in units of 2pi/SCALE and weight: 16*16*16                                
   0.06250000  0.06250000  0.06250000       0.002
   0.06250000  0.12500000  0.12500000       0.006
   0.06250000  0.18750000  0.18750000       0.006
   0.06250000  0.25000000  0.25000000       0.006
   0.06250000  0.31250000  0.31250000       0.006
   0.06250000  0.37500000  0.37500000       0.006
   0.06250000  0.43750000  0.43750000       0.006
   0.06250000  0.50000000  0.50000000       0.003
   0.06250000  0.00000000  0.00000000       0.001
   0.12500000  0.12500000  0.18750000       0.006
   0.12500000  0.18750000  0.25000000       0.012
   0.12500000  0.25000000  0.31250000       0.012
   0.12500000  0.31250000  0.37500000       0.012
   0.12500000  0.37500000  0.43750000       0.012
   0.12500000  0.43750000  0.50000000       0.012
   0.12500000 -0.06250000  0.00000000       0.006
   0.18750000  0.18750000  0.31250000       0.006
   0.18750000  0.25000000  0.37500000       0.012
   0.18750000  0.31250000  0.43750000       0.012
   0.18750000  0.37500000  0.50000000       0.012
   0.18750000  0.43750000  0.56250000       0.006
   0.18750000 -0.12500000  0.00000000       0.006
   0.18750000 -0.06250000  0.06250000       0.006
   0.25000000  0.25000000  0.43750000       0.006
   0.25000000  0.31250000  0.50000000       0.012
   0.25000000  0.37500000  0.56250000       0.012
   0.25000000 -0.18750000  0.00000000       0.006
   0.25000000 -0.12500000  0.06250000       0.012
   0.31250000  0.31250000  0.56250000       0.006
   0.31250000  0.37500000  0.62500000       0.006
   0.31250000 -0.25000000  0.00000000       0.006
   0.31250000 -0.18750000  0.06250000       0.012
   0.31250000 -0.12500000  0.12500000       0.006
   0.37500000 -0.31250000  0.00000000       0.006
   0.37500000 -0.25000000  0.06250000       0.012
   0.37500000 -0.18750000  0.12500000       0.012
   0.43750000 -0.37500000  0.00000000       0.006
   0.43750000 -0.31250000  0.06250000       0.012
   0.43750000 -0.25000000  0.12500000       0.012
   0.43750000 -0.18750000  0.18750000       0.006
   0.50000000 -0.43750000  0.00000000       0.006
   0.50000000 -0.37500000  0.06250000       0.012
   0.50000000 -0.31250000  0.12500000       0.012
   0.50000000 -0.25000000  0.18750000       0.012
  -0.43750000 -0.43750000 -0.93750000       0.006
  -0.43750000 -0.37500000 -0.87500000       0.012
  -0.43750000 -0.31250000 -0.81250000       0.012
  -0.43750000 -0.25000000 -0.75000000       0.006
  -0.37500000 -0.37500000 -0.81250000       0.006
  -0.37500000 -0.31250000 -0.75000000       0.012
  -0.31250000 -0.31250000 -0.68750000       0.002
   0.18750000  0.18750000  0.18750000       0.002
   0.18750000  0.25000000  0.25000000       0.006
   0.18750000  0.31250000  0.31250000       0.006
   0.18750000  0.37500000  0.37500000       0.006
   0.18750000  0.43750000  0.43750000       0.006
   0.18750000  0.50000000  0.50000000       0.003
   0.18750000  0.00000000  0.00000000       0.001
   0.25000000  0.25000000  0.31250000       0.006
   0.25000000  0.31250000  0.37500000       0.012
   0.25000000  0.37500000  0.43750000       0.012
   0.25000000  0.43750000  0.50000000       0.012
   0.25000000 -0.06250000  0.00000000       0.006
   0.31250000  0.31250000  0.43750000       0.006
   0.31250000  0.37500000  0.50000000       0.012
   0.31250000  0.43750000  0.56250000       0.006
   0.31250000 -0.12500000  0.00000000       0.006
   0.31250000 -0.06250000  0.06250000       0.006
   0.37500000  0.37500000  0.56250000       0.006
   0.37500000 -0.18750000  0.00000000       0.006
   0.37500000 -0.12500000  0.06250000       0.012
   0.43750000 -0.25000000  0.00000000       0.006
   0.43750000 -0.18750000  0.06250000       0.012
   0.43750000 -0.12500000  0.12500000       0.006
   0.50000000 -0.31250000  0.00000000       0.006
   0.50000000 -0.25000000  0.06250000       0.012
   0.50000000 -0.18750000  0.12500000       0.012
   0.56250000 -0.37500000  0.00000000       0.006
   0.56250000 -0.31250000  0.06250000       0.012
   0.56250000 -0.25000000  0.12500000       0.012
   0.56250000 -0.18750000  0.18750000       0.006
  -0.37500000 -0.37500000 -0.93750000       0.006
  -0.37500000 -0.31250000 -0.87500000       0.012
  -0.37500000 -0.25000000 -0.81250000       0.012
  -0.31250000 -0.31250000 -0.81250000       0.006
  -0.31250000 -0.25000000 -0.75000000       0.006
   0.31250000  0.31250000  0.31250000       0.002
   0.31250000  0.37500000  0.37500000       0.006
   0.31250000  0.43750000  0.43750000       0.006
   0.31250000  0.50000000  0.50000000       0.003
   0.31250000  0.00000000  0.00000000       0.001
   0.37500000  0.37500000  0.43750000       0.006
   0.37500000  0.43750000  0.50000000       0.012
   0.37500000 -0.06250000  0.00000000       0.006
   0.43750000  0.43750000  0.56250000       0.002
   0.43750000 -0.12500000  0.00000000       0.006
   0.43750000 -0.06250000  0.06250000       0.006
   0.50000000 -0.18750000  0.00000000       0.006
   0.50000000 -0.12500000  0.06250000       0.012
   0.56250000 -0.25000000  0.00000000       0.006
   0.56250000 -0.18750000  0.06250000       0.012
   0.56250000 -0.12500000  0.12500000       0.006
   0.62500000 -0.31250000  0.00000000       0.006
   0.62500000 -0.25000000  0.06250000       0.012
   0.62500000 -0.18750000  0.12500000       0.012
  -0.31250000 -0.31250000 -0.93750000       0.006
  -0.31250000 -0.25000000 -0.87500000       0.012
  -0.31250000 -0.18750000 -0.81250000       0.006
  -0.25000000 -0.25000000 -0.81250000       0.006
   0.43750000  0.43750000  0.43750000       0.002
   0.43750000  0.50000000  0.50000000       0.003
   0.43750000  0.00000000  0.00000000       0.001
   0.50000000 -0.06250000  0.00000000       0.006
   0.56250000 -0.12500000  0.00000000       0.006
   0.56250000 -0.06250000  0.06250000       0.006
   0.62500000 -0.18750000  0.00000000       0.006
   0.62500000 -0.12500000  0.06250000       0.012
   0.68750000 -0.25000000  0.00000000       0.006
   0.68750000 -0.18750000  0.06250000       0.012
   0.68750000 -0.12500000  0.12500000       0.006
  -0.25000000 -0.25000000 -0.93750000       0.006
  -0.25000000 -0.18750000 -0.87500000       0.012
  -0.18750000 -0.18750000 -0.81250000       0.002
   0.56250000  0.00000000  0.00000000       0.001
   0.62500000 -0.06250000  0.00000000       0.006
   0.68750000 -0.12500000  0.00000000       0.006
   0.68750000 -0.06250000  0.06250000       0.006
   0.75000000 -0.18750000  0.00000000       0.006
   0.75000000 -0.12500000  0.06250000       0.012
  -0.18750000 -0.18750000 -0.93750000       0.006
  -0.18750000 -0.12500000 -0.87500000       0.006
   0.68750000  0.00000000  0.00000000       0.001
   0.75000000 -0.06250000  0.00000000       0.006
   0.81250000 -0.12500000  0.00000000       0.006
   0.81250000 -0.06250000  0.06250000       0.006
  -0.12500000 -0.12500000 -0.93750000       0.006
   0.81250000  0.00000000  0.00000000       0.001
   0.87500000 -0.06250000  0.00000000       0.006
  -0.06250000 -0.06250000 -0.93750000       0.002
   0.93750000  0.00000000  0.00000000       0.001
 
 k-points in reciprocal lattice and weights: 16*16*16                                
   0.03125000  0.03125000  0.03125000       0.002
   0.09375000  0.03125000  0.03125000       0.006
   0.15625000  0.03125000  0.03125000       0.006
   0.21875000  0.03125000  0.03125000       0.006
   0.28125000  0.03125000  0.03125000       0.006
   0.34375000  0.03125000  0.03125000       0.006
   0.40625000  0.03125000  0.03125000       0.006
   0.46875000  0.03125000  0.03125000       0.003
  -0.03125000  0.03125000  0.03125000       0.001
   0.09375000  0.09375000  0.03125000       0.006
   0.15625000  0.09375000  0.03125000       0.012
   0.21875000  0.09375000  0.03125000       0.012
   0.28125000  0.09375000  0.03125000       0.012
   0.34375000  0.09375000  0.03125000       0.012
   0.40625000  0.09375000  0.03125000       0.012
  -0.09375000  0.09375000  0.03125000       0.006
   0.15625000  0.15625000  0.03125000       0.006
   0.21875000  0.15625000  0.03125000       0.012
   0.28125000  0.15625000  0.03125000       0.012
   0.34375000  0.15625000  0.03125000       0.012
   0.40625000  0.15625000  0.03125000       0.006
  -0.15625000  0.15625000  0.03125000       0.006
  -0.09375000  0.15625000  0.03125000       0.006
   0.21875000  0.21875000  0.03125000       0.006
   0.28125000  0.21875000  0.03125000       0.012
   0.34375000  0.21875000  0.03125000       0.012
  -0.21875000  0.21875000  0.03125000       0.006
  -0.15625000  0.21875000  0.03125000       0.012
   0.28125000  0.28125000  0.03125000       0.006
   0.34375000  0.28125000  0.03125000       0.006
  -0.28125000  0.28125000  0.03125000       0.006
  -0.21875000  0.28125000  0.03125000       0.012
  -0.15625000  0.28125000  0.03125000       0.006
  -0.34375000  0.34375000  0.03125000       0.006
  -0.28125000  0.34375000  0.03125000       0.012
  -0.21875000  0.34375000  0.03125000       0.012
  -0.40625000  0.40625000  0.03125000       0.006
  -0.34375000  0.40625000  0.03125000       0.012
  -0.28125000  0.40625000  0.03125000       0.012
  -0.21875000  0.40625000  0.03125000       0.006
  -0.46875000  0.46875000  0.03125000       0.006
  -0.40625000  0.46875000  0.03125000       0.012
  -0.34375000  0.46875000  0.03125000       0.012
  -0.28125000  0.46875000  0.03125000       0.012
  -0.46875000 -0.46875000  0.03125000       0.006
  -0.40625000 -0.46875000  0.03125000       0.012
  -0.34375000 -0.46875000  0.03125000       0.012
  -0.28125000 -0.46875000  0.03125000       0.006
  -0.40625000 -0.40625000  0.03125000       0.006
  -0.34375000 -0.40625000  0.03125000       0.012
  -0.34375000 -0.34375000  0.03125000       0.002
   0.09375000  0.09375000  0.09375000       0.002
   0.15625000  0.09375000  0.09375000       0.006
   0.21875000  0.09375000  0.09375000       0.006
   0.28125000  0.09375000  0.09375000       0.006
   0.34375000  0.09375000  0.09375000       0.006
   0.40625000  0.09375000  0.09375000       0.003
  -0.09375000  0.09375000  0.09375000       0.001
   0.15625000  0.15625000  0.09375000       0.006
   0.21875000  0.15625000  0.09375000       0.012
   0.28125000  0.15625000  0.09375000       0.012
   0.34375000  0.15625000  0.09375000       0.012
  -0.15625000  0.15625000  0.09375000       0.006
   0.21875000  0.21875000  0.09375000       0.006
   0.28125000  0.21875000  0.09375000       0.012
   0.34375000  0.21875000  0.09375000       0.006
  -0.21875000  0.21875000  0.09375000       0.006
  -0.15625000  0.21875000  0.09375000       0.006
   0.28125000  0.28125000  0.09375000       0.006
  -0.28125000  0.28125000  0.09375000       0.006
  -0.21875000  0.28125000  0.09375000       0.012
  -0.34375000  0.34375000  0.09375000       0.006
  -0.28125000  0.34375000  0.09375000       0.012
  -0.21875000  0.34375000  0.09375000       0.006
  -0.40625000  0.40625000  0.09375000       0.006
  -0.34375000  0.40625000  0.09375000       0.012
  -0.28125000  0.40625000  0.09375000       0.012
  -0.46875000  0.46875000  0.09375000       0.006
  -0.40625000  0.46875000  0.09375000       0.012
  -0.34375000  0.46875000  0.09375000       0.012
  -0.28125000  0.46875000  0.09375000       0.006
  -0.46875000 -0.46875000  0.09375000       0.006
  -0.40625000 -0.46875000  0.09375000       0.012
  -0.34375000 -0.46875000  0.09375000       0.012
  -0.40625000 -0.40625000  0.09375000       0.006
  -0.34375000 -0.40625000  0.09375000       0.006
   0.15625000  0.15625000  0.15625000       0.002
   0.21875000  0.15625000  0.15625000       0.006
   0.28125000  0.15625000  0.15625000       0.006
   0.34375000  0.15625000  0.15625000       0.003
  -0.15625000  0.15625000  0.15625000       0.001
   0.21875000  0.21875000  0.15625000       0.006
   0.28125000  0.21875000  0.15625000       0.012
  -0.21875000  0.21875000  0.15625000       0.006
   0.28125000  0.28125000  0.15625000       0.002
  -0.28125000  0.28125000  0.15625000       0.006
  -0.21875000  0.28125000  0.15625000       0.006
  -0.34375000  0.34375000  0.15625000       0.006
  -0.28125000  0.34375000  0.15625000       0.012
  -0.40625000  0.40625000  0.15625000       0.006
  -0.34375000  0.40625000  0.15625000       0.012
  -0.28125000  0.40625000  0.15625000       0.006
  -0.46875000  0.46875000  0.15625000       0.006
  -0.40625000  0.46875000  0.15625000       0.012
  -0.34375000  0.46875000  0.15625000       0.012
  -0.46875000 -0.46875000  0.15625000       0.006
  -0.40625000 -0.46875000  0.15625000       0.012
  -0.34375000 -0.46875000  0.15625000       0.006
  -0.40625000 -0.40625000  0.15625000       0.006
   0.21875000  0.21875000  0.21875000       0.002
   0.28125000  0.21875000  0.21875000       0.003
  -0.21875000  0.21875000  0.21875000       0.001
  -0.28125000  0.28125000  0.21875000       0.006
  -0.34375000  0.34375000  0.21875000       0.006
  -0.28125000  0.34375000  0.21875000       0.006
  -0.40625000  0.40625000  0.21875000       0.006
  -0.34375000  0.40625000  0.21875000       0.012
  -0.46875000  0.46875000  0.21875000       0.006
  -0.40625000  0.46875000  0.21875000       0.012
  -0.34375000  0.46875000  0.21875000       0.006
  -0.46875000 -0.46875000  0.21875000       0.006
  -0.40625000 -0.46875000  0.21875000       0.012
  -0.40625000 -0.40625000  0.21875000       0.002
  -0.28125000  0.28125000  0.28125000       0.001
  -0.34375000  0.34375000  0.28125000       0.006
  -0.40625000  0.40625000  0.28125000       0.006
  -0.34375000  0.40625000  0.28125000       0.006
  -0.46875000  0.46875000  0.28125000       0.006
  -0.40625000  0.46875000  0.28125000       0.012
  -0.46875000 -0.46875000  0.28125000       0.006
  -0.40625000 -0.46875000  0.28125000       0.006
  -0.34375000  0.34375000  0.34375000       0.001
  -0.40625000  0.40625000  0.34375000       0.006
  -0.46875000  0.46875000  0.34375000       0.006
  -0.40625000  0.46875000  0.34375000       0.006
  -0.46875000 -0.46875000  0.34375000       0.006
  -0.40625000  0.40625000  0.40625000       0.001
  -0.46875000  0.46875000  0.40625000       0.006
  -0.46875000 -0.46875000  0.40625000       0.002
  -0.46875000  0.46875000  0.46875000       0.001
 
 position of ions in fractional coordinates (direct lattice) 
   0.00000000  0.00000000  0.00000000
 
 position of ions in cartesian coordinates  (Angst):
   0.00000000  0.00000000  0.00000000
 


--------------------------------------------------------------------------------------------------------


 k-point  1 :   0.0312 0.0312 0.0312  plane waves:     207
 k-point  2 :   0.0938 0.0312 0.0312  plane waves:     209
 k-point  3 :   0.1563 0.0313 0.0312  plane waves:     207
 k-point  4 :   0.2188 0.0312 0.0312  plane waves:     208
 k-point  5 :   0.2812 0.0312 0.0312  plane waves:     207
 k-point  6 :   0.3438 0.0312 0.0312  plane waves:     203
 k-point  7 :   0.4063 0.0312 0.0312  plane waves:     208
 k-point  8 :   0.4688 0.0312 0.0312  plane waves:     208
 k-point  9 :  -0.0312 0.0312 0.0312  plane waves:     209
 k-point 10 :   0.0938 0.0938 0.0312  plane waves:     208
 k-point 11 :   0.1563 0.0937 0.0312  plane waves:     208
 k-point 12 :   0.2188 0.0938 0.0312  plane waves:     209
 k-point 13 :   0.2812 0.0938 0.0312  plane waves:     206
 k-point 14 :   0.3438 0.0938 0.0312  plane waves:     210
 k-point 15 :   0.4062 0.0937 0.0312  plane waves:     210
 k-point 16 :  -0.0938 0.0938 0.0312  plane waves:     211
 k-point 17 :   0.1563 0.1563 0.0312  plane waves:     208
 k-point 18 :   0.2188 0.1563 0.0312  plane waves:     210
 k-point 19 :   0.2812 0.1562 0.0312  plane waves:     211
 k-point 20 :   0.3438 0.1562 0.0312  plane waves:     211
 k-point 21 :   0.4063 0.1563 0.0312  plane waves:     208
 k-point 22 :  -0.1562 0.1562 0.0313  plane waves:     209
 k-point 23 :  -0.0938 0.1562 0.0313  plane waves:     210
 k-point 24 :   0.2188 0.2188 0.0312  plane waves:     211
 k-point 25 :   0.2812 0.2188 0.0312  plane waves:     212
 k-point 26 :   0.3438 0.2188 0.0312  plane waves:     212
 k-point 27 :  -0.2188 0.2188 0.0312  plane waves:     211
 k-point 28 :  -0.1562 0.2188 0.0312  plane waves:     209
 k-point 29 :   0.2812 0.2812 0.0312  plane waves:     213
 k-point 30 :   0.3438 0.2813 0.0312  plane waves:     214
 k-point 31 :  -0.2812 0.2812 0.0312  plane waves:     207
 k-point 32 :  -0.2188 0.2812 0.0312  plane waves:     210
 k-point 33 :  -0.1563 0.2812 0.0313  plane waves:     211
 k-point 34 :  -0.3438 0.3438 0.0312  plane waves:     207
 k-point 35 :  -0.2812 0.3438 0.0312  plane waves:     207
 k-point 36 :  -0.2188 0.3438 0.0312  plane waves:     209
 k-point 37 :  -0.4063 0.4063 0.0312  plane waves:     205
 k-point 38 :  -0.3438 0.4063 0.0312  plane waves:     207
 k-point 39 :  -0.2812 0.4062 0.0313  plane waves:     212
 k-point 40 :  -0.2188 0.4063 0.0312  plane waves:     208
 k-point 41 :  -0.4688 0.4688 0.0312  plane waves:     208
 k-point 42 :  -0.4062 0.4688 0.0312  plane waves:     209
 k-point 43 :  -0.3438 0.4688 0.0312  plane waves:     210
 k-point 44 :  -0.2812 0.4688 0.0312  plane waves:     216
 k-point 45 :  -0.4688-0.4688 0.0312  plane waves:     208
 k-point 46 :  -0.4063-0.4688 0.0312  plane waves:     214
 k-point 47 :  -0.3438-0.4688 0.0312  plane waves:     215
 k-point 48 :  -0.2812-0.4688 0.0312  plane waves:     216
 k-point 49 :  -0.4063-0.4063 0.0312  plane waves:     213
 k-point 50 :  -0.3438-0.4062 0.0312  plane waves:     215
 k-point 51 :  -0.3438-0.3438 0.0312  plane waves:     213
 k-point 52 :   0.0938 0.0938 0.0938  plane waves:     210
 k-point 53 :   0.1562 0.0938 0.0938  plane waves:     210
 k-point 54 :   0.2188 0.0938 0.0937  plane waves:     211
 k-point 55 :   0.2812 0.0938 0.0938  plane waves:     209
 k-point 56 :   0.3438 0.0938 0.0938  plane waves:     211
 k-point 57 :   0.4062 0.0938 0.0938  plane waves:     206
 k-point 58 :  -0.0938 0.0938 0.0938  plane waves:     213
 k-point 59 :   0.1563 0.1563 0.0937  plane waves:     214
 k-point 60 :   0.2188 0.1562 0.0937  plane waves:     211
 k-point 61 :   0.2812 0.1562 0.0938  plane waves:     210
 k-point 62 :   0.3438 0.1562 0.0938  plane waves:     210
 k-point 63 :  -0.1562 0.1562 0.0938  plane waves:     209
 k-point 64 :   0.2188 0.2188 0.0938  plane waves:     212
 k-point 65 :   0.2812 0.2188 0.0938  plane waves:     211
 k-point 66 :   0.3438 0.2188 0.0937  plane waves:     214
 k-point 67 :  -0.2188 0.2188 0.0938  plane waves:     210
 k-point 68 :  -0.1563 0.2188 0.0938  plane waves:     210
 k-point 69 :   0.2812 0.2812 0.0938  plane waves:     214
 k-point 70 :  -0.2812 0.2812 0.0938  plane waves:     210
 k-point 71 :  -0.2188 0.2812 0.0938  plane waves:     211
 k-point 72 :  -0.3438 0.3438 0.0938  plane waves:     210
 k-point 73 :  -0.2812 0.3438 0.0938  plane waves:     213
 k-point 74 :  -0.2188 0.3438 0.0938  plane waves:     215
 k-point 75 :  -0.4062 0.4062 0.0937  plane waves:     214
 k-point 76 :  -0.3438 0.4062 0.0938  plane waves:     213
 k-point 77 :  -0.2812 0.4062 0.0937  plane waves:     214
 k-point 78 :  -0.4688 0.4688 0.0938  plane waves:     210
 k-point 79 :  -0.4063 0.4688 0.0938  plane waves:     212
 k-point 80 :  -0.3438 0.4688 0.0938  plane waves:     214
 k-point 81 :  -0.2813 0.4688 0.0938  plane waves:     216
 k-point 82 :  -0.4688-0.4688 0.0938  plane waves:     212
 k-point 83 :  -0.4063-0.4688 0.0937  plane waves:     213
 k-point 84 :  -0.3438-0.4688 0.0938  plane waves:     214
 k-point 85 :  -0.4063-0.4063 0.0938  plane waves:     214
 k-point 86 :  -0.3438-0.4062 0.0938  plane waves:     217
 k-point 87 :   0.1563 0.1563 0.1563  plane waves:     210
 k-point 88 :   0.2188 0.1563 0.1563  plane waves:     210
 k-point 89 :   0.2812 0.1563 0.1562  plane waves:     214
 k-point 90 :   0.3438 0.1563 0.1562  plane waves:     214
 k-point 91 :  -0.1563 0.1563 0.1563  plane waves:     213
 k-point 92 :   0.2188 0.2188 0.1563  plane waves:     216
 k-point 93 :   0.2812 0.2188 0.1562  plane waves:     214
 k-point 94 :  -0.2188 0.2188 0.1563  plane waves:     212
 k-point 95 :   0.2812 0.2812 0.1562  plane waves:     216
 k-point 96 :  -0.2812 0.2812 0.1562  plane waves:     211
 k-point 97 :  -0.2188 0.2812 0.1562  plane waves:     214
 k-point 98 :  -0.3438 0.3438 0.1562  plane waves:     213
 k-point 99 :  -0.2812 0.3438 0.1562  plane waves:     215
 k-point ** :  -0.4063 0.4063 0.1563  plane waves:     215
 k-point ** :  -0.3438 0.4063 0.1563  plane waves:     215
 k-point ** :  -0.2813 0.4063 0.1563  plane waves:     217
 k-point ** :  -0.4688 0.4688 0.1563  plane waves:     209
 k-point ** :  -0.4063 0.4688 0.1563  plane waves:     214
 k-point ** :  -0.3438 0.4688 0.1563  plane waves:     216
 k-point ** :  -0.4688-0.4688 0.1562  plane waves:     212
 k-point ** :  -0.4062-0.4688 0.1562  plane waves:     212
 k-point ** :  -0.3438-0.4688 0.1563  plane waves:     213
 k-point ** :  -0.4063-0.4063 0.1563  plane waves:     212
 k-point ** :   0.2188 0.2188 0.2188  plane waves:     216
 k-point ** :   0.2812 0.2188 0.2188  plane waves:     216
 k-point ** :  -0.2188 0.2188 0.2188  plane waves:     209
 k-point ** :  -0.2812 0.2812 0.2188  plane waves:     209
 k-point ** :  -0.3438 0.3438 0.2188  plane waves:     217
 k-point ** :  -0.2813 0.3438 0.2188  plane waves:     213
 k-point ** :  -0.4063 0.4063 0.2188  plane waves:     215
 k-point ** :  -0.3438 0.4063 0.2188  plane waves:     215
 k-point ** :  -0.4688 0.4688 0.2188  plane waves:     214
 k-point ** :  -0.4062 0.4688 0.2188  plane waves:     214
 k-point ** :  -0.3438 0.4688 0.2188  plane waves:     216
 k-point ** :  -0.4688-0.4688 0.2188  plane waves:     214
 k-point ** :  -0.4063-0.4688 0.2188  plane waves:     215
 k-point ** :  -0.4063-0.4063 0.2188  plane waves:     218
 k-point ** :  -0.2812 0.2812 0.2812  plane waves:     209
 k-point ** :  -0.3438 0.3438 0.2813  plane waves:     215
 k-point ** :  -0.4062 0.4062 0.2812  plane waves:     216
 k-point ** :  -0.3438 0.4062 0.2812  plane waves:     218
 k-point ** :  -0.4688 0.4688 0.2812  plane waves:     218
 k-point ** :  -0.4062 0.4688 0.2812  plane waves:     219
 k-point ** :  -0.4688-0.4688 0.2812  plane waves:     218
 k-point ** :  -0.4063-0.4688 0.2812  plane waves:     218
 k-point ** :  -0.3438 0.3438 0.3438  plane waves:     220
 k-point ** :  -0.4062 0.4062 0.3438  plane waves:     218
 k-point ** :  -0.4688 0.4688 0.3438  plane waves:     220
 k-point ** :  -0.4063 0.4688 0.3438  plane waves:     222
 k-point ** :  -0.4688-0.4688 0.3438  plane waves:     222
 k-point ** :  -0.4063 0.4063 0.4063  plane waves:     220
 k-point ** :  -0.4688 0.4688 0.4063  plane waves:     224
 k-point ** :  -0.4688-0.4688 0.4063  plane waves:     230
 k-point ** :  -0.4688 0.4688 0.4688  plane waves:     236

 maximum and minimum number of plane-waves per node :       236      203

 maximum number of plane-waves:       236
 maximum index in each direction: 
   IXMAX=    4   IYMAX=    4   IZMAX=    4
   IXMIN=   -4   IYMIN=   -4   IZMIN=   -4


 serial   3D FFT for wavefunctions
 parallel 3D FFT for charge:
    minimum data exchange during FFTs selected (reduces bandwidth)


 total amount of memory used by VASP MPI-rank0    35640. kBytes
=======================================================================

   base      :      30000. kBytes
   nonl-proj :       4842. kBytes
   fftplans  :         55. kBytes
   grid      :        101. kBytes
   one-center:         15. kBytes
   wavefun   :        627. kBytes
 
     INWAV:  cpu time    0.0000: real time    0.0000
 Broyden mixing: mesh for mixing (old mesh)
   NGX =  7   NGY =  7   NGZ =  7
  (NGX  = 24   NGY  = 24   NGZ  = 24)
  gives a total of    343 points

 initial charge density was supplied:
 charge density of overlapping atoms calculated
 number of electron      11.0000000 magnetization 
 keeping initial charge density in first step


--------------------------------------------------------------------------------------------------------


 Maximum index for augmentation-charges          345 (set IRDMAX)


--------------------------------------------------------------------------------------------------------


 First call to EWALD:  gamma=   0.677
 Maximum number of real-space cells 3x 3x 3
 Maximum number of reciprocal cells 3x 3x 3

    FEWALD:  cpu time    0.0016: real time    0.0024


--------------------------------------- Iteration      1(   1)  ---------------------------------------


    POTLOK:  cpu time    0.0141: real time    0.0200
    SETDIJ:  cpu time    0.0058: real time    0.0087
     EDDAV:  cpu time    2.0170: real time    2.0386
 BZINTS: Fermi energy:  5.555726; 11.000000 electrons
         Band energy:-124.463253;  BLOECHL correction: -0.059198
       DOS:  cpu time    0.3432: real time    0.3476
    --------------------------------------------
      LOOP:  cpu time    2.3801: real time    2.4149

 eigenvalue-minimisations  : 15160
 total energy-change (2. order) :-0.1064472E+02  (-0.5472837E+03)
 number of electron      11.0000000 magnetization 
 augmentation part       11.0000000 magnetization 

 Free energy of the ion-electron system (eV)
  ---------------------------------------------------
  alpha Z        PSCENC =       124.80261925
  Ewald energy   TEWEN  =      -960.51057943
  -Hartree energ DENC   =      -135.96918557
  -exchange      EXHF   =         0.00000000
  -V(xc)+E(xc)   XCENC  =        27.29587705
  PAW double counting   =       833.59079063     -821.75412581
  entropy T*S    EENTRO =         0.00000000
  eigenvalues    EBANDS =      -124.46325310
  atomic energy  EATOM  =      1046.36313925
  Solvation  Ediel_sol  =         0.00000000
  ---------------------------------------------------
  free energy    TOTEN  =       -10.64471774 eV

  energy without entropy =      -10.64471774  energy(sigma->0) =      -10.64471774


--------------------------------------------------------------------------------------------------------




--------------------------------------- Iteration      1(   2)  ---------------------------------------


     EDDAV:  cpu time    1.4313: real time    1.4372
 BZINTS: Fermi energy:  5.349625; 11.000000 electrons
         Band energy:-125.503115;  BLOECHL correction: -0.044679
       DOS:  cpu time    0.3525: real time    0.3533
    --------------------------------------------
      LOOP:  cpu time    1.7838: real time    1.7905

 eigenvalue-minimisations  : 12240
 total energy-change (2. order) :-0.1039862E+01  (-0.1016455E+01)
 number of electron      11.0000000 magnetization 
 augmentation part       11.0000000 magnetization 

 Free energy of the ion-electron system (eV)
  ---------------------------------------------------
  alpha Z        PSCENC =       124.80261925
  Ewald energy   TEWEN  =      -960.51057943
  -Hartree energ DENC   =      -135.96918557
  -exchange      EXHF   =         0.00000000
  -V(xc)+E(xc)   XCENC  =        27.29587705
  PAW double counting   =       833.59079063     -821.75412581
  entropy T*S    EENTRO =         0.00000000
  eigenvalues    EBANDS =      -125.50311537
  atomic energy  EATOM  =      1046.36313925
  Solvation  Ediel_sol  =         0.00000000
  ---------------------------------------------------
  free energy    TOTEN  =       -11.68458000 eV

  energy without entropy =      -11.68458000  energy(sigma->0) =      -11.68458000


--------------------------------------------------------------------------------------------------------




--------------------------------------- Iteration      1(   3)  ---------------------------------------


     EDDAV:  cpu time    3.0427: real time    3.0570
 BZINTS: Fermi energy:  5.349569; 11.000000 electrons
         Band energy:-125.503370;  BLOECHL correction: -0.044675
       DOS:  cpu time    0.3524: real time    0.3534
    --------------------------------------------
      LOOP:  cpu time    3.3950: real time    3.4104

 eigenvalue-minimisations  : 18840
 total energy-change (2. order) :-0.2549626E-03  (-0.2560165E-03)
 number of electron      11.0000000 magnetization 
 augmentation part       11.0000000 magnetization 

 Free energy of the ion-electron system (eV)
  ---------------------------------------------------
  alpha Z        PSCENC =       124.80261925
  Ewald energy   TEWEN  =      -960.51057943
  -Hartree energ DENC   =      -135.96918557
  -exchange      EXHF   =         0.00000000
  -V(xc)+E(xc)   XCENC  =        27.29587705
  PAW double counting   =       833.59079063     -821.75412581
  entropy T*S    EENTRO =         0.00000000
  eigenvalues    EBANDS =      -125.50337033
  atomic energy  EATOM  =      1046.36313925
  Solvation  Ediel_sol  =         0.00000000
  ---------------------------------------------------
  free energy    TOTEN  =       -11.68483496 eV

  energy without entropy =      -11.68483496  energy(sigma->0) =      -11.68483496


--------------------------------------------------------------------------------------------------------




--------------------------------------- Iteration      1(   4)  ---------------------------------------


     EDDAV:  cpu time    1.5391: real time    1.5459
 BZINTS: Fermi energy:  5.349569; 11.000000 electrons
         Band energy:-125.503370;  BLOECHL correction: -0.044675
       DOS:  cpu time    0.3523: real time    0.3534
    --------------------------------------------
      LOOP:  cpu time    1.8914: real time    1.8993

 eigenvalue-minimisations  : 12680
 total energy-change (2. order) :-0.1125727E-08  (-0.5918623E-09)
 number of electron      11.0000000 magnetization 
 augmentation part       11.0000000 magnetization 

 Free energy of the ion-electron system (eV)
  ---------------------------------------------------
  alpha Z        PSCENC =       124.80261925
  Ewald energy   TEWEN  =      -960.51057943
  -Hartree energ DENC   =      -135.96918557
  -exchange      EXHF   =         0.00000000
  -V(xc)+E(xc)   XCENC  =        27.29587705
  PAW double counting   =       833.59079063     -821.75412581
  entropy T*S    EENTRO =         0.00000000
  eigenvalues    EBANDS =      -125.50337033
  atomic energy  EATOM  =      1046.36313925
  Solvation  Ediel_sol  =         0.00000000
  ---------------------------------------------------
  free energy    TOTEN  =       -11.68483496 eV

  energy without entropy =      -11.68483496  energy(sigma->0) =      -11.68483496


--------------------------------------------------------------------------------------------------------




--------------------------------------- Iteration      1(   5)  ---------------------------------------


     EDDAV:  cpu time    2.9795: real time    2.9926
 BZINTS: Fermi energy:  5.349569; 11.000000 electrons
         Band energy:-125.503370;  BLOECHL correction: -0.044675
       DOS:  cpu time    0.3616: real time    0.3624
    CHARGE:  cpu time    0.0061: real time    0.0135
    MIXING:  cpu time    0.0018: real time    0.0045
    --------------------------------------------
      LOOP:  cpu time    3.3490: real time    3.3730

 eigenvalue-minimisations  : 18960
 total energy-change (2. order) : 0.2555680E-09  (-0.9159707E-13)
 number of electron      10.9999986 magnetization 
 augmentation part        3.8884510 magnetization 

 Broyden mixing:
  rms(total) = 0.18197E+01    rms(broyden)= 0.18197E+01
  rms(prec ) = 0.23392E+01
  weight for this iteration     100.00

 Free energy of the ion-electron system (eV)
  ---------------------------------------------------
  alpha Z        PSCENC =       124.80261925
  Ewald energy   TEWEN  =      -960.51057943
  -Hartree energ DENC   =      -135.96918557
  -exchange      EXHF   =         0.00000000
  -V(xc)+E(xc)   XCENC  =        27.29587705
  PAW double counting   =       833.59079063     -821.75412581
  entropy T*S    EENTRO =         0.00000000
  eigenvalues    EBANDS =      -125.50337033
  atomic energy  EATOM  =      1046.36313925
  Solvation  Ediel_sol  =         0.00000000
  ---------------------------------------------------
  free energy    TOTEN  =       -11.68483496 eV

  energy without entropy =      -11.68483496  energy(sigma->0) =      -11.68483496


--------------------------------------------------------------------------------------------------------




--------------------------------------- Iteration      1(   6)  ---------------------------------------


    POTLOK:  cpu time    0.0016: real time    0.0058
    SETDIJ:  cpu time    0.0017: real time    0.0017
     EDDAV:  cpu time    1.6055: real time    1.6146
 BZINTS: Fermi energy:  5.039387; 11.000000 electrons
         Band energy:-132.209638;  BLOECHL correction: -0.045537
       DOS:  cpu time    0.3247: real time    0.3254
    CHARGE:  cpu time    0.0161: real time    0.0161
    MIXING:  cpu time    0.0011: real time    0.0030
    --------------------------------------------
      LOOP:  cpu time    1.9507: real time    1.9667

 eigenvalue-minimisations  : 13080
 total energy-change (2. order) : 0.4407076E+00  (-0.6743235E-01)
 number of electron      10.9999986 magnetization 
 augmentation part        3.9734155 magnetization 

 Broyden mixing:
  rms(total) = 0.81687E+00    rms(broyden)= 0.81687E+00
  rms(prec ) = 0.10275E+01
  weight for this iteration     100.00

 eigenvalues of (default mixing * dielectric matrix)
  average eigenvalue GAMMA=   1.8114
  1.8114

 Free energy of the ion-electron system (eV)
  ---------------------------------------------------
  alpha Z        PSCENC =       124.80261925
  Ewald energy   TEWEN  =      -960.51057943
  -Hartree energ DENC   =      -126.57370763
  -exchange      EXHF   =         0.00000000
  -V(xc)+E(xc)   XCENC  =        26.78325332
  PAW double counting   =      1112.94257517    -1102.84178963
  entropy T*S    EENTRO =         0.00000000
  eigenvalues    EBANDS =      -132.20963770
  atomic energy  EATOM  =      1046.36313925
  Solvation  Ediel_sol  =         0.00000000
  ---------------------------------------------------
  free energy    TOTEN  =       -11.24412740 eV

  energy without entropy =      -11.24412740  energy(sigma->0) =      -11.24412740


--------------------------------------------------------------------------------------------------------




--------------------------------------- Iteration      1(   7)  ---------------------------------------


    POTLOK:  cpu time    0.0011: real time    0.0054
    SETDIJ:  cpu time    0.0016: real time    0.0016
     EDDAV:  cpu time    1.6848: real time    1.6894
 BZINTS: Fermi energy:  4.816765; 11.000000 electrons
         Band energy:-136.875483;  BLOECHL correction: -0.045819
       DOS:  cpu time    0.3244: real time    0.3252
    CHARGE:  cpu time    0.0026: real time    0.0026
    MIXING:  cpu time    0.0002: real time    0.0002
    --------------------------------------------
      LOOP:  cpu time    2.0147: real time    2.0243

 eigenvalue-minimisations  : 13560
 total energy-change (2. order) : 0.1039846E+00  (-0.3468085E-01)
 number of electron      10.9999986 magnetization 
 augmentation part        4.0346826 magnetization 

 Broyden mixing:
  rms(total) = 0.63729E-01    rms(broyden)= 0.63719E-01
  rms(prec ) = 0.91429E-01
  weight for this iteration     100.00

 eigenvalues of (default mixing * dielectric matrix)
  average eigenvalue GAMMA=   2.0655
  1.6094  2.5215

 Free energy of the ion-electron system (eV)
  ---------------------------------------------------
  alpha Z        PSCENC =       124.80261925
  Ewald energy   TEWEN  =      -960.51057943
  -Hartree energ DENC   =      -119.93085249
  -exchange      EXHF   =         0.00000000
  -V(xc)+E(xc)   XCENC  =        26.42655176
  PAW double counting   =      1416.33454768    -1407.75008603
  entropy T*S    EENTRO =         0.00000000
  eigenvalues    EBANDS =      -136.87548279
  atomic energy  EATOM  =      1046.36313925
  Solvation  Ediel_sol  =         0.00000000
  ---------------------------------------------------
  free energy    TOTEN  =       -11.14014280 eV

  energy without entropy =      -11.14014280  energy(sigma->0) =      -11.14014280


--------------------------------------------------------------------------------------------------------




--------------------------------------- Iteration      1(   8)  ---------------------------------------


    POTLOK:  cpu time    0.0011: real time    0.0059
    SETDIJ:  cpu time    0.0016: real time    0.0016
     EDDAV:  cpu time    1.4319: real time    1.4358
 BZINTS: Fermi energy:  4.839221; 11.000000 electrons
         Band energy:-136.352029;  BLOECHL correction: -0.045959
       DOS:  cpu time    0.3157: real time    0.3347
    CHARGE:  cpu time    0.0029: real time    0.0157
    MIXING:  cpu time    0.0002: real time    0.0002
    --------------------------------------------
      LOOP:  cpu time    1.7534: real time    1.7939

 eigenvalue-minimisations  : 12280
 total energy-change (2. order) : 0.3326140E-02  (-0.4767893E-03)
 number of electron      10.9999986 magnetization 
 augmentation part        4.0291562 magnetization 

 Broyden mixing:
  rms(total) = 0.61407E-02    rms(broyden)= 0.61342E-02
  rms(prec ) = 0.74795E-02
  weight for this iteration     100.00

 eigenvalues of (default mixing * dielectric matrix)
  average eigenvalue GAMMA=   1.7426
  1.0542  1.6220  2.5514

 Free energy of the ion-electron system (eV)
  ---------------------------------------------------
  alpha Z        PSCENC =       124.80261925
  Ewald energy   TEWEN  =      -960.51057943
  -Hartree energ DENC   =      -120.13249602
  -exchange      EXHF   =         0.00000000
  -V(xc)+E(xc)   XCENC  =        26.43716105
  PAW double counting   =      1496.95263610    -1488.69726749
  entropy T*S    EENTRO =         0.00000000
  eigenvalues    EBANDS =      -136.35202937
  atomic energy  EATOM  =      1046.36313925
  Solvation  Ediel_sol  =         0.00000000
  ---------------------------------------------------
  free energy    TOTEN  =       -11.13681666 eV

  energy without entropy =      -11.13681666  energy(sigma->0) =      -11.13681666


--------------------------------------------------------------------------------------------------------




--------------------------------------- Iteration      1(   9)  ---------------------------------------


    POTLOK:  cpu time    0.0012: real time    0.0056
    SETDIJ:  cpu time    0.0016: real time    0.0016
     EDDAV:  cpu time    2.1405: real time    2.1464
 BZINTS: Fermi energy:  4.836123; 11.000000 electrons
         Band energy:-136.417613;  BLOECHL correction: -0.045953
       DOS:  cpu time    0.3527: real time    0.3535
    CHARGE:  cpu time    0.0030: real time    0.0030
    MIXING:  cpu time    0.0003: real time    0.0002
    --------------------------------------------
      LOOP:  cpu time    2.4993: real time    2.5103

 eigenvalue-minimisations  : 15400
 total energy-change (2. order) : 0.2703968E-04  (-0.5594413E-05)
 number of electron      10.9999986 magnetization 
 augmentation part        4.0299706 magnetization 

 Broyden mixing:
  rms(total) = 0.86114E-03    rms(broyden)= 0.85908E-03
  rms(prec ) = 0.26355E-02
  weight for this iteration     100.00

 eigenvalues of (default mixing * dielectric matrix)
  average eigenvalue GAMMA=   1.8777
  1.0053  1.6041  2.4507  2.4507

 Free energy of the ion-electron system (eV)
  ---------------------------------------------------
  alpha Z        PSCENC =       124.80261925
  Ewald energy   TEWEN  =      -960.51057943
  -Hartree energ DENC   =      -120.08818741
  -exchange      EXHF   =         0.00000000
  -V(xc)+E(xc)   XCENC  =        26.43487613
  PAW double counting   =      1498.46984399    -1490.19088812
  entropy T*S    EENTRO =         0.00000000
  eigenvalues    EBANDS =      -136.41761328
  atomic energy  EATOM  =      1046.36313925
  Solvation  Ediel_sol  =         0.00000000
  ---------------------------------------------------
  free energy    TOTEN  =       -11.13678962 eV

  energy without entropy =      -11.13678962  energy(sigma->0) =      -11.13678962


--------------------------------------------------------------------------------------------------------




--------------------------------------- Iteration      1(  10)  ---------------------------------------


    POTLOK:  cpu time    0.0011: real time    0.0056
    SETDIJ:  cpu time    0.0016: real time    0.0016
     EDDAV:  cpu time    1.7725: real time    1.7777
 BZINTS: Fermi energy:  4.835962; 11.000000 electrons
         Band energy:-136.420144;  BLOECHL correction: -0.045952
       DOS:  cpu time    0.3525: real time    0.3535
    CHARGE:  cpu time    0.0113: real time    0.0113
    MIXING:  cpu time    0.0003: real time    0.0002
    --------------------------------------------
      LOOP:  cpu time    2.1393: real time    2.1500

 eigenvalue-minimisations  : 13920
 total energy-change (2. order) : 0.2345605E-06  (-0.1639692E-06)
 number of electron      10.9999986 magnetization 
 augmentation part        4.0299833 magnetization 

 Broyden mixing:
  rms(total) = 0.20191E-03    rms(broyden)= 0.20183E-03
  rms(prec ) = 0.25757E-03
  weight for this iteration     100.00

 eigenvalues of (default mixing * dielectric matrix)
  average eigenvalue GAMMA=   2.0103
  0.9971  1.6107  2.4549  2.4945  2.4945

 Free energy of the ion-electron system (eV)
  ---------------------------------------------------
  alpha Z        PSCENC =       124.80261925
  Ewald energy   TEWEN  =      -960.51057943
  -Hartree energ DENC   =      -120.12176139
  -exchange      EXHF   =         0.00000000
  -V(xc)+E(xc)   XCENC  =        26.43671499
  PAW double counting   =      1499.03329600    -1490.72007439
  entropy T*S    EENTRO =         0.00000000
  eigenvalues    EBANDS =      -136.42014366
  atomic energy  EATOM  =      1046.36313925
  Solvation  Ediel_sol  =         0.00000000
  ---------------------------------------------------
  free energy    TOTEN  =       -11.13678938 eV

  energy without entropy =      -11.13678938  energy(sigma->0) =      -11.13678938


--------------------------------------------------------------------------------------------------------




--------------------------------------- Iteration      1(  11)  ---------------------------------------


    POTLOK:  cpu time    0.0010: real time    0.0057
    SETDIJ:  cpu time    0.0017: real time    0.0017
     EDDAV:  cpu time    1.4110: real time    1.4146
 BZINTS: Fermi energy:  4.835897; 11.000000 electrons
         Band energy:-136.421438;  BLOECHL correction: -0.045951
       DOS:  cpu time    0.3339: real time    0.3347
    CHARGE:  cpu time    0.0211: real time    0.0211
    MIXING:  cpu time    0.0009: real time    0.0002
    --------------------------------------------
      LOOP:  cpu time    1.7696: real time    1.7781

 eigenvalue-minimisations  : 11600
 total energy-change (2. order) : 0.1269384E-06  (-0.2069304E-08)
 number of electron      10.9999986 magnetization 
 augmentation part        4.0299979 magnetization 

 Broyden mixing:
  rms(total) = 0.11775E-03    rms(broyden)= 0.11774E-03
  rms(prec ) = 0.13414E-03
  weight for this iteration     100.00

 eigenvalues of (default mixing * dielectric matrix)
  average eigenvalue GAMMA=   1.8495
  2.6053  2.4611  2.4611  1.6111  0.9995  0.9589

 Free energy of the ion-electron system (eV)
  ---------------------------------------------------
  alpha Z        PSCENC =       124.80261925
  Ewald energy   TEWEN  =      -960.51057943
  -Hartree energ DENC   =      -120.12060094
  -exchange      EXHF   =         0.00000000
  -V(xc)+E(xc)   XCENC  =        26.43665620
  PAW double counting   =      1498.96604907    -1490.65263443
  entropy T*S    EENTRO =         0.00000000
  eigenvalues    EBANDS =      -136.42143822
  atomic energy  EATOM  =      1046.36313925
  Solvation  Ediel_sol  =         0.00000000
  ---------------------------------------------------
  free energy    TOTEN  =       -11.13678925 eV

  energy without entropy =      -11.13678925  energy(sigma->0) =      -11.13678925


--------------------------------------------------------------------------------------------------------




--------------------------------------- Iteration      1(  12)  ---------------------------------------


    POTLOK:  cpu time    0.0004: real time    0.0059
    SETDIJ:  cpu time    0.0016: real time    0.0016
     EDDAV:  cpu time    0.7424: real time    0.7444
 BZINTS: Fermi energy:  4.835836; 11.000000 electrons
         Band energy:-136.422591;  BLOECHL correction: -0.045951
       DOS:  cpu time    0.3522: real time    0.3531
    --------------------------------------------
      LOOP:  cpu time    1.0966: real time    1.1049

 eigenvalue-minimisations  :  6880
 total energy-change (2. order) :-0.2191882E-08  (-0.1229674E-08)
 number of electron      10.9999986 magnetization 
[...]
     13      25.2391      0.00000
     14      27.1521      0.00000
     15      31.3653      0.00000
     16      37.0155      0.00000
     17      38.7996      0.00000
     18      42.1029      0.00000
     19      43.6502      0.00000
     20      43.8401      0.00000
     21      45.4524      0.00000
     22      48.1387      0.00000
     23      49.4824      0.00000
     24      52.1303      0.00000
     25      53.8025      0.00000
     26      54.1382      0.00000
     27      55.0522      0.00000
     28      56.0104      0.00000
     29      57.8707      0.00000
     30      58.3180      0.00000
     31      60.4059      0.00000
     32      61.4802      0.00000
     33      64.4357      0.00000
     34      65.9724      0.00000
     35      67.4383      0.00000
     36      69.0595      0.00000
     37      70.8963      0.00000
     38      75.1254      0.00000
     39      83.9387      0.00000
     40      84.7635      0.00000

 k-point   135 :      -0.4063    0.4688    0.3438
  band No.  band energies     occupation 
      1     -25.6887      2.00000
      2     -25.5719      2.00000
      3     -25.4655      2.00000
      4       1.5897      2.00000
      5       1.7682      2.00000
      6       7.7704      0.00000
      7       8.7519      0.00000
      8      10.0866      0.00000
      9      13.1118      0.00000
     10      16.4838      0.00000
     11      16.6696      0.00000
     12      23.8908      0.00000
     13      25.4161      0.00000
     14      26.8456      0.00000
     15      31.2106      0.00000
     16      37.4577      0.00000
     17      39.0575      0.00000
     18      41.8961      0.00000
     19      43.1621      0.00000
     20      44.3857      0.00000
     21      45.7570      0.00000
     22      47.7336      0.00000
     23      51.7348      0.00000
     24      51.9259      0.00000
     25      52.2072      0.00000
     26      54.6312      0.00000
     27      54.9123      0.00000
     28      56.7572      0.00000
     29      58.3522      0.00000
     30      58.3766      0.00000
     31      59.0103      0.00000
     32      62.0529      0.00000
     33      62.7257      0.00000
     34      65.0474      0.00000
     35      66.6572      0.00000
     36      68.9098      0.00000
     37      70.0515      0.00000
     38      74.0845      0.00000
     39      84.4810      0.00000
     40      88.7717      0.00000

 k-point   136 :      -0.4688   -0.4688    0.3438
  band No.  band energies     occupation 
      1     -25.6941      2.00000
      2     -25.6087      2.00000
      3     -25.4618      2.00000
      4       1.5321      2.00000
      5       1.6309      2.00000
      6       7.7741      0.00000
      7       9.1637      0.00000
      8      10.2609      0.00000
      9      14.3802      0.00000
     10      15.2079      0.00000
     11      16.0346      0.00000
     12      24.7629      0.00000
     13      25.3404      0.00000
     14      25.9885      0.00000
     15      31.0135      0.00000
     16      37.5618      0.00000
     17      40.4071      0.00000
     18      42.2404      0.00000
     19      42.7495      0.00000
     20      44.8892      0.00000
     21      45.3767      0.00000
     22      47.7051      0.00000
     23      51.0775      0.00000
     24      52.4796      0.00000
     25      53.4306      0.00000
     26      53.9489      0.00000
     27      55.0365      0.00000
     28      55.4403      0.00000
     29      57.4169      0.00000
     30      59.2450      0.00000
     31      60.2686      0.00000
     32      61.1221      0.00000
     33      63.0779      0.00000
     34      64.5433      0.00000
     35      64.8084      0.00000
     36      68.6641      0.00000
     37      69.3905      0.00000
     38      72.4968      0.00000
     39      84.6412      0.00000
     40      90.1736      0.00000

 k-point   137 :      -0.4063    0.4063    0.4063
  band No.  band energies     occupation 
      1     -25.6419      2.00000
      2     -25.5558      2.00000
      3     -25.5558      2.00000
      4       1.4768      2.00000
      5       1.6666      2.00000
      6       8.7087      0.00000
      7       8.7087      0.00000
      8       9.8370      0.00000
      9      12.5509      0.00000
     10      16.7474      0.00000
     11      16.7474      0.00000
     12      23.4688      0.00000
     13      25.5779      0.00000
     14      26.8039      0.00000
     15      31.0315      0.00000
     16      38.7409      0.00000
     17      38.7409      0.00000
     18      41.0173      0.00000
     19      42.7433      0.00000
     20      45.9528      0.00000
     21      45.9528      0.00000
     22      46.7279      0.00000
     23      51.4011      0.00000
     24      53.7750      0.00000
     25      53.7750      0.00000
     26      54.5908      0.00000
     27      55.6691      0.00000
     28      56.4649      0.00000
     29      56.4877      0.00000
     30      56.4878      0.00000
     31      60.0837      0.00000
     32      62.3553      0.00000
     33      62.3553      0.00000
     34      64.3295      0.00000
     35      64.7594      0.00000
     36      68.7577      0.00000
     37      68.7577      0.00000
     38      73.2153      0.00000
     39      89.0719      0.00000
     40      89.0726      0.00000

 k-point   138 :      -0.4688    0.4688    0.4063
  band No.  band energies     occupation 
      1     -25.6695      2.00000
      2     -25.5920      2.00000
      3     -25.5657      2.00000
      4       1.3147      2.00000
      5       1.4105      2.00000
      6       9.0748      0.00000
      7       9.2223      0.00000
      8      10.3906      0.00000
      9      13.6519      0.00000
     10      15.3344      0.00000
     11      15.7348      0.00000
     12      24.1153      0.00000
     13      25.6525      0.00000
     14      25.8961      0.00000
     15      30.6076      0.00000
     16      39.4102      0.00000
     17      40.2031      0.00000
     18      42.0383      0.00000
     19      42.8672      0.00000
     20      44.9861      0.00000
     21      45.8033      0.00000
     22      47.1926      0.00000
     23      52.8316      0.00000
     24      53.0441      0.00000
     25      53.7269      0.00000
     26      54.4962      0.00000
     27      55.3224      0.00000
     28      55.5950      0.00000
     29      57.2315      0.00000
     30      58.5091      0.00000
     31      59.3763      0.00000
     32      60.2478      0.00000
     33      62.5812      0.00000
     34      62.8333      0.00000
     35      64.4364      0.00000
     36      66.0073      0.00000
     37      66.9106      0.00000
     38      70.3199      0.00000
     39      90.3453      0.00000
     40      91.0381      0.00000

 k-point   139 :      -0.4688   -0.4688    0.4063
  band No.  band energies     occupation 
      1     -25.6457      2.00000
      2     -25.6456      2.00000
      3     -25.5710      2.00000
      4       1.2517      2.00000
      5       1.2517      2.00000
      6       9.2045      0.00000
      7      10.1789      0.00000
      8      10.1789      0.00000
      9      14.5592      0.00000
     10      14.5592      0.00000
     11      14.9054      0.00000
     12      24.0811      0.00000
     13      25.7162      0.00000
     14      25.7162      0.00000
     15      30.3926      0.00000
     16      39.7343      0.00000
     17      41.9252      0.00000
     18      41.9252      0.00000
     19      42.2412      0.00000
     20      45.5051      0.00000
     21      45.5051      0.00000
     22      46.8170      0.00000
     23      52.4105      0.00000
     24      53.4331      0.00000
     25      54.6220      0.00000
     26      54.6220      0.00000
     27      55.1886      0.00000
     28      55.1886      0.00000
     29      58.0902      0.00000
     30      58.6259      0.00000
     31      60.2893      0.00000
     32      60.2893      0.00000
     33      61.8266      0.00000
     34      61.8266      0.00000
     35      62.1944      0.00000
     36      65.8722      0.00000
     37      65.8722      0.00000
     38      68.2974      0.00000
     39      90.9956      0.00000
     40      96.1010      0.00000

 k-point   140 :      -0.4688    0.4688    0.4688
  band No.  band energies     occupation 
      1     -25.6391      2.00000
      2     -25.6285      2.00000
      3     -25.6285      2.00000
      4       1.1232      2.00000
      5       1.1502      2.00000
      6      10.1499      0.00000
      7      10.1499      0.00000
      8      10.3793      0.00000
      9      13.9830      0.00000
     10      14.6088      0.00000
     11      14.6088      0.00000
     12      23.5815      0.00000
     13      25.8368      0.00000
     14      25.8838      0.00000
     15      30.1703      0.00000
     16      41.5076      0.00000
     17      41.5076      0.00000
     18      41.6927      0.00000
     19      42.3896      0.00000
     20      45.8805      0.00000
     21      45.9052      0.00000
     22      45.9052      0.00000
     23      51.5821      0.00000
     24      54.1466      0.00000
     25      54.4975      0.00000
     26      54.4975      0.00000
     27      56.7698      0.00000
     28      56.7698      0.00000
     29      57.2949      0.00000
     30      59.3256      0.00000
     31      59.6539      0.00000
     32      60.4935      0.00000
     33      60.4935      0.00000
     34      61.4264      0.00000
     35      62.8698      0.00000
     36      63.7545      0.00000
     37      63.7545      0.00000
     38      66.4719      0.00000
     39      96.3205      0.00000
     40      96.3217      0.00000


--------------------------------------------------------------------------------------------------------


 soft charge-density along one line, spin component           1
         0         1         2         3         4         5         6         7         8         9
 total charge-density along one line
 
 pseudopotential strength for first ion, spin component:           1
-27.829   0.000   0.000   0.000   0.000   0.000   5.816   0.000  -0.000   0.000  -0.000   0.000   0.000   0.000  -0.000   0.000
  0.000   0.000 -27.829   0.000   0.000   0.000  -0.000   0.000   5.816   0.000  -0.000   0.000   0.000   0.000   0.000   0.000
  0.000   0.000   0.000   0.000 -27.829   0.000  -0.000   0.000  -0.000   0.000   5.816   0.000   0.000   0.000   0.000   0.000
  5.816   0.000  -0.000   0.000  -0.000   0.000   4.386   0.000   0.000   0.000   0.000   0.000  -0.000   0.000   0.000   0.000
 -0.000   0.000   5.816   0.000  -0.000   0.000   0.000   0.000   4.386   0.000   0.000   0.000  -0.000   0.000  -0.000   0.000
 -0.000   0.000  -0.000   0.000   5.816   0.000   0.000   0.000   0.000   0.000   4.386   0.000   0.000   0.000  -0.000   0.000
  0.000   0.000   0.000   0.000   0.000   0.000  -0.000   0.000  -0.000   0.000   0.000   0.000  -6.224   0.000   0.000   0.000
 -0.000   0.000   0.000   0.000   0.000   0.000   0.000   0.000  -0.000   0.000  -0.000   0.000   0.000   0.000  -6.224   0.000
  0.000   0.000   0.000   0.000  -0.000   0.000   0.000   0.000   0.000   0.000   0.000   0.000  -0.000   0.000   0.000   0.000
  0.000   0.000   0.000   0.000   0.000   0.000  -0.000   0.000  -0.000   0.000   0.000   0.000   0.000   0.000   0.000   0.000
 -0.000   0.000   0.000   0.000   0.000   0.000   0.000   0.000   0.000   0.000  -0.000   0.000   0.000   0.000  -0.000   0.000
  0.000   0.000   0.000   0.000   0.000   0.000  -0.000   0.000  -0.000   0.000   0.000   0.000  -7.053   0.000   0.000   0.000
 -0.000   0.000   0.000   0.000   0.000   0.000   0.000   0.000  -0.000   0.000  -0.000   0.000   0.000   0.000  -7.053   0.000
  0.000   0.000  -0.000   0.000  -0.000   0.000   0.000   0.000   0.000   0.000   0.000   0.000  -0.000   0.000   0.000   0.000
  0.000   0.000   0.000   0.000  -0.000   0.000  -0.000   0.000  -0.000   0.000   0.000   0.000   0.000   0.000   0.000   0.000
  0.000   0.000   0.000   0.000   0.000   0.000  -0.000   0.000  -0.000   0.000  -0.000   0.000   0.000   0.000  -0.000   0.000
 -0.000   0.000   0.000   0.000  -0.000   0.000   0.000   0.000   0.000   0.000   0.000   0.000  -0.000   0.000  -0.000   0.000
  0.000   0.000   0.000   0.000   0.000   0.000   0.000   0.000   0.000   0.000   0.000   0.000   0.000   0.000   0.000   0.000
 total augmentation occupancy for first ion, spin component:           1
  1.996  -0.000  -0.000  -0.006   0.000  -0.000   0.000   0.000   0.000   0.000   0.000   0.000   0.000   0.000   0.000   0.000
 -0.000   1.996   0.000   0.000  -0.006   0.000   0.000   0.000   0.000   0.000   0.000   0.000   0.000   0.000   0.000   0.000
 -0.000   0.000   1.996   0.000  -0.000  -0.006   0.000   0.000   0.000   0.000   0.000   0.000   0.000   0.000   0.000   0.000
 -0.006   0.000   0.000   0.208   0.000  -0.000   0.000   0.000   0.000   0.000   0.000   0.000   0.000   0.000   0.000   0.000
  0.000  -0.006   0.000   0.000   0.208   0.000   0.000   0.000   0.000   0.000   0.000   0.000   0.000   0.000   0.000   0.000
  0.000  -0.000  -0.006  -0.000   0.000   0.208   0.000   0.000   0.000   0.000   0.000   0.000   0.000   0.000   0.000   0.000
  0.000   0.000   0.000   0.000   0.000   0.000   6.614   0.000  -0.000  -0.000   0.000  -3.780  -0.000   0.000   0.000  -0.000
  0.000   0.000   0.000   0.000   0.000   0.000   0.000   6.614   0.000   0.000  -0.000  -0.000  -3.780   0.000   0.000   0.000
  0.000   0.000   0.000   0.000   0.000   0.000  -0.000  -0.000   6.126  -0.000   0.000  -0.000  -0.000  -3.669   0.000   0.000
  0.000   0.000   0.000   0.000   0.000   0.000  -0.000   0.000   0.000   6.614   0.000   0.000   0.000  -0.000  -3.780  -0.000
  0.000   0.000   0.000   0.000   0.000   0.000  -0.000   0.000   0.000   0.000   6.126   0.000  -0.000   0.000   0.000  -3.669
  0.000   0.000   0.000   0.000   0.000   0.000  -3.780  -0.000   0.000  -0.000  -0.000   2.202   0.000   0.000  -0.000  -0.000
  0.000   0.000   0.000   0.000   0.000   0.000   0.000  -3.780   0.000   0.000   0.000   0.000   2.202   0.000   0.000   0.000
  0.000   0.000   0.000   0.000   0.000   0.000  -0.000  -0.000  -3.669  -0.000   0.000   0.000   0.000   2.216   0.000   0.000
  0.000   0.000   0.000   0.000   0.000   0.000   0.000   0.000  -0.000  -3.780  -0.000  -0.000   0.000   0.000   2.202   0.000
  0.000   0.000   0.000   0.000   0.000   0.000   0.000   0.000   0.000   0.000  -3.669   0.000   0.000   0.000  -0.000   2.216
  0.000   0.000   0.000   0.000   0.000   0.000   0.000  -0.000   0.000  -0.000   0.000   0.000   0.000  -0.000  -0.000   0.000
  0.000   0.000   0.000   0.000   0.000   0.000   0.000   0.000  -0.000  -0.000  -0.000   0.000  -0.000   0.000  -0.000   0.000


------------------------ aborting loop because EDIFF is reached ----------------------------------------


    CHARGE:  cpu time    0.0028: real time    0.0028
    FORLOC:  cpu time    0.0009: real time    0.0013
    FORNL :  cpu time    0.0060: real time    0.0093
    STRESS:  cpu time    0.0923: real time    0.0952
    FORCOR:  cpu time    0.0011: real time    0.0023
    FORHAR:  cpu time    0.0006: real time    0.0016
    MIXING:  cpu time    0.0000: real time    0.0005
    OFIELD:  cpu time    0.0010: real time    0.0022

  FORCE on cell =-STRESS in cart. coord.  units (eV):
  Direction    XX          YY          ZZ          XY          YZ          ZX
  --------------------------------------------------------------------------------------
  Alpha Z   124.80262   124.80262   124.80262
  Ewald    -320.17018  -320.17018  -320.17018    -0.00000    -0.00000     0.00000
  Hartree    40.04034    40.04034    40.04034     0.00000     0.00000     0.00000
  E(xc)     -46.88487   -46.88487   -46.88487    -0.00000    -0.00000    -0.00000
  Local     102.77854   102.77854   102.77854    -0.00000    -0.00000    -0.00000
  n-local   -42.91145   -42.17323   -40.56431     3.35196    -2.37218    -2.98018
  augment    26.17585    26.17585    26.17585    -0.00000    -0.00000    -0.00000
  Kinetic   114.09306   112.54610   116.50271    -0.50583     1.00307     1.70804
  Fock        0.00000     0.00000     0.00000     0.00000     0.00000     0.00000
  -------------------------------------------------------------------------------------
  Total      -0.76009    -0.76009    -0.76009     0.00000     0.00000     0.00000
  in kB     -67.72455   -67.72455   -67.72455     0.00000     0.00000     0.00000
  external pressure =      -67.72 kB  Pullay stress =        0.00 kB


 VOLUME and BASIS-vectors are now :
 -----------------------------------------------------------------------------
  energy-cutoff  :      300.00
  volume of cell :       17.98
      direct lattice vectors                 reciprocal lattice vectors
    -1.650400000  1.650400000  1.650400000     0.000000000  0.302956859  0.302956859
     1.650400000 -1.650400000  1.650400000     0.302956859  0.000000000  0.302956859
     1.650400000  1.650400000 -1.650400000     0.302956859  0.302956859  0.000000000

  length of vectors
     2.858576653  2.858576653  2.858576653     0.428445699  0.428445699  0.428445699


 FORCES acting on ions
    electron-ion (+dipol)            ewald-force                    non-local-force                 convergence-correction
 -----------------------------------------------------------------------------------------------
   0.136E-14 -.183E-14 -.530E-15   0.544E-15 -.107E-14 -.107E-14   0.162E-26 -.162E-26 0.162E-26   0.118E-13 0.864E-14 0.365E-14
 -----------------------------------------------------------------------------------------------
   0.136E-14 -.183E-14 -.530E-15   0.544E-15 -.107E-14 -.107E-14   0.162E-26 -.162E-26 0.162E-26   0.118E-13 0.864E-14 0.365E-14
 
 
 POSITION                                       TOTAL-FORCE (eV/Angst)
 -----------------------------------------------------------------------------------
      0.00000      0.00000      0.00000         0.000000      0.000000     -0.000000
 -----------------------------------------------------------------------------------
    total drift:                                0.000000      0.000000      0.000000


--------------------------------------------------------------------------------------------------------



  FREE ENERGIE OF THE ION-ELECTRON SYSTEM (eV)
  ---------------------------------------------------
  free  energy   TOTEN  =       -11.13678926 eV

  energy  without entropy=      -11.13678926  energy(sigma->0) =      -11.13678926
 


--------------------------------------------------------------------------------------------------------


    POTLOK:  cpu time    0.0035: real time    0.0057


--------------------------------------------------------------------------------------------------------


 writing wavefunctions
     LOOP+:  cpu time   26.3787: real time   26.6082
    4ORBIT:  cpu time    0.0000: real time    0.0000
 BZINTS: Fermi energy:  4.835836; 11.000000 electrons
         Band energy:-136.422591;  BLOECHL correction: -0.045951

 total amount of memory used by VASP MPI-rank0    35640. kBytes
=======================================================================

   base      :      30000. kBytes
   nonl-proj :       4842. kBytes
   fftplans  :         55. kBytes
   grid      :        101. kBytes
   one-center:         15. kBytes
   wavefun   :        627. kBytes
 
  
  
 General timing and accounting informations for this job:
 ========================================================
  
                  Total CPU time used (sec):       29.003
                            User time (sec):       26.807
                          System time (sec):        2.197
                         Elapsed time (sec):       29.373
  
                   Maximum memory used (kb):       60292.
                   Average memory used (kb):           0.
  
                          Minor page faults:        23625
                          Major page faults:           54
                 Voluntary context switches:         1369
