Nb                                      
           1
    -1.650400    1.650400    1.650400
     1.650400   -1.650400    1.650400
     1.650400    1.650400   -1.650400
   Nb
   1
Direct configuration=     1
   0.00000000  0.00000000  0.00000000
