Ge                                      
   5.77000000000000     
     0.000000    0.500101    0.500101
     0.500101    0.000000    0.500101
     0.500101    0.500101    0.000000
   Ge
     2
Direct
  0.000000  0.000000  0.000000
  0.250000  0.250000  0.250000
 
   28   28   28
 -6.1900     -3.8361      2.2264      9.5541      15.529      18.516      18.324      15.956      12.962      10.541    
  8.7886      7.5564      6.7274      6.2400      6.0775      6.2399      6.7273      7.5564      8.7886      10.541    
  12.962      15.956      18.324      18.516      15.529      9.5537      2.2264     -3.8359     -3.8361     0.27616    
  6.8909      13.577      18.185      19.684      18.397      15.638      12.956      10.950      9.5091      8.5042    
  7.8539      7.5291      7.5290      7.8537      8.5041      9.5091      10.950      12.956      15.638      18.397    
  19.684      18.184      13.577      6.8924     0.27815     -3.8351      2.2264      6.8909      12.721      17.678    
  20.254      20.061      17.897      15.232      13.112      11.561      10.454      9.6979      9.2465      9.0947    
  9.2463      9.6978      10.454      11.560      13.112      15.232      17.897      20.061      20.253      17.678    
  12.722      6.8928      2.2280     0.44895      9.5541      13.577      17.678      20.383      20.875      19.383    
  17.027      14.990      13.481      12.397      11.636      11.137      10.886      10.886      11.137      11.636    
  12.397      13.481      14.990      17.027      19.383      20.875      20.383      17.678      13.577      9.5543    
  7.0923      7.0922      15.529      18.185      20.254      20.875      19.899      18.020      16.279      14.990    
  14.080      13.449      13.013      12.731      12.631      12.731      13.013      13.449      14.079      14.990    
  16.279      18.020      19.899      20.875      20.254      18.184      15.528      13.376      12.558      13.376    
  18.516      19.684      20.061      19.383      18.020      16.739      15.824      15.232      14.865      14.580    
  14.326      14.167      14.168      14.326      14.580      14.865      15.231      15.824      16.739      18.020    
  19.384      20.062      19.684      18.516      17.201      16.366      16.366      17.201      18.324      18.397    
  17.897      17.027      16.279      15.824      15.642      15.638      15.603      15.459      15.295      15.225    
  15.295      15.459      15.603      15.638      15.642      15.824      16.279      17.026      17.897      18.397    
  18.325      17.877      17.416      17.228      17.415      17.876      15.956      15.638      15.232      14.990    
  14.990      15.232      15.638      15.956      16.037      15.957      15.869      15.869      15.958      16.037    
  15.956      15.638      15.231      14.990      14.990      15.231      15.638      15.956      16.037      15.958    
  15.869      15.869      15.957      16.037      12.962      12.956      13.112      13.481      14.080      14.865    
  15.603      16.037      16.173      16.161      16.141      16.162      16.174      16.037      15.603      14.865    
  14.080      13.482      13.112      12.956      12.961      13.045      13.099      13.109      13.107      13.109    
  13.100      13.046      10.541      10.950      11.561      12.397      13.449      14.580      15.459      15.957    
  16.161      16.218      16.218      16.162      15.958      15.459      14.579      13.449      12.397      11.561    
  10.951      10.541      10.289      10.150      10.084      10.059      10.059      10.085      10.151      10.290    
  8.7886      9.5091      10.454      11.636      13.013      14.326      15.295      15.869      16.141      16.218    
  16.142      15.869      15.295      14.326      13.012      11.635      10.454      9.5095      8.7893      8.2632    
  7.8977      7.6629      7.5338      7.4931      7.5342      7.6633      7.8977      8.2626      7.5564      8.5042    
  9.6979      11.137      12.731      14.167      15.225      15.869      16.162      16.162      15.869      15.225    
  14.168      12.731      11.137      9.6973      8.5036      7.5563      6.8289      6.2906      5.9147      5.6792    
  5.5666      5.5666      5.6790      5.9142      6.2899      6.8284      6.7274      7.8539      9.2465      10.886    
  12.631      14.168      15.295      15.958      16.174      15.958      15.295      14.168      12.631      10.886    
  9.2464      7.8533      6.7266      5.8450      5.1758      4.6894      4.3627      4.1761      4.1157      4.1759    
  4.3622      4.6891      5.1758      5.8456      6.2400      7.5291      9.0947      10.886      12.731      14.326    
  15.459      16.037      16.037      15.459      14.326      12.731      10.886      9.0953      7.5294      6.2399    
  5.2200      4.4380      3.8596      3.4559      3.2032      3.0824      3.0823      3.2030      3.4560      3.8600    
  4.4387      5.2205      6.0775      7.5290      9.2463      11.137      13.013      14.580      15.603      15.956    
  15.603      14.579      13.012      11.137      9.2464      7.5294      6.0782      4.9128      4.0121      3.3407    
  2.8635      2.5499      2.3741      2.3177      2.3741      2.5501      2.8639      3.3410      4.0121      4.9123    
  6.2399      7.8537      9.6978      11.636      13.449      14.865      15.638      15.638      14.865      13.449    
  11.635      9.6973      7.8533      6.2399      4.9128      3.8720      3.0891      2.5268      2.1478      1.9181    
  1.8109      1.8109      1.9182      2.1480      2.5268      3.0887      3.8713      4.9123      6.7273      8.5041    
  10.454      12.397      14.079      15.231      15.642      15.231      14.080      12.397      10.454      8.5036    
  6.7266      5.2200      4.0121      3.0891      2.4173      1.9560      1.6642      1.5060      1.4563      1.5060    
  1.6642      1.9558      2.4169      3.0887      4.0121      5.2205      7.5564      9.5091      11.560      13.481    
  14.990      15.824      15.824      14.990      13.482      11.561      9.5095      7.5563      5.8450      4.4380    
  3.3407      2.5268      1.9560      1.5828      1.3638      1.2640      1.2640      1.3638      1.5827      1.9558    
  2.5268      3.3410      4.4387      5.8456      8.7886      10.950      13.112      14.990      16.279      16.739    
  16.279      14.990      13.112      10.951      8.7893      6.8289      5.1758      3.8596      2.8635      2.1478    
  1.6642      1.3638      1.2035      1.1537      1.2035      1.3637      1.6642      2.1480      2.8639      3.8600    
  5.1758      6.8285      10.541      12.956      15.232      17.027      18.020      18.020      17.026      15.231    
  12.956      10.541      8.2632      6.2906      4.6894      3.4559      2.5499      1.9181      1.5060      1.2640    
  1.1537      1.1537      1.2640      1.5060      1.9182      2.5501      3.4559      4.6891      6.2899      8.2626    
  12.962      15.638      17.897      19.383      19.899      19.384      17.897      15.638      12.961      10.289    
  7.8977      5.9147      4.3627      3.2032      2.3741      1.8109      1.4563      1.2640      1.2035      1.2640    
  1.4563      1.8110      2.3741      3.2030      4.3622      5.9142      7.8977      10.290      15.956      18.397    
  20.061      20.875      20.875      20.062      18.397      15.956      13.045      10.150      7.6629      5.6792    
  4.1761      3.0824      2.3177      1.8109      1.5060      1.3638      1.3637      1.5060      1.8110      2.3177    
  3.0823      4.1759      5.6791      7.6632      10.151      13.046      18.324      19.684      20.253      20.383    
  20.254      19.684      18.325      16.037      13.099      10.084      7.5338      5.5666      4.1157      3.0823    
  2.3741      1.9182      1.6642      1.5827      1.6642      1.9182      2.3741      3.0823      4.1156      5.5668    
  7.5343      10.085      13.100      16.037      18.516      18.184      17.678      17.678      18.184      18.516    
  17.877      15.958      13.109      10.059      7.4931      5.5666      4.1759      3.2030      2.5501      2.1480    
  1.9558      1.9558      2.1480      2.5501      3.2030      4.1759      5.5668      7.4934      10.059      13.109    
  15.958      17.876      15.529      13.577      12.722      13.577      15.528      17.201      17.416      15.869    
  13.107      10.059      7.5342      5.6790      4.3622      3.4560      2.8639      2.5268      2.4169      2.5268    
  2.8639      3.4559      4.3622      5.6791      7.5343      10.059      13.106      15.869      17.416      17.201    
  9.5537      6.8924      6.8928      9.5543      13.376      16.366      17.228      15.869      13.109      10.085    
  7.6633      5.9142      4.6891      3.8600      3.3410      3.0887      3.0887      3.3410      3.8600      4.6891    
  5.9142      7.6632      10.085      13.109      15.869      17.229      16.367      13.375      2.2264     0.27815    
  2.2280      7.0923      12.558      16.366      17.415      15.957      13.100      10.151      7.8977      6.2899    
  5.1758      4.4387      4.0121      3.8713      4.0121      4.4387      5.1758      6.2899      7.8977      10.151    
  13.100      15.958      17.416      16.367      12.557      7.0905     -3.8359     -3.8351     0.44895      7.0922    
  13.376      17.201      17.876      16.037      13.046      10.290      8.2626      6.8284      5.8456      5.2205    
  4.9123      4.9123      5.2205      5.8456      6.8285      8.2626      10.290      13.046      16.037      17.876    
  17.201      13.375      7.0905     0.44713     -3.8361     0.27616      6.8909      13.577      18.185      19.684    
  18.397      15.638      12.956      10.950      9.5091      8.5042      7.8539      7.5291      7.5290      7.8537    
  8.5041      9.5091      10.950      12.956      15.638      18.397      19.684      18.184      13.577      6.8924    
 0.27815     -3.8351     0.27616      5.3784      11.798      17.342      20.376      20.447      18.358      15.642    
  13.457      11.860      10.723      9.9457      9.4814      9.3252      9.4813      9.9456      10.723      11.860    
  13.457      15.642      18.358      20.446      20.375      17.342      11.799      5.3812     0.27842     -1.6630    
  6.8909      11.798      16.918      20.526      21.623      20.383      17.992      15.824      14.221      13.071    
  12.265      11.736      11.467      11.467      11.736      12.265      13.071      14.221      15.824      17.992    
  20.383      21.623      20.526      16.919      11.799      6.8925      3.9165      3.9158      13.577      17.342    
  20.526      21.995      21.448      19.601      17.695      16.279      15.283      14.589      14.082      13.739    
  13.614      13.739      14.083      14.590      15.283      16.279      17.695      19.601      21.448      21.995    
  20.526      17.342      13.576      10.611      9.4951      10.611      18.185      20.376      21.623      21.448    
  20.172      18.733      17.695      17.027      16.575      16.145      15.738      15.483      15.483      15.739    
  16.145      16.575      17.026      17.695      18.733      20.172      21.449      21.624      20.376      18.184    
  15.976      14.627      14.628      15.977      19.684      20.447      20.383      19.601      18.733      18.201    
  17.992      17.897      17.631      17.201      16.807      16.650      16.807      17.202      17.632      17.897    
  17.991      18.201      18.733      19.601      20.383      20.447      19.684      18.504      17.498      17.111    
  17.498      18.504      18.397      18.358      17.992      17.695      17.695      17.992      18.358      18.397    
  18.051      17.561      17.227      17.227      17.562      18.052      18.397      18.358      17.991      17.695    
  17.695      17.991      18.358      18.397      18.052      17.562      17.227      17.227      17.561      18.051    
  15.638      15.642      15.824      16.279      17.027      17.897      18.397      18.324      17.876      17.415    
  17.228      17.416      17.877      18.325      18.397      17.897      17.026      16.279      15.824      15.642    
  15.638      15.603      15.459      15.295      15.225      15.295      15.459      15.603      12.956      13.457    
  14.221      15.283      16.575      17.631      18.051      17.876      17.446      17.126      17.126      17.446    
  17.877      18.051      17.632      16.575      15.283      14.221      13.457      12.956      12.650      12.470    
  12.346      12.274      12.274      12.346      12.470      12.651      10.950      11.860      13.071      14.589    
  16.145      17.201      17.561      17.415      17.126      16.992      17.126      17.415      17.561      17.201    
  16.145      14.589      13.072      11.861      10.951      10.295      9.8402      9.5421      9.3727      9.3178    
  9.3732      9.5428      9.8407      10.295      9.5091      10.723      12.265      14.082      15.738      16.807    
  17.227      17.228      17.126      17.126      17.228      17.227      16.807      15.739      14.082      12.265    
  10.723      9.5095      8.5887      7.9118      7.4367      7.1341      6.9867      6.9868      7.1343      7.4367    
  7.9113      8.5880      8.5042      9.9457      11.736      13.739      15.483      16.650      17.227      17.416    
  17.446      17.415      17.227      16.650      15.484      13.739      11.736      9.9450      8.5037      7.3857    
  6.5426      5.9295      5.5130      5.2714      5.1923      5.2713      5.5126      5.9289      6.5422      7.3857    
  7.8539      9.4814      11.467      13.614      15.483      16.807      17.562      17.877      17.877      17.561    
  16.807      15.484      13.614      11.467      9.4813      7.8534      6.5755      5.6010      4.8797      4.3719    
  4.0492      3.8927      3.8926      4.0489      4.3716      4.8798      5.6015      6.5761      7.5291      9.3252    
  11.467      13.739      15.739      17.202      18.052      18.325      18.051      17.201      15.739      13.739    
  11.467      9.3258      7.5295      6.1002      5.0024      4.1836      3.5967      3.2051      2.9818      2.9094    
  2.9817      3.2051      3.5970      4.1841      5.0028      6.1002      7.5290      9.4813      11.736      14.083    
  16.145      17.632      18.397      18.397      17.632      16.145      14.082      11.736      9.4813      7.5295    
  5.9424      4.7083      3.7818      3.1120      2.6539      2.3713      2.2374      2.2374      2.3715      2.6542    
  3.1122      3.7818      4.7078      5.9417      7.8537      9.9456      12.265      14.590      16.575      17.897    
  18.358      17.897      16.575      14.589      12.265      9.9450      7.8534      6.1002      4.7083      3.6498    
  2.8774      2.3417      1.9977      1.8082      1.7481      1.8083      1.9978      2.3417      2.8771      3.6493    
  4.7078      6.1001      8.5041      10.723      13.071      15.283      17.026      17.991      17.991      17.026    
  15.283      13.072      10.723      8.5037      6.5755      5.0024      3.7818      2.8774      2.2405      1.8206    
  1.5715      1.4570      1.4571      1.5715      1.8205      2.2402      2.8772      3.7818      5.0028      6.5761    
  9.5091      11.860      14.221      16.279      17.695      18.201      17.695      16.279      14.221      11.861    
  9.5095      7.3857      5.6010      4.1836      3.1120      2.3417      1.8206      1.4961      1.3227      1.2687    
  1.3228      1.4961      1.8205      2.3417      3.1123      4.1842      5.6015      7.3858      10.950      13.457    
  15.824      17.695      18.733      18.733      17.695      15.824      13.457      10.951      8.5887      6.5426    
  4.8797      3.5967      2.6539      1.9977      1.5715      1.3227      1.2099      1.2100      1.3227      1.5715    
  1.9978      2.6542      3.5970      4.8798      6.5423      8.5881      12.956      15.642      17.992      19.601    
  20.172      19.601      17.991      15.642      12.956      10.295      7.9118      5.9295      4.3719      3.2051    
  2.3713      1.8082      1.4570      1.2687      1.2100      1.2687      1.4570      1.8083      2.3715      3.2051    
  4.3716      5.9289      7.9114      10.295      15.638      18.358      20.383      21.448      21.449      20.383    
  18.358      15.638      12.650      9.8402      7.4367      5.5130      4.0492      2.9818      2.2374      1.7481    
  1.4571      1.3228      1.3227      1.4570      1.7481      2.2375      2.9817      4.0488      5.5126      7.4366    
  9.8406      12.651      18.397      20.446      21.623      21.995      21.624      20.447      18.397      15.603    
  12.470      9.5421      7.1341      5.2714      3.8927      2.9094      2.2374      1.8083      1.5715      1.4961    
  1.5715      1.8083      2.2375      2.9094      3.8926      5.2714      7.1343      9.5426      12.470      15.603    
  19.684      20.375      20.526      20.526      20.376      19.684      18.052      15.459      12.346      9.3727    
  6.9867      5.1923      3.8926      2.9817      2.3715      1.9978      1.8205      1.8205      1.9978      2.3715    
  2.9817      3.8926      5.1924      6.9870      9.3731      12.346      15.459      18.051      18.184      17.342    
  16.919      17.342      18.184      18.504      17.562      15.295      12.274      9.3178      6.9868      5.2713    
  4.0489      3.2051      2.6542      2.3417      2.2402      2.3417      2.6542      3.2051      4.0488      5.2714    
  6.9870      9.3180      12.274      15.295      17.561      18.504      13.577      11.799      11.799      13.576    
  15.976      17.498      17.227      15.225      12.274      9.3732      7.1343      5.5126      4.3716      3.5970    
  3.1122      2.8771      2.8772      3.1123      3.5970      4.3716      5.5126      7.1343      9.3731      12.274    
  15.224      17.227      17.498      15.977      6.8924      5.3812      6.8925      10.611      14.627      17.111    
  17.227      15.295      12.346      9.5428      7.4367      5.9289      4.8798      4.1841      3.7818      3.6493    
  3.7818      4.1842      4.8798      5.9289      7.4366      9.5426      12.346      15.295      17.227      17.111    
  14.628      10.611     0.27815     0.27842      3.9165      9.4951      14.628      17.498      17.561      15.459    
  12.470      9.8407      7.9113      6.5422      5.6015      5.0028      4.7078      4.7078      5.0028      5.6015    
  6.5423      7.9114      9.8406      12.470      15.459      17.561      17.498      14.628      9.4946      3.9159    
 -3.8351     -1.6630      3.9158      10.611      15.977      18.504      18.051      15.603      12.651      10.295    
  8.5880      7.3857      6.5761      6.1002      5.9417      6.1001      6.5761      7.3858      8.5881      10.295    
  12.651      15.603      18.051      18.504      15.977      10.611      3.9159     -1.6628      2.2264      6.8909    
  12.721      17.678      20.254      20.061      17.897      15.232      13.112      11.561      10.454      9.6979    
  9.2465      9.0947      9.2463      9.6978      10.454      11.560      13.112      15.232      17.897      20.061    
  20.253      17.678      12.722      6.8928      2.2280     0.44895      6.8909      11.798      16.918      20.526    
  21.623      20.383      17.992      15.824      14.221      13.071      12.265      11.736      11.467      11.467    
  11.736      12.265      13.071      14.221      15.824      17.992      20.383      21.623      20.526      16.919    
  11.799      6.8925      3.9165      3.9158      12.721      16.918      20.539      22.346      21.980      20.162    
  18.201      16.739      15.712      14.993      14.456      14.087      13.952      14.087      14.457      14.994    
  15.712      16.739      18.201      20.162      21.980      22.346      20.539      16.918      12.721      9.4408    
  8.2097      9.4408      17.678      20.526      22.346      22.526      21.352      19.841      18.733      18.020    
  17.500      16.965      16.455      16.136      16.136      16.456      16.966      17.500      18.020      18.733    
  19.841      21.352      22.526      22.346      20.526      17.677      14.902      13.227      13.228      14.904    
  20.254      21.623      21.980      21.352      20.429      19.841      19.601      19.383      18.892      18.204    
  17.610      17.378      17.610      18.205      18.893      19.383      19.601      19.841      20.428      21.352    
  21.981      21.623      20.253      18.451      16.987      16.433      16.988      18.452      20.061      20.383    
  20.162      19.841      19.841      20.162      20.383      20.061      19.240      18.315      17.725      17.725    
  18.315      19.240      20.062      20.383      20.162      19.841      19.841      20.162      20.383      20.062    
  19.240      18.315      17.725      17.725      18.315      19.240      17.897      17.992      18.201      18.733    
  19.601      20.383      20.447      19.684      18.504      17.498      17.111      17.498      18.504      19.684    
  20.447      20.383      19.601      18.733      18.201      17.991      17.897      17.632      17.202      16.807    
  16.650      16.807      17.201      17.631      15.232      15.824      16.739      18.020      19.383      20.061    
  19.684      18.516      17.201      16.366      16.366      17.201      18.516      19.684      20.062      19.384    
  18.020      16.739      15.824      15.231      14.865      14.580      14.326      14.168      14.167      14.326    
  14.580      14.865      13.112      14.221      15.712      17.500      18.892      19.240      18.504      17.201    
  16.045      15.591      16.044      17.200      18.504      19.240      18.893      17.500      15.712      14.221    
  13.112      12.322      11.775      11.411      11.195      11.121      11.195      11.411      11.776      12.323    
  11.561      13.071      14.993      16.965      18.204      18.315      17.498      16.366      15.591      15.591    
  16.365      17.497      18.315      18.204      16.966      14.993      13.072      11.561      10.427      9.6017    
  9.0213      8.6468      8.4615      8.4617      8.6472      9.0216      9.6017      10.427      10.454      12.265    
  14.456      16.455      17.610      17.725      17.111      16.366      16.044      16.365      17.109      17.724    
  17.610      16.456      14.456      12.265      10.454      9.0613      8.0210      7.2674      6.7526      6.4504    
  6.3504      6.4504      6.7525      7.2670      8.0204      9.0609      9.6979      11.736      14.087      16.136    
  17.378      17.725      17.498      17.201      17.200      17.497      17.724      17.378      16.137      14.087    
  11.735      9.6974      8.1057      6.9018      6.0153      5.3894      4.9877      4.7906      4.7905      4.9874    
  5.3890      6.0150      6.9019      8.1062      9.2465      11.467      13.952      16.136      17.610      18.315    
  18.504      18.516      18.504      18.315      17.610      16.137      13.952      11.467      9.2464      7.4877    
  6.1465      5.1506      4.4352      3.9532      3.6747      3.5835      3.6745      3.9530      4.4353      5.1510    
  6.1470      7.4881      9.0947      11.467      14.087      16.456      18.205      19.240      19.684      19.684    
  19.240      18.204      16.456      14.087      11.467      9.0952      7.1802      5.7037      4.6006      3.8013    
  3.2493      2.9035      2.7373      2.7373      2.9035      3.2495      3.8017      4.6009      5.7036      7.1798    
  9.2463      11.736      14.457      16.966      18.893      20.062      20.447      20.062      18.893      16.966    
  14.456      11.735      9.2464      7.1802      5.5568      4.3308      3.4362      2.8103      2.4021      2.1734    
  2.1000      2.1735      2.4022      2.8104      3.4362      4.3305      5.5562      7.1797      9.6978      12.265    
  14.994      17.500      19.383      20.383      20.383      19.384      17.500      14.993      12.265      9.6974    
  7.4877      5.7037      4.3308      3.3165      2.5988      2.1201      1.8317      1.6973      1.6974      1.8317    
  2.1200      2.5986      3.3161      4.3305      5.7036      7.4879      10.454      13.071      15.712      18.020    
  19.601      20.162      19.601      18.020      15.712      13.072      10.454      8.1057      6.1465      4.6006    
  3.4362      2.5988      2.0291      1.6712      1.4781      1.4175      1.4781      1.6712      2.0289      2.5986    
  3.4362      4.6010      6.1471      8.1061      11.560      14.221      16.739      18.733      19.841      19.841    
  18.733      16.739      14.221      11.561      9.0613      6.9018      5.1506      3.8013      2.8103      2.1201    
  1.6712      1.4089      1.2898      1.2898      1.4089      1.6712      2.1200      2.8104      3.8018      5.1512    
  6.9021      9.0610      13.112      15.824      18.201      19.841      20.428      19.841      18.201      15.824    
  13.112      10.427      8.0210      6.0153      4.4352      3.2493      2.4021      1.8317      1.4781      1.2898    
  1.2313      1.2898      1.4781      1.8317      2.4022      3.2494      4.4352      6.0151      8.0206      10.427    
  15.232      17.992      20.162      21.352      21.352      20.162      17.991      15.231      12.322      9.6017    
  7.2674      5.3894      3.9532      2.9035      2.1734      1.6973      1.4175      1.2898      1.2898      1.4175    
  1.6974      2.1735      2.9035      3.9529      5.3889      7.2670      9.6017      12.323      17.897      20.383    
  21.980      22.526      21.981      20.383      17.897      14.865      11.775      9.0213      6.7526      4.9877    
  3.6747      2.7373      2.1000      1.6974      1.4781      1.4089      1.4781      1.6974      2.1001      2.7374    
  3.6745      4.9873      6.7524      9.0215      11.776      14.865      20.061      21.623      22.346      22.346    
  21.623      20.062      17.632      14.580      11.411      8.6468      6.4504      4.7906      3.5835      2.7373    
  2.1735      1.8317      1.6712      1.6712      1.8317      2.1735      2.7374      3.5835      4.7907      6.4505    
  8.6471      11.411      14.580      17.631      20.253      20.526      20.539      20.526      20.253      19.240    
  17.202      14.326      11.195      8.4615      6.3504      4.7905      3.6745      2.9035      2.4022      2.1200    
  2.0289      2.1200      2.4022      2.9035      3.6745      4.7907      6.3507      8.4619      11.195      14.326    
  17.201      19.239      17.678      16.919      16.918      17.677      18.451      18.315      16.807      14.168    
  11.121      8.4617      6.4504      4.9874      3.9530      3.2495      2.8104      2.5986      2.5986      2.8104    
  3.2494      3.9529      4.9873      6.4505      8.4619      11.121      14.167      16.807      18.315      18.452    
  12.722      11.799      12.721      14.902      16.987      17.725      16.650      14.167      11.195      8.6472    
  6.7525      5.3890      4.4353      3.8017      3.4362      3.3161      3.4362      3.8018      4.4352      5.3889    
  6.7524      8.6471      11.195      14.167      16.650      17.725      16.988      14.904      6.8928      6.8925    
  9.4408      13.227      16.433      17.725      16.807      14.326      11.411      9.0216      7.2670      6.0150    
  5.1510      4.6009      4.3305      4.3305      4.6010      5.1512      6.0151      7.2670      9.0215      11.411    
  14.326      16.807      17.725      16.433      13.228      9.4414      2.2280      3.9165      8.2097      13.228    
  16.988      18.315      17.201      14.580      11.776      9.6017      8.0204      6.9019      6.1470      5.7036    
  5.5562      5.7036      6.1471      6.9021      8.0206      9.6017      11.776      14.580      17.201      18.315    
  16.988      13.228      8.2101      3.9168     0.44895      3.9158      9.4408      14.904      18.452      19.240    
  17.631      14.865      12.323      10.427      9.0609      8.1062      7.4881      7.1798      7.1797      7.4879    
  8.1061      9.0610      10.427      12.323      14.865      17.631      19.239      18.452      14.904      9.4414    
  3.9168     0.44943      9.5541      13.577      17.678      20.383      20.875      19.383      17.027      14.990    
  13.481      12.397      11.636      11.137      10.886      10.886      11.137      11.636      12.397      13.481    
  14.990      17.027      19.383      20.875      20.383      17.678      13.577      9.5543      7.0923      7.0922    
  13.577      17.342      20.526      21.995      21.448      19.601      17.695      16.279      15.283      14.589    
  14.082      13.739      13.614      13.739      14.083      14.590      15.283      16.279      17.695      19.601    
  21.448      21.995      20.526      17.342      13.576      10.611      9.4951      10.611      17.678      20.526    
  22.346      22.526      21.352      19.841      18.733      18.020      17.500      16.965      16.455      16.136    
  16.136      16.456      16.966      17.500      18.020      18.733      19.841      21.352      22.526      22.346    
  20.526      17.677      14.902      13.227      13.228      14.904      20.383      21.995      22.526      21.971    
  21.036      20.429      20.172      19.899      19.314      18.522      17.848      17.586      17.848      18.522    