Ge                                      
   5.77000000000000     
     0.000000    0.500078    0.500078
     0.500078    0.000000    0.500078
     0.500078    0.500078    0.000000
   Ge
     2
Direct
  0.000000  0.000000 -0.000000
  0.250000  0.250000  0.250000
 
   28   28   28
 -.61892437534E+01 -.38340814359E+01 0.22313663222E+01 0.95618826925E+01 0.15538039768E+02
 0.18523316069E+02 0.18327884069E+02 0.15956841035E+02 0.12960732062E+02 0.10539004477E+02
 0.87865724769E+01 0.75544632468E+01 0.67256010270E+01 0.62382823945E+01 0.60758935808E+01
 0.62381827826E+01 0.67255188898E+01 0.75544585885E+01 0.87865909223E+01 0.10539022479E+02
 0.12960827355E+02 0.15957020509E+02 0.18327942919E+02 0.18523035614E+02 0.15537516568E+02
 0.95614942957E+01 0.22313405404E+01 -.38339329525E+01 -.38340814359E+01 0.28021596230E+00
 0.68978180642E+01 0.13585269954E+02 0.18192865789E+02 0.19689631354E+02 0.18398798501E+02
 0.15637555719E+02 0.12954185724E+02 0.10948172965E+02 0.95070880798E+01 0.85023499101E+01
 0.78521874386E+01 0.75274371270E+01 0.75273491458E+01 0.78520151113E+01 0.85022294283E+01
 0.95070275467E+01 0.10948134921E+02 0.12954222383E+02 0.15637665600E+02 0.18398730450E+02
 0.19689149489E+02 0.18192307461E+02 0.13585510907E+02 0.68993231324E+01 0.28220092260E+00
 -.38331565009E+01 0.22313663222E+01 0.68978180642E+01 0.12729902691E+02 0.17687034810E+02
 0.20260535779E+02 0.20064422568E+02 0.17896658228E+02 0.15230163637E+02 0.13109773176E+02
 0.11558451383E+02 0.10452572915E+02 0.96962687237E+01 0.92449645390E+01 0.90932926090E+01
 0.92448410599E+01 0.96960978742E+01 0.10452405158E+02 0.11558307907E+02 0.13109728557E+02
 0.15230271053E+02 0.17896744495E+02 0.20064169221E+02 0.20259973571E+02 0.17686831828E+02
 0.12730806276E+02 0.68996706171E+01 0.22329197975E+01 0.45306880157E+00 0.95618826925E+01
 0.13585269954E+02 0.17687034810E+02 0.20390433721E+02 0.20878639133E+02 0.19383700183E+02
 0.17025191795E+02 0.14988118470E+02 0.13479332462E+02 0.12395213142E+02 0.11634313751E+02
 0.11136238146E+02 0.10884917536E+02 0.10884901797E+02 0.11136153014E+02 0.11634104403E+02
 0.12394919256E+02 0.13479114329E+02 0.14988129139E+02 0.17025401810E+02 0.19383881307E+02
 0.20878576736E+02 0.20390165670E+02 0.17686832829E+02 0.13585346399E+02 0.95621431210E+01
 0.70993076156E+01 0.70991659386E+01 0.15538039768E+02 0.18192865789E+02 0.20260535779E+02
 0.20878639133E+02 0.19899329239E+02 0.18018728494E+02 0.16277082601E+02 0.14988118470E+02
 0.14078021314E+02 0.13447742410E+02 0.13011937880E+02 0.12730783980E+02 0.12630412236E+02
 0.12730857342E+02 0.13011861961E+02 0.13447391345E+02 0.14077563196E+02 0.14987840375E+02
 0.16277109531E+02 0.18018984502E+02 0.19899680286E+02 0.20878935780E+02 0.20260557078E+02
 0.18192425566E+02 0.15537261016E+02 0.13384353667E+02 0.12566084654E+02 0.13384980724E+02
 0.18523316069E+02 0.19689631354E+02 0.20064422568E+02 0.19383700183E+02 0.18018728494E+02
 0.16737064861E+02 0.15822298246E+02 0.15230163637E+02 0.14864229341E+02 0.14579639882E+02
 0.14326821754E+02 0.14168549606E+02 0.14168712603E+02 0.14327071513E+02 0.14579565580E+02
 0.14863754151E+02 0.15229597090E+02 0.15821947300E+02 0.16736980817E+02 0.18018851476E+02
 0.19384037839E+02 0.20064938299E+02 0.19690087389E+02 0.18523446766E+02 0.17208931896E+02
 0.16374482097E+02 0.16374598927E+02 0.17209087487E+02 0.18327884069E+02 0.18398798501E+02
 0.17896658228E+02 0.17025191795E+02 0.16277082601E+02 0.15822298246E+02 0.15640811044E+02
 0.15637555719E+02 0.15603221921E+02 0.15460264143E+02 0.15296957079E+02 0.15227229938E+02
 0.15297498727E+02 0.15460786755E+02 0.15603219212E+02 0.15637062250E+02 0.15640233342E+02
 0.15821907746E+02 0.16276833335E+02 0.17024999006E+02 0.17896666266E+02 0.18399259245E+02
 0.18328821435E+02 0.17882218181E+02 0.17422205826E+02 0.17234846767E+02 0.17421491941E+02
 0.17881141596E+02 0.15956841035E+02 0.15637555719E+02 0.15230163637E+02 0.14988118470E+02
 0.14988118470E+02 0.15230163637E+02 0.15637555719E+02 0.15956841035E+02 0.16038659856E+02
 0.15960172156E+02 0.15872201040E+02 0.15872661968E+02 0.15961167522E+02 0.16039403873E+02
 0.15956879762E+02 0.15637094086E+02 0.15229701734E+02 0.14987867781E+02 0.14987867781E+02
 0.15229701734E+02 0.15637094086E+02 0.15956879762E+02 0.16039403873E+02 0.15961167522E+02
 0.15872661968E+02 0.15872201040E+02 0.15960172156E+02 0.16038659856E+02 0.12960732062E+02
 0.12954185724E+02 0.13109773176E+02 0.13479332462E+02 0.14078021314E+02 0.14864229341E+02
 0.15603221921E+02 0.16038659856E+02 0.16175921596E+02 0.16165559820E+02 0.16145672597E+02
 0.16166475885E+02 0.16177098631E+02 0.16039336795E+02 0.15603150370E+02 0.14863802573E+02
 0.14077797197E+02 0.13479439914E+02 0.13109831376E+02 0.12953809396E+02 0.12960020725E+02
 0.13044539353E+02 0.13099600973E+02 0.13110016681E+02 0.13107736687E+02 0.13109916649E+02
 0.13099743118E+02 0.13045111737E+02 0.10539004477E+02 0.10948172965E+02 0.11558451383E+02
 0.12395213142E+02 0.13447742410E+02 0.14579639882E+02 0.15460264143E+02 0.15960172156E+02
 0.16165559820E+02 0.16222623566E+02 0.16223037242E+02 0.16166542678E+02 0.15961119697E+02
 0.15460646084E+02 0.14579397817E+02 0.13447324746E+02 0.12395160079E+02 0.11558886198E+02
 0.10948699526E+02 0.10539106917E+02 0.10287748821E+02 0.10149354961E+02 0.10083464787E+02
 0.10058358037E+02 0.10058616439E+02 0.10084144101E+02 0.10150153081E+02 0.10288234286E+02
 0.87865724769E+01 0.95070880798E+01 0.10452572915E+02 0.11634313751E+02 0.13011937880E+02
 0.14326821754E+02 0.15296957079E+02 0.15872201040E+02 0.16145672597E+02 0.16223037242E+02
 0.16146121758E+02 0.15872911378E+02 0.15297579839E+02 0.14327008417E+02 0.13011609755E+02
 0.11633793893E+02 0.10452372516E+02 0.95074777293E+01 0.87873325117E+01 0.82614067267E+01
 0.78961872924E+01 0.76615782387E+01 0.75326820476E+01 0.74920399171E+01 0.75330716071E+01
 0.76619597451E+01 0.78961175471E+01 0.82608028855E+01 0.75544632468E+01 0.85023499101E+01
 0.96962687237E+01 0.11136238146E+02 0.12730783980E+02 0.14168549606E+02 0.15227229938E+02
 0.15872661968E+02 0.16166475885E+02 0.16166542678E+02 0.15872911378E+02 0.15227697906E+02
 0.14169075146E+02 0.12731025600E+02 0.11135953287E+02 0.96955954566E+01 0.85017663592E+01
 0.75544070817E+01 0.68271204094E+01 0.62889398894E+01 0.59131690734E+01 0.56778171279E+01
 0.55653572677E+01 0.55653425860E+01 0.56776577083E+01 0.59126986349E+01 0.62882549421E+01
 0.68266207533E+01 0.67256010270E+01 0.78521874386E+01 0.92449645390E+01 0.10884917536E+02
 0.12630412236E+02 0.14168712603E+02 0.15297498727E+02 0.15961167522E+02 0.16177098631E+02
 0.15961119697E+02 0.15297579839E+02 0.14169075146E+02 0.12630970575E+02 0.10885340161E+02
 0.92449169497E+01 0.78516251216E+01 0.67248366344E+01 0.58433154088E+01 0.51741598562E+01
 0.46879840204E+01 0.43613317489E+01 0.41748991774E+01 0.41144646504E+01 0.41746224054E+01
 0.43609055506E+01 0.46876627111E+01 0.51742206853E+01 0.58438463016E+01 0.62382823945E+01
 0.75274371270E+01 0.90932926090E+01 0.10884901797E+02 0.12730857342E+02 0.14327071513E+02
 0.15460786755E+02 0.16039403873E+02 0.16039336795E+02 0.15460646084E+02 0.14327008417E+02
 0.12731025600E+02 0.10885340161E+02 0.90938494138E+01 0.75278200102E+01 0.62382414130E+01
 0.52184084425E+01 0.44365112049E+01 0.38582102912E+01 0.34546531291E+01 0.32020488775E+01
 0.30813249336E+01 0.30812287716E+01 0.32019016062E+01 0.34547361084E+01 0.38586570230E+01
 0.44371506502E+01 0.52188829067E+01 0.60758935808E+01 0.75273491458E+01 0.92448410599E+01
 0.11136153014E+02 0.13011861961E+02 0.14579565580E+02 0.15603219212E+02 0.15956879762E+02
 0.15603150370E+02 0.14579397817E+02 0.13011609755E+02 0.11135953287E+02 0.92449169497E+01
 0.75278200102E+01 0.60765895834E+01 0.49112806047E+01 0.40106675602E+01 0.33393582811E+01
 0.28623259002E+01 0.25488366017E+01 0.23730774621E+01 0.23167312181E+01 0.23731024179E+01
 0.25490408460E+01 0.28627371948E+01 0.33397122014E+01 0.40106171499E+01 0.49107570316E+01
 0.62381827826E+01 0.78520151113E+01 0.96960978742E+01 0.11634104403E+02 0.13447391345E+02
 0.14863754151E+02 0.15637062250E+02 0.15637094086E+02 0.14863802573E+02 0.13447324746E+02
 0.11633793893E+02 0.96955954566E+01 0.78516251216E+01 0.62382414130E+01 0.49112806047E+01
 0.38705768448E+01 0.30878294748E+01 0.25257283560E+01 0.21468391249E+01 0.19172456965E+01
 0.18100640143E+01 0.18100971774E+01 0.19173614288E+01 0.21469906600E+01 0.25257114358E+01
 0.30874459968E+01 0.38699203808E+01 0.49107482034E+01 0.67255188898E+01 0.85022294283E+01
 0.10452405158E+02 0.12394919256E+02 0.14077563196E+02 0.15229597090E+02 0.15640233342E+02
 0.15229701734E+02 0.14077797197E+02 0.12395160079E+02 0.10452372516E+02 0.85017663592E+01
 0.67248366344E+01 0.52184084425E+01 0.40106675602E+01 0.30878294748E+01 0.24162176796E+01
 0.19550920991E+01 0.16634210197E+01 0.15052535558E+01 0.14555595627E+01 0.15052887850E+01
 0.16634062772E+01 0.19549071304E+01 0.24158453682E+01 0.30874763763E+01 0.40106593426E+01
 0.52188739341E+01 0.75544585885E+01 0.95070275467E+01 0.11558307907E+02 0.13479114329E+02
 0.14987840375E+02 0.15821947300E+02 0.15821907746E+02 0.14987867781E+02 0.13479439914E+02
 0.11558886198E+02 0.95074777293E+01 0.75544070817E+01 0.58433154088E+01 0.44365112049E+01
 0.33393582811E+01 0.25257283560E+01 0.19550920991E+01 0.15820527298E+01 0.13630782672E+01
 0.12633584390E+01 0.12633715119E+01 0.13630586216E+01 0.15819186658E+01 0.19549097180E+01
 0.25257338442E+01 0.33397469378E+01 0.44371811840E+01 0.58438652773E+01 0.87865909223E+01
 0.10948134921E+02 0.13109728557E+02 0.14988129139E+02 0.16277109531E+02 0.16736980817E+02
 0.16276833335E+02 0.14987867781E+02 0.13109831376E+02 0.10948699526E+02 0.87873325117E+01
 0.68271204094E+01 0.51741598562E+01 0.38582102912E+01 0.28623259002E+01 0.21468391249E+01
 0.16634210197E+01 0.13630782672E+01 0.12028923700E+01 0.11530813948E+01 0.12028994978E+01
 0.13630442785E+01 0.16633952541E+01 0.21469896447E+01 0.28627226964E+01 0.38586320936E+01
 0.51742263764E+01 0.68266615165E+01 0.10539022479E+02 0.12954222383E+02 0.15230271053E+02
 0.17025401810E+02 0.18018984502E+02 0.18018851476E+02 0.17024999006E+02 0.15229701734E+02
 0.12953809396E+02 0.10539106917E+02 0.82614067267E+01 0.62889398894E+01 0.46879840204E+01
 0.34546531291E+01 0.25488366017E+01 0.19172456965E+01 0.15052535558E+01 0.12633584390E+01
 0.11530813948E+01 0.11530819715E+01 0.12633565415E+01 0.15052781053E+01 0.19173644531E+01
 0.25490217475E+01 0.34546835001E+01 0.46876237647E+01 0.62882601505E+01 0.82608263169E+01
 0.12960827355E+02 0.15637665600E+02 0.17896744495E+02 0.19383881307E+02 0.19899680286E+02
 0.19384037839E+02 0.17896666266E+02 0.15637094086E+02 0.12960020725E+02 0.10287748821E+02
 0.78961872924E+01 0.59131690734E+01 0.43613317489E+01 0.32020488775E+01 0.23730774621E+01
 0.18100640143E+01 0.14555595627E+01 0.12633715119E+01 0.12028994978E+01 0.12633565415E+01
 0.14555697314E+01 0.18101206509E+01 0.23731027052E+01 0.32018789935E+01 0.43608998067E+01
 0.59126975487E+01 0.78960940238E+01 0.10288245840E+02 0.15957020509E+02 0.18398730450E+02
 0.20064169221E+02 0.20878576736E+02 0.20878935780E+02 0.20064938299E+02 0.18399259245E+02
 0.15956879762E+02 0.13044539353E+02 0.10149354961E+02 0.76615782387E+01 0.56778171279E+01
 0.41748991774E+01 0.30813249336E+01 0.23167312181E+01 0.18100971774E+01 0.15052887850E+01
 0.13630586216E+01 0.13630442785E+01 0.15052781053E+01 0.18101206509E+01 0.23167254504E+01
 0.30811866086E+01 0.41746639806E+01 0.56777336987E+01 0.76619135104E+01 0.10150076713E+02
 0.13045224361E+02 0.18327942919E+02 0.19689149489E+02 0.20259973571E+02 0.20390165670E+02
 0.20260557078E+02 0.19690087389E+02 0.18328821435E+02 0.16039403873E+02 0.13099600973E+02
 0.10083464787E+02 0.75326820476E+01 0.55653572677E+01 0.41144646504E+01 0.30812287716E+01
 0.23731024179E+01 0.19173614288E+01 0.16634062772E+01 0.15819186658E+01 0.16633952541E+01
 0.19173644531E+01 0.23731027052E+01 0.30811866086E+01 0.41144372952E+01 0.55655159434E+01
 0.75331129654E+01 0.10083967094E+02 0.13099775070E+02 0.16038991312E+02 0.18523035614E+02
 0.18192307461E+02 0.17686831828E+02 0.17686832829E+02 0.18192425566E+02 0.18523446766E+02
 0.17882218181E+02 0.15961167522E+02 0.13110016681E+02 0.10058358037E+02 0.74920399171E+01
 0.55653425860E+01 0.41746224054E+01 0.32019016062E+01 0.25490408460E+01 0.21469906600E+01
 0.19549071304E+01 0.19549097180E+01 0.21469896447E+01 0.25490217475E+01 0.32018789935E+01
 0.41746639806E+01 0.55655159434E+01 0.74922916007E+01 0.10058471391E+02 0.13109770188E+02
 0.15960574249E+02 0.17881563689E+02 0.15537516568E+02 0.13585510907E+02 0.12730806276E+02
 0.13585346399E+02 0.15537261016E+02 0.17208931896E+02 0.17422205826E+02 0.15872661968E+02
 0.13107736687E+02 0.10058616439E+02 0.75330716071E+01 0.56776577083E+01 0.43609055506E+01
 0.34547361084E+01 0.28627371948E+01 0.25257114358E+01 0.24158453682E+01 0.25257338442E+01
 0.28627226964E+01 0.34546835001E+01 0.43608998067E+01 0.56777336987E+01 0.75331129654E+01
 0.10058471391E+02 0.13107423683E+02 0.15872388932E+02 0.17422164837E+02 0.17209119559E+02
 0.95614942957E+01 0.68993231324E+01 0.68996706171E+01 0.95621431210E+01 0.13384353667E+02
 0.16374482097E+02 0.17234846767E+02 0.15872201040E+02 0.13109916649E+02 0.10084144101E+02
 0.76619597451E+01 0.59126986349E+01 0.46876627111E+01 0.38586570230E+01 0.33397122014E+01
 0.30874459968E+01 0.30874763763E+01 0.33397469378E+01 0.38586320936E+01 0.46876237647E+01
 0.59126975487E+01 0.76619135104E+01 0.10083967094E+02 0.13109770188E+02 0.15872388932E+02
 0.17235360785E+02 0.16374839545E+02 0.13384107912E+02 0.22313405404E+01 0.28220092260E+00
 0.22329197975E+01 0.70993076156E+01 0.12566084654E+02 0.16374598927E+02 0.17421491941E+02
 0.15960172156E+02 0.13099743118E+02 0.10150153081E+02 0.78961175471E+01 0.62882549421E+01
 0.51742206853E+01 0.44371506502E+01 0.40106171499E+01 0.38699203808E+01 0.40106593426E+01
 0.44371811840E+01 0.51742263764E+01 0.62882601505E+01 0.78960940238E+01 0.10150076713E+02
 0.13099775070E+02 0.15960574249E+02 0.17422164837E+02 0.16374839545E+02 0.12565160393E+02
 0.70974160233E+01 -.38339329525E+01 -.38331565009E+01 0.45306880157E+00 0.70991659386E+01
 0.13384980724E+02 0.17209087487E+02 0.17881141596E+02 0.16038659856E+02 0.13045111737E+02
 0.10288234286E+02 0.82608028855E+01 0.68266207533E+01 0.58438463016E+01 0.52188829067E+01
 0.49107570316E+01 0.49107482034E+01 0.52188739341E+01 0.58438652773E+01 0.68266615165E+01
 0.82608263169E+01 0.10288245840E+02 0.13045224361E+02 0.16038991312E+02 0.17881563689E+02
 0.17209119559E+02 0.13384107912E+02 0.70974160233E+01 0.45125382286E+00 -.38340814359E+01
 0.28021596230E+00 0.68978180642E+01 0.13585269954E+02 0.18192865789E+02 0.19689631354E+02
 0.18398798501E+02 0.15637555719E+02 0.12954185724E+02 0.10948172965E+02 0.95070880798E+01
 0.85023499101E+01 0.78521874386E+01 0.75274371270E+01 0.75273491458E+01 0.78520151113E+01
 0.85022294283E+01 0.95070275467E+01 0.10948134921E+02 0.12954222383E+02 0.15637665600E+02
 0.18398730450E+02 0.19689149489E+02 0.18192307461E+02 0.13585510907E+02 0.68993231324E+01
 0.28220092260E+00 -.38331565009E+01 0.28021596230E+00 0.53847524231E+01 0.11806208352E+02
 0.17350933555E+02 0.20382743968E+02 0.20450402442E+02 0.18358221358E+02 0.15640811044E+02
 0.13455166845E+02 0.11858164872E+02 0.10721257333E+02 0.99440075114E+01 0.94798904025E+01
 0.93238155374E+01 0.94798361295E+01 0.99439278215E+01 0.10721132678E+02 0.11857978874E+02
 0.13455025473E+02 0.15640821160E+02 0.18358204625E+02 0.20450001911E+02 0.20382064367E+02
 0.17350884193E+02 0.11807731837E+02 0.53875308213E+01 0.28247467736E+00 -.16598969437E+01
 0.68978180642E+01 0.11806208352E+02 0.16927419807E+02 0.20533944303E+02 0.21627712837E+02
 0.20383644339E+02 0.17990438100E+02 0.15822298246E+02 0.14218717022E+02 0.13069559500E+02
 0.12263489232E+02 0.11734541145E+02 0.11465797129E+02 0.11465893885E+02 0.11734738140E+02
 0.12263583871E+02 0.13069430075E+02 0.14218467355E+02 0.15822156409E+02 0.17990454675E+02
 0.20383574182E+02 0.21627352066E+02 0.20533580228E+02 0.16927721405E+02 0.11807472560E+02
 0.68993972170E+01 0.39222577076E+01 0.39215351310E+01 0.13585269954E+02 0.17350933555E+02
 0.20533944303E+02 0.22000005297E+02 0.21449875903E+02 0.19599677599E+02 0.17693124549E+02
 0.16277082601E+02 0.15281176894E+02 0.14588384699E+02 0.14081877382E+02 0.13738739603E+02
 0.13613866933E+02 0.13739104521E+02 0.14082280134E+02 0.14588502797E+02 0.15280986763E+02
 0.16276821928E+02 0.17693020802E+02 0.19599757352E+02 0.21450002105E+02 0.22000023499E+02
 0.20533777832E+02 0.17350604919E+02 0.13584894615E+02 0.10618930806E+02 0.95029298292E+01
 0.10619183560E+02 0.18192865789E+02 0.20382743968E+02 0.21627712837E+02 0.21449875903E+02
 0.20170861909E+02 0.18731440208E+02 0.17693124549E+02 0.17025191795E+02 0.16574782167E+02
 0.16145322123E+02 0.15739842630E+02 0.15485258347E+02 0.15485520574E+02 0.15740398352E+02
 0.16145722569E+02 0.16574791483E+02 0.17024918609E+02 0.17692816874E+02 0.18731290414E+02
 0.20170978872E+02 0.21450243148E+02 0.21628068555E+02 0.20382656807E+02 0.18192148383E+02
 0.15985157847E+02 0.14636118197E+02 0.14636558590E+02 0.15986105377E+02 0.19689631354E+02
 0.20450402442E+02 0.20383644339E+02 0.19599677599E+02 0.18731440208E+02 0.18199113664E+02
 0.17990438100E+02 0.17896658228E+02 0.17632806239E+02 0.17203621419E+02 0.16810444795E+02
 0.16653715567E+02 0.16810995099E+02 0.17204310580E+02 0.17633196900E+02 0.17896615100E+02
 0.17990101325E+02 0.18198693924E+02 0.18731129710E+02 0.19599655631E+02 0.20383984590E+02
 0.20450937037E+02 0.19690034161E+02 0.18511289204E+02 0.17505711910E+02 0.17118493241E+02
 0.17505782966E+02 0.18511193855E+02 0.18398798501E+02 0.18358221358E+02 0.17990438100E+02
 0.17693124549E+02 0.17693124549E+02 0.17990438100E+02 0.18358221358E+02 0.18398798501E+02
 0.18054391729E+02 0.17565795271E+02 0.17232046350E+02 0.17232418907E+02 0.17566680743E+02
 0.18055278387E+02 0.18399274165E+02 0.18358204139E+02 0.17990099431E+02 0.17692664256E+02
 0.17692664256E+02 0.17990099431E+02 0.18358204139E+02 0.18399274165E+02 0.18055278387E+02
 0.17566680743E+02 0.17232418907E+02 0.17232046350E+02 0.17565795271E+02 0.18054391729E+02
 0.15637555719E+02 0.15640811044E+02 0.15822298246E+02 0.16277082601E+02 0.17025191795E+02
 0.17896658228E+02 0.18398798501E+02 0.18327884069E+02 0.17881141596E+02 0.17421491941E+02
 0.17234846767E+02 0.17422205826E+02 0.17882218181E+02 0.18328821435E+02 0.18399259245E+02
 0.17896666266E+02 0.17024999006E+02 0.16276833335E+02 0.15821907746E+02 0.15640233342E+02
 0.15637062250E+02 0.15603219212E+02 0.15460786755E+02 0.15297498727E+02 0.15227229938E+02
 0.15296957079E+02 0.15460264143E+02 0.15603221921E+02 0.12954185724E+02 0.13455166845E+02
 0.14218717022E+02 0.15281176894E+02 0.16574782167E+02 0.17632806239E+02 0.18054391729E+02
 0.17881141596E+02 0.17452108653E+02 0.17132494719E+02 0.17132727551E+02 0.17452747299E+02
 0.17881966053E+02 0.18055055405E+02 0.17633088530E+02 0.16574807312E+02 0.15281245049E+02
 0.14218890617E+02 0.13455160807E+02 0.12953746139E+02 0.12648835153E+02 0.12468857216E+02
 0.12345627579E+02 0.12273918499E+02 0.12273976910E+02 0.12345911455E+02 0.12469469433E+02
 0.12649562127E+02 0.10948172965E+02 0.11858164872E+02 0.13069559500E+02 0.14588384699E+02
 0.16145322123E+02 0.17203621419E+02 0.17565795271E+02 0.17421491941E+02 0.17132494719E+02
 0.16999117996E+02 0.17132453100E+02 0.17421622801E+02 0.17566162845E+02 0.17203976212E+02
 0.16145417987E+02 0.14588339396E+02 0.13069726479E+02 0.11858658081E+02 0.10948667380E+02
 0.10293292842E+02 0.98386536338E+01 0.95408600063E+01 0.93716754043E+01 0.93168467514E+01
 0.93721618192E+01 0.95415567601E+01 0.98391253922E+01 0.10293231687E+02 0.95070880798E+01
 0.10721257333E+02 0.12263489232E+02 0.14081877382E+02 0.15739842630E+02 0.16810444795E+02
 0.17232046350E+02 0.17234846767E+02 0.17132727551E+02 0.17132453100E+02 0.17234335272E+02
 0.17231852593E+02 0.16810703758E+02 0.15740146464E+02 0.14081816205E+02 0.12263163247E+02
 0.10721150548E+02 0.95074984215E+01 0.85867454441E+01 0.79100606698E+01 0.74351590793E+01
 0.71326703614E+01 0.69853793393E+01 0.69855151494E+01 0.71328913497E+01 0.74350916308E+01
 0.79095383204E+01 0.85860352438E+01 0.85023499101E+01 0.99440075114E+01 0.11734541145E+02
 0.13738739603E+02 0.15485258347E+02 0.16653715567E+02 0.17232418907E+02 0.17422205826E+02
 0.17452747299E+02 0.17421622801E+02 0.17231852593E+02 0.16653715548E+02 0.15485747837E+02
 0.13739129252E+02 0.11734367125E+02 0.99433872683E+01 0.85018167808E+01 0.73838034787E+01
 0.65408676406E+01 0.59278465393E+01 0.55115243109E+01 0.52700766467E+01 0.51909405455E+01
 0.52699145528E+01 0.55111351885E+01 0.59272880832E+01 0.65404324746E+01 0.73838353419E+01
 0.78521874386E+01 0.94798904025E+01 0.11465797129E+02 0.13613866933E+02 0.15485520574E+02
 0.16810995099E+02 0.17566680743E+02 0.17882218181E+02 0.17881966053E+02 0.17566162845E+02
 0.16810703758E+02 0.15485747837E+02 0.13614446704E+02 0.11466262065E+02 0.94798683560E+01
 0.78516768910E+01 0.65737057616E+01 0.55993195266E+01 0.48781720482E+01 0.43704514512E+01
 0.40478659971E+01 0.38914601545E+01 0.38913282033E+01 0.40475639004E+01 0.43702136423E+01
 0.48782425602E+01 0.55997829417E+01 0.65743815021E+01 0.75274371270E+01 0.93238155374E+01
 0.11465893885E+02 0.13739104521E+02 0.15740398352E+02 0.17204310580E+02 0.18055278387E+02
 0.18328821435E+02 0.18055055405E+02 0.17203976212E+02 0.15740146464E+02 0.13739129252E+02
 0.11466262065E+02 0.93243738993E+01 0.75278641675E+01 0.60985503683E+01 0.50007754292E+01
 0.41821300640E+01 0.35953533115E+01 0.32038644755E+01 0.29806841231E+01 0.29083071813E+01
 0.29806045815E+01 0.32039166388E+01 0.35957036466E+01 0.41826712098E+01 0.50011753504E+01
 0.60985317618E+01 0.75273491458E+01 0.94798361295E+01 0.11734738140E+02 0.14082280134E+02
 0.16145722569E+02 0.17633196900E+02 0.18399274165E+02 0.18399259245E+02 0.17633088530E+02
 0.16145417987E+02 0.14081816205E+02 0.11734367125E+02 0.94798683560E+01 0.75278641675E+01
 0.59407534428E+01 0.47067568707E+01 0.37804261856E+01 0.31107234231E+01 0.26528024530E+01
 0.23703366290E+01 0.22364638687E+01 0.22364791619E+01 0.23704482868E+01 0.26530710410E+01
 0.31109978324E+01 0.37803985132E+01 0.47062756600E+01 0.59400375135E+01 0.78520151113E+01
 0.99439278215E+01 0.12263583871E+02 0.14588502797E+02 0.16574791483E+02 0.17896615100E+02
 0.18358204139E+02 0.17896666266E+02 0.16574807312E+02 0.14588339396E+02 0.12263163247E+02
 0.99433872683E+01 0.78516768910E+01 0.60985503683E+01 0.47067568707E+01 0.36484183650E+01
 0.28762406156E+01 0.23407003108E+01 0.19967829555E+01 0.18073586114E+01 0.17472408885E+01
 0.18074171907E+01 0.19968620347E+01 0.23406731019E+01 0.28759565937E+01 0.36478987974E+01
 0.47062785747E+01 0.60984425761E+01 0.85022294283E+01 0.10721132678E+02 0.13069430075E+02
 0.15280986763E+02 0.17024918609E+02 0.17990101325E+02 0.17990099431E+02 0.17024999006E+02
 0.15281245049E+02 0.13069726479E+02 0.10721150548E+02 0.85018167808E+01 0.65737057616E+01
 0.50007754292E+01 0.37804261856E+01 0.28762406156E+01 0.22394762834E+01 0.18197010282E+01
 0.15707115628E+01 0.14563086532E+01 0.14563305193E+01 0.15707195966E+01 0.18195814277E+01
 0.22392015835E+01 0.28759758594E+01 0.37804464647E+01 0.50012034744E+01 0.65743278112E+01
 0.95070275467E+01 0.11857978874E+02 0.14218467355E+02 0.16276821928E+02 0.17692816874E+02
 0.18198693924E+02 0.17692664256E+02 0.16276833335E+02 0.14218890617E+02 0.11858658081E+02
 0.95074984215E+01 0.73838034787E+01 0.55993195266E+01 0.41821300640E+01 0.31107234231E+01
 0.23407003108E+01 0.18197010282E+01 0.14953680566E+01 0.13220469824E+01 0.12680879435E+01
 0.13220643810E+01 0.14953162955E+01 0.18195741194E+01 0.23406750157E+01 0.31110156221E+01
 0.41827195854E+01 0.55998606580E+01 0.73838839210E+01 0.10948134921E+02 0.13455025473E+02
 0.15822156409E+02 0.17693020802E+02 0.18731290414E+02 0.18731129710E+02 0.17692664256E+02
 0.15821907746E+02 0.13455160807E+02 0.10948667380E+02 0.85867454441E+01 0.65408676406E+01
 0.48781720482E+01 0.35953533115E+01 0.26528024530E+01 0.19967829555E+01 0.15707115628E+01
 0.13220469824E+01 0.12093085474E+01 0.12093173595E+01 0.13220472535E+01 0.15706983428E+01
 0.19968519607E+01 0.26530449991E+01 0.35956642040E+01 0.48782601990E+01 0.65405322540E+01
 0.85861196337E+01 0.12954222383E+02 0.15640821160E+02 0.17990454675E+02 0.19599757352E+02
 0.20170978872E+02 0.19599655631E+02 0.17990099431E+02 0.15640233342E+02 0.12953746139E+02
 0.10293292842E+02 0.79100606698E+01 0.59278465393E+01 0.43704514512E+01 0.32038644755E+01
 0.23703366290E+01 0.18073586114E+01 0.14563086532E+01 0.12680879435E+01 0.12093173595E+01
 0.12680777053E+01 0.14563141918E+01 0.18074236854E+01 0.23704429952E+01 0.32038552638E+01
 0.43701392478E+01 0.59272739995E+01 0.79095849710E+01 0.10293289850E+02 0.15637665600E+02
 0.18358204625E+02 0.20383574182E+02 0.21450002105E+02 0.21450243148E+02 0.20383984590E+02
 0.18358204139E+02 0.15637062250E+02 0.12648835153E+02 0.98386536338E+01 0.74351590793E+01
 0.55115243109E+01 0.40478659971E+01 0.29806841231E+01 0.22364638687E+01 0.17472408885E+01
 0.14563305193E+01 0.13220643810E+01 0.13220472535E+01 0.14563141918E+01 0.17472760233E+01
 0.22365108937E+01 0.29805937731E+01 0.40475338495E+01 0.55110986357E+01 0.74350235673E+01
 0.98390825294E+01 0.12649636492E+02 0.18398730450E+02 0.20450001911E+02 0.21627352066E+02
 0.22000023499E+02 0.21628068555E+02 0.20450937037E+02 0.18399274165E+02 0.15603219212E+02
 0.12468857216E+02 0.95408600063E+01 0.71326703614E+01 0.52700766467E+01 0.38914601545E+01
 0.29083071813E+01 0.22364791619E+01 0.18074171907E+01 0.15707195966E+01 0.14953162955E+01
 0.15706983428E+01 0.18074236854E+01 0.22365108937E+01 0.29082829714E+01 0.38913486505E+01
 0.52700198456E+01 0.71328925461E+01 0.95414003567E+01 0.12469415672E+02 0.15603336775E+02
 0.19689149489E+02 0.20382064367E+02 0.20533580228E+02 0.20533777832E+02 0.20382656807E+02
 0.19690034161E+02 0.18055278387E+02 0.15460786755E+02 0.12345627579E+02 0.93716754043E+01
 0.69853793393E+01 0.51909405455E+01 0.38913282033E+01 0.29806045815E+01 0.23704482868E+01
 0.19968620347E+01 0.18195814277E+01 0.18195741194E+01 0.19968519607E+01 0.23704429952E+01
 0.29805937731E+01 0.38913486505E+01 0.51911079019E+01 0.69857554288E+01 0.93720893230E+01
 0.12345725162E+02 0.15460338888E+02 0.18054419558E+02 0.18192307461E+02 0.17350884193E+02
 0.16927721405E+02 0.17350604919E+02 0.18192148383E+02 0.18511289204E+02 0.17566680743E+02
 0.15297498727E+02 0.12273918499E+02 0.93168467514E+01 0.69855151494E+01 0.52699145528E+01
 0.40475639004E+01 0.32039166388E+01 0.26530710410E+01 0.23406731019E+01 0.22392015835E+01
 0.23406750157E+01 0.26530449991E+01 0.32038552638E+01 0.40475338495E+01 0.52700198456E+01
 0.69857554288E+01 0.93170177084E+01 0.12273740897E+02 0.15296922189E+02 0.17566026332E+02
 0.18510989299E+02 0.13585510907E+02 0.11807731837E+02 0.11807472560E+02 0.13584894615E+02
 0.15985157847E+02 0.17505711910E+02 0.17232418907E+02 0.15227229938E+02 0.12273976910E+02
 0.93721618192E+01 0.71328913497E+01 0.55111351885E+01 0.43702136423E+01 0.35957036466E+01
 0.31109978324E+01 0.28759565937E+01 0.28759758594E+01 0.31110156221E+01 0.35956642040E+01
 0.43701392478E+01 0.55110986357E+01 0.71328925461E+01 0.93720893230E+01 0.12273740897E+02
 0.15226922917E+02 0.17232296955E+02 0.17505980060E+02 0.15985760138E+02 0.68993231324E+01
 0.53875308213E+01 0.68993972170E+01 0.10618930806E+02 0.14636118197E+02 0.17118493241E+02
 0.17232046350E+02 0.15296957079E+02 0.12345911455E+02 0.95415567601E+01 0.74350916308E+01
 0.59272880832E+01 0.48782425602E+01 0.41826712098E+01 0.37803985132E+01 0.36478987974E+01
 0.37804464647E+01 0.41827195854E+01 0.48782601990E+01 0.59272739995E+01 0.74350235673E+01
 0.95414003567E+01 0.12345725162E+02 0.15296922189E+02 0.17232296955E+02 0.17118922046E+02
 0.14636443566E+02 0.10618994150E+02 0.28220092260E+00 0.28247467736E+00 0.39222577076E+01
 0.95029298292E+01 0.14636558590E+02 0.17505782966E+02 0.17565795271E+02 0.15460264143E+02
 0.12469469433E+02 0.98391253922E+01 0.79095383204E+01 0.65404324746E+01 0.55997829417E+01
 0.50011753504E+01 0.47062756600E+01 0.47062785747E+01 0.50012034744E+01 0.55998606580E+01
 0.65405322540E+01 0.79095849710E+01 0.98390825294E+01 0.12469415672E+02 0.15460338888E+02
 0.17566026332E+02 0.17505980060E+02 0.14636443566E+02 0.95024278851E+01 0.39216493317E+01
 -.38331565009E+01 -.16598969437E+01 0.39215351310E+01 0.10619183560E+02 0.15986105377E+02
 0.18511193855E+02 0.18054391729E+02 0.15603221921E+02 0.12649562127E+02 0.10293231687E+02
 0.85860352438E+01 0.73838353419E+01 0.65743815021E+01 0.60985317618E+01 0.59400375135E+01
 0.60984425761E+01 0.65743278112E+01 0.73838839210E+01 0.85861196337E+01 0.10293289850E+02
 0.12649636492E+02 0.15603336775E+02 0.18054419558E+02 0.18510989299E+02 0.15985760138E+02
 0.10618994150E+02 0.39216493317E+01 -.16596873417E+01 0.22313663222E+01 0.68978180642E+01
 0.12729902691E+02 0.17687034810E+02 0.20260535779E+02 0.20064422568E+02 0.17896658228E+02
 0.15230163637E+02 0.13109773176E+02 0.11558451383E+02 0.10452572915E+02 0.96962687237E+01
 0.92449645390E+01 0.90932926090E+01 0.92448410599E+01 0.96960978742E+01 0.10452405158E+02
 0.11558307907E+02 0.13109728557E+02 0.15230271053E+02 0.17896744495E+02 0.20064169221E+02
 0.20259973571E+02 0.17686831828E+02 0.12730806276E+02 0.68996706171E+01 0.22329197975E+01
 0.45306880157E+00 0.68978180642E+01 0.11806208352E+02 0.16927419807E+02 0.20533944303E+02
 0.21627712837E+02 0.20383644339E+02 0.17990438100E+02 0.15822298246E+02 0.14218717022E+02
 0.13069559500E+02 0.12263489232E+02 0.11734541145E+02 0.11465797129E+02 0.11465893885E+02
 0.11734738140E+02 0.12263583871E+02 0.13069430075E+02 0.14218467355E+02 0.15822156409E+02
 0.17990454675E+02 0.20383574182E+02 0.21627352066E+02 0.20533580228E+02 0.16927721405E+02
 0.11807472560E+02 0.68993972170E+01 0.39222577076E+01 0.39215351310E+01 0.12729902691E+02
 0.16927419807E+02 0.20547085735E+02 0.22351153079E+02 0.21981937295E+02 0.20160773454E+02