   2   2   0   0
  0.2401250E+02  0.4080006E-09  0.4080006E-09  0.4080006E-09  0.5000000E-15
  1.000000000000000E-004
  CAR 
 Ge                                      
     14.24339429    -11.04889114  301      3.29447961      1.00000000
    -11.049  0.0000E+00  0.0000E+00
    -10.965  0.0000E+00  0.0000E+00
    -10.880  0.0000E+00  0.0000E+00
    -10.796  0.0000E+00  0.0000E+00
    -10.712 -0.2533E-33 -0.2136E-34
    -10.627 -0.3173E-30 -0.2677E-31
    -10.543 -0.2089E-27 -0.1764E-28
    -10.459 -0.9648E-25 -0.8151E-26
    -10.374 -0.3128E-22 -0.2645E-23
    -10.290 -0.7119E-20 -0.6029E-21
    -10.206 -0.1106E-17 -0.9388E-19
    -10.122 -0.1235E-15 -0.1050E-16
    -10.037 -0.9669E-14 -0.8257E-15
     -9.953 -0.5310E-12 -0.4559E-13
     -9.869 -0.2043E-10 -0.1768E-11
     -9.784 -0.5498E-09 -0.4812E-10
     -9.700 -0.1034E-07 -0.9195E-09
     -9.616 -0.1352E-06 -0.1232E-07
     -9.531 -0.1223E-05 -0.1154E-06
     -9.447 -0.7557E-05 -0.7526E-06
     -9.363 -0.3107E-04 -0.3372E-05
     -9.278 -0.7907E-04 -0.1004E-04
     -9.194 -0.9048E-04 -0.1767E-04
     -9.110  0.1321E-03 -0.6528E-05
     -9.026  0.8082E-03  0.6161E-04
     -8.941  0.1900E-02  0.2218E-03
     -8.857  0.3085E-02  0.4819E-03
     -8.773  0.4080E-02  0.8259E-03
     -8.688  0.4851E-02  0.1235E-02
     -8.604  0.5490E-02  0.1698E-02
     -8.520  0.6071E-02  0.2210E-02
     -8.435  0.6622E-02  0.2768E-02
     -8.351  0.7153E-02  0.3371E-02
     -8.267  0.7670E-02  0.4018E-02
     -8.182  0.8177E-02  0.4707E-02
     -8.098  0.8681E-02  0.5439E-02
     -8.014  0.9184E-02  0.6213E-02
     -7.930  0.9693E-02  0.7030E-02
     -7.845  0.1021E-01  0.7891E-02
     -7.761  0.1075E-01  0.8798E-02
     -7.677  0.1131E-01  0.9751E-02
     -7.592  0.1191E-01  0.1076E-01
     -7.508  0.1255E-01  0.1181E-01
     -7.424  0.1326E-01  0.1293E-01
     -7.339  0.1416E-01  0.1412E-01
     -7.255  0.1543E-01  0.1543E-01
     -7.171  0.1713E-01  0.1687E-01
     -7.086  0.1885E-01  0.1846E-01
     -7.002  0.1988E-01  0.2013E-01
     -6.918  0.1990E-01  0.2181E-01
     -6.834  0.1923E-01  0.2343E-01
     -6.749  0.1837E-01  0.2498E-01
     -6.665  0.1754E-01  0.2646E-01
     -6.581  0.1676E-01  0.2787E-01
     -6.496  0.1599E-01  0.2922E-01
     -6.412  0.1522E-01  0.3051E-01
     -6.328  0.1445E-01  0.3172E-01
     -6.243  0.1365E-01  0.3287E-01
     -6.159  0.1285E-01  0.3396E-01
     -6.075  0.1202E-01  0.3497E-01
     -5.990  0.1116E-01  0.3591E-01
     -5.906  0.1026E-01  0.3678E-01
     -5.822  0.9315E-02  0.3756E-01
     -5.738  0.8297E-02  0.3826E-01
     -5.653  0.7145E-02  0.3886E-01
     -5.569  0.5755E-02  0.3935E-01
     -5.485  0.4155E-02  0.3970E-01
     -5.400  0.2665E-02  0.3992E-01
     -5.316  0.1926E-02  0.4009E-01
     -5.232  0.2313E-02  0.4028E-01
     -5.147  0.3488E-02  0.4058E-01
     -5.063  0.4903E-02  0.4099E-01
     -4.979  0.6185E-02  0.4151E-01
     -4.894  0.7262E-02  0.4212E-01
     -4.810  0.8268E-02  0.4282E-01
     -4.726  0.9195E-02  0.4359E-01
     -4.642  0.1009E-01  0.4445E-01
     -4.557  0.1103E-01  0.4537E-01
     -4.473  0.1195E-01  0.4638E-01
     -4.389  0.1299E-01  0.4748E-01
     -4.304  0.1449E-01  0.4870E-01
     -4.220  0.1693E-01  0.5013E-01
     -4.136  0.2036E-01  0.5184E-01
     -4.051  0.2313E-01  0.5379E-01
     -3.967  0.2307E-01  0.5574E-01
     -3.883  0.2031E-01  0.5745E-01
     -3.798  0.1697E-01  0.5888E-01
     -3.714  0.1455E-01  0.6011E-01
     -3.630  0.1311E-01  0.6121E-01
     -3.546  0.1215E-01  0.6224E-01
     -3.461  0.1132E-01  0.6319E-01
     -3.377  0.1060E-01  0.6408E-01
     -3.293  0.9982E-02  0.6493E-01
     -3.208  0.9395E-02  0.6572E-01
     -3.124  0.8865E-02  0.6647E-01
     -3.040  0.8405E-02  0.6717E-01
     -2.955  0.7959E-02  0.6784E-01
     -2.871  0.7540E-02  0.6848E-01
     -2.787  0.7176E-02  0.6909E-01
     -2.702  0.6823E-02  0.6966E-01
     -2.618  0.6476E-02  0.7021E-01
     -2.534  0.6173E-02  0.7073E-01
     -2.450  0.5886E-02  0.7122E-01
     -2.365  0.5593E-02  0.7169E-01
     -2.281  0.5331E-02  0.7214E-01
     -2.197  0.5093E-02  0.7257E-01
     -2.112  0.4846E-02  0.7298E-01
     -2.028  0.4614E-02  0.7337E-01
     -1.944  0.4411E-02  0.7374E-01
     -1.859  0.4203E-02  0.7410E-01
     -1.775  0.3996E-02  0.7443E-01
     -1.691  0.3817E-02  0.7476E-01
     -1.606  0.3644E-02  0.7506E-01
     -1.522  0.3460E-02  0.7535E-01
     -1.438  0.3297E-02  0.7563E-01
     -1.354  0.3145E-02  0.7590E-01
     -1.269  0.2957E-02  0.7615E-01
     -1.185  0.2692E-02  0.7637E-01
     -1.101  0.2313E-02  0.7657E-01
     -1.016  0.2051E-02  0.7674E-01
     -0.932  0.2875E-02  0.7698E-01
     -0.848  0.6176E-02  0.7751E-01
     -0.763  0.1231E-01  0.7854E-01
     -0.679  0.1960E-01  0.8020E-01
     -0.595  0.2527E-01  0.8233E-01
     -0.510  0.2747E-01  0.8464E-01
     -0.426  0.2666E-01  0.8689E-01
     -0.342  0.2471E-01  0.8897E-01
     -0.258  0.2315E-01  0.9092E-01
     -0.173  0.2239E-01  0.9281E-01
     -0.089  0.2226E-01  0.9469E-01
     -0.005  0.2249E-01  0.9659E-01
      0.080  0.2298E-01  0.9852E-01
      0.164  0.2376E-01  0.1005E+00
      0.248  0.2505E-01  0.1026E+00
      0.333  0.2702E-01  0.1049E+00
      0.417  0.2929E-01  0.1074E+00
      0.501  0.3097E-01  0.1100E+00
      0.586  0.3151E-01  0.1127E+00
      0.670  0.3115E-01  0.1153E+00
      0.754  0.3048E-01  0.1178E+00
      0.838  0.2981E-01  0.1204E+00
      0.923  0.2923E-01  0.1228E+00
      1.007  0.2868E-01  0.1252E+00
      1.091  0.2813E-01  0.1276E+00
      1.176  0.2759E-01  0.1299E+00
      1.260  0.2707E-01  0.1322E+00
      1.344  0.2655E-01  0.1345E+00
      1.429  0.2603E-01  0.1367E+00
      1.513  0.2553E-01  0.1388E+00
      1.597  0.2505E-01  0.1409E+00
      1.682  0.2462E-01  0.1430E+00
      1.766  0.2423E-01  0.1450E+00
      1.850  0.2366E-01  0.1470E+00
      1.934  0.2242E-01  0.1489E+00
      2.019  0.2018E-01  0.1506E+00
      2.103  0.1731E-01  0.1521E+00
      2.187  0.1460E-01  0.1533E+00
      2.272  0.1250E-01  0.1544E+00
      2.356  0.1092E-01  0.1553E+00
      2.440  0.9644E-02  0.1561E+00
      2.525  0.8517E-02  0.1568E+00
      2.609  0.7493E-02  0.1575E+00
      2.693  0.6556E-02  0.1580E+00
      2.778  0.5691E-02  0.1585E+00
      2.862  0.4885E-02  0.1589E+00
      2.946  0.4123E-02  0.1592E+00
      3.030  0.3372E-02  0.1595E+00
      3.115  0.2589E-02  0.1597E+00
      3.199  0.1784E-02  0.1599E+00
      3.283  0.1105E-02  0.1600E+00
      3.368  0.7754E-03  0.1601E+00
      3.452  0.8666E-03  0.1601E+00
      3.536  0.1222E-02  0.1602E+00
      3.621  0.1630E-02  0.1604E+00
      3.705  0.2009E-02  0.1605E+00
      3.789  0.2468E-02  0.1607E+00
      3.874  0.3276E-02  0.1610E+00
      3.958  0.4726E-02  0.1614E+00
      4.042  0.6879E-02  0.1620E+00
      4.126  0.9440E-02  0.1628E+00
      4.211  0.1198E-01  0.1638E+00
      4.295  0.1428E-01  0.1650E+00
      4.379  0.1637E-01  0.1664E+00
      4.464  0.1839E-01  0.1679E+00
      4.548  0.2057E-01  0.1697E+00
      4.632  0.2330E-01  0.1716E+00
      4.717  0.2696E-01  0.1739E+00
      4.801  0.3129E-01  0.1766E+00
      4.885  0.3498E-01  0.1795E+00
      4.970  0.3654E-01  0.1826E+00
      5.054  0.3556E-01  0.1856E+00
      5.138  0.3250E-01  0.1883E+00
      5.222  0.2831E-01  0.1907E+00
      5.307  0.2432E-01  0.1928E+00
      5.391  0.2150E-01  0.1946E+00
      5.475  0.1990E-01  0.1962E+00
      5.560  0.1915E-01  0.1979E+00
      5.644  0.1905E-01  0.1995E+00
      5.728  0.1973E-01  0.2011E+00
      5.813  0.2106E-01  0.2029E+00
      5.897  0.2215E-01  0.2048E+00
      5.981  0.2192E-01  0.2066E+00
      6.066  0.2043E-01  0.2083E+00
      6.150  0.1878E-01  0.2099E+00
      6.234  0.1778E-01  0.2114E+00
      6.318  0.1750E-01  0.2129E+00
      6.403  0.1777E-01  0.2144E+00
      6.487  0.1910E-01  0.2160E+00
      6.571  0.2286E-01  0.2179E+00
      6.656  0.2919E-01  0.2204E+00
      6.740  0.3529E-01  0.2234E+00
      6.824  0.3771E-01  0.2266E+00
      6.909  0.3597E-01  0.2296E+00
      6.993  0.3236E-01  0.2323E+00
      7.077  0.2885E-01  0.2347E+00
      7.162  0.2607E-01  0.2369E+00
      7.246  0.2412E-01  0.2390E+00
      7.330  0.2265E-01  0.2409E+00
      7.414  0.2133E-01  0.2427E+00
      7.499  0.2070E-01  0.2444E+00
      7.583  0.2124E-01  0.2462E+00
      7.667  0.2246E-01  0.2481E+00
      7.752  0.2414E-01  0.2501E+00
      7.836  0.2676E-01  0.2524E+00
      7.920  0.3016E-01  0.2549E+00
      8.005  0.3314E-01  0.2577E+00
      8.089  0.3451E-01  0.2606E+00
      8.173  0.3390E-01  0.2635E+00
      8.258  0.3184E-01  0.2662E+00
      8.342  0.2936E-01  0.2687E+00
      8.426  0.2729E-01  0.2710E+00
      8.510  0.2579E-01  0.2731E+00
      8.595  0.2467E-01  0.2752E+00
      8.679  0.2380E-01  0.2772E+00
      8.763  0.2315E-01  0.2792E+00
      8.848  0.2258E-01  0.2811E+00
      8.932  0.2205E-01  0.2829E+00
      9.016  0.2162E-01  0.2848E+00
      9.101  0.2116E-01  0.2865E+00
      9.185  0.2071E-01  0.2883E+00
      9.269  0.2052E-01  0.2900E+00
      9.354  0.2072E-01  0.2918E+00
      9.438  0.2122E-01  0.2936E+00
      9.522  0.2179E-01  0.2954E+00
      9.606  0.2200E-01  0.2973E+00
      9.691  0.2150E-01  0.2991E+00
      9.775  0.2029E-01  0.3008E+00
      9.859  0.1876E-01  0.3024E+00
      9.944  0.1736E-01  0.3038E+00
     10.028  0.1627E-01  0.3052E+00
     10.112  0.1539E-01  0.3065E+00
     10.197  0.1476E-01  0.3077E+00
     10.281  0.1465E-01  0.3090E+00
     10.365  0.1507E-01  0.3102E+00
     10.450  0.1541E-01  0.3115E+00
     10.534  0.1484E-01  0.3128E+00
     10.618  0.1296E-01  0.3139E+00
     10.702  0.1025E-01  0.3147E+00
     10.787  0.7734E-02  0.3154E+00
     10.871  0.6184E-02  0.3159E+00
     10.955  0.5501E-02  0.3164E+00
     11.040  0.5148E-02  0.3168E+00
     11.124  0.4828E-02  0.3172E+00
     11.208  0.4491E-02  0.3176E+00
     11.293  0.4133E-02  0.3180E+00
     11.377  0.3777E-02  0.3183E+00
     11.461  0.3431E-02  0.3186E+00
     11.546  0.3094E-02  0.3188E+00
     11.630  0.2777E-02  0.3191E+00
     11.714  0.2470E-02  0.3193E+00
     11.798  0.2163E-02  0.3194E+00
     11.883  0.1870E-02  0.3196E+00
     11.967  0.1583E-02  0.3197E+00
     12.051  0.1283E-02  0.3198E+00
     12.136  0.9528E-03  0.3199E+00
     12.220  0.5958E-03  0.3200E+00
     12.304  0.2699E-03  0.3200E+00
     12.389  0.5771E-04  0.3200E+00
     12.473 -0.2193E-04  0.3200E+00
     12.557 -0.2482E-04  0.3200E+00
     12.642 -0.1085E-04  0.3200E+00
     12.726 -0.2881E-05  0.3200E+00
     12.810 -0.5061E-06  0.3200E+00
     12.894 -0.6062E-07  0.3200E+00
     12.979 -0.5017E-08  0.3200E+00
     13.063 -0.2886E-09  0.3200E+00
     13.147 -0.1158E-10  0.3200E+00
     13.232 -0.3244E-12  0.3200E+00
     13.316 -0.6351E-14  0.3200E+00
     13.400 -0.8693E-16  0.3200E+00
     13.485 -0.8428E-18  0.3200E+00
     13.569  0.0000E+00  0.3200E+00
     13.653  0.0000E+00  0.3200E+00
     13.738  0.0000E+00  0.3200E+00
     13.822  0.0000E+00  0.3200E+00
     13.906  0.0000E+00  0.3200E+00
     13.990  0.0000E+00  0.3200E+00
     14.075  0.0000E+00  0.3200E+00
     14.159  0.0000E+00  0.3200E+00
     14.243  0.0000E+00  0.3200E+00
