    2    2   50    1
  0.2401250E+02  0.4080006E-09  0.4080006E-09  0.4080006E-09  0.5000000E-15
  1.000000000000000E-004
  CAR 
 Ge                                      
      8   2480      8
 
  0.1666667E-01  0.1666667E-01  0.1666667E-01  0.7407407E-04
    1       -9.048891   1.000000
    2        2.670269   1.000047
    3        3.277491   0.571599
    4        3.277491   0.571599
    5        3.381032   0.169034
    6        5.802500  -0.000000
    7        5.802500  -0.000000
    8        5.804330  -0.000000
 
  0.5000000E-01  0.1666667E-01  0.1666667E-01  0.2222222E-03
    1       -9.031814   1.000000
    2        2.303467   1.000000
    3        3.197591   0.861433
    4        3.265608   0.620764
    5        3.663662  -0.012730
    6        5.821655  -0.000000
    7        5.832154  -0.000000
    8        5.910771  -0.000000
 
  0.8333333E-01  0.1666667E-01  0.1666667E-01  0.2222222E-03
    1       -8.989200   1.000000
    2        1.757602   1.000000
    3        3.089783   1.027396
    4        3.203064   0.845620
    5        3.939482  -0.000025
    6        5.908112  -0.000000
    7        5.946683  -0.000000
    8        6.103623  -0.000000
 
  0.1166667E+00  0.1666667E-01  0.1666667E-01  0.2222222E-03
    1       -8.921342   1.000000
    2        1.168245   1.000000
    3        2.958892   1.019519
    4        3.101468   1.021111
    5        4.078486  -0.000000
    6        6.046289  -0.000000
    7        6.127830  -0.000000
    8        6.403360  -0.000000
 
  0.1500000E+00  0.1666667E-01  0.1666667E-01  0.2222222E-03
    1       -8.828653   1.000000
    2        0.566953   1.000000
    3        2.815792   1.001839
    4        2.975292   1.023254
    5        4.094739  -0.000000
    6        6.215612  -0.000000
    7        6.331958  -0.000000
    8        6.812604  -0.000000
 
  0.1833333E+00  0.1666667E-01  0.1666667E-01  0.2222222E-03
    1       -8.711857   1.000000
    2       -0.032577   1.000000
    3        2.670077   1.000046
    4        2.837130   1.002846
    5        4.035947  -0.000001
    6        6.394874  -0.000000
    7        6.530618  -0.000000
    8        7.296352  -0.000000
 
  0.2166667E+00  0.1666667E-01  0.1666667E-01  0.2222222E-03
    1       -8.571992   1.000000
    2       -0.620540   1.000000
    3        2.529187   1.000000
    4        2.697093   1.000100
    5        3.941764  -0.000023
    6        6.564723  -0.000000
    7        6.707070  -0.000000
    8        7.824332  -0.000000
 
  0.2500000E+00  0.1666667E-01  0.1666667E-01  0.2222222E-03
    1       -8.410602   1.000000
    2       -1.192370   1.000000
    3        2.397956   1.000000
    4        2.560915   1.000001
    5        3.833127  -0.000468
    6        6.709905  -0.000000
    7        6.848248  -0.000000
    8        8.377664  -0.000000
 
  0.2833333E+00  0.1666667E-01  0.1666667E-01  0.2222222E-03
    1       -8.229949   1.000000
    2       -1.739745   1.000000
    3        2.278819   1.000000
    4        2.433494   1.000000
    5        3.724895  -0.004744
    6        6.820653  -0.000000
    7        6.946984  -0.000000
    8        8.944574   0.000000
 
  0.3166667E+00  0.1666667E-01  0.1666667E-01  0.2222222E-03
    1       -8.033571   1.000000
    2       -2.257515   1.000000
    3        2.174411   1.000000
    4        2.317554   1.000000
    5        3.624086  -0.020862
    6        6.895216  -0.000000
    7        7.004466  -0.000000
    8        9.510142   0.000000
 
  0.3500000E+00  0.1666667E-01  0.1666667E-01  0.2222222E-03
    1       -7.826684   1.000000
    2       -2.737532   1.000000
    3        2.086662   1.000000
    4        2.215940   1.000000
    5        3.535164  -0.035386
    6        6.938667  -0.000000
    7        7.027824  -0.000000
    8       10.030347   0.000000
 
  0.3833333E+00  0.1666667E-01  0.1666667E-01  0.2222222E-03
    1       -7.617597   1.000000
    2       -3.170224   1.000000
    3        2.016379   1.000000
    4        2.129926   1.000000
    5        3.460836   0.002262
    6        6.959738  -0.000000
    7        7.027388  -0.000000
    8       10.349130   0.000000
 
  0.4166667E+00  0.1666667E-01  0.1666667E-01  0.2222222E-03
    1       -7.419358   1.000000
    2       -3.541365   1.000000
    3        1.964163   1.000000
    4        2.060559   1.000000
    5        3.402687   0.108202
    6        6.968124  -0.000000
    7        7.013414  -0.000000
    8       10.405498   0.000000
 
  0.4500000E+00  0.1666667E-01  0.1666667E-01  0.2222222E-03
    1       -7.251764   1.000000
    2       -3.830779   1.000000
    3        1.930845   1.000000
    4        2.008631   1.000000
    5        3.361467   0.233410
    6        6.971718  -0.000000
    7        6.994706  -0.000000
    8       10.383413   0.000000
 
  0.4833333E+00  0.1666667E-01  0.1666667E-01  0.2222222E-03
    1       -7.140675   1.000000
    2       -4.011535   1.000000
    3        1.916033   1.000000
    4        1.975454   1.000000
    5        3.337890   0.321026
    6        6.976722  -0.000000
    7        6.977098  -0.000000
    8       10.360004   0.000000
 
 -0.4833333E+00  0.1666667E-01  0.1666667E-01  0.2222222E-03
    1       -7.110684   1.000000
    2       -4.058979   1.000000
    3        1.919428   1.000000
    4        1.960097   1.000000
    5        3.332262   0.343248
    6        6.964063  -0.000000
    7        6.986263  -0.000000
    8       10.353178   0.000000
 
 -0.4500000E+00  0.1666667E-01  0.1666667E-01  0.2222222E-03
    1       -7.169722   1.000000
    2       -3.965089   1.000000
    3        1.941221   1.000000
    4        1.961850   1.000000
    5        3.344564   0.295263
    6        6.956573  -0.000000
    7        7.000869  -0.000000
    8       10.365880   0.000000
 
 -0.4166667E+00  0.1666667E-01  0.1666667E-01  0.2222222E-03
    1       -7.302702   1.000000
    2       -3.745022   1.000000
    3        1.980703   1.000000
    4        1.982086   1.000000
    5        3.374620   0.189196
    6        6.952818  -0.000000
    7        7.019078  -0.000000
    8       10.391522   0.000000
 
 -0.3833333E+00  0.1666667E-01  0.1666667E-01  0.2222222E-03
    1       -7.483125   1.000000
    2       -3.425575   1.000000
    3        2.021124   1.000000
    4        2.038313   1.000000
    5        3.422224   0.063366
    6        6.948806  -0.000000
    7        7.036668  -0.000000
    8       10.400640   0.000000
 
 -0.3500000E+00  0.1666667E-01  0.1666667E-01  0.2222222E-03
    1       -7.686864   1.000000
    2       -3.032083   1.000000
    3        2.078632   1.000000
    4        2.113551   1.000000
    5        3.486358  -0.020384
    6        6.937468  -0.000000
    7        7.046799  -0.000000
    8       10.274045   0.000000
 
 -0.3166667E+00  0.1666667E-01  0.1666667E-01  0.2222222E-03
    1       -7.896366   1.000000
    2       -2.582246   1.000000
    3        2.153888   1.000000
    4        2.205334   1.000000
    5        3.566361  -0.033147
    6        6.910063  -0.000000
    7        7.040510  -0.000000
    8        9.864730   0.000000
 
 -0.2833333E+00  0.1666667E-01  0.1666667E-01  0.2222222E-03
    1       -8.100498   1.000000
    2       -2.088828   1.000000
    3        2.246137   1.000000
    4        2.312502   1.000000
    5        3.660109  -0.013373
    6        6.856488  -0.000000
    7        7.007362  -0.000000
    8        9.321100   0.000000
 
 -0.2500000E+00  0.1666667E-01  0.1666667E-01  0.2222222E-03
    1       -8.292088   1.000000
    2       -1.560302   1.000000
    3        2.354399   1.000000
    4        2.433609   1.000000
    5        3.764505  -0.002203
    6        6.768513  -0.000000
    7        6.938346  -0.000000
    8        8.753792  -0.000000
 
 -0.2166667E+00  0.1666667E-01  0.1666667E-01  0.2222222E-03
    1       -8.466651   1.000000
    2       -1.004306   1.000000
    3        2.476290   1.000000
    4        2.565717   1.000002
    5        3.874265  -0.000163
    6        6.642835  -0.000000
    7        6.828643  -0.000000
    8        8.190411  -0.000000
 
 -0.1833333E+00  0.1666667E-01  0.1666667E-01  0.2222222E-03
    1       -8.621068   1.000000
    2       -0.425841   1.000000
    3        2.609330   1.000007
    4        2.705067   1.000125
    5        3.980926  -0.000007
    6        6.483205  -0.000000
    7        6.680831  -0.000000
    8        7.642964  -0.000000
 
 -0.1500000E+00  0.1666667E-01  0.1666667E-01  0.2222222E-03
    1       -8.753408   1.000000
    2        0.166669   1.000000
    3        2.750017   1.000405
    4        2.846918   1.003444
    5        4.066954  -0.000000
    6        6.301413  -0.000000
    7        6.503886  -0.000000
    8        7.124308  -0.000000
 
 -0.1166667E+00  0.1666667E-01  0.1666667E-01  0.2222222E-03
    1       -8.862262   1.000000
    2        0.768265   1.000000
    3        2.892979   1.007803
    4        2.984229   1.025321
    5        4.107078  -0.000000
    6        6.115570  -0.000000
    7        6.314261  -0.000000
    8        6.655834  -0.000000
 
 -0.8333333E-01  0.1666667E-01  0.1666667E-01  0.2222222E-03
    1       -8.946736   1.000000
    2        1.368024   1.000000
    3        3.029637   1.034131
    4        3.105467   1.018446
    5        4.056674  -0.000000
    6        5.947075  -0.000000
    7        6.129592  -0.000000
    8        6.270987  -0.000000
 
 -0.5000000E-01  0.1666667E-01  0.1666667E-01  0.2222222E-03
    1       -9.006227   1.000000
    2        1.949135   1.000000
    3        3.148660   0.969623
    4        3.196979   0.863156
    5        3.872702  -0.000169
    6        5.824511  -0.000000
    7        5.969703  -0.000000
    8        6.004647  -0.000000
 
 -0.1666667E-01  0.1666667E-01  0.1666667E-01  0.2222222E-03
    1       -9.040351   1.000000
    2        2.464860   1.000000
    3        3.235906   0.736453
    4        3.246839   0.695380
    5        3.571800  -0.032251
    6        5.773906  -0.000000
    7        5.854815  -0.000000
    8        5.857041  -0.000000
 
  0.5000000E-01  0.5000000E-01  0.1666667E-01  0.2222222E-03
    1       -9.023266   1.000000
    2        2.195627   1.000000
    3        3.157666   0.954189
    4        3.169067   0.931789
    5        3.832898  -0.000470
    6        5.718031  -0.000000
    7        5.954490  -0.000000
    8        5.958302  -0.000000
 
  0.8333333E-01  0.5000000E-01  0.1666667E-01  0.4444444E-03
    1       -8.989146   1.000000
    2        1.800416   1.000000
    3        3.011767   1.031266
    4        3.119548   1.006760
    5        4.099653  -0.000000
    6        5.693169  -0.000000
    7        6.068439  -0.000000
    8        6.158448  -0.000000
 
  0.1166667E+00  0.5000000E-01  0.1666667E-01  0.4444444E-03
    1       -8.929680   1.000000
    2        1.278464   1.000000
    3        2.858749   1.004304
    4        3.045370   1.035393
    5        4.276998  -0.000000
    6        5.757503  -0.000000
    7        6.240307  -0.000000
    8        6.439814  -0.000000
 
  0.1500000E+00  0.5000000E-01  0.1666667E-01  0.4444444E-03
    1       -8.845230   1.000000
    2        0.710184   1.000000
    3        2.702408   1.000116
    4        2.937671   1.015052
    5        4.332382  -0.000000
    6        5.899419  -0.000000
    7        6.444005  -0.000000
    8        6.804046  -0.000000
 
  0.1833333E+00  0.5000000E-01  0.1666667E-01  0.4444444E-03
    1       -8.736395   1.000000
    2        0.127616   1.000000
    3        2.547948   1.000001
    4        2.807513   1.001542
    5        4.298087  -0.000000
    6        6.085946  -0.000000
    7        6.649658  -0.000000
    8        7.234044  -0.000000
 
  0.2166667E+00  0.5000000E-01  0.1666667E-01  0.4444444E-03
    1       -8.604108   1.000000
    2       -0.452936   1.000000
    3        2.400423   1.000000
    4        2.666871   1.000042
    5        4.215697  -0.000000
    6        6.282941  -0.000000
    7        6.835729  -0.000000
    8        7.704734  -0.000000
 
  0.2500000E+00  0.5000000E-01  0.1666667E-01  0.4444444E-03
    1       -8.449699   1.000000
    2       -1.022759   1.000000
    3        2.263653   1.000000
    4        2.525902   1.000000
    5        4.112224  -0.000000
    6        6.465060  -0.000000
    7        6.985644  -0.000000
    8        8.199016  -0.000000
 
  0.2833333E+00  0.5000000E-01  0.1666667E-01  0.4444444E-03
    1       -8.275203   1.000000
    2       -1.572712   1.000000
    3        2.140310   1.000000
    4        2.390799   1.000000
    5        4.004523  -0.000003
    6        6.615294  -0.000000
    7        7.091041  -0.000000
    8        8.705704  -0.000000
 
  0.3166667E+00  0.5000000E-01  0.1666667E-01  0.4444444E-03
    1       -8.083592   1.000000
    2       -2.096775   1.000000
    3        2.031025   1.000000
    4        2.266744   1.000000
    5        3.901480  -0.000077
    6        6.726458  -0.000000
    7        7.150685  -0.000000
    8        9.214662   0.000000
 
  0.3500000E+00  0.5000000E-01  0.1666667E-01  0.4444444E-03
    1       -7.879443   1.000000
    2       -2.587141   1.000000
    3        1.936694   1.000000
    4        2.158004   1.000000
    5        3.808335  -0.000845
    6        6.800563  -0.000000
    7        7.171340  -0.000000
    8        9.707227   0.000000
 
  0.3833333E+00  0.5000000E-01  0.1666667E-01  0.4444444E-03
    1       -7.669829   1.000000
    2       -3.034636   1.000000
    3        1.857719   1.000000
    4        2.067536   1.000000
    5        3.728533  -0.004439
    6        6.846068  -0.000000
    7        7.163896  -0.000000
    8       10.125536   0.000000
 
  0.4166667E+00  0.5000000E-01  0.1666667E-01  0.4444444E-03
    1       -7.466025   1.000000
    2       -3.426711   1.000000
    3        1.793203   1.000000
    4        1.998029   1.000000
    5        3.663890  -0.012689
    6        6.873338  -0.000000
    7        7.139447  -0.000000
    8       10.360265   0.000000
 
  0.4500000E+00  0.5000000E-01  0.1666667E-01  0.4444444E-03
    1       -7.285362   1.000000
    2       -3.745101   1.000000
    3        1.742234   1.000000
    4        1.951376   1.000000
    5        3.615546  -0.022820
    6        6.891718  -0.000000
    7        7.107948  -0.000000
    8       10.424997   0.000000
 
  0.4833333E+00  0.5000000E-01  0.1666667E-01  0.4444444E-03
    1       -7.152211   1.000000
    2       -3.964700   1.000000
    3        1.704552   1.000000
    4        1.927799   1.000000
    5        3.584196  -0.029870
    6        6.907414  -0.000000
    7        7.077262  -0.000000
    8       10.430591   0.000000
 
 -0.4833333E+00  0.5000000E-01  0.1666667E-01  0.4444444E-03
    1       -7.093112   1.000000
    2       -4.058443   1.000000
    3        1.681794   1.000000
    4        1.926492   1.000000
    5        3.570444  -0.032484
    6        6.923202  -0.000000
    7        7.053785  -0.000000
    8       10.428886   0.000000
 
 -0.4500000E+00  0.5000000E-01  0.1666667E-01  0.4444444E-03
    1       -7.123189   1.000000
    2       -4.011018   1.000000
    3        1.675306   1.000000
    4        1.947413   1.000000
    5        3.574457  -0.031776
    6        6.936457  -0.000000
    7        7.043767  -0.000000
    8       10.433678   0.000000
 
 -0.4166667E+00  0.5000000E-01  0.1666667E-01  0.4444444E-03
    1       -7.234429   1.000000
    2       -3.830474   1.000000
    3        1.686325   1.000000
    4        1.989148   1.000000
    5        3.596147  -0.027278
    6        6.940527  -0.000000
    7        7.052269  -0.000000
    8       10.440023   0.000000
 
 -0.3833333E+00  0.5000000E-01  0.1666667E-01  0.4444444E-03
    1       -7.402266   1.000000
    2       -3.541812   1.000000
    3        1.714784   1.000000
    4        2.049750   1.000000
    5        3.635263  -0.018377
    6        6.932633  -0.000000
    7        7.074785  -0.000000
    8       10.415697   0.000000
 
 -0.3500000E+00  0.5000000E-01  0.1666667E-01  0.4444444E-03
    1       -7.600680   1.000000
    2       -3.172005   1.000000
    3        1.761231   1.000000
    4        2.128928   1.000000
    5        3.690910  -0.008466
    6        6.912573  -0.000000
    7        7.099060  -0.000000
    8       10.263228   0.000000
 
 -0.3166667E+00  0.5000000E-01  0.1666667E-01  0.4444444E-03
    1       -7.809850   1.000000
    2       -2.741324   1.000000
    3        1.826465   1.000000
    4        2.224890   1.000000
    5        3.762383  -0.002301
    6        6.876077  -0.000000
    7        7.111921  -0.000000
    8        9.893215   0.000000
 
 -0.2833333E+00  0.5000000E-01  0.1666667E-01  0.4444444E-03
    1       -8.016764   1.000000
    2       -2.264098   1.000000
    3        1.910494   1.000000
    4        2.335988   1.000000
    5        3.847927  -0.000323
    6        6.814874  -0.000000
    7        7.100016  -0.000000
    8        9.404091   0.000000
 
 -0.2500000E+00  0.5000000E-01  0.1666667E-01  0.4444444E-03
    1       -8.213152   1.000000
    2       -1.750660   1.000000
    3        2.012823   1.000000
    4        2.460116   1.000000
    5        3.944747  -0.000021
    6        6.721241  -0.000000
    7        7.049476  -0.000000
    8        8.887636   0.000000
 
 -0.2166667E+00  0.5000000E-01  0.1666667E-01  0.4444444E-03
    1       -8.393744   1.000000
    2       -1.208830   1.000000
    3        2.132377   1.000000
    4        2.594048   1.000004
    5        4.048175  -0.000001
    6        6.591558  -0.000000
    7        6.949620  -0.000000
    8        8.375343  -0.000000
 
 -0.1833333E+00  0.5000000E-01  0.1666667E-01  0.4444444E-03
    1       -8.555084   1.000000
    2       -0.645385   1.000000
    3        2.268566   1.000000
    4        2.733430   1.000266
    5        4.150434  -0.000000
    6        6.429271  -0.000000
    7        6.797570  -0.000000
    8        7.880069  -0.000000
 
 -0.1500000E+00  0.5000000E-01  0.1666667E-01  0.4444444E-03
    1       -8.694918   1.000000
    2       -0.068647   1.000000
    3        2.419043   1.000000
    4        2.872322   1.005499
    5        4.237034  -0.000000
    6        6.245875  -0.000000
    7        6.601468  -0.000000
    8        7.410756  -0.000000
 
 -0.1166667E+00  0.5000000E-01  0.1666667E-01  0.4444444E-03
    1       -8.811677   1.000000
    2        0.512650   1.000000
    3        2.581855   1.000003
    4        3.002704   1.029440
    5        4.284064  -0.000000
    6        6.060188  -0.000000
    7        6.382933  -0.000000
    8        6.978183  -0.000000
 
 -0.8333333E-01  0.5000000E-01  0.1666667E-01  0.4444444E-03
    1       -8.904328   1.000000
    2        1.084364   1.000000
    3        2.753809   1.000445
    4        3.112798   1.012826
    5        4.253673  -0.000000
    6        5.898807  -0.000000
    7        6.175282  -0.000000
    8        6.595023  -0.000000
 
 -0.5000000E-01  0.5000000E-01  0.1666667E-01  0.4444444E-03
    1       -8.972148   1.000000
    2        1.620905   1.000000
    3        2.933151   1.014177
    4        3.188562   0.885915
    5        4.107451  -0.000000
    6        5.795109  -0.000000
    7        6.016533  -0.000000
    8        6.271893  -0.000000
 
 -0.1666667E-01  0.5000000E-01  0.1666667E-01  0.4444444E-03
    1       -9.014742   1.000000
    2        2.066570   1.000000
    3        3.119281   1.007017
    4        3.219124   0.795150
    5        3.857450  -0.000253
    6        5.771074  -0.000000
    7        5.928104  -0.000000
    8        6.014512  -0.000000
 
  0.8333333E-01  0.8333333E-01  0.1666667E-01  0.2222222E-03
    1       -8.963514   1.000000
    2        1.614400   1.000000
    3        2.922454   1.012230
    4        2.930588   1.013695
    5        4.386841  -0.000000
    6        5.542550  -0.000000
    7        6.264271  -0.000000
    8        6.271973  -0.000000
 
  0.1166667E+00  0.8333333E-01  0.1666667E-01  0.4444444E-03
    1       -8.912470   1.000000
    2        1.236819   1.000000
    3        2.740833   1.000322
    4        2.844238   1.003271
    5        4.617591  -0.000000
    6        5.488673  -0.000000
    7        6.436635  -0.000000
    8        6.530998  -0.000000
 
  0.1500000E+00  0.8333333E-01  0.1666667E-01  0.4444444E-03
    1       -8.836302   1.000000
    2        0.752111   1.000000
    3        2.565254   1.000002
    4        2.745638   1.000363
    5        4.730338  -0.000000
    6        5.540949  -0.000000
    7        6.644382  -0.000000
    8        6.862414  -0.000000
 
  0.1833333E+00  0.8333333E-01  0.1666667E-01  0.4444444E-03
    1       -8.735544   1.000000
    2        0.218167   1.000000
    3        2.397167   1.000000
    4        2.623650   1.000011
    5        4.729296  -0.000000
    6        5.689397  -0.000000
    7        6.858530  -0.000000
    8        7.245503  -0.000000
 
  0.2166667E+00  0.8333333E-01  0.1666667E-01  0.4444444E-03
    1       -8.610990   1.000000
    2       -0.333587   1.000000
    3        2.237749   1.000000
    4        2.486482   1.000000
    5        4.661142  -0.000000
    6        5.892985  -0.000000
    7        7.055071  -0.000000
    8        7.648799  -0.000000
 
  0.2500000E+00  0.8333333E-01  0.1666667E-01  0.4444444E-03
    1       -8.463822   1.000000
    2       -0.886213   1.000000
    3        2.088364   1.000000
    4        2.346001   1.000000
    5        4.562339  -0.000000
    6        6.110975  -0.000000
    7        7.215958  -0.000000
    8        8.048787  -0.000000
 
  0.2833333E+00  0.8333333E-01  0.1666667E-01  0.4444444E-03
    1       -8.295795   1.000000
    2       -1.428460   1.000000
    3        1.949343   1.000000
    4        2.212297   1.000000
    5        4.453535  -0.000000
    6        6.312743  -0.000000
    7        7.330149  -0.000000
    8        8.438189  -0.000000
 
  0.3166667E+00  0.8333333E-01  0.1666667E-01  0.4444444E-03
    1       -8.109515   1.000000
    2       -1.950305   1.000000
    3        1.821385   1.000000
    4        2.092927   1.000000
    5        4.346154  -0.000000
    6        6.477872  -0.000000
    7        7.395139  -0.000000
    8        8.824936   0.000000
 
  0.3500000E+00  0.8333333E-01  0.1666667E-01  0.4444444E-03
    1       -7.908822   1.000000
    2       -2.444258   1.000000
    3        1.703777   1.000000
    4        1.993358   1.000000
    5        4.246314  -0.000000
    6        6.599018  -0.000000
    7        7.415520  -0.000000
    8        9.220650   0.000000
 
  0.3833333E+00  0.8333333E-01  0.1666667E-01  0.4444444E-03
    1       -7.699865   1.000000
    2       -2.901089   1.000000
    3        1.596963   1.000000
    4        1.916875   1.000000
    5        4.157967  -0.000000
    6        6.680412  -0.000000
    7        7.402377  -0.000000
    8        9.623763   0.000000
 
  0.4166667E+00  0.8333333E-01  0.1666667E-01  0.4444444E-03
    1       -7.492309   1.000000
    2       -3.308930   1.000000
    3        1.502401   1.000000
    4        1.863916   1.000000
    5        4.083460  -0.000000
    6        6.734003  -0.000000
    7        7.367312  -0.000000
    8       10.005618   0.000000
 
  0.4500000E+00  0.8333333E-01  0.1666667E-01  0.4444444E-03
    1       -7.301241   1.000000
    2       -3.651509   1.000000
    3        1.421761   1.000000
    4        1.834137   1.000000
    5        4.024262  -0.000002
    6        6.772180  -0.000000
    7        7.320751  -0.000000
    8       10.303185   0.000000
 
  0.4833333E+00  0.8333333E-01  0.1666667E-01  0.4444444E-03
    1       -7.148787   1.000000
    2       -3.905329   1.000000
    3        1.357251   1.000000
    4        1.827380   1.000000
    5        3.981843  -0.000007
    6        6.805246  -0.000000
    7        7.271224  -0.000000
    8       10.472203   0.000000
 
 -0.4833333E+00  0.8333333E-01  0.1666667E-01  0.4444444E-03
    1       -7.062182   1.000000
    2       -4.042669   1.000000
    3        1.310267   1.000000
    4        1.842284   1.000000
    5        3.956668  -0.000015
    6        6.839160  -0.000000
    7        7.224380  -0.000000
    8       10.545703   0.000000
 
 -0.4500000E+00  0.8333333E-01  0.1666667E-01  0.4444444E-03
    1       -7.062429   1.000000
    2       -4.042208   1.000000
    3        1.281864   1.000000
    4        1.878051   1.000000
    5        3.949063  -0.000019
    6        6.876149  -0.000000
    7        7.184068  -0.000000
    8       10.570154   0.000000
 
 -0.4166667E+00  0.8333333E-01  0.1666667E-01  0.4444444E-03
    1       -7.149446   1.000000
    2       -3.904038   1.000000
    3        1.273012   1.000000
    4        1.933226   1.000000
    5        3.959029  -0.000014
    6        6.913628  -0.000000
    7        7.153408  -0.000000
    8       10.554421   0.000000
 
 -0.3833333E+00  0.8333333E-01  0.1666667E-01  0.4444444E-03
    1       -7.302129   1.000000
    2       -3.649518   1.000000
    3        1.284525   1.000000
    4        2.007107   1.000000
    5        3.986374  -0.000006
    6        6.941705  -0.000000
    7        7.137029  -0.000000
    8       10.460419   0.000000
 
 -0.3500000E+00  0.8333333E-01  0.1666667E-01  0.4444444E-03
    1       -7.493387   1.000000
    2       -3.306796   1.000000
    3        1.317207   1.000000
    4        2.098861   1.000000
    5        4.030216  -0.000001
    6        6.944016  -0.000000
    7        7.140198  -0.000000
    8       10.214977   0.000000
 
 -0.3166667E+00  0.8333333E-01  0.1666667E-01  0.4444444E-03
    1       -7.700911   1.000000
    2       -2.898892   1.000000
    3        1.371611   1.000000
    4        2.206061   1.000000
    5        4.089737  -0.000000
    6        6.911327  -0.000000
    7        7.154780  -0.000000
    8        9.822251   0.000000
 
 -0.2833333E+00  0.8333333E-01  0.1666667E-01  0.4444444E-03
    1       -7.909816   1.000000
    2       -2.442499   1.000000
    3        1.448111   1.000000
    4        2.326740   1.000000
    5        4.162929  -0.000000
    6        6.844206  -0.000000
    7        7.156527  -0.000000
    8        9.370630   0.000000
 
 -0.2500000E+00  0.8333333E-01  0.1666667E-01  0.4444444E-03
    1       -8.110414   1.000000
    2       -1.949777   1.000000
    3        1.546574   1.000000
    4        2.458502   1.000000
    5        4.246792  -0.000000
    6        6.741796  -0.000000
    7        7.119207  -0.000000
    8        8.920247   0.000000
 
 -0.2166667E+00  0.8333333E-01  0.1666667E-01  0.4444444E-03
    1       -8.296620   1.000000
    2       -1.429857   1.000000
    3        1.668893   1.000000
    4        2.597756   1.000005
    5        4.336500  -0.000000
    6        6.603595  -0.000000
    7        7.021270  -0.000000
    8        8.497983  -0.000000
 
 -0.1833333E+00  0.8333333E-01  0.1666667E-01  0.4444444E-03
    1       -8.464551   1.000000
    2       -0.892204   1.000000
    3        1.815532   1.000000
    4        2.739076   1.000308
    5        4.423336  -0.000000
    6        6.434572  -0.000000
    7        6.855212  -0.000000
    8        8.107254  -0.000000
 
 -0.1500000E+00  0.8333333E-01  0.1666667E-01  0.4444444E-03
    1       -8.611584   1.000000
    2       -0.346817   1.000000
    3        1.988269   1.000000
    4        2.875898   1.005854
    5        4.492208  -0.000000
    6        6.247680  -0.000000
    7        6.640623  -0.000000
    8        7.735017  -0.000000
 
 -0.1166667E+00  0.8333333E-01  0.1666667E-01  0.4444444E-03
    1       -8.736033   1.000000
    2        0.191962   1.000000
    3        2.189890   1.000000
    4        2.997706   1.028365
    5        4.517228  -0.000000
    6        6.064800  -0.000000
    7        6.419095  -0.000000
    8        7.362450  -0.000000
 
 -0.8333333E-01  0.8333333E-01  0.1666667E-01  0.4444444E-03
    1       -8.836687   1.000000
    2        0.704877   1.000000
    3        2.424932   1.000000
    4        3.092539   1.026105
    5        4.462470  -0.000000
    6        5.919626  -0.000000
    7        6.235587  -0.000000
    8        6.983112  -0.000000
 
 -0.5000000E-01  0.8333333E-01  0.1666667E-01  0.4444444E-03
    1       -8.912742   1.000000
    2        1.162732   1.000000
    3        2.696501   1.000099
    4        3.146958   0.972321
    5        4.305536  -0.000000
    6        5.845060  -0.000000
    7        6.119163  -0.000000
    8        6.606259  -0.000000
 
 -0.1666667E-01  0.8333333E-01  0.1666667E-01  0.4444444E-03
    1       -8.963675   1.000000
    2        1.527888   1.000000
    3        2.985748   1.025670
    4        3.153296   0.961922
    5        4.081120  -0.000000
    6        5.849324  -0.000000
    7        6.070964  -0.000000
    8        6.255981  -0.000000
 
  0.1166667E+00  0.1166667E+00  0.1666667E-01  0.2222222E-03
    1       -8.869807   1.000000
    2        1.020740   1.000000
    3        2.630155   1.000014
    4        2.634336   1.000016
    5        4.921485  -0.000000
    6        5.315290  -0.000000
    7        6.673145  -0.000000
    8        6.683758  -0.000000
 
  0.1500000E+00  0.1166667E+00  0.1666667E-01  0.4444444E-03
    1       -8.801937   1.000000
    2        0.660040   1.000000
    3        2.434515   1.000000
    4        2.528153   1.000000
    5        5.113318  -0.000000
    6        5.252133  -0.000000
    7        6.881271  -0.000000
    8        6.970588  -0.000000
 
  0.1833333E+00  0.1166667E+00  0.1666667E-01  0.4444444E-03
    1       -8.709292   1.000000
    2        0.209850   1.000000
    3        2.248846   1.000000
    4        2.411253   1.000000
    5        5.135678  -0.000000
    6        5.351008  -0.000000
    7        7.104867  -0.000000
    8        7.306215  -0.000000
 
  0.2166667E+00  0.1166667E+00  0.1666667E-01  0.4444444E-03
    1       -8.592590   1.000000
    2       -0.286975   1.000000
    3        2.072203   1.000000
    4        2.279841   1.000000
    5        5.078431  -0.000000
    6        5.535701  -0.000000
    7        7.315579  -0.000000
    8        7.645137  -0.000000
 