       N       E                     dE             d eps       ncg     rms          rms(c)
DAV:   1     0.153946239196E+01    0.15395E+01   -0.17991E+03 40776   0.343E+02
DAV:   2    -0.899413716816E+01   -0.10534E+02   -0.10098E+02 62912   0.560E+01
DAV:   3    -0.911690865409E+01   -0.12277E+00   -0.12270E+00 45456   0.772E+00
DAV:   4    -0.911705671993E+01   -0.14807E-03   -0.14807E-03 60088   0.275E-01
DAV:   5    -0.911705677315E+01   -0.53224E-07   -0.53343E-07 45040   0.350E-03    0.214E+00
DAV:   6    -0.905883123875E+01    0.58226E-01   -0.28423E-02 45240   0.930E-01    0.130E+00
DAV:   7    -0.903078194277E+01    0.28049E-01   -0.58657E-02 47688   0.142E+00    0.105E-01
DAV:   8    -0.903160983822E+01   -0.82790E-03   -0.12521E-03 42680   0.213E-01    0.213E-02
DAV:   9    -0.903169979586E+01   -0.89958E-04   -0.83952E-05 57384   0.644E-02    0.937E-03
DAV:  10    -0.903170297327E+01   -0.31774E-05   -0.18291E-05 40512   0.302E-02    0.225E-03
DAV:  11    -0.903170341923E+01   -0.44597E-06   -0.43131E-07 44912   0.379E-03
   1 F= -.90317034E+01 E0= -.90318417E+01  d E =-.903170E+01
       N       E                     dE             d eps       ncg     rms          rms(c)
DAV:   1    -0.903170857829E+01   -0.56050E-05   -0.96666E-05 45728   0.516E-02    0.636E-03
DAV:   2    -0.903170620238E+01    0.23759E-05   -0.13644E-06 39536   0.650E-03    0.364E-03
DAV:   3    -0.903170462062E+01    0.15818E-05   -0.21437E-06 39712   0.740E-03    0.306E-04
DAV:   4    -0.903170465687E+01   -0.36246E-07   -0.20513E-08 19840   0.919E-04
   2 F= -.90317047E+01 E0= -.90318427E+01  d E =-.123763E-05
       N       E                     dE             d eps       ncg     rms          rms(c)
DAV:   1    -0.903170501260E+01   -0.39198E-06   -0.52581E-06 45264   0.121E-02    0.150E-03
DAV:   2    -0.903170502388E+01   -0.11278E-07   -0.72705E-08 19840   0.151E-03
   3 F= -.90317050E+01 E0= -.90318431E+01  d E =-.160464E-05
