 running on    1 total cores
 distrk:  each k-point on    1 cores,    1 groups
 distr:  one band on    1 cores,    1 groups
 using from now: INCAR     
 vasp.5.4.4.18Apr17-6-g9f103f2a35 (build May 20 2018 16:52:39) complex          
  
 POSCAR found type information on POSCAR  Ge
 POSCAR found :  1 types and       2 ions
 scaLAPACK will be used
 LDA part: xc-table for Ceperly-Alder, standard interpolation
 POSCAR, INCAR and KPOINTS ok, starting setup
 FFT: planning ...
 WAVECAR not read
 WARNING: random wavefunctions but no delay for mixing, default for NELMDL
 entering main loop
       N       E                     dE             d eps       ncg     rms          rms(c)
DAV:   1     0.158524197910E+01    0.15852E+01   -0.18326E+03 12688   0.346E+02
DAV:   2    -0.898110858621E+01   -0.10566E+02   -0.10123E+02 19296   0.562E+01
DAV:   3    -0.909943068989E+01   -0.11832E+00   -0.11831E+00 14200   0.761E+00
DAV:   4    -0.909955819642E+01   -0.12751E-03   -0.12751E-03 18640   0.255E-01
DAV:   5    -0.909955823786E+01   -0.41440E-07   -0.41372E-07 14096   0.318E-03    0.227E+00
DAV:   6    -0.902547421036E+01    0.74084E-01   -0.37527E-02 14024   0.105E+00    0.137E+00
DAV:   7    -0.899093417137E+01    0.34540E-01   -0.72876E-02 14720   0.155E+00    0.115E-01
DAV:   8    -0.899175239172E+01   -0.81822E-03   -0.14367E-03 13040   0.232E-01    0.210E-02
DAV:   9    -0.899182861746E+01   -0.76226E-04   -0.70206E-05 18104   0.598E-02    0.948E-03
DAV:  10    -0.899183105455E+01   -0.24371E-05   -0.16946E-05 12632   0.297E-02    0.247E-03
DAV:  11    -0.899183187676E+01   -0.82220E-06   -0.45196E-07 13280   0.379E-03
   1 F= -.89918319E+01 E0= -.89919692E+01  d E =-.899183E+01
 curvature:   0.00 expect dE= 0.000E+00 dE for cont linesearch  0.000E+00
 trial: gam= 0.00000 g(F)=  0.668E-45 g(S)=  0.978E-01 ort = 0.000E+00 (trialstep = 0.100E+01)
 search vector abs. value=  0.978E-01
 bond charge predicted
       N       E                     dE             d eps       ncg     rms          rms(c)
DAV:   1    -0.907208206850E+01   -0.80251E-01   -0.17425E+00 14208   0.674E+00    0.861E-01
DAV:   2    -0.903651372660E+01    0.35568E-01   -0.26119E-02 13744   0.890E-01    0.492E-01
DAV:   3    -0.901881708455E+01    0.17697E-01   -0.40531E-02 14400   0.100E+00    0.416E-02
DAV:   4    -0.901885648709E+01   -0.39403E-04   -0.17583E-04 12488   0.930E-02    0.151E-02
DAV:   5    -0.901887339764E+01   -0.16911E-04   -0.22527E-05 15832   0.324E-02    0.333E-03
DAV:   6    -0.901887578891E+01   -0.23913E-05   -0.16800E-06 16112   0.915E-03    0.771E-04
DAV:   7    -0.901887577164E+01    0.17265E-07   -0.43014E-08  6248   0.164E-03
   2 F= -.90188758E+01 E0= -.90190001E+01  d E =-.270439E-01
 trial-energy change:   -0.027044  1 .order   -0.030158   -0.097830    0.037514
 step:   0.6935(harm=  0.7228)  dis= 0.00000  next Energy=    -9.024715 (dE=-0.329E-01)
 bond charge predicted
       N       E                     dE             d eps       ncg     rms          rms(c)
DAV:   1    -0.902951669910E+01   -0.10641E-01   -0.16929E-01 14200   0.216E+00    0.268E-01
DAV:   2    -0.902618293390E+01    0.33338E-02   -0.23813E-03 13504   0.265E-01    0.154E-01
DAV:   3    -0.902455478783E+01    0.16281E-02   -0.38024E-03 14352   0.309E-01    0.130E-02
DAV:   4    -0.902455568529E+01   -0.89746E-06   -0.17567E-05 12408   0.293E-02    0.420E-03
DAV:   5    -0.902455578733E+01   -0.10204E-06   -0.15568E-06 16088   0.867E-03
   3 F= -.90245558E+01 E0= -.90246934E+01  d E =-.327239E-01
 curvature:  -0.36 expect dE=-0.364E-06 dE for cont linesearch -0.364E-06
 trial: gam=-0.00322 g(F)=  0.399E-44 g(S)=  0.102E-05 ort = 0.316E-03 (trialstep = 0.939E+00)
 search vector abs. value=  0.111E-09
 reached required accuracy - stopping structural energy minimisation
