<?xml version="1.0" encoding="ISO-8859-1"?>
<modeling>
 <generator>
  <i name="program" type="string">vasp </i>
  <i name="version" type="string">5.4.4.18Apr17-6-g9f103f2a35  </i>
  <i name="subversion" type="string">(build May 20 2018 16:52:39) complex            parallel </i>
  <i name="platform" type="string">LinuxIFC </i>
  <i name="date" type="string">2022 10 31 </i>
  <i name="time" type="string">01:21:48 </i>
 </generator>
 <incar>
  <i type="string" name="SYSTEM"> Ge</i>
  <i type="string" name="PREC">normal</i>
  <i type="int" name="IBRION">     2</i>
  <i name="EDIFF">      0.00000100</i>
  <i type="int" name="NSW">    50</i>
  <i type="int" name="ISIF">     3</i>
  <i type="logical" name="LWAVE"> F  </i>
  <v type="int" name="KPOINT_BSE">    -1     0     0     0</v>
 </incar>
 <structure name="primitive_cell" >
  <crystal>
   <varray name="basis" >
    <v>       0.00000000       2.88500000       2.88500000 </v>
    <v>       2.88500000       0.00000000       2.88500000 </v>
    <v>       2.88500000       2.88500000       0.00000000 </v>
   </varray>
   <i name="volume">     48.02500825 </i>
   <varray name="rec_basis" >
    <v>      -0.17331023       0.17331023       0.17331023 </v>
    <v>       0.17331023      -0.17331023       0.17331023 </v>
    <v>       0.17331023       0.17331023      -0.17331023 </v>
   </varray>
  </crystal>
  <varray name="positions" >
   <v>       0.00000000       0.00000000       0.00000000 </v>
   <v>       0.25000000       0.25000000       0.25000000 </v>
  </varray>
 </structure>
 <varray name="primitive_index" >
  <v type="int" >        1 </v>
  <v type="int" >        2 </v>
 </varray>
 <kpoints>
  <generation param="Monkhorst-Pack">
   <v type="int" name="divisions">      30       30       30 </v>
   <v name="usershift">      0.00000000       0.00000000       0.00000000 </v>
   <v name="genvec1">      0.03333333       0.00000000       0.00000000 </v>
   <v name="genvec2">      0.00000000       0.03333333       0.00000000 </v>
   <v name="genvec3">      0.00000000       0.00000000       0.03333333 </v>
   <v name="shift">      0.50000000       0.50000000       0.50000000 </v>
  </generation>
  <varray name="kpointlist" >
   <v>       0.01666667       0.01666667       0.01666667 </v>
   <v>       0.05000000       0.01666667       0.01666667 </v>
   <v>       0.08333333       0.01666667       0.01666667 </v>
   <v>       0.11666667       0.01666667       0.01666667 </v>
   <v>       0.15000000       0.01666667       0.01666667 </v>
   <v>       0.18333333       0.01666667       0.01666667 </v>
   <v>       0.21666667       0.01666667       0.01666667 </v>
   <v>       0.25000000       0.01666667       0.01666667 </v>
   <v>       0.28333333       0.01666667       0.01666667 </v>
   <v>       0.31666667       0.01666667       0.01666667 </v>
   <v>       0.35000000       0.01666667       0.01666667 </v>
   <v>       0.38333333       0.01666667       0.01666667 </v>
   <v>       0.41666667       0.01666667       0.01666667 </v>
   <v>       0.45000000       0.01666667       0.01666667 </v>
   <v>       0.48333333       0.01666667       0.01666667 </v>
   <v>      -0.48333333       0.01666667       0.01666667 </v>
   <v>      -0.45000000       0.01666667       0.01666667 </v>
   <v>      -0.41666667       0.01666667       0.01666667 </v>
   <v>      -0.38333333       0.01666667       0.01666667 </v>
   <v>      -0.35000000       0.01666667       0.01666667 </v>
   <v>      -0.31666667       0.01666667       0.01666667 </v>
   <v>      -0.28333333       0.01666667       0.01666667 </v>
   <v>      -0.25000000       0.01666667       0.01666667 </v>
   <v>      -0.21666667       0.01666667       0.01666667 </v>
   <v>      -0.18333333       0.01666667       0.01666667 </v>
   <v>      -0.15000000       0.01666667       0.01666667 </v>
   <v>      -0.11666667       0.01666667       0.01666667 </v>
   <v>      -0.08333333       0.01666667       0.01666667 </v>
   <v>      -0.05000000       0.01666667       0.01666667 </v>
   <v>      -0.01666667       0.01666667       0.01666667 </v>
   <v>       0.05000000       0.05000000       0.01666667 </v>
   <v>       0.08333333       0.05000000       0.01666667 </v>
   <v>       0.11666667       0.05000000       0.01666667 </v>
   <v>       0.15000000       0.05000000       0.01666667 </v>
   <v>       0.18333333       0.05000000       0.01666667 </v>
   <v>       0.21666667       0.05000000       0.01666667 </v>
   <v>       0.25000000       0.05000000       0.01666667 </v>
   <v>       0.28333333       0.05000000       0.01666667 </v>
   <v>       0.31666667       0.05000000       0.01666667 </v>
   <v>       0.35000000       0.05000000       0.01666667 </v>
   <v>       0.38333333       0.05000000       0.01666667 </v>
   <v>       0.41666667       0.05000000       0.01666667 </v>
   <v>       0.45000000       0.05000000       0.01666667 </v>
   <v>       0.48333333       0.05000000       0.01666667 </v>
   <v>      -0.48333333       0.05000000       0.01666667 </v>
   <v>      -0.45000000       0.05000000       0.01666667 </v>
   <v>      -0.41666667       0.05000000       0.01666667 </v>
   <v>      -0.38333333       0.05000000       0.01666667 </v>
   <v>      -0.35000000       0.05000000       0.01666667 </v>
   <v>      -0.31666667       0.05000000       0.01666667 </v>
   <v>      -0.28333333       0.05000000       0.01666667 </v>
   <v>      -0.25000000       0.05000000       0.01666667 </v>
   <v>      -0.21666667       0.05000000       0.01666667 </v>
   <v>      -0.18333333       0.05000000       0.01666667 </v>
   <v>      -0.15000000       0.05000000       0.01666667 </v>
   <v>      -0.11666667       0.05000000       0.01666667 </v>
   <v>      -0.08333333       0.05000000       0.01666667 </v>
   <v>      -0.05000000       0.05000000       0.01666667 </v>
   <v>      -0.01666667       0.05000000       0.01666667 </v>
   <v>       0.08333333       0.08333333       0.01666667 </v>
   <v>       0.11666667       0.08333333       0.01666667 </v>
   <v>       0.15000000       0.08333333       0.01666667 </v>
   <v>       0.18333333       0.08333333       0.01666667 </v>
   <v>       0.21666667       0.08333333       0.01666667 </v>
   <v>       0.25000000       0.08333333       0.01666667 </v>
   <v>       0.28333333       0.08333333       0.01666667 </v>
   <v>       0.31666667       0.08333333       0.01666667 </v>
   <v>       0.35000000       0.08333333       0.01666667 </v>
   <v>       0.38333333       0.08333333       0.01666667 </v>
   <v>       0.41666667       0.08333333       0.01666667 </v>
   <v>       0.45000000       0.08333333       0.01666667 </v>
   <v>       0.48333333       0.08333333       0.01666667 </v>
   <v>      -0.48333333       0.08333333       0.01666667 </v>
   <v>      -0.45000000       0.08333333       0.01666667 </v>
   <v>      -0.41666667       0.08333333       0.01666667 </v>
   <v>      -0.38333333       0.08333333       0.01666667 </v>
   <v>      -0.35000000       0.08333333       0.01666667 </v>
   <v>      -0.31666667       0.08333333       0.01666667 </v>
   <v>      -0.28333333       0.08333333       0.01666667 </v>
   <v>      -0.25000000       0.08333333       0.01666667 </v>
   <v>      -0.21666667       0.08333333       0.01666667 </v>
   <v>      -0.18333333       0.08333333       0.01666667 </v>
   <v>      -0.15000000       0.08333333       0.01666667 </v>
   <v>      -0.11666667       0.08333333       0.01666667 </v>
   <v>      -0.08333333       0.08333333       0.01666667 </v>
   <v>      -0.05000000       0.08333333       0.01666667 </v>
   <v>      -0.01666667       0.08333333       0.01666667 </v>
   <v>       0.11666667       0.11666667       0.01666667 </v>
   <v>       0.15000000       0.11666667       0.01666667 </v>
   <v>       0.18333333       0.11666667       0.01666667 </v>
   <v>       0.21666667       0.11666667       0.01666667 </v>
   <v>       0.25000000       0.11666667       0.01666667 </v>
   <v>       0.28333333       0.11666667       0.01666667 </v>
   <v>       0.31666667       0.11666667       0.01666667 </v>
   <v>       0.35000000       0.11666667       0.01666667 </v>
   <v>       0.38333333       0.11666667       0.01666667 </v>
   <v>       0.41666667       0.11666667       0.01666667 </v>
   <v>       0.45000000       0.11666667       0.01666667 </v>
   <v>       0.48333333       0.11666667       0.01666667 </v>
   <v>      -0.48333333       0.11666667       0.01666667 </v>
   <v>      -0.45000000       0.11666667       0.01666667 </v>
   <v>      -0.41666667       0.11666667       0.01666667 </v>
   <v>      -0.38333333       0.11666667       0.01666667 </v>
   <v>      -0.35000000       0.11666667       0.01666667 </v>
   <v>      -0.31666667       0.11666667       0.01666667 </v>
   <v>      -0.28333333       0.11666667       0.01666667 </v>
   <v>      -0.25000000       0.11666667       0.01666667 </v>
   <v>      -0.21666667       0.11666667       0.01666667 </v>
   <v>      -0.18333333       0.11666667       0.01666667 </v>
   <v>      -0.15000000       0.11666667       0.01666667 </v>
   <v>      -0.11666667       0.11666667       0.01666667 </v>
   <v>      -0.08333333       0.11666667       0.01666667 </v>
   <v>      -0.05000000       0.11666667       0.01666667 </v>
   <v>      -0.01666667       0.11666667       0.01666667 </v>
   <v>       0.15000000       0.15000000       0.01666667 </v>
   <v>       0.18333333       0.15000000       0.01666667 </v>
   <v>       0.21666667       0.15000000       0.01666667 </v>
   <v>       0.25000000       0.15000000       0.01666667 </v>
   <v>       0.28333333       0.15000000       0.01666667 </v>
   <v>       0.31666667       0.15000000       0.01666667 </v>
   <v>       0.35000000       0.15000000       0.01666667 </v>
   <v>       0.38333333       0.15000000       0.01666667 </v>
   <v>       0.41666667       0.15000000       0.01666667 </v>
   <v>       0.45000000       0.15000000       0.01666667 </v>
   <v>       0.48333333       0.15000000       0.01666667 </v>
   <v>      -0.48333333       0.15000000       0.01666667 </v>
   <v>      -0.45000000       0.15000000       0.01666667 </v>
   <v>      -0.41666667       0.15000000       0.01666667 </v>
   <v>      -0.38333333       0.15000000       0.01666667 </v>
   <v>      -0.35000000       0.15000000       0.01666667 </v>
   <v>      -0.31666667       0.15000000       0.01666667 </v>
   <v>      -0.28333333       0.15000000       0.01666667 </v>
   <v>      -0.25000000       0.15000000       0.01666667 </v>
   <v>      -0.21666667       0.15000000       0.01666667 </v>
   <v>      -0.18333333       0.15000000       0.01666667 </v>
   <v>      -0.15000000       0.15000000       0.01666667 </v>
   <v>      -0.11666667       0.15000000       0.01666667 </v>
   <v>      -0.08333333       0.15000000       0.01666667 </v>
   <v>      -0.05000000       0.15000000       0.01666667 </v>
   <v>      -0.01666667       0.15000000       0.01666667 </v>
   <v>       0.18333333       0.18333333       0.01666667 </v>
   <v>       0.21666667       0.18333333       0.01666667 </v>
   <v>       0.25000000       0.18333333       0.01666667 </v>
   <v>       0.28333333       0.18333333       0.01666667 </v>
   <v>       0.31666667       0.18333333       0.01666667 </v>
   <v>       0.35000000       0.18333333       0.01666667 </v>
   <v>       0.38333333       0.18333333       0.01666667 </v>
   <v>       0.41666667       0.18333333       0.01666667 </v>
   <v>       0.45000000       0.18333333       0.01666667 </v>
   <v>       0.48333333       0.18333333       0.01666667 </v>
   <v>      -0.48333333       0.18333333       0.01666667 </v>
   <v>      -0.45000000       0.18333333       0.01666667 </v>
   <v>      -0.41666667       0.18333333       0.01666667 </v>
   <v>      -0.38333333       0.18333333       0.01666667 </v>
   <v>      -0.35000000       0.18333333       0.01666667 </v>
   <v>      -0.31666667       0.18333333       0.01666667 </v>
   <v>      -0.28333333       0.18333333       0.01666667 </v>
   <v>      -0.25000000       0.18333333       0.01666667 </v>
   <v>      -0.21666667       0.18333333       0.01666667 </v>
   <v>      -0.18333333       0.18333333       0.01666667 </v>
   <v>      -0.15000000       0.18333333       0.01666667 </v>
   <v>      -0.11666667       0.18333333       0.01666667 </v>
   <v>      -0.08333333       0.18333333       0.01666667 </v>
   <v>      -0.05000000       0.18333333       0.01666667 </v>
   <v>      -0.01666667       0.18333333       0.01666667 </v>
   <v>       0.21666667       0.21666667       0.01666667 </v>
   <v>       0.25000000       0.21666667       0.01666667 </v>
   <v>       0.28333333       0.21666667       0.01666667 </v>
   <v>       0.31666667       0.21666667       0.01666667 </v>
   <v>       0.35000000       0.21666667       0.01666667 </v>
   <v>       0.38333333       0.21666667       0.01666667 </v>
   <v>       0.41666667       0.21666667       0.01666667 </v>
   <v>       0.45000000       0.21666667       0.01666667 </v>
   <v>       0.48333333       0.21666667       0.01666667 </v>
   <v>      -0.48333333       0.21666667       0.01666667 </v>
   <v>      -0.45000000       0.21666667       0.01666667 </v>
   <v>      -0.41666667       0.21666667       0.01666667 </v>
   <v>      -0.38333333       0.21666667       0.01666667 </v>
   <v>      -0.35000000       0.21666667       0.01666667 </v>
   <v>      -0.31666667       0.21666667       0.01666667 </v>
   <v>      -0.28333333       0.21666667       0.01666667 </v>
   <v>      -0.25000000       0.21666667       0.01666667 </v>
   <v>      -0.21666667       0.21666667       0.01666667 </v>
   <v>      -0.18333333       0.21666667       0.01666667 </v>
   <v>      -0.15000000       0.21666667       0.01666667 </v>
   <v>      -0.11666667       0.21666667       0.01666667 </v>
   <v>      -0.08333333       0.21666667       0.01666667 </v>
   <v>      -0.05000000       0.21666667       0.01666667 </v>
   <v>      -0.01666667       0.21666667       0.01666667 </v>
   <v>       0.25000000       0.25000000       0.01666667 </v>
   <v>       0.28333333       0.25000000       0.01666667 </v>
   <v>       0.31666667       0.25000000       0.01666667 </v>
   <v>       0.35000000       0.25000000       0.01666667 </v>
   <v>       0.38333333       0.25000000       0.01666667 </v>
   <v>       0.41666667       0.25000000       0.01666667 </v>
   <v>       0.45000000       0.25000000       0.01666667 </v>
   <v>       0.48333333       0.25000000       0.01666667 </v>
   <v>      -0.48333333       0.25000000       0.01666667 </v>
   <v>      -0.45000000       0.25000000       0.01666667 </v>
   <v>      -0.41666667       0.25000000       0.01666667 </v>
   <v>      -0.38333333       0.25000000       0.01666667 </v>
   <v>      -0.35000000       0.25000000       0.01666667 </v>
   <v>      -0.31666667       0.25000000       0.01666667 </v>
   <v>      -0.28333333       0.25000000       0.01666667 </v>
   <v>      -0.25000000       0.25000000       0.01666667 </v>
   <v>      -0.21666667       0.25000000       0.01666667 </v>
   <v>      -0.18333333       0.25000000       0.01666667 </v>
   <v>      -0.15000000       0.25000000       0.01666667 </v>
   <v>      -0.11666667       0.25000000       0.01666667 </v>
   <v>      -0.08333333       0.25000000       0.01666667 </v>
   <v>      -0.05000000       0.25000000       0.01666667 </v>
   <v>      -0.01666667       0.25000000       0.01666667 </v>
   <v>       0.28333333       0.28333333       0.01666667 </v>
   <v>       0.31666667       0.28333333       0.01666667 </v>
   <v>       0.35000000       0.28333333       0.01666667 </v>
   <v>       0.38333333       0.28333333       0.01666667 </v>
   <v>       0.41666667       0.28333333       0.01666667 </v>
   <v>       0.45000000       0.28333333       0.01666667 </v>
   <v>       0.48333333       0.28333333       0.01666667 </v>
   <v>      -0.48333333       0.28333333       0.01666667 </v>
   <v>      -0.45000000       0.28333333       0.01666667 </v>
   <v>      -0.41666667       0.28333333       0.01666667 </v>
   <v>      -0.38333333       0.28333333       0.01666667 </v>
   <v>      -0.35000000       0.28333333       0.01666667 </v>
   <v>      -0.31666667       0.28333333       0.01666667 </v>
   <v>      -0.28333333       0.28333333       0.01666667 </v>
   <v>      -0.25000000       0.28333333       0.01666667 </v>
   <v>      -0.21666667       0.28333333       0.01666667 </v>
   <v>      -0.18333333       0.28333333       0.01666667 </v>
   <v>      -0.15000000       0.28333333       0.01666667 </v>
   <v>      -0.11666667       0.28333333       0.01666667 </v>
   <v>      -0.08333333       0.28333333       0.01666667 </v>
   <v>      -0.05000000       0.28333333       0.01666667 </v>
   <v>      -0.01666667       0.28333333       0.01666667 </v>
   <v>       0.31666667       0.31666667       0.01666667 </v>
   <v>       0.35000000       0.31666667       0.01666667 </v>
   <v>       0.38333333       0.31666667       0.01666667 </v>
   <v>       0.41666667       0.31666667       0.01666667 </v>
   <v>       0.45000000       0.31666667       0.01666667 </v>
   <v>       0.48333333       0.31666667       0.01666667 </v>
   <v>      -0.48333333       0.31666667       0.01666667 </v>
   <v>      -0.45000000       0.31666667       0.01666667 </v>
   <v>      -0.41666667       0.31666667       0.01666667 </v>
   <v>      -0.38333333       0.31666667       0.01666667 </v>
   <v>      -0.35000000       0.31666667       0.01666667 </v>
   <v>      -0.31666667       0.31666667       0.01666667 </v>
   <v>      -0.28333333       0.31666667       0.01666667 </v>
   <v>      -0.25000000       0.31666667       0.01666667 </v>
   <v>      -0.21666667       0.31666667       0.01666667 </v>
   <v>      -0.18333333       0.31666667       0.01666667 </v>
   <v>      -0.15000000       0.31666667       0.01666667 </v>
   <v>      -0.11666667       0.31666667       0.01666667 </v>
   <v>      -0.08333333       0.31666667       0.01666667 </v>
   <v>      -0.05000000       0.31666667       0.01666667 </v>
   <v>      -0.01666667       0.31666667       0.01666667 </v>
   <v>       0.35000000       0.35000000       0.01666667 </v>
   <v>       0.38333333       0.35000000       0.01666667 </v>
   <v>       0.41666667       0.35000000       0.01666667 </v>
   <v>       0.45000000       0.35000000       0.01666667 </v>
   <v>       0.48333333       0.35000000       0.01666667 </v>
   <v>      -0.48333333       0.35000000       0.01666667 </v>
   <v>      -0.45000000       0.35000000       0.01666667 </v>
   <v>      -0.41666667       0.35000000       0.01666667 </v>
   <v>      -0.38333333       0.35000000       0.01666667 </v>
   <v>      -0.35000000       0.35000000       0.01666667 </v>
   <v>      -0.31666667       0.35000000       0.01666667 </v>
   <v>      -0.28333333       0.35000000       0.01666667 </v>
   <v>      -0.25000000       0.35000000       0.01666667 </v>
   <v>      -0.21666667       0.35000000       0.01666667 </v>
   <v>      -0.18333333       0.35000000       0.01666667 </v>
   <v>      -0.15000000       0.35000000       0.01666667 </v>
   <v>      -0.11666667       0.35000000       0.01666667 </v>
   <v>      -0.08333333       0.35000000       0.01666667 </v>
   <v>      -0.05000000       0.35000000       0.01666667 </v>
   <v>      -0.01666667       0.35000000       0.01666667 </v>
   <v>       0.38333333       0.38333333       0.01666667 </v>
   <v>       0.41666667       0.38333333       0.01666667 </v>
   <v>       0.45000000       0.38333333       0.01666667 </v>
   <v>       0.48333333       0.38333333       0.01666667 </v>
   <v>      -0.48333333       0.38333333       0.01666667 </v>
   <v>      -0.45000000       0.38333333       0.01666667 </v>
   <v>      -0.41666667       0.38333333       0.01666667 </v>
   <v>      -0.38333333       0.38333333       0.01666667 </v>
   <v>      -0.35000000       0.38333333       0.01666667 </v>
   <v>      -0.31666667       0.38333333       0.01666667 </v>
   <v>      -0.28333333       0.38333333       0.01666667 </v>
   <v>      -0.25000000       0.38333333       0.01666667 </v>
   <v>      -0.21666667       0.38333333       0.01666667 </v>
   <v>      -0.18333333       0.38333333       0.01666667 </v>
   <v>      -0.15000000       0.38333333       0.01666667 </v>
   <v>      -0.11666667       0.38333333       0.01666667 </v>
   <v>      -0.08333333       0.38333333       0.01666667 </v>
   <v>      -0.05000000       0.38333333       0.01666667 </v>
   <v>      -0.01666667       0.38333333       0.01666667 </v>
   <v>       0.41666667       0.41666667       0.01666667 </v>
   <v>       0.45000000       0.41666667       0.01666667 </v>
   <v>       0.48333333       0.41666667       0.01666667 </v>
   <v>      -0.48333333       0.41666667       0.01666667 </v>
   <v>      -0.45000000       0.41666667       0.01666667 </v>
   <v>      -0.41666667       0.41666667       0.01666667 </v>
   <v>      -0.38333333       0.41666667       0.01666667 </v>
   <v>      -0.35000000       0.41666667       0.01666667 </v>
   <v>      -0.31666667       0.41666667       0.01666667 </v>
   <v>      -0.28333333       0.41666667       0.01666667 </v>
   <v>      -0.25000000       0.41666667       0.01666667 </v>
   <v>      -0.21666667       0.41666667       0.01666667 </v>
   <v>      -0.18333333       0.41666667       0.01666667 </v>
   <v>      -0.15000000       0.41666667       0.01666667 </v>
   <v>      -0.11666667       0.41666667       0.01666667 </v>
   <v>      -0.08333333       0.41666667       0.01666667 </v>
   <v>      -0.05000000       0.41666667       0.01666667 </v>
   <v>      -0.01666667       0.41666667       0.01666667 </v>
   <v>       0.45000000       0.45000000       0.01666667 </v>
   <v>       0.48333333       0.45000000       0.01666667 </v>
   <v>      -0.48333333       0.45000000       0.01666667 </v>
   <v>      -0.45000000       0.45000000       0.01666667 </v>
   <v>      -0.41666667       0.45000000       0.01666667 </v>
   <v>      -0.38333333       0.45000000       0.01666667 </v>
   <v>      -0.35000000       0.45000000       0.01666667 </v>
   <v>      -0.31666667       0.45000000       0.01666667 </v>
   <v>      -0.28333333       0.45000000       0.01666667 </v>
   <v>      -0.25000000       0.45000000       0.01666667 </v>
   <v>      -0.21666667       0.45000000       0.01666667 </v>
   <v>      -0.18333333       0.45000000       0.01666667 </v>
   <v>      -0.15000000       0.45000000       0.01666667 </v>
   <v>      -0.11666667       0.45000000       0.01666667 </v>
   <v>      -0.08333333       0.45000000       0.01666667 </v>
   <v>      -0.05000000       0.45000000       0.01666667 </v>
   <v>      -0.01666667       0.45000000       0.01666667 </v>
   <v>       0.48333333       0.48333333       0.01666667 </v>
   <v>      -0.48333333       0.48333333       0.01666667 </v>
   <v>      -0.45000000       0.48333333       0.01666667 </v>
   <v>      -0.41666667       0.48333333       0.01666667 </v>
   <v>      -0.38333333       0.48333333       0.01666667 </v>
   <v>      -0.35000000       0.48333333       0.01666667 </v>
   <v>      -0.31666667       0.48333333       0.01666667 </v>
   <v>      -0.28333333       0.48333333       0.01666667 </v>
   <v>      -0.25000000       0.48333333       0.01666667 </v>
   <v>      -0.21666667       0.48333333       0.01666667 </v>
   <v>      -0.18333333       0.48333333       0.01666667 </v>
   <v>      -0.15000000       0.48333333       0.01666667 </v>
   <v>      -0.11666667       0.48333333       0.01666667 </v>
   <v>      -0.08333333       0.48333333       0.01666667 </v>
   <v>      -0.05000000       0.48333333       0.01666667 </v>
   <v>      -0.01666667       0.48333333       0.01666667 </v>
   <v>      -0.48333333      -0.48333333       0.01666667 </v>
   <v>      -0.45000000      -0.48333333       0.01666667 </v>
   <v>      -0.41666667      -0.48333333       0.01666667 </v>
   <v>      -0.38333333      -0.48333333       0.01666667 </v>
   <v>      -0.35000000      -0.48333333       0.01666667 </v>
   <v>      -0.31666667      -0.48333333       0.01666667 </v>
   <v>      -0.28333333      -0.48333333       0.01666667 </v>
   <v>      -0.25000000      -0.48333333       0.01666667 </v>
   <v>      -0.21666667      -0.48333333       0.01666667 </v>
   <v>      -0.18333333      -0.48333333       0.01666667 </v>
   <v>      -0.15000000      -0.48333333       0.01666667 </v>
   <v>      -0.11666667      -0.48333333       0.01666667 </v>
   <v>      -0.08333333      -0.48333333       0.01666667 </v>
   <v>      -0.05000000      -0.48333333       0.01666667 </v>
   <v>      -0.45000000      -0.45000000       0.01666667 </v>
   <v>      -0.41666667      -0.45000000       0.01666667 </v>
   <v>      -0.38333333      -0.45000000       0.01666667 </v>
   <v>      -0.35000000      -0.45000000       0.01666667 </v>
   <v>      -0.31666667      -0.45000000       0.01666667 </v>
   <v>      -0.28333333      -0.45000000       0.01666667 </v>
   <v>      -0.25000000      -0.45000000       0.01666667 </v>
   <v>      -0.21666667      -0.45000000       0.01666667 </v>
   <v>      -0.18333333      -0.45000000       0.01666667 </v>
   <v>      -0.15000000      -0.45000000       0.01666667 </v>
   <v>      -0.11666667      -0.45000000       0.01666667 </v>
   <v>      -0.08333333      -0.45000000       0.01666667 </v>
   <v>      -0.05000000      -0.45000000       0.01666667 </v>
   <v>      -0.41666667      -0.41666667       0.01666667 </v>
   <v>      -0.38333333      -0.41666667       0.01666667 </v>
   <v>      -0.35000000      -0.41666667       0.01666667 </v>
   <v>      -0.31666667      -0.41666667       0.01666667 </v>
   <v>      -0.28333333      -0.41666667       0.01666667 </v>
   <v>      -0.25000000      -0.41666667       0.01666667 </v>
   <v>      -0.21666667      -0.41666667       0.01666667 </v>
   <v>      -0.18333333      -0.41666667       0.01666667 </v>
   <v>      -0.15000000      -0.41666667       0.01666667 </v>
   <v>      -0.11666667      -0.41666667       0.01666667 </v>
   <v>      -0.08333333      -0.41666667       0.01666667 </v>
   <v>      -0.05000000      -0.41666667       0.01666667 </v>
   <v>      -0.38333333      -0.38333333       0.01666667 </v>
   <v>      -0.35000000      -0.38333333       0.01666667 </v>
   <v>      -0.31666667      -0.38333333       0.01666667 </v>
   <v>      -0.28333333      -0.38333333       0.01666667 </v>
   <v>      -0.25000000      -0.38333333       0.01666667 </v>
   <v>      -0.21666667      -0.38333333       0.01666667 </v>
   <v>      -0.18333333      -0.38333333       0.01666667 </v>
   <v>      -0.15000000      -0.38333333       0.01666667 </v>
   <v>      -0.11666667      -0.38333333       0.01666667 </v>
   <v>      -0.08333333      -0.38333333       0.01666667 </v>
   <v>      -0.05000000      -0.38333333       0.01666667 </v>
   <v>      -0.35000000      -0.35000000       0.01666667 </v>
   <v>      -0.31666667      -0.35000000       0.01666667 </v>
   <v>      -0.28333333      -0.35000000       0.01666667 </v>
   <v>      -0.25000000      -0.35000000       0.01666667 </v>
   <v>      -0.21666667      -0.35000000       0.01666667 </v>
   <v>      -0.18333333      -0.35000000       0.01666667 </v>
   <v>      -0.15000000      -0.35000000       0.01666667 </v>
   <v>      -0.11666667      -0.35000000       0.01666667 </v>
   <v>      -0.08333333      -0.35000000       0.01666667 </v>
   <v>      -0.05000000      -0.35000000       0.01666667 </v>
   <v>      -0.31666667      -0.31666667       0.01666667 </v>
   <v>      -0.28333333      -0.31666667       0.01666667 </v>
   <v>      -0.25000000      -0.31666667       0.01666667 </v>
   <v>      -0.21666667      -0.31666667       0.01666667 </v>
   <v>      -0.18333333      -0.31666667       0.01666667 </v>
   <v>      -0.15000000      -0.31666667       0.01666667 </v>
   <v>      -0.11666667      -0.31666667       0.01666667 </v>
   <v>      -0.08333333      -0.31666667       0.01666667 </v>
   <v>      -0.05000000      -0.31666667       0.01666667 </v>
   <v>      -0.28333333      -0.28333333       0.01666667 </v>
   <v>      -0.25000000      -0.28333333       0.01666667 </v>
   <v>      -0.21666667      -0.28333333       0.01666667 </v>
   <v>      -0.18333333      -0.28333333       0.01666667 </v>
   <v>      -0.15000000      -0.28333333       0.01666667 </v>
   <v>      -0.11666667      -0.28333333       0.01666667 </v>
   <v>      -0.08333333      -0.28333333       0.01666667 </v>
   <v>      -0.05000000      -0.28333333       0.01666667 </v>
   <v>      -0.25000000      -0.25000000       0.01666667 </v>
   <v>      -0.21666667      -0.25000000       0.01666667 </v>
   <v>      -0.18333333      -0.25000000       0.01666667 </v>
   <v>      -0.15000000      -0.25000000       0.01666667 </v>
   <v>      -0.11666667      -0.25000000       0.01666667 </v>
   <v>      -0.08333333      -0.25000000       0.01666667 </v>
   <v>      -0.05000000      -0.25000000       0.01666667 </v>
   <v>      -0.21666667      -0.21666667       0.01666667 </v>
   <v>      -0.18333333      -0.21666667       0.01666667 </v>
   <v>      -0.15000000      -0.21666667       0.01666667 </v>
   <v>      -0.11666667      -0.21666667       0.01666667 </v>
   <v>      -0.08333333      -0.21666667       0.01666667 </v>
   <v>      -0.05000000      -0.21666667       0.01666667 </v>
   <v>      -0.18333333      -0.18333333       0.01666667 </v>
   <v>      -0.15000000      -0.18333333       0.01666667 </v>
   <v>      -0.11666667      -0.18333333       0.01666667 </v>
   <v>      -0.08333333      -0.18333333       0.01666667 </v>
   <v>      -0.05000000      -0.18333333       0.01666667 </v>
   <v>      -0.15000000      -0.15000000       0.01666667 </v>
   <v>      -0.11666667      -0.15000000       0.01666667 </v>
   <v>      -0.08333333      -0.15000000       0.01666667 </v>
   <v>      -0.05000000      -0.15000000       0.01666667 </v>
   <v>      -0.11666667      -0.11666667       0.01666667 </v>
   <v>      -0.08333333      -0.11666667       0.01666667 </v>
   <v>      -0.05000000      -0.11666667       0.01666667 </v>
   <v>      -0.08333333      -0.08333333       0.01666667 </v>
   <v>      -0.05000000      -0.08333333       0.01666667 </v>
   <v>      -0.05000000      -0.05000000       0.01666667 </v>
   <v>       0.05000000       0.05000000       0.05000000 </v>
   <v>       0.08333333       0.05000000       0.05000000 </v>
   <v>       0.11666667       0.05000000       0.05000000 </v>
   <v>       0.15000000       0.05000000       0.05000000 </v>
   <v>       0.18333333       0.05000000       0.05000000 </v>
   <v>       0.21666667       0.05000000       0.05000000 </v>
   <v>       0.25000000       0.05000000       0.05000000 </v>
   <v>       0.28333333       0.05000000       0.05000000 </v>
   <v>       0.31666667       0.05000000       0.05000000 </v>
   <v>       0.35000000       0.05000000       0.05000000 </v>
   <v>       0.38333333       0.05000000       0.05000000 </v>
   <v>       0.41666667       0.05000000       0.05000000 </v>
   <v>       0.45000000       0.05000000       0.05000000 </v>
   <v>       0.48333333       0.05000000       0.05000000 </v>
   <v>      -0.48333333       0.05000000       0.05000000 </v>
   <v>      -0.45000000       0.05000000       0.05000000 </v>
   <v>      -0.41666667       0.05000000       0.05000000 </v>
   <v>      -0.38333333       0.05000000       0.05000000 </v>
   <v>      -0.35000000       0.05000000       0.05000000 </v>
   <v>      -0.31666667       0.05000000       0.05000000 </v>
   <v>      -0.28333333       0.05000000       0.05000000 </v>
   <v>      -0.25000000       0.05000000       0.05000000 </v>
   <v>      -0.21666667       0.05000000       0.05000000 </v>
   <v>      -0.18333333       0.05000000       0.05000000 </v>
   <v>      -0.15000000       0.05000000       0.05000000 </v>
   <v>      -0.11666667       0.05000000       0.05000000 </v>
   <v>      -0.08333333       0.05000000       0.05000000 </v>
   <v>      -0.05000000       0.05000000       0.05000000 </v>
   <v>       0.08333333       0.08333333       0.05000000 </v>
   <v>       0.11666667       0.08333333       0.05000000 </v>
   <v>       0.15000000       0.08333333       0.05000000 </v>
   <v>       0.18333333       0.08333333       0.05000000 </v>
   <v>       0.21666667       0.08333333       0.05000000 </v>
   <v>       0.25000000       0.08333333       0.05000000 </v>
   <v>       0.28333333       0.08333333       0.05000000 </v>
   <v>       0.31666667       0.08333333       0.05000000 </v>
   <v>       0.35000000       0.08333333       0.05000000 </v>
   <v>       0.38333333       0.08333333       0.05000000 </v>
   <v>       0.41666667       0.08333333       0.05000000 </v>
   <v>       0.45000000       0.08333333       0.05000000 </v>
   <v>       0.48333333       0.08333333       0.05000000 </v>
   <v>      -0.48333333       0.08333333       0.05000000 </v>
   <v>      -0.45000000       0.08333333       0.05000000 </v>
   <v>      -0.41666667       0.08333333       0.05000000 </v>
   <v>      -0.38333333       0.08333333       0.05000000 </v>
   <v>      -0.35000000       0.08333333       0.05000000 </v>
   <v>      -0.31666667       0.08333333       0.05000000 </v>
   <v>      -0.28333333       0.08333333       0.05000000 </v>
   <v>      -0.25000000       0.08333333       0.05000000 </v>
   <v>      -0.21666667       0.08333333       0.05000000 </v>
   <v>      -0.18333333       0.08333333       0.05000000 </v>
   <v>      -0.15000000       0.08333333       0.05000000 </v>
   <v>      -0.11666667       0.08333333       0.05000000 </v>
   <v>      -0.08333333       0.08333333       0.05000000 </v>
   <v>      -0.05000000       0.08333333       0.05000000 </v>
   <v>       0.11666667       0.11666667       0.05000000 </v>
   <v>       0.15000000       0.11666667       0.05000000 </v>
   <v>       0.18333333       0.11666667       0.05000000 </v>
   <v>       0.21666667       0.11666667       0.05000000 </v>
   <v>       0.25000000       0.11666667       0.05000000 </v>
   <v>       0.28333333       0.11666667       0.05000000 </v>
   <v>       0.31666667       0.11666667       0.05000000 </v>
   <v>       0.35000000       0.11666667       0.05000000 </v>
   <v>       0.38333333       0.11666667       0.05000000 </v>
   <v>       0.41666667       0.11666667       0.05000000 </v>
   <v>       0.45000000       0.11666667       0.05000000 </v>
   <v>       0.48333333       0.11666667       0.05000000 </v>
   <v>      -0.48333333       0.11666667       0.05000000 </v>
   <v>      -0.45000000       0.11666667       0.05000000 </v>
   <v>      -0.41666667       0.11666667       0.05000000 </v>
   <v>      -0.38333333       0.11666667       0.05000000 </v>
   <v>      -0.35000000       0.11666667       0.05000000 </v>
   <v>      -0.31666667       0.11666667       0.05000000 </v>
   <v>      -0.28333333       0.11666667       0.05000000 </v>
   <v>      -0.25000000       0.11666667       0.05000000 </v>
   <v>      -0.21666667       0.11666667       0.05000000 </v>
   <v>      -0.18333333       0.11666667       0.05000000 </v>
   <v>      -0.15000000       0.11666667       0.05000000 </v>
   <v>      -0.11666667       0.11666667       0.05000000 </v>
   <v>      -0.08333333       0.11666667       0.05000000 </v>
   <v>      -0.05000000       0.11666667       0.05000000 </v>
   <v>       0.15000000       0.15000000       0.05000000 </v>
   <v>       0.18333333       0.15000000       0.05000000 </v>
   <v>       0.21666667       0.15000000       0.05000000 </v>
   <v>       0.25000000       0.15000000       0.05000000 </v>
   <v>       0.28333333       0.15000000       0.05000000 </v>
   <v>       0.31666667       0.15000000       0.05000000 </v>
   <v>       0.35000000       0.15000000       0.05000000 </v>
   <v>       0.38333333       0.15000000       0.05000000 </v>
   <v>       0.41666667       0.15000000       0.05000000 </v>
   <v>       0.45000000       0.15000000       0.05000000 </v>
   <v>       0.48333333       0.15000000       0.05000000 </v>
   <v>      -0.48333333       0.15000000       0.05000000 </v>
   <v>      -0.45000000       0.15000000       0.05000000 </v>
   <v>      -0.41666667       0.15000000       0.05000000 </v>
   <v>      -0.38333333       0.15000000       0.05000000 </v>
   <v>      -0.35000000       0.15000000       0.05000000 </v>
   <v>      -0.31666667       0.15000000       0.05000000 </v>
   <v>      -0.28333333       0.15000000       0.05000000 </v>
   <v>      -0.25000000       0.15000000       0.05000000 </v>
   <v>      -0.21666667       0.15000000       0.05000000 </v>
   <v>      -0.18333333       0.15000000       0.05000000 </v>
   <v>      -0.15000000       0.15000000       0.05000000 </v>
   <v>      -0.11666667       0.15000000       0.05000000 </v>
   <v>      -0.08333333       0.15000000       0.05000000 </v>
   <v>      -0.05000000       0.15000000       0.05000000 </v>
   <v>       0.18333333       0.18333333       0.05000000 </v>
   <v>       0.21666667       0.18333333       0.05000000 </v>
   <v>       0.25000000       0.18333333       0.05000000 </v>
   <v>       0.28333333       0.18333333       0.05000000 </v>
   <v>       0.31666667       0.18333333       0.05000000 </v>
   <v>       0.35000000       0.18333333       0.05000000 </v>
   <v>       0.38333333       0.18333333       0.05000000 </v>
   <v>       0.41666667       0.18333333       0.05000000 </v>
   <v>       0.45000000       0.18333333       0.05000000 </v>
   <v>       0.48333333       0.18333333       0.05000000 </v>
   <v>      -0.48333333       0.18333333       0.05000000 </v>
   <v>      -0.45000000       0.18333333       0.05000000 </v>
   <v>      -0.41666667       0.18333333       0.05000000 </v>
   <v>      -0.38333333       0.18333333       0.05000000 </v>
   <v>      -0.35000000       0.18333333       0.05000000 </v>
   <v>      -0.31666667       0.18333333       0.05000000 </v>
   <v>      -0.28333333       0.18333333       0.05000000 </v>
   <v>      -0.25000000       0.18333333       0.05000000 </v>
   <v>      -0.21666667       0.18333333       0.05000000 </v>
   <v>      -0.18333333       0.18333333       0.05000000 </v>
   <v>      -0.15000000       0.18333333       0.05000000 </v>
   <v>      -0.11666667       0.18333333       0.05000000 </v>
   <v>      -0.08333333       0.18333333       0.05000000 </v>
   <v>      -0.05000000       0.18333333       0.05000000 </v>
   <v>       0.21666667       0.21666667       0.05000000 </v>
   <v>       0.25000000       0.21666667       0.05000000 </v>
   <v>       0.28333333       0.21666667       0.05000000 </v>
   <v>       0.31666667       0.21666667       0.05000000 </v>
   <v>       0.35000000       0.21666667       0.05000000 </v>
   <v>       0.38333333       0.21666667       0.05000000 </v>
   <v>       0.41666667       0.21666667       0.05000000 </v>
   <v>       0.45000000       0.21666667       0.05000000 </v>
   <v>       0.48333333       0.21666667       0.05000000 </v>
   <v>      -0.48333333       0.21666667       0.05000000 </v>
   <v>      -0.45000000       0.21666667       0.05000000 </v>
   <v>      -0.41666667       0.21666667       0.05000000 </v>
   <v>      -0.38333333       0.21666667       0.05000000 </v>
   <v>      -0.35000000       0.21666667       0.05000000 </v>
   <v>      -0.31666667       0.21666667       0.05000000 </v>
   <v>      -0.28333333       0.21666667       0.05000000 </v>
   <v>      -0.25000000       0.21666667       0.05000000 </v>
   <v>      -0.21666667       0.21666667       0.05000000 </v>
   <v>      -0.18333333       0.21666667       0.05000000 </v>
   <v>      -0.15000000       0.21666667       0.05000000 </v>
   <v>      -0.11666667       0.21666667       0.05000000 </v>
   <v>      -0.08333333       0.21666667       0.05000000 </v>
   <v>      -0.05000000       0.21666667       0.05000000 </v>
   <v>       0.25000000       0.25000000       0.05000000 </v>
   <v>       0.28333333       0.25000000       0.05000000 </v>
   <v>       0.31666667       0.25000000       0.05000000 </v>
   <v>       0.35000000       0.25000000       0.05000000 </v>
   <v>       0.38333333       0.25000000       0.05000000 </v>
   <v>       0.41666667       0.25000000       0.05000000 </v>
   <v>       0.45000000       0.25000000       0.05000000 </v>
   <v>       0.48333333       0.25000000       0.05000000 </v>
   <v>      -0.48333333       0.25000000       0.05000000 </v>
   <v>      -0.45000000       0.25000000       0.05000000 </v>
   <v>      -0.41666667       0.25000000       0.05000000 </v>
   <v>      -0.38333333       0.25000000       0.05000000 </v>
   <v>      -0.35000000       0.25000000       0.05000000 </v>
   <v>      -0.31666667       0.25000000       0.05000000 </v>
   <v>      -0.28333333       0.25000000       0.05000000 </v>
   <v>      -0.25000000       0.25000000       0.05000000 </v>
   <v>      -0.21666667       0.25000000       0.05000000 </v>
   <v>      -0.18333333       0.25000000       0.05000000 </v>
   <v>      -0.15000000       0.25000000       0.05000000 </v>
   <v>      -0.11666667       0.25000000       0.05000000 </v>
   <v>      -0.08333333       0.25000000       0.05000000 </v>
   <v>      -0.05000000       0.25000000       0.05000000 </v>
   <v>       0.28333333       0.28333333       0.05000000 </v>
   <v>       0.31666667       0.28333333       0.05000000 </v>
   <v>       0.35000000       0.28333333       0.05000000 </v>
   <v>       0.38333333       0.28333333       0.05000000 </v>
   <v>       0.41666667       0.28333333       0.05000000 </v>
   <v>       0.45000000       0.28333333       0.05000000 </v>
   <v>       0.48333333       0.28333333       0.05000000 </v>
   <v>      -0.48333333       0.28333333       0.05000000 </v>
   <v>      -0.45000000       0.28333333       0.05000000 </v>
   <v>      -0.41666667       0.28333333       0.05000000 </v>
   <v>      -0.38333333       0.28333333       0.05000000 </v>
   <v>      -0.35000000       0.28333333       0.05000000 </v>
   <v>      -0.31666667       0.28333333       0.05000000 </v>
   <v>      -0.28333333       0.28333333       0.05000000 </v>
   <v>      -0.25000000       0.28333333       0.05000000 </v>
   <v>      -0.21666667       0.28333333       0.05000000 </v>
   <v>      -0.18333333       0.28333333       0.05000000 </v>
   <v>      -0.15000000       0.28333333       0.05000000 </v>
   <v>      -0.11666667       0.28333333       0.05000000 </v>
   <v>      -0.08333333       0.28333333       0.05000000 </v>
   <v>      -0.05000000       0.28333333       0.05000000 </v>
   <v>       0.31666667       0.31666667       0.05000000 </v>
   <v>       0.35000000       0.31666667       0.05000000 </v>
   <v>       0.38333333       0.31666667       0.05000000 </v>
   <v>       0.41666667       0.31666667       0.05000000 </v>
   <v>       0.45000000       0.31666667       0.05000000 </v>
   <v>       0.48333333       0.31666667       0.05000000 </v>
   <v>      -0.48333333       0.31666667       0.05000000 </v>
   <v>      -0.45000000       0.31666667       0.05000000 </v>
   <v>      -0.41666667       0.31666667       0.05000000 </v>
   <v>      -0.38333333       0.31666667       0.05000000 </v>
   <v>      -0.35000000       0.31666667       0.05000000 </v>
   <v>      -0.31666667       0.31666667       0.05000000 </v>
   <v>      -0.28333333       0.31666667       0.05000000 </v>
   <v>      -0.25000000       0.31666667       0.05000000 </v>
   <v>      -0.21666667       0.31666667       0.05000000 </v>
   <v>      -0.18333333       0.31666667       0.05000000 </v>
   <v>      -0.15000000       0.31666667       0.05000000 </v>
   <v>      -0.11666667       0.31666667       0.05000000 </v>
   <v>      -0.08333333       0.31666667       0.05000000 </v>
   <v>      -0.05000000       0.31666667       0.05000000 </v>
   <v>       0.35000000       0.35000000       0.05000000 </v>
   <v>       0.38333333       0.35000000       0.05000000 </v>
   <v>       0.41666667       0.35000000       0.05000000 </v>
   <v>       0.45000000       0.35000000       0.05000000 </v>
   <v>       0.48333333       0.35000000       0.05000000 </v>
   <v>      -0.48333333       0.35000000       0.05000000 </v>
   <v>      -0.45000000       0.35000000       0.05000000 </v>
   <v>      -0.41666667       0.35000000       0.05000000 </v>
   <v>      -0.38333333       0.35000000       0.05000000 </v>
   <v>      -0.35000000       0.35000000       0.05000000 </v>
   <v>      -0.31666667       0.35000000       0.05000000 </v>
   <v>      -0.28333333       0.35000000       0.05000000 </v>
   <v>      -0.25000000       0.35000000       0.05000000 </v>
   <v>      -0.21666667       0.35000000       0.05000000 </v>
   <v>      -0.18333333       0.35000000       0.05000000 </v>
   <v>      -0.15000000       0.35000000       0.05000000 </v>
   <v>      -0.11666667       0.35000000       0.05000000 </v>
   <v>      -0.08333333       0.35000000       0.05000000 </v>
   <v>      -0.05000000       0.35000000       0.05000000 </v>
   <v>       0.38333333       0.38333333       0.05000000 </v>
   <v>       0.41666667       0.38333333       0.05000000 </v>
   <v>       0.45000000       0.38333333       0.05000000 </v>
   <v>       0.48333333       0.38333333       0.05000000 </v>
   <v>      -0.48333333       0.38333333       0.05000000 </v>
   <v>      -0.45000000       0.38333333       0.05000000 </v>
   <v>      -0.41666667       0.38333333       0.05000000 </v>
   <v>      -0.38333333       0.38333333       0.05000000 </v>
   <v>      -0.35000000       0.38333333       0.05000000 </v>
   <v>      -0.31666667       0.38333333       0.05000000 </v>
   <v>      -0.28333333       0.38333333       0.05000000 </v>
   <v>      -0.25000000       0.38333333       0.05000000 </v>
   <v>      -0.21666667       0.38333333       0.05000000 </v>
   <v>      -0.18333333       0.38333333       0.05000000 </v>
   <v>      -0.15000000       0.38333333       0.05000000 </v>
   <v>      -0.11666667       0.38333333       0.05000000 </v>
   <v>      -0.08333333       0.38333333       0.05000000 </v>
   <v>      -0.05000000       0.38333333       0.05000000 </v>
   <v>       0.41666667       0.41666667       0.05000000 </v>
   <v>       0.45000000       0.41666667       0.05000000 </v>
   <v>       0.48333333       0.41666667       0.05000000 </v>
   <v>      -0.48333333       0.41666667       0.05000000 </v>
   <v>      -0.45000000       0.41666667       0.05000000 </v>
   <v>      -0.41666667       0.41666667       0.05000000 </v>
   <v>      -0.38333333       0.41666667       0.05000000 </v>
   <v>      -0.35000000       0.41666667       0.05000000 </v>
   <v>      -0.31666667       0.41666667       0.05000000 </v>
   <v>      -0.28333333       0.41666667       0.05000000 </v>
   <v>      -0.25000000       0.41666667       0.05000000 </v>
   <v>      -0.21666667       0.41666667       0.05000000 </v>
   <v>      -0.18333333       0.41666667       0.05000000 </v>
   <v>      -0.15000000       0.41666667       0.05000000 </v>
   <v>      -0.11666667       0.41666667       0.05000000 </v>
   <v>      -0.08333333       0.41666667       0.05000000 </v>
   <v>      -0.05000000       0.41666667       0.05000000 </v>
   <v>       0.45000000       0.45000000       0.05000000 </v>
   <v>       0.48333333       0.45000000       0.05000000 </v>
   <v>      -0.48333333       0.45000000       0.05000000 </v>
   <v>      -0.45000000       0.45000000       0.05000000 </v>
   <v>      -0.41666667       0.45000000       0.05000000 </v>
   <v>      -0.38333333       0.45000000       0.05000000 </v>
   <v>      -0.35000000       0.45000000       0.05000000 </v>
   <v>      -0.31666667       0.45000000       0.05000000 </v>
   <v>      -0.28333333       0.45000000       0.05000000 </v>
   <v>      -0.25000000       0.45000000       0.05000000 </v>
   <v>      -0.21666667       0.45000000       0.05000000 </v>
   <v>      -0.18333333       0.45000000       0.05000000 </v>
   <v>      -0.15000000       0.45000000       0.05000000 </v>
   <v>      -0.11666667       0.45000000       0.05000000 </v>
   <v>      -0.08333333       0.45000000       0.05000000 </v>
   <v>      -0.05000000       0.45000000       0.05000000 </v>
   <v>       0.48333333       0.48333333       0.05000000 </v>
   <v>      -0.48333333       0.48333333       0.05000000 </v>
   <v>      -0.45000000       0.48333333       0.05000000 </v>
   <v>      -0.41666667       0.48333333       0.05000000 </v>
   <v>      -0.38333333       0.48333333       0.05000000 </v>
   <v>      -0.35000000       0.48333333       0.05000000 </v>
   <v>      -0.31666667       0.48333333       0.05000000 </v>
   <v>      -0.28333333       0.48333333       0.05000000 </v>
   <v>      -0.25000000       0.48333333       0.05000000 </v>
   <v>      -0.21666667       0.48333333       0.05000000 </v>
   <v>      -0.18333333       0.48333333       0.05000000 </v>
   <v>      -0.15000000       0.48333333       0.05000000 </v>
   <v>      -0.11666667       0.48333333       0.05000000 </v>
   <v>      -0.08333333       0.48333333       0.05000000 </v>
   <v>      -0.05000000       0.48333333       0.05000000 </v>
   <v>      -0.48333333      -0.48333333       0.05000000 </v>
   <v>      -0.45000000      -0.48333333       0.05000000 </v>
   <v>      -0.41666667      -0.48333333       0.05000000 </v>
   <v>      -0.38333333      -0.48333333       0.05000000 </v>
   <v>      -0.35000000      -0.48333333       0.05000000 </v>
   <v>      -0.31666667      -0.48333333       0.05000000 </v>
   <v>      -0.28333333      -0.48333333       0.05000000 </v>
   <v>      -0.25000000      -0.48333333       0.05000000 </v>
   <v>      -0.21666667      -0.48333333       0.05000000 </v>
   <v>      -0.18333333      -0.48333333       0.05000000 </v>
   <v>      -0.15000000      -0.48333333       0.05000000 </v>
   <v>      -0.11666667      -0.48333333       0.05000000 </v>
   <v>      -0.08333333      -0.48333333       0.05000000 </v>
   <v>      -0.45000000      -0.45000000       0.05000000 </v>
   <v>      -0.41666667      -0.45000000       0.05000000 </v>
   <v>      -0.38333333      -0.45000000       0.05000000 </v>
   <v>      -0.35000000      -0.45000000       0.05000000 </v>
   <v>      -0.31666667      -0.45000000       0.05000000 </v>
   <v>      -0.28333333      -0.45000000       0.05000000 </v>
   <v>      -0.25000000      -0.45000000       0.05000000 </v>
   <v>      -0.21666667      -0.45000000       0.05000000 </v>
   <v>      -0.18333333      -0.45000000       0.05000000 </v>
   <v>      -0.15000000      -0.45000000       0.05000000 </v>
   <v>      -0.11666667      -0.45000000       0.05000000 </v>
   <v>      -0.08333333      -0.45000000       0.05000000 </v>
   <v>      -0.41666667      -0.41666667       0.05000000 </v>
   <v>      -0.38333333      -0.41666667       0.05000000 </v>
   <v>      -0.35000000      -0.41666667       0.05000000 </v>
   <v>      -0.31666667      -0.41666667       0.05000000 </v>
   <v>      -0.28333333      -0.41666667       0.05000000 </v>
   <v>      -0.25000000      -0.41666667       0.05000000 </v>
   <v>      -0.21666667      -0.41666667       0.05000000 </v>
   <v>      -0.18333333      -0.41666667       0.05000000 </v>
   <v>      -0.15000000      -0.41666667       0.05000000 </v>
   <v>      -0.11666667      -0.41666667       0.05000000 </v>
   <v>      -0.08333333      -0.41666667       0.05000000 </v>
   <v>      -0.38333333      -0.38333333       0.05000000 </v>
   <v>      -0.35000000      -0.38333333       0.05000000 </v>
   <v>      -0.31666667      -0.38333333       0.05000000 </v>
   <v>      -0.28333333      -0.38333333       0.05000000 </v>
   <v>      -0.25000000      -0.38333333       0.05000000 </v>
   <v>      -0.21666667      -0.38333333       0.05000000 </v>
   <v>      -0.18333333      -0.38333333       0.05000000 </v>
   <v>      -0.15000000      -0.38333333       0.05000000 </v>
   <v>      -0.11666667      -0.38333333       0.05000000 </v>
   <v>      -0.08333333      -0.38333333       0.05000000 </v>
   <v>      -0.35000000      -0.35000000       0.05000000 </v>
   <v>      -0.31666667      -0.35000000       0.05000000 </v>
   <v>      -0.28333333      -0.35000000       0.05000000 </v>
   <v>      -0.25000000      -0.35000000       0.05000000 </v>
   <v>      -0.21666667      -0.35000000       0.05000000 </v>
   <v>      -0.18333333      -0.35000000       0.05000000 </v>
   <v>      -0.15000000      -0.35000000       0.05000000 </v>
   <v>      -0.11666667      -0.35000000       0.05000000 </v>
   <v>      -0.08333333      -0.35000000       0.05000000 </v>
   <v>      -0.31666667      -0.31666667       0.05000000 </v>
   <v>      -0.28333333      -0.31666667       0.05000000 </v>
   <v>      -0.25000000      -0.31666667       0.05000000 </v>
   <v>      -0.21666667      -0.31666667       0.05000000 </v>
   <v>      -0.18333333      -0.31666667       0.05000000 </v>
   <v>      -0.15000000      -0.31666667       0.05000000 </v>
   <v>      -0.11666667      -0.31666667       0.05000000 </v>
   <v>      -0.08333333      -0.31666667       0.05000000 </v>
   <v>      -0.28333333      -0.28333333       0.05000000 </v>
   <v>      -0.25000000      -0.28333333       0.05000000 </v>
   <v>      -0.21666667      -0.28333333       0.05000000 </v>
   <v>      -0.18333333      -0.28333333       0.05000000 </v>
   <v>      -0.15000000      -0.28333333       0.05000000 </v>
   <v>      -0.11666667      -0.28333333       0.05000000 </v>
   <v>      -0.08333333      -0.28333333       0.05000000 </v>
   <v>      -0.25000000      -0.25000000       0.05000000 </v>
   <v>      -0.21666667      -0.25000000       0.05000000 </v>
   <v>      -0.18333333      -0.25000000       0.05000000 </v>
   <v>      -0.15000000      -0.25000000       0.05000000 </v>
   <v>      -0.11666667      -0.25000000       0.05000000 </v>
   <v>      -0.08333333      -0.25000000       0.05000000 </v>
   <v>      -0.21666667      -0.21666667       0.05000000 </v>
   <v>      -0.18333333      -0.21666667       0.05000000 </v>
   <v>      -0.15000000      -0.21666667       0.05000000 </v>
   <v>      -0.11666667      -0.21666667       0.05000000 </v>
   <v>      -0.08333333      -0.21666667       0.05000000 </v>
   <v>      -0.18333333      -0.18333333       0.05000000 </v>
   <v>      -0.15000000      -0.18333333       0.05000000 </v>
   <v>      -0.11666667      -0.18333333       0.05000000 </v>
   <v>      -0.08333333      -0.18333333       0.05000000 </v>
   <v>      -0.15000000      -0.15000000       0.05000000 </v>
   <v>      -0.11666667      -0.15000000       0.05000000 </v>
   <v>      -0.08333333      -0.15000000       0.05000000 </v>
   <v>      -0.11666667      -0.11666667       0.05000000 </v>
   <v>      -0.08333333      -0.11666667       0.05000000 </v>
   <v>      -0.08333333      -0.08333333       0.05000000 </v>
   <v>       0.08333333       0.08333333       0.08333333 </v>
   <v>       0.11666667       0.08333333       0.08333333 </v>
   <v>       0.15000000       0.08333333       0.08333333 </v>
   <v>       0.18333333       0.08333333       0.08333333 </v>
   <v>       0.21666667       0.08333333       0.08333333 </v>
   <v>       0.25000000       0.08333333       0.08333333 </v>
   <v>       0.28333333       0.08333333       0.08333333 </v>
   <v>       0.31666667       0.08333333       0.08333333 </v>
   <v>       0.35000000       0.08333333       0.08333333 </v>
   <v>       0.38333333       0.08333333       0.08333333 </v>
   <v>       0.41666667       0.08333333       0.08333333 </v>
   <v>       0.45000000       0.08333333       0.08333333 </v>
   <v>       0.48333333       0.08333333       0.08333333 </v>
   <v>      -0.48333333       0.08333333       0.08333333 </v>
   <v>      -0.45000000       0.08333333       0.08333333 </v>
   <v>      -0.41666667       0.08333333       0.08333333 </v>
   <v>      -0.38333333       0.08333333       0.08333333 </v>
   <v>      -0.35000000       0.08333333       0.08333333 </v>
   <v>      -0.31666667       0.08333333       0.08333333 </v>
   <v>      -0.28333333       0.08333333       0.08333333 </v>
   <v>      -0.25000000       0.08333333       0.08333333 </v>
   <v>      -0.21666667       0.08333333       0.08333333 </v>
   <v>      -0.18333333       0.08333333       0.08333333 </v>
   <v>      -0.15000000       0.08333333       0.08333333 </v>
   <v>      -0.11666667       0.08333333       0.08333333 </v>
   <v>      -0.08333333       0.08333333       0.08333333 </v>
   <v>       0.11666667       0.11666667       0.08333333 </v>
   <v>       0.15000000       0.11666667       0.08333333 </v>
   <v>       0.18333333       0.11666667       0.08333333 </v>
   <v>       0.21666667       0.11666667       0.08333333 </v>
   <v>       0.25000000       0.11666667       0.08333333 </v>
   <v>       0.28333333       0.11666667       0.08333333 </v>
   <v>       0.31666667       0.11666667       0.08333333 </v>
   <v>       0.35000000       0.11666667       0.08333333 </v>
   <v>       0.38333333       0.11666667       0.08333333 </v>
   <v>       0.41666667       0.11666667       0.08333333 </v>
   <v>       0.45000000       0.11666667       0.08333333 </v>
   <v>       0.48333333       0.11666667       0.08333333 </v>
   <v>      -0.48333333       0.11666667       0.08333333 </v>
   <v>      -0.45000000       0.11666667       0.08333333 </v>
   <v>      -0.41666667       0.11666667       0.08333333 </v>
   <v>      -0.38333333       0.11666667       0.08333333 </v>
   <v>      -0.35000000       0.11666667       0.08333333 </v>
   <v>      -0.31666667       0.11666667       0.08333333 </v>
   <v>      -0.28333333       0.11666667       0.08333333 </v>
   <v>      -0.25000000       0.11666667       0.08333333 </v>
   <v>      -0.21666667       0.11666667       0.08333333 </v>
   <v>      -0.18333333       0.11666667       0.08333333 </v>
   <v>      -0.15000000       0.11666667       0.08333333 </v>
   <v>      -0.11666667       0.11666667       0.08333333 </v>
   <v>      -0.08333333       0.11666667       0.08333333 </v>
   <v>       0.15000000       0.15000000       0.08333333 </v>
   <v>       0.18333333       0.15000000       0.08333333 </v>
   <v>       0.21666667       0.15000000       0.08333333 </v>
   <v>       0.25000000       0.15000000       0.08333333 </v>
   <v>       0.28333333       0.15000000       0.08333333 </v>
   <v>       0.31666667       0.15000000       0.08333333 </v>
   <v>       0.35000000       0.15000000       0.08333333 </v>
   <v>       0.38333333       0.15000000       0.08333333 </v>
   <v>       0.41666667       0.15000000       0.08333333 </v>
   <v>       0.45000000       0.15000000       0.08333333 </v>
   <v>       0.48333333       0.15000000       0.08333333 </v>
   <v>      -0.48333333       0.15000000       0.08333333 </v>
   <v>      -0.45000000       0.15000000       0.08333333 </v>
   <v>      -0.41666667       0.15000000       0.08333333 </v>
   <v>      -0.38333333       0.15000000       0.08333333 </v>
   <v>      -0.35000000       0.15000000       0.08333333 </v>
   <v>      -0.31666667       0.15000000       0.08333333 </v>
   <v>      -0.28333333       0.15000000       0.08333333 </v>
   <v>      -0.25000000       0.15000000       0.08333333 </v>
   <v>      -0.21666667       0.15000000       0.08333333 </v>
   <v>      -0.18333333       0.15000000       0.08333333 </v>
   <v>      -0.15000000       0.15000000       0.08333333 </v>
   <v>      -0.11666667       0.15000000       0.08333333 </v>
   <v>      -0.08333333       0.15000000       0.08333333 </v>
   <v>       0.18333333       0.18333333       0.08333333 </v>
   <v>       0.21666667       0.18333333       0.08333333 </v>
   <v>       0.25000000       0.18333333       0.08333333 </v>
   <v>       0.28333333       0.18333333       0.08333333 </v>
   <v>       0.31666667       0.18333333       0.08333333 </v>
   <v>       0.35000000       0.18333333       0.08333333 </v>
   <v>       0.38333333       0.18333333       0.08333333 </v>
   <v>       0.41666667       0.18333333       0.08333333 </v>
   <v>       0.45000000       0.18333333       0.08333333 </v>
   <v>       0.48333333       0.18333333       0.08333333 </v>
   <v>      -0.48333333       0.18333333       0.08333333 </v>
   <v>      -0.45000000       0.18333333       0.08333333 </v>
   <v>      -0.41666667       0.18333333       0.08333333 </v>
   <v>      -0.38333333       0.18333333       0.08333333 </v>
   <v>      -0.35000000       0.18333333       0.08333333 </v>
   <v>      -0.31666667       0.18333333       0.08333333 </v>
   <v>      -0.28333333       0.18333333       0.08333333 </v>
   <v>      -0.25000000       0.18333333       0.08333333 </v>
   <v>      -0.21666667       0.18333333       0.08333333 </v>
   <v>      -0.18333333       0.18333333       0.08333333 </v>
   <v>      -0.15000000       0.18333333       0.08333333 </v>
   <v>      -0.11666667       0.18333333       0.08333333 </v>
   <v>      -0.08333333       0.18333333       0.08333333 </v>
   <v>       0.21666667       0.21666667       0.08333333 </v>
   <v>       0.25000000       0.21666667       0.08333333 </v>
   <v>       0.28333333       0.21666667       0.08333333 </v>
   <v>       0.31666667       0.21666667       0.08333333 </v>
   <v>       0.35000000       0.21666667       0.08333333 </v>
   <v>       0.38333333       0.21666667       0.08333333 </v>
   <v>       0.41666667       0.21666667       0.08333333 </v>
   <v>       0.45000000       0.21666667       0.08333333 </v>
   <v>       0.48333333       0.21666667       0.08333333 </v>
   <v>      -0.48333333       0.21666667       0.08333333 </v>
   <v>      -0.45000000       0.21666667       0.08333333 </v>
   <v>      -0.41666667       0.21666667       0.08333333 </v>
   <v>      -0.38333333       0.21666667       0.08333333 </v>
   <v>      -0.35000000       0.21666667       0.08333333 </v>
   <v>      -0.31666667       0.21666667       0.08333333 </v>
   <v>      -0.28333333       0.21666667       0.08333333 </v>
   <v>      -0.25000000       0.21666667       0.08333333 </v>
   <v>      -0.21666667       0.21666667       0.08333333 </v>
   <v>      -0.18333333       0.21666667       0.08333333 </v>
   <v>      -0.15000000       0.21666667       0.08333333 </v>
   <v>      -0.11666667       0.21666667       0.08333333 </v>
   <v>      -0.08333333       0.21666667       0.08333333 </v>
   <v>       0.25000000       0.25000000       0.08333333 </v>
   <v>       0.28333333       0.25000000       0.08333333 </v>
   <v>       0.31666667       0.25000000       0.08333333 </v>
   <v>       0.35000000       0.25000000       0.08333333 </v>
   <v>       0.38333333       0.25000000       0.08333333 </v>
   <v>       0.41666667       0.25000000       0.08333333 </v>
   <v>       0.45000000       0.25000000       0.08333333 </v>
   <v>       0.48333333       0.25000000       0.08333333 </v>
   <v>      -0.48333333       0.25000000       0.08333333 </v>
   <v>      -0.45000000       0.25000000       0.08333333 </v>
   <v>      -0.41666667       0.25000000       0.08333333 </v>
   <v>      -0.38333333       0.25000000       0.08333333 </v>
   <v>      -0.35000000       0.25000000       0.08333333 </v>
   <v>      -0.31666667       0.25000000       0.08333333 </v>
   <v>      -0.28333333       0.25000000       0.08333333 </v>
   <v>      -0.25000000       0.25000000       0.08333333 </v>
   <v>      -0.21666667       0.25000000       0.08333333 </v>
   <v>      -0.18333333       0.25000000       0.08333333 </v>
   <v>      -0.15000000       0.25000000       0.08333333 </v>
   <v>      -0.11666667       0.25000000       0.08333333 </v>
   <v>      -0.08333333       0.25000000       0.08333333 </v>
   <v>       0.28333333       0.28333333       0.08333333 </v>
   <v>       0.31666667       0.28333333       0.08333333 </v>
   <v>       0.35000000       0.28333333       0.08333333 </v>
   <v>       0.38333333       0.28333333       0.08333333 </v>
   <v>       0.41666667       0.28333333       0.08333333 </v>
   <v>       0.45000000       0.28333333       0.08333333 </v>
   <v>       0.48333333       0.28333333       0.08333333 </v>
   <v>      -0.48333333       0.28333333       0.08333333 </v>
   <v>      -0.45000000       0.28333333       0.08333333 </v>
   <v>      -0.41666667       0.28333333       0.08333333 </v>
   <v>      -0.38333333       0.28333333       0.08333333 </v>
   <v>      -0.35000000       0.28333333       0.08333333 </v>
   <v>      -0.31666667       0.28333333       0.08333333 </v>
   <v>      -0.28333333       0.28333333       0.08333333 </v>
   <v>      -0.25000000       0.28333333       0.08333333 </v>
   <v>      -0.21666667       0.28333333       0.08333333 </v>
   <v>      -0.18333333       0.28333333       0.08333333 </v>
   <v>      -0.15000000       0.28333333       0.08333333 </v>
   <v>      -0.11666667       0.28333333       0.08333333 </v>
   <v>      -0.08333333       0.28333333       0.08333333 </v>
   <v>       0.31666667       0.31666667       0.08333333 </v>
   <v>       0.35000000       0.31666667       0.08333333 </v>
   <v>       0.38333333       0.31666667       0.08333333 </v>
   <v>       0.41666667       0.31666667       0.08333333 </v>
   <v>       0.45000000       0.31666667       0.08333333 </v>
   <v>       0.48333333       0.31666667       0.08333333 </v>
   <v>      -0.48333333       0.31666667       0.08333333 </v>
   <v>      -0.45000000       0.31666667       0.08333333 </v>
   <v>      -0.41666667       0.31666667       0.08333333 </v>
   <v>      -0.38333333       0.31666667       0.08333333 </v>
   <v>      -0.35000000       0.31666667       0.08333333 </v>
   <v>      -0.31666667       0.31666667       0.08333333 </v>
   <v>      -0.28333333       0.31666667       0.08333333 </v>
   <v>      -0.25000000       0.31666667       0.08333333 </v>
   <v>      -0.21666667       0.31666667       0.08333333 </v>
   <v>      -0.18333333       0.31666667       0.08333333 </v>
   <v>      -0.15000000       0.31666667       0.08333333 </v>
   <v>      -0.11666667       0.31666667       0.08333333 </v>
   <v>      -0.08333333       0.31666667       0.08333333 </v>
   <v>       0.35000000       0.35000000       0.08333333 </v>
   <v>       0.38333333       0.35000000       0.08333333 </v>
   <v>       0.41666667       0.35000000       0.08333333 </v>
   <v>       0.45000000       0.35000000       0.08333333 </v>
   <v>       0.48333333       0.35000000       0.08333333 </v>
   <v>      -0.48333333       0.35000000       0.08333333 </v>
   <v>      -0.45000000       0.35000000       0.08333333 </v>
   <v>      -0.41666667       0.35000000       0.08333333 </v>
   <v>      -0.38333333       0.35000000       0.08333333 </v>
   <v>      -0.35000000       0.35000000       0.08333333 </v>
   <v>      -0.31666667       0.35000000       0.08333333 </v>
   <v>      -0.28333333       0.35000000       0.08333333 </v>
   <v>      -0.25000000       0.35000000       0.08333333 </v>
   <v>      -0.21666667       0.35000000       0.08333333 </v>
   <v>      -0.18333333       0.35000000       0.08333333 </v>
   <v>      -0.15000000       0.35000000       0.08333333 </v>
   <v>      -0.11666667       0.35000000       0.08333333 </v>
   <v>      -0.08333333       0.35000000       0.08333333 </v>
   <v>       0.38333333       0.38333333       0.08333333 </v>
   <v>       0.41666667       0.38333333       0.08333333 </v>
   <v>       0.45000000       0.38333333       0.08333333 </v>
   <v>       0.48333333       0.38333333       0.08333333 </v>
   <v>      -0.48333333       0.38333333       0.08333333 </v>
   <v>      -0.45000000       0.38333333       0.08333333 </v>
   <v>      -0.41666667       0.38333333       0.08333333 </v>
   <v>      -0.38333333       0.38333333       0.08333333 </v>
   <v>      -0.35000000       0.38333333       0.08333333 </v>
   <v>      -0.31666667       0.38333333       0.08333333 </v>
   <v>      -0.28333333       0.38333333       0.08333333 </v>
   <v>      -0.25000000       0.38333333       0.08333333 </v>
   <v>      -0.21666667       0.38333333       0.08333333 </v>
   <v>      -0.18333333       0.38333333       0.08333333 </v>
   <v>      -0.15000000       0.38333333       0.08333333 </v>
   <v>      -0.11666667       0.38333333       0.08333333 </v>
   <v>      -0.08333333       0.38333333       0.08333333 </v>
   <v>       0.41666667       0.41666667       0.08333333 </v>
   <v>       0.45000000       0.41666667       0.08333333 </v>
   <v>       0.48333333       0.41666667       0.08333333 </v>
   <v>      -0.48333333       0.41666667       0.08333333 </v>
   <v>      -0.45000000       0.41666667       0.08333333 </v>
   <v>      -0.41666667       0.41666667       0.08333333 </v>
   <v>      -0.38333333       0.41666667       0.08333333 </v>
   <v>      -0.35000000       0.41666667       0.08333333 </v>
   <v>      -0.31666667       0.41666667       0.08333333 </v>
   <v>      -0.28333333       0.41666667       0.08333333 </v>
   <v>      -0.25000000       0.41666667       0.08333333 </v>
   <v>      -0.21666667       0.41666667       0.08333333 </v>
   <v>      -0.18333333       0.41666667       0.08333333 </v>
   <v>      -0.15000000       0.41666667       0.08333333 </v>
   <v>      -0.11666667       0.41666667       0.08333333 </v>
   <v>      -0.08333333       0.41666667       0.08333333 </v>
   <v>       0.45000000       0.45000000       0.08333333 </v>
   <v>       0.48333333       0.45000000       0.08333333 </v>
   <v>      -0.48333333       0.45000000       0.08333333 </v>
   <v>      -0.45000000       0.45000000       0.08333333 </v>
   <v>      -0.41666667       0.45000000       0.08333333 </v>
   <v>      -0.38333333       0.45000000       0.08333333 </v>
   <v>      -0.35000000       0.45000000       0.08333333 </v>
   <v>      -0.31666667       0.45000000       0.08333333 </v>
   <v>      -0.28333333       0.45000000       0.08333333 </v>
   <v>      -0.25000000       0.45000000       0.08333333 </v>
   <v>      -0.21666667       0.45000000       0.08333333 </v>
   <v>      -0.18333333       0.45000000       0.08333333 </v>
   <v>      -0.15000000       0.45000000       0.08333333 </v>
   <v>      -0.11666667       0.45000000       0.08333333 </v>
   <v>      -0.08333333       0.45000000       0.08333333 </v>
   <v>       0.48333333       0.48333333       0.08333333 </v>
   <v>      -0.48333333       0.48333333       0.08333333 </v>
   <v>      -0.45000000       0.48333333       0.08333333 </v>
   <v>      -0.41666667       0.48333333       0.08333333 </v>
   <v>      -0.38333333       0.48333333       0.08333333 </v>
   <v>      -0.35000000       0.48333333       0.08333333 </v>
   <v>      -0.31666667       0.48333333       0.08333333 </v>
   <v>      -0.28333333       0.48333333       0.08333333 </v>
   <v>      -0.25000000       0.48333333       0.08333333 </v>
   <v>      -0.21666667       0.48333333       0.08333333 </v>
   <v>      -0.18333333       0.48333333       0.08333333 </v>
   <v>      -0.15000000       0.48333333       0.08333333 </v>
   <v>      -0.11666667       0.48333333       0.08333333 </v>
   <v>      -0.08333333       0.48333333       0.08333333 </v>
   <v>      -0.48333333      -0.48333333       0.08333333 </v>
   <v>      -0.45000000      -0.48333333       0.08333333 </v>
   <v>      -0.41666667      -0.48333333       0.08333333 </v>
   <v>      -0.38333333      -0.48333333       0.08333333 </v>
   <v>      -0.35000000      -0.48333333       0.08333333 </v>
   <v>      -0.31666667      -0.48333333       0.08333333 </v>
   <v>      -0.28333333      -0.48333333       0.08333333 </v>
   <v>      -0.25000000      -0.48333333       0.08333333 </v>
   <v>      -0.21666667      -0.48333333       0.08333333 </v>
   <v>      -0.18333333      -0.48333333       0.08333333 </v>
   <v>      -0.15000000      -0.48333333       0.08333333 </v>
   <v>      -0.11666667      -0.48333333       0.08333333 </v>
   <v>      -0.45000000      -0.45000000       0.08333333 </v>
   <v>      -0.41666667      -0.45000000       0.08333333 </v>
   <v>      -0.38333333      -0.45000000       0.08333333 </v>
   <v>      -0.35000000      -0.45000000       0.08333333 </v>
   <v>      -0.31666667      -0.45000000       0.08333333 </v>
   <v>      -0.28333333      -0.45000000       0.08333333 </v>
   <v>      -0.25000000      -0.45000000       0.08333333 </v>
   <v>      -0.21666667      -0.45000000       0.08333333 </v>
   <v>      -0.18333333      -0.45000000       0.08333333 </v>
   <v>      -0.15000000      -0.45000000       0.08333333 </v>
   <v>      -0.11666667      -0.45000000       0.08333333 </v>
   <v>      -0.41666667      -0.41666667       0.08333333 </v>
   <v>      -0.38333333      -0.41666667       0.08333333 </v>
   <v>      -0.35000000      -0.41666667       0.08333333 </v>
   <v>      -0.31666667      -0.41666667       0.08333333 </v>
   <v>      -0.28333333      -0.41666667       0.08333333 </v>
   <v>      -0.25000000      -0.41666667       0.08333333 </v>
   <v>      -0.21666667      -0.41666667       0.08333333 </v>
   <v>      -0.18333333      -0.41666667       0.08333333 </v>
   <v>      -0.15000000      -0.41666667       0.08333333 </v>
   <v>      -0.11666667      -0.41666667       0.08333333 </v>
   <v>      -0.38333333      -0.38333333       0.08333333 </v>
   <v>      -0.35000000      -0.38333333       0.08333333 </v>
   <v>      -0.31666667      -0.38333333       0.08333333 </v>
   <v>      -0.28333333      -0.38333333       0.08333333 </v>
   <v>      -0.25000000      -0.38333333       0.08333333 </v>
   <v>      -0.21666667      -0.38333333       0.08333333 </v>
   <v>      -0.18333333      -0.38333333       0.08333333 </v>
   <v>      -0.15000000      -0.38333333       0.08333333 </v>
   <v>      -0.11666667      -0.38333333       0.08333333 </v>
   <v>      -0.35000000      -0.35000000       0.08333333 </v>
   <v>      -0.31666667      -0.35000000       0.08333333 </v>
   <v>      -0.28333333      -0.35000000       0.08333333 </v>
   <v>      -0.25000000      -0.35000000       0.08333333 </v>
   <v>      -0.21666667      -0.35000000       0.08333333 </v>
   <v>      -0.18333333      -0.35000000       0.08333333 </v>
   <v>      -0.15000000      -0.35000000       0.08333333 </v>
   <v>      -0.11666667      -0.35000000       0.08333333 </v>
   <v>      -0.31666667      -0.31666667       0.08333333 </v>
   <v>      -0.28333333      -0.31666667       0.08333333 </v>
   <v>      -0.25000000      -0.31666667       0.08333333 </v>
   <v>      -0.21666667      -0.31666667       0.08333333 </v>
   <v>      -0.18333333      -0.31666667       0.08333333 </v>
   <v>      -0.15000000      -0.31666667       0.08333333 </v>
   <v>      -0.11666667      -0.31666667       0.08333333 </v>
   <v>      -0.28333333      -0.28333333       0.08333333 </v>
   <v>      -0.25000000      -0.28333333       0.08333333 </v>
   <v>      -0.21666667      -0.28333333       0.08333333 </v>
   <v>      -0.18333333      -0.28333333       0.08333333 </v>
   <v>      -0.15000000      -0.28333333       0.08333333 </v>
   <v>      -0.11666667      -0.28333333       0.08333333 </v>
   <v>      -0.25000000      -0.25000000       0.08333333 </v>
   <v>      -0.21666667      -0.25000000       0.08333333 </v>
   <v>      -0.18333333      -0.25000000       0.08333333 </v>
   <v>      -0.15000000      -0.25000000       0.08333333 </v>
   <v>      -0.11666667      -0.25000000       0.08333333 </v>
   <v>      -0.21666667      -0.21666667       0.08333333 </v>
   <v>      -0.18333333      -0.21666667       0.08333333 </v>
   <v>      -0.15000000      -0.21666667       0.08333333 </v>
   <v>      -0.11666667      -0.21666667       0.08333333 </v>
   <v>      -0.18333333      -0.18333333       0.08333333 </v>
   <v>      -0.15000000      -0.18333333       0.08333333 </v>
   <v>      -0.11666667      -0.18333333       0.08333333 </v>
   <v>      -0.15000000      -0.15000000       0.08333333 </v>
   <v>      -0.11666667      -0.15000000       0.08333333 </v>
   <v>      -0.11666667      -0.11666667       0.08333333 </v>
   <v>       0.11666667       0.11666667       0.11666667 </v>
   <v>       0.15000000       0.11666667       0.11666667 </v>
   <v>       0.18333333       0.11666667       0.11666667 </v>
   <v>       0.21666667       0.11666667       0.11666667 </v>
   <v>       0.25000000       0.11666667       0.11666667 </v>
   <v>       0.28333333       0.11666667       0.11666667 </v>
   <v>       0.31666667       0.11666667       0.11666667 </v>
   <v>       0.35000000       0.11666667       0.11666667 </v>
   <v>       0.38333333       0.11666667       0.11666667 </v>
   <v>       0.41666667       0.11666667       0.11666667 </v>
   <v>       0.45000000       0.11666667       0.11666667 </v>
   <v>       0.48333333       0.11666667       0.11666667 </v>
   <v>      -0.48333333       0.11666667       0.11666667 </v>
   <v>      -0.45000000       0.11666667       0.11666667 </v>
   <v>      -0.41666667       0.11666667       0.11666667 </v>
   <v>      -0.38333333       0.11666667       0.11666667 </v>
   <v>      -0.35000000       0.11666667       0.11666667 </v>
   <v>      -0.31666667       0.11666667       0.11666667 </v>
   <v>      -0.28333333       0.11666667       0.11666667 </v>
   <v>      -0.25000000       0.11666667       0.11666667 </v>
   <v>      -0.21666667       0.11666667       0.11666667 </v>
   <v>      -0.18333333       0.11666667       0.11666667 </v>
   <v>      -0.15000000       0.11666667       0.11666667 </v>
   <v>      -0.11666667       0.11666667       0.11666667 </v>
   <v>       0.15000000       0.15000000       0.11666667 </v>
   <v>       0.18333333       0.15000000       0.11666667 </v>
   <v>       0.21666667       0.15000000       0.11666667 </v>
   <v>       0.25000000       0.15000000       0.11666667 </v>
   <v>       0.28333333       0.15000000       0.11666667 </v>
   <v>       0.31666667       0.15000000       0.11666667 </v>
   <v>       0.35000000       0.15000000       0.11666667 </v>
   <v>       0.38333333       0.15000000       0.11666667 </v>
   <v>       0.41666667       0.15000000       0.11666667 </v>
   <v>       0.45000000       0.15000000       0.11666667 </v>
   <v>       0.48333333       0.15000000       0.11666667 </v>
   <v>      -0.48333333       0.15000000       0.11666667 </v>
   <v>      -0.45000000       0.15000000       0.11666667 </v>
   <v>      -0.41666667       0.15000000       0.11666667 </v>
   <v>      -0.38333333       0.15000000       0.11666667 </v>
   <v>      -0.35000000       0.15000000       0.11666667 </v>
   <v>      -0.31666667       0.15000000       0.11666667 </v>
   <v>      -0.28333333       0.15000000       0.11666667 </v>
   <v>      -0.25000000       0.15000000       0.11666667 </v>
   <v>      -0.21666667       0.15000000       0.11666667 </v>
   <v>      -0.18333333       0.15000000       0.11666667 </v>
   <v>      -0.15000000       0.15000000       0.11666667 </v>
   <v>      -0.11666667       0.15000000       0.11666667 </v>
   <v>       0.18333333       0.18333333       0.11666667 </v>
   <v>       0.21666667       0.18333333       0.11666667 </v>
   <v>       0.25000000       0.18333333       0.11666667 </v>
   <v>       0.28333333       0.18333333       0.11666667 </v>
   <v>       0.31666667       0.18333333       0.11666667 </v>
   <v>       0.35000000       0.18333333       0.11666667 </v>
   <v>       0.38333333       0.18333333       0.11666667 </v>
[...]
       <r>    0.7491    1.0000 </r>
       <r>    1.7002    1.0000 </r>
       <r>    4.4664   -0.0000 </r>
       <r>    6.7790   -0.0000 </r>
       <r>    7.5506   -0.0000 </r>
       <r>   10.6119    0.0000 </r>
      </set>
      <set comment="kpoint 2470">
       <r>   -6.9272    1.0000 </r>
       <r>   -4.0688    1.0000 </r>
       <r>    0.5671    1.0000 </r>
       <r>    1.6840    1.0000 </r>
       <r>    4.5616   -0.0000 </r>
       <r>    6.8612   -0.0000 </r>
       <r>    7.6163   -0.0000 </r>
       <r>   10.6100    0.0000 </r>
      </set>
      <set comment="kpoint 2471">
       <r>   -7.2100    1.0000 </r>
       <r>   -3.9046    1.0000 </r>
       <r>    1.9858    1.0000 </r>
       <r>    1.9858    1.0000 </r>
       <r>    3.3033    0.4627 </r>
       <r>    6.9787   -0.0000 </r>
       <r>    6.9787   -0.0000 </r>
       <r>   10.3623    0.0000 </r>
      </set>
      <set comment="kpoint 2472">
       <r>   -7.1610    1.0000 </r>
       <r>   -3.9648    1.0000 </r>
       <r>    1.7814    1.0000 </r>
       <r>    1.9795    1.0000 </r>
       <r>    3.4701   -0.0075 </r>
       <r>    6.9749   -0.0000 </r>
       <r>    6.9947   -0.0000 </r>
       <r>   10.4037    0.0000 </r>
      </set>
      <set comment="kpoint 2473">
       <r>   -7.0970    1.0000 </r>
       <r>   -4.0106    1.0000 </r>
       <r>    1.3959    1.0000 </r>
       <r>    1.9214    1.0000 </r>
       <r>    3.8315   -0.0005 </r>
       <r>    6.9170   -0.0000 </r>
       <r>    7.1125   -0.0000 </r>
       <r>   10.5305    0.0000 </r>
      </set>
      <set comment="kpoint 2474">
       <r>   -7.0189    1.0000 </r>
       <r>   -4.0437    1.0000 </r>
       <r>    0.9740    1.0000 </r>
       <r>    1.8188    1.0000 </r>
       <r>    4.2254   -0.0000 </r>
       <r>    6.8549   -0.0000 </r>
       <r>    7.3238   -0.0000 </r>
       <r>   10.6596    0.0000 </r>
      </set>
      <set comment="kpoint 2475">
       <r>   -7.1319    1.0000 </r>
       <r>   -4.0113    1.0000 </r>
       <r>    1.8104    1.0000 </r>
       <r>    1.9358    1.0000 </r>
       <r>    3.4681   -0.0054 </r>
       <r>    6.9293   -0.0000 </r>
       <r>    7.0377   -0.0000 </r>
       <r>   10.3958    0.0000 </r>
      </set>
      <set comment="kpoint 2476">
       <r>   -7.0886    1.0000 </r>
       <r>   -4.0423    1.0000 </r>
       <r>    1.5262    1.0000 </r>
       <r>    1.9042    1.0000 </r>
       <r>    3.7281   -0.0045 </r>
       <r>    6.8944   -0.0000 </r>
       <r>    7.1102   -0.0000 </r>
       <r>   10.4835    0.0000 </r>
      </set>
      <set comment="kpoint 2477">
       <r>   -7.0317    1.0000 </r>
       <r>   -4.0588    1.0000 </r>
       <r>    1.1430    1.0000 </r>
       <r>    1.8238    1.0000 </r>
       <r>    4.0977   -0.0000 </r>
       <r>    6.8273   -0.0000 </r>
       <r>    7.2823   -0.0000 </r>
       <r>   10.6100    0.0000 </r>
      </set>
      <set comment="kpoint 2478">
       <r>   -7.0667    1.0000 </r>
       <r>   -4.0582    1.0000 </r>
       <r>    1.4196    1.0000 </r>
       <r>    1.8776    1.0000 </r>
       <r>    3.8331   -0.0005 </r>
       <r>    6.8742   -0.0000 </r>
       <r>    7.1542   -0.0000 </r>
       <r>   10.5189    0.0000 </r>
      </set>
      <set comment="kpoint 2479">
       <r>   -7.1237    1.0000 </r>
       <r>   -4.0432    1.0000 </r>
       <r>    1.9695    1.0000 </r>
       <r>    1.9695    1.0000 </r>
       <r>    3.2854    0.5383 </r>
       <r>    6.9740   -0.0000 </r>
       <r>    6.9740   -0.0000 </r>
       <r>   10.3420    0.0000 </r>
      </set>
      <set comment="kpoint 2480">
       <r>   -7.1019    1.0000 </r>
       <r>   -4.0587    1.0000 </r>
       <r>    1.7861    1.0000 </r>
       <r>    1.9488    1.0000 </r>
       <r>    3.4602    0.0030 </r>
       <r>    6.9491   -0.0000 </r>
       <r>    7.0137   -0.0000 </r>
       <r>   10.3929    0.0000 </r>
      </set>
     </set>
    </set>
   </array>
  </eigenvalues>
  <separator name="orbital magnetization" >
   <v name="MAGDIPOLOUT">      0.00000000      0.00000000      0.00000000</v>
  </separator>
  <dos>
   <i name="efermi">      3.29447961 </i>
   <total>
    <array>
     <dimension dim="1">gridpoints</dimension>
     <dimension dim="2">spin</dimension>
     <field>energy</field>
     <field>total</field>
     <field>integrated</field>
     <set>
      <set comment="spin 1">
       <r>   -11.0489     0.0000     0.0000 </r>
       <r>   -10.9646     0.0000     0.0000 </r>
       <r>   -10.8803     0.0000     0.0000 </r>
       <r>   -10.7960     0.0000     0.0000 </r>
       <r>   -10.7117    -0.0000    -0.0000 </r>
       <r>   -10.6274    -0.0000    -0.0000 </r>
       <r>   -10.5430    -0.0000    -0.0000 </r>
       <r>   -10.4587    -0.0000    -0.0000 </r>
       <r>   -10.3744    -0.0000    -0.0000 </r>
       <r>   -10.2901    -0.0000    -0.0000 </r>
       <r>   -10.2058    -0.0000    -0.0000 </r>
       <r>   -10.1215    -0.0000    -0.0000 </r>
       <r>   -10.0372    -0.0000    -0.0000 </r>
       <r>    -9.9529    -0.0000    -0.0000 </r>
       <r>    -9.8686    -0.0000    -0.0000 </r>
       <r>    -9.7843    -0.0000    -0.0000 </r>
       <r>    -9.7000    -0.0000    -0.0000 </r>
       <r>    -9.6157    -0.0000    -0.0000 </r>
       <r>    -9.5314    -0.0001    -0.0000 </r>
       <r>    -9.4470    -0.0004    -0.0000 </r>
       <r>    -9.3627    -0.0016    -0.0002 </r>
       <r>    -9.2784    -0.0040    -0.0005 </r>
       <r>    -9.1941    -0.0045    -0.0009 </r>
       <r>    -9.1098     0.0066    -0.0003 </r>
       <r>    -9.0255     0.0404     0.0031 </r>
       <r>    -8.9412     0.0950     0.0111 </r>
       <r>    -8.8569     0.1542     0.0241 </r>
       <r>    -8.7726     0.2040     0.0413 </r>
       <r>    -8.6883     0.2425     0.0617 </r>
       <r>    -8.6040     0.2745     0.0849 </r>
       <r>    -8.5197     0.3036     0.1105 </r>
       <r>    -8.4354     0.3311     0.1384 </r>
       <r>    -8.3510     0.3577     0.1685 </r>
       <r>    -8.2667     0.3835     0.2009 </r>
       <r>    -8.1824     0.4089     0.2353 </r>
       <r>    -8.0981     0.4340     0.2719 </r>
       <r>    -8.0138     0.4592     0.3107 </r>
       <r>    -7.9295     0.4846     0.3515 </r>
       <r>    -7.8452     0.5106     0.3946 </r>
       <r>    -7.7609     0.5375     0.4399 </r>
       <r>    -7.6766     0.5656     0.4876 </r>
       <r>    -7.5923     0.5954     0.5378 </r>
       <r>    -7.5080     0.6273     0.5906 </r>
       <r>    -7.4237     0.6630     0.6465 </r>
       <r>    -7.3394     0.7079     0.7062 </r>
       <r>    -7.2550     0.7714     0.7713 </r>
       <r>    -7.1707     0.8564     0.8435 </r>
       <r>    -7.0864     0.9426     0.9229 </r>
       <r>    -7.0021     0.9941     1.0067 </r>
       <r>    -6.9178     0.9948     1.0906 </r>
       <r>    -6.8335     0.9614     1.1717 </r>
       <r>    -6.7492     0.9184     1.2491 </r>
       <r>    -6.6649     0.8771     1.3230 </r>
       <r>    -6.5806     0.8380     1.3937 </r>
       <r>    -6.4963     0.7997     1.4611 </r>
       <r>    -6.4120     0.7612     1.5253 </r>
       <r>    -6.3277     0.7223     1.5862 </r>
       <r>    -6.2434     0.6827     1.6437 </r>
       <r>    -6.1590     0.6423     1.6979 </r>
       <r>    -6.0747     0.6008     1.7485 </r>
       <r>    -5.9904     0.5578     1.7956 </r>
       <r>    -5.9061     0.5132     1.8388 </r>
       <r>    -5.8218     0.4658     1.8781 </r>
       <r>    -5.7375     0.4148     1.9131 </r>
       <r>    -5.6532     0.3573     1.9432 </r>
       <r>    -5.5689     0.2877     1.9674 </r>
       <r>    -5.4846     0.2078     1.9850 </r>
       <r>    -5.4003     0.1332     1.9962 </r>
       <r>    -5.3160     0.0963     2.0043 </r>
       <r>    -5.2317     0.1156     2.0141 </r>
       <r>    -5.1474     0.1744     2.0288 </r>
       <r>    -5.0631     0.2452     2.0494 </r>
       <r>    -4.9787     0.3092     2.0755 </r>
       <r>    -4.8944     0.3631     2.1061 </r>
       <r>    -4.8101     0.4134     2.1410 </r>
       <r>    -4.7258     0.4598     2.1797 </r>
       <r>    -4.6415     0.5045     2.2223 </r>
       <r>    -4.5572     0.5514     2.2687 </r>
       <r>    -4.4729     0.5973     2.3191 </r>
       <r>    -4.3886     0.6494     2.3738 </r>
       <r>    -4.3043     0.7244     2.4349 </r>
       <r>    -4.2200     0.8465     2.5063 </r>
       <r>    -4.1357     1.0178     2.5921 </r>
       <r>    -4.0514     1.1563     2.6896 </r>
       <r>    -3.9671     1.1534     2.7868 </r>
       <r>    -3.8827     1.0154     2.8724 </r>
       <r>    -3.7984     0.8486     2.9440 </r>
       <r>    -3.7141     0.7276     3.0053 </r>
       <r>    -3.6298     0.6557     3.0606 </r>
       <r>    -3.5455     0.6074     3.1118 </r>
       <r>    -3.4612     0.5660     3.1595 </r>
       <r>    -3.3769     0.5301     3.2042 </r>
       <r>    -3.2926     0.4991     3.2463 </r>
       <r>    -3.2083     0.4697     3.2859 </r>
       <r>    -3.1240     0.4433     3.3233 </r>
       <r>    -3.0397     0.4203     3.3587 </r>
       <r>    -2.9554     0.3980     3.3922 </r>
       <r>    -2.8711     0.3770     3.4240 </r>
       <r>    -2.7867     0.3588     3.4543 </r>
       <r>    -2.7024     0.3411     3.4830 </r>
       <r>    -2.6181     0.3238     3.5103 </r>
       <r>    -2.5338     0.3086     3.5363 </r>
       <r>    -2.4495     0.2943     3.5612 </r>
       <r>    -2.3652     0.2796     3.5847 </r>
       <r>    -2.2809     0.2666     3.6072 </r>
       <r>    -2.1966     0.2547     3.6287 </r>
       <r>    -2.1123     0.2423     3.6491 </r>
       <r>    -2.0280     0.2307     3.6686 </r>
       <r>    -1.9437     0.2206     3.6871 </r>
       <r>    -1.8594     0.2102     3.7049 </r>
       <r>    -1.7751     0.1998     3.7217 </r>
       <r>    -1.6907     0.1909     3.7378 </r>
       <r>    -1.6064     0.1822     3.7532 </r>
       <r>    -1.5221     0.1730     3.7677 </r>
       <r>    -1.4378     0.1648     3.7816 </r>
       <r>    -1.3535     0.1572     3.7949 </r>
       <r>    -1.2692     0.1479     3.8074 </r>
       <r>    -1.1849     0.1346     3.8187 </r>
       <r>    -1.1006     0.1157     3.8285 </r>
       <r>    -1.0163     0.1026     3.8371 </r>
       <r>    -0.9320     0.1438     3.8492 </r>
       <r>    -0.8477     0.3088     3.8753 </r>
       <r>    -0.7634     0.6153     3.9271 </r>
       <r>    -0.6791     0.9801     4.0098 </r>
       <r>    -0.5947     1.2635     4.1163 </r>
       <r>    -0.5104     1.3737     4.2321 </r>
       <r>    -0.4261     1.3329     4.3445 </r>
       <r>    -0.3418     1.2356     4.4487 </r>
       <r>    -0.2575     1.1574     4.5462 </r>
       <r>    -0.1732     1.1196     4.6406 </r>
       <r>    -0.0889     1.1128     4.7344 </r>
       <r>    -0.0046     1.1246     4.8293 </r>
       <r>     0.0797     1.1490     4.9261 </r>
       <r>     0.1640     1.1878     5.0263 </r>
       <r>     0.2483     1.2523     5.1318 </r>
       <r>     0.3326     1.3509     5.2457 </r>
       <r>     0.4169     1.4645     5.3692 </r>
       <r>     0.5013     1.5487     5.4998 </r>
       <r>     0.5856     1.5754     5.6326 </r>
       <r>     0.6699     1.5576     5.7639 </r>
       <r>     0.7542     1.5238     5.8924 </r>
       <r>     0.8385     1.4907     6.0180 </r>
       <r>     0.9228     1.4614     6.1412 </r>
       <r>     1.0071     1.4338     6.2621 </r>
       <r>     1.0914     1.4066     6.3807 </r>
       <r>     1.1757     1.3797     6.4970 </r>
       <r>     1.2600     1.3535     6.6111 </r>
       <r>     1.3443     1.3275     6.7230 </r>
       <r>     1.4286     1.3016     6.8328 </r>
       <r>     1.5129     1.2763     6.9404 </r>
       <r>     1.5973     1.2526     7.0460 </r>
       <r>     1.6816     1.2311     7.1498 </r>
       <r>     1.7659     1.2115     7.2519 </r>
       <r>     1.8502     1.1832     7.3517 </r>
       <r>     1.9345     1.1212     7.4462 </r>
       <r>     2.0188     1.0090     7.5313 </r>
       <r>     2.1031     0.8653     7.6042 </r>
       <r>     2.1874     0.7299     7.6657 </r>
       <r>     2.2717     0.6249     7.7184 </r>
       <r>     2.3560     0.5462     7.7645 </r>
       <r>     2.4403     0.4822     7.8051 </r>
       <r>     2.5246     0.4258     7.8410 </r>
       <r>     2.6089     0.3747     7.8726 </r>
       <r>     2.6933     0.3278     7.9003 </r>
       <r>     2.7776     0.2845     7.9243 </r>
       <r>     2.8619     0.2443     7.9448 </r>
       <r>     2.9462     0.2061     7.9622 </r>
       <r>     3.0305     0.1686     7.9764 </r>
       <r>     3.1148     0.1295     7.9874 </r>
       <r>     3.1991     0.0892     7.9949 </r>
       <r>     3.2834     0.0553     7.9995 </r>
       <r>     3.3677     0.0388     8.0028 </r>
       <r>     3.4520     0.0433     8.0065 </r>
       <r>     3.5363     0.0611     8.0116 </r>
       <r>     3.6206     0.0815     8.0185 </r>
       <r>     3.7049     0.1005     8.0269 </r>
       <r>     3.7892     0.1234     8.0373 </r>
       <r>     3.8736     0.1638     8.0512 </r>
       <r>     3.9579     0.2363     8.0711 </r>
       <r>     4.0422     0.3439     8.1001 </r>
       <r>     4.1265     0.4720     8.1399 </r>
       <r>     4.2108     0.5990     8.1904 </r>
       <r>     4.2951     0.7141     8.2506 </r>
       <r>     4.3794     0.8187     8.3196 </r>
       <r>     4.4637     0.9194     8.3971 </r>
       <r>     4.5480     1.0286     8.4838 </r>
       <r>     4.6323     1.1652     8.5821 </r>
       <r>     4.7166     1.3479     8.6957 </r>
       <r>     4.8009     1.5646     8.8276 </r>
       <r>     4.8852     1.7490     8.9751 </r>
       <r>     4.9696     1.8271     9.1291 </r>
       <r>     5.0539     1.7781     9.2790 </r>
       <r>     5.1382     1.6250     9.4160 </r>
       <r>     5.2225     1.4154     9.5353 </r>
       <r>     5.3068     1.2162     9.6379 </r>
       <r>     5.3911     1.0751     9.7285 </r>
       <r>     5.4754     0.9948     9.8124 </r>
       <r>     5.5597     0.9573     9.8931 </r>
       <r>     5.6440     0.9526     9.9734 </r>
       <r>     5.7283     0.9863    10.0565 </r>
       <r>     5.8126     1.0531    10.1453 </r>
       <r>     5.8969     1.1076    10.2387 </r>
       <r>     5.9812     1.0958    10.3311 </r>
       <r>     6.0656     1.0216    10.4172 </r>
       <r>     6.1499     0.9392    10.4964 </r>
       <r>     6.2342     0.8890    10.5714 </r>
       <r>     6.3185     0.8751    10.6451 </r>
       <r>     6.4028     0.8884    10.7200 </r>
       <r>     6.4871     0.9549    10.8005 </r>
       <r>     6.5714     1.1431    10.8969 </r>
       <r>     6.6557     1.4594    11.0200 </r>
       <r>     6.7400     1.7643    11.1687 </r>
       <r>     6.8243     1.8853    11.3276 </r>
       <r>     6.9086     1.7985    11.4793 </r>
       <r>     6.9929     1.6180    11.6157 </r>
       <r>     7.0772     1.4425    11.7373 </r>
       <r>     7.1616     1.3033    11.8472 </r>
       <r>     7.2459     1.2058    11.9488 </r>
       <r>     7.3302     1.1324    12.0443 </r>
       <r>     7.4145     1.0664    12.1342 </r>
       <r>     7.4988     1.0351    12.2215 </r>
       <r>     7.5831     1.0618    12.3110 </r>
       <r>     7.6674     1.1229    12.4057 </r>
       <r>     7.7517     1.2070    12.5074 </r>
       <r>     7.8360     1.3380    12.6202 </r>
       <r>     7.9203     1.5079    12.7474 </r>
       <r>     8.0046     1.6568    12.8870 </r>
       <r>     8.0889     1.7253    13.0325 </r>
       <r>     8.1732     1.6950    13.1754 </r>
       <r>     8.2576     1.5918    13.3096 </r>
       <r>     8.3419     1.4679    13.4334 </r>
       <r>     8.4262     1.3646    13.5484 </r>
       <r>     8.5105     1.2896    13.6571 </r>
       <r>     8.5948     1.2333    13.7611 </r>
       <r>     8.6791     1.1901    13.8614 </r>
       <r>     8.7634     1.1574    13.9590 </r>
       <r>     8.8477     1.1288    14.0542 </r>
       <r>     8.9320     1.1025    14.1471 </r>
       <r>     9.0163     1.0808    14.2383 </r>
       <r>     9.1006     1.0582    14.3275 </r>
       <r>     9.1849     1.0356    14.4148 </r>
       <r>     9.2692     1.0261    14.5013 </r>
       <r>     9.3536     1.0361    14.5886 </r>
       <r>     9.4379     1.0612    14.6781 </r>
       <r>     9.5222     1.0893    14.7699 </r>
       <r>     9.6065     1.1001    14.8627 </r>
       <r>     9.6908     1.0751    14.9533 </r>
       <r>     9.7751     1.0144    15.0388 </r>
       <r>     9.8594     0.9379    15.1179 </r>
       <r>     9.9437     0.8682    15.1911 </r>
       <r>    10.0280     0.8134    15.2597 </r>
       <r>    10.1123     0.7695    15.3246 </r>
       <r>    10.1966     0.7382    15.3868 </r>
       <r>    10.2809     0.7324    15.4486 </r>
       <r>    10.3652     0.7534    15.5121 </r>
       <r>    10.4496     0.7707    15.5770 </r>
       <r>    10.5339     0.7418    15.6396 </r>
       <r>    10.6182     0.6482    15.6942 </r>
       <r>    10.7025     0.5126    15.7375 </r>
       <r>    10.7868     0.3867    15.7701 </r>
       <r>    10.8711     0.3092    15.7961 </r>
       <r>    10.9554     0.2750    15.8193 </r>
       <r>    11.0397     0.2574    15.8410 </r>
       <r>    11.1240     0.2414    15.8614 </r>
       <r>    11.2083     0.2245    15.8803 </r>
       <r>    11.2926     0.2066    15.8977 </r>
       <r>    11.3769     0.1888    15.9136 </r>
       <r>    11.4612     0.1716    15.9281 </r>
       <r>    11.5456     0.1547    15.9411 </r>
       <r>    11.6299     0.1389    15.9529 </r>
       <r>    11.7142     0.1235    15.9633 </r>
       <r>    11.7985     0.1081    15.9724 </r>
       <r>    11.8828     0.0935    15.9803 </r>
       <r>    11.9671     0.0792    15.9869 </r>
       <r>    12.0514     0.0641    15.9923 </r>
       <r>    12.1357     0.0476    15.9964 </r>
       <r>    12.2200     0.0298    15.9989 </r>
       <r>    12.3043     0.0135    16.0000 </r>
       <r>    12.3886     0.0029    16.0003 </r>
       <r>    12.4729    -0.0011    16.0002 </r>
       <r>    12.5572    -0.0012    16.0001 </r>
       <r>    12.6415    -0.0005    16.0000 </r>
       <r>    12.7259    -0.0001    16.0000 </r>
       <r>    12.8102    -0.0000    16.0000 </r>
       <r>    12.8945    -0.0000    16.0000 </r>
       <r>    12.9788    -0.0000    16.0000 </r>
       <r>    13.0631    -0.0000    16.0000 </r>
       <r>    13.1474    -0.0000    16.0000 </r>
       <r>    13.2317    -0.0000    16.0000 </r>
       <r>    13.3160    -0.0000    16.0000 </r>
       <r>    13.4003    -0.0000    16.0000 </r>
       <r>    13.4846    -0.0000    16.0000 </r>
       <r>    13.5689     0.0000    16.0000 </r>
       <r>    13.6532     0.0000    16.0000 </r>
       <r>    13.7375     0.0000    16.0000 </r>
       <r>    13.8219     0.0000    16.0000 </r>
       <r>    13.9062     0.0000    16.0000 </r>
       <r>    13.9905     0.0000    16.0000 </r>
       <r>    14.0748     0.0000    16.0000 </r>
       <r>    14.1591     0.0000    16.0000 </r>
       <r>    14.2434     0.0000    16.0000 </r>
      </set>
     </set>
    </array>
   </total>
  </dos>
 </calculation>
 <structure name="finalpos" >
  <crystal>
   <varray name="basis" >
    <v>       0.00000000       2.88544813       2.88544813 </v>
    <v>       2.88544813       0.00000000       2.88544813 </v>
    <v>       2.88544813       2.88544813       0.00000000 </v>
   </varray>
   <i name="volume">     48.04739099 </i>
   <varray name="rec_basis" >
    <v>      -0.17328331       0.17328331       0.17328331 </v>
    <v>       0.17328331      -0.17328331       0.17328331 </v>
    <v>       0.17328331       0.17328331      -0.17328331 </v>
   </varray>
  </crystal>
  <varray name="positions" >
   <v>       0.00000000       0.00000000      -0.00000000 </v>
   <v>       0.25000000       0.25000000       0.25000000 </v>
  </varray>
 </structure>
</modeling>
