 running on    1 total cores
 distrk:  each k-point on    1 cores,    1 groups
 distr:  one band on    1 cores,    1 groups
 using from now: INCAR     
 vasp.5.4.4.18Apr17-6-g9f103f2a35 (build May 20 2018 16:52:39) complex          
  
 POSCAR found type information on POSCAR  Si
 POSCAR found :  1 types and       2 ions
 scaLAPACK will be used
 WARNING: type information on POSCAR and POTCAR are incompatible
 POTCAR overwrites the type information in POSCAR
 typ   1 type information:  Si Ge
 LDA part: xc-table for Ceperly-Alder, standard interpolation
 POSCAR, INCAR and KPOINTS ok, starting setup
 FFT: planning ...
 WAVECAR not read
 entering main loop
       N       E                     dE             d eps       ncg     rms          rms(c)
DAV:   1     0.191931609210E+01    0.19193E+01   -0.18890E+03 41272   0.350E+02
DAV:   2    -0.865394691419E+01   -0.10573E+02   -0.10120E+02 61088   0.575E+01
DAV:   3    -0.875552714059E+01   -0.10158E+00   -0.10158E+00 45864   0.722E+00
DAV:   4    -0.875561534051E+01   -0.88200E-04   -0.88200E-04 60136   0.207E-01
DAV:   5    -0.875561536516E+01   -0.24650E-07   -0.24359E-07 45864   0.226E-03    0.259E+00
DAV:   6    -0.863125144691E+01    0.12436E+00   -0.67075E-02 44360   0.140E+00    0.154E+00
DAV:   7    -0.857688590588E+01    0.54366E-01   -0.11338E-01 46592   0.191E+00    0.145E-01
DAV:   8    -0.857769112042E+01   -0.80521E-03   -0.19143E-03 41696   0.281E-01    0.203E-02
DAV:   9    -0.857773566367E+01   -0.44543E-04   -0.50447E-05 60000   0.506E-02    0.926E-03
DAV:  10    -0.857773556218E+01    0.10148E-06   -0.12542E-05 42096   0.269E-02    0.276E-03
DAV:  11    -0.857773731325E+01   -0.17511E-05   -0.43537E-07 35448   0.360E-03    0.369E-04
DAV:  12    -0.857773771371E+01   -0.40046E-06   -0.17854E-08 19840   0.110E-03
   1 F= -.85777377E+01 E0= -.85779030E+01  d E =-.857774E+01
 curvature:   0.00 expect dE= 0.000E+00 dE for cont linesearch  0.000E+00
 trial: gam= 0.00000 g(F)=  0.820E-42 g(S)=  0.164E+01 ort = 0.000E+00 (trialstep = 0.100E+01)
 search vector abs. value=  0.164E+01
 bond charge predicted
       N       E                     dE             d eps       ncg     rms          rms(c)
DAV:   1    -0.964107187836E+01   -0.10633E+01   -0.24266E+01 46968   0.233E+01    0.321E+00
DAV:   2    -0.912145998530E+01    0.51961E+00   -0.41160E-01 44376   0.357E+00    0.184E+00
DAV:   3    -0.885527943833E+01    0.26618E+00   -0.61932E-01 47192   0.381E+00    0.158E-01
DAV:   4    -0.885625249853E+01   -0.97306E-03   -0.24995E-03 39944   0.342E-01    0.708E-02
DAV:   5    -0.885670823366E+01   -0.45574E-03   -0.70476E-04 49256   0.170E-01    0.149E-02
DAV:   6    -0.885672373539E+01   -0.15502E-04   -0.32915E-05 55128   0.388E-02    0.270E-03
DAV:   7    -0.885672412470E+01   -0.38931E-06   -0.11556E-06 43416   0.791E-03
   2 F= -.88567241E+01 E0= -.88567954E+01  d E =-.278986E+00
 trial-energy change:   -0.278986  1 .order   -0.463895   -1.639153    0.711364
 step:   0.5826(harm=  0.6974)  dis= 0.00000  next Energy=    -9.018643 (dE=-0.441E+00)
 bond charge predicted
       N       E                     dE             d eps       ncg     rms          rms(c)
DAV:   1    -0.914195886599E+01   -0.28524E+00   -0.48766E+00 45984   0.117E+01    0.144E+00
DAV:   2    -0.904794965029E+01    0.94009E-01   -0.64310E-02 42328   0.132E+00    0.827E-01
DAV:   3    -0.900180624248E+01    0.46143E-01   -0.10633E-01 46168   0.162E+00    0.697E-02
DAV:   4    -0.900185436544E+01   -0.48123E-04   -0.52100E-04 39976   0.157E-01    0.200E-02
DAV:   5    -0.900187118746E+01   -0.16822E-04   -0.32795E-05 53728   0.393E-02    0.483E-03
DAV:   6    -0.900187215760E+01   -0.97014E-06   -0.49202E-06 48488   0.154E-02
   3 F= -.90018722E+01 E0= -.90020069E+01  d E =-.424134E+00
 curvature:  -0.30 expect dE=-0.630E-07 dE for cont linesearch -0.630E-07
 trial: gam= 0.00000 g(F)=  0.906E-44 g(S)=  0.211E-06 ort =-0.588E-03 (trialstep = 0.917E+00)
 search vector abs. value=  0.211E-06
 reached required accuracy - stopping structural energy minimisation
