Ge                                      
           1
     0.000000    2.885000    2.885000
     2.885000    0.000000    2.885000
     2.885000    2.885000    0.000000
   Ge
   2
Direct configuration=     1
   0.00000000  0.00000000  0.00000000
   0.25000000  0.25000000  0.25000000
Ge                                      
           1
     0.000000    2.885583    2.885583
     2.885583    0.000000    2.885583
     2.885583    2.885583    0.000000
   Ge
   2
Direct configuration=     2
   0.00000000  0.00000000 -0.00000000
   0.25000000  0.25000000  0.25000000
Ge                                      
           1
     0.000000    2.885448    2.885448
     2.885448    0.000000    2.885448
     2.885448    2.885448    0.000000
   Ge
   2
Direct configuration=     3
   0.00000000  0.00000000 -0.00000000
   0.25000000  0.25000000  0.25000000
