   2   2   0   0
  0.2001288E+02  0.3839590E-09  0.3839590E-09  0.3839590E-09  0.5000000E-15
  1.000000000000000E-004
  CAR 
 Si gaussian                             
     17.96285367     -8.13023215  301      6.10700926      1.00000000
     -8.130  0.0000E+00  0.0000E+00
     -8.043  0.0000E+00  0.0000E+00
     -7.956  0.0000E+00  0.0000E+00
     -7.869  0.0000E+00  0.0000E+00
     -7.782  0.0000E+00  0.0000E+00
     -7.695  0.0000E+00  0.0000E+00
     -7.608  0.0000E+00  0.0000E+00
     -7.521  0.0000E+00  0.0000E+00
     -7.434  0.0000E+00  0.0000E+00
     -7.347  0.0000E+00  0.0000E+00
     -7.260  0.1532E-16  0.1332E-17
     -7.173  0.1857E-14  0.1629E-15
     -7.087  0.1562E-12  0.1375E-13
     -7.000  0.9078E-11  0.8033E-12
     -6.913  0.3658E-09  0.3262E-10
     -6.826  0.1026E-07  0.9252E-09
     -6.739  0.2020E-06  0.1850E-07
     -6.652  0.2823E-05  0.2641E-06
     -6.565  0.2846E-04  0.2739E-05
     -6.478  0.2112E-03  0.2111E-04
     -6.391  0.1176E-02  0.1234E-03
     -6.304  0.4978E-02  0.5564E-03
     -6.217  0.1602E-01  0.1949E-02
     -6.130  0.3907E-01  0.5348E-02
     -6.043  0.7303E-01  0.1170E-01
     -5.956  0.1097E+00  0.2124E-01
     -5.869  0.1461E+00  0.3395E-01
     -5.782  0.1885E+00  0.5035E-01
     -5.695  0.2307E+00  0.7041E-01
     -5.608  0.2494E+00  0.9211E-01
     -5.521  0.2439E+00  0.1133E+00
     -5.434  0.2539E+00  0.1354E+00
     -5.347  0.3044E+00  0.1619E+00
     -5.260  0.3625E+00  0.1934E+00
     -5.173  0.3876E+00  0.2271E+00
     -5.086  0.3814E+00  0.2603E+00
     -4.999  0.3626E+00  0.2918E+00
     -4.912  0.3449E+00  0.3218E+00
     -4.825  0.3607E+00  0.3532E+00
     -4.738  0.4367E+00  0.3912E+00
     -4.651  0.5309E+00  0.4374E+00
     -4.564  0.5695E+00  0.4869E+00
     -4.477  0.5497E+00  0.5347E+00
     -4.390  0.5186E+00  0.5798E+00
     -4.303  0.4865E+00  0.6221E+00
     -4.216  0.4589E+00  0.6620E+00
     -4.129  0.4955E+00  0.7051E+00
     -4.042  0.6389E+00  0.7607E+00
     -3.955  0.8185E+00  0.8319E+00
     -3.868  0.9104E+00  0.9111E+00
     -3.781  0.8783E+00  0.9875E+00
     -3.694  0.7808E+00  0.1055E+01
     -3.607  0.6881E+00  0.1115E+01
     -3.520  0.6567E+00  0.1172E+01
     -3.433  0.7135E+00  0.1234E+01
     -3.346  0.8163E+00  0.1305E+01
     -3.260  0.8761E+00  0.1382E+01
     -3.173  0.8407E+00  0.1455E+01
     -3.086  0.7371E+00  0.1519E+01
     -2.999  0.6157E+00  0.1572E+01
     -2.912  0.5069E+00  0.1616E+01
     -2.825  0.4471E+00  0.1655E+01
     -2.738  0.4725E+00  0.1696E+01
     -2.651  0.5653E+00  0.1746E+01
     -2.564  0.6404E+00  0.1801E+01
     -2.477  0.6042E+00  0.1854E+01
     -2.390  0.4526E+00  0.1893E+01
     -2.303  0.2800E+00  0.1918E+01
     -2.216  0.1728E+00  0.1933E+01
     -2.129  0.1467E+00  0.1945E+01
     -2.042  0.1822E+00  0.1961E+01
     -1.955  0.2484E+00  0.1983E+01
     -1.868  0.2927E+00  0.2008E+01
     -1.781  0.2748E+00  0.2032E+01
     -1.694  0.2110E+00  0.2051E+01
     -1.607  0.1485E+00  0.2063E+01
     -1.520  0.1216E+00  0.2074E+01
     -1.433  0.1667E+00  0.2089E+01
     -1.346  0.3327E+00  0.2117E+01
     -1.259  0.6074E+00  0.2170E+01
     -1.172  0.8704E+00  0.2246E+01
     -1.085  0.1006E+01  0.2334E+01
     -0.998  0.1028E+01  0.2423E+01
     -0.911  0.1011E+01  0.2511E+01
     -0.824  0.1001E+01  0.2598E+01
     -0.737  0.1007E+01  0.2686E+01
     -0.650  0.9995E+00  0.2772E+01
     -0.563  0.9287E+00  0.2853E+01
     -0.476  0.8087E+00  0.2924E+01
     -0.389  0.6949E+00  0.2984E+01
     -0.302  0.5958E+00  0.3036E+01
     -0.215  0.5036E+00  0.3080E+01
     -0.128  0.4597E+00  0.3120E+01
     -0.041  0.4873E+00  0.3162E+01
      0.046  0.5226E+00  0.3208E+01
      0.133  0.4973E+00  0.3251E+01
      0.220  0.4341E+00  0.3289E+01
      0.307  0.4033E+00  0.3324E+01
      0.394  0.4246E+00  0.3361E+01
      0.480  0.4481E+00  0.3399E+01
      0.567  0.4099E+00  0.3435E+01
      0.654  0.2994E+00  0.3461E+01
      0.741  0.1809E+00  0.3477E+01
      0.828  0.1411E+00  0.3489E+01
      0.915  0.2192E+00  0.3508E+01
      1.002  0.3640E+00  0.3540E+01
      1.089  0.4524E+00  0.3579E+01
      1.176  0.4115E+00  0.3615E+01
      1.263  0.3132E+00  0.3642E+01
      1.350  0.2841E+00  0.3667E+01
      1.437  0.3690E+00  0.3699E+01
      1.524  0.5224E+00  0.3745E+01
      1.611  0.6785E+00  0.3804E+01
      1.698  0.8186E+00  0.3875E+01
      1.785  0.9787E+00  0.3960E+01
      1.872  0.1159E+01  0.4061E+01
      1.959  0.1269E+01  0.4171E+01
      2.046  0.1231E+01  0.4278E+01
      2.133  0.1080E+01  0.4372E+01
      2.220  0.9291E+00  0.4453E+01
      2.307  0.8864E+00  0.4530E+01
      2.394  0.9683E+00  0.4614E+01
      2.481  0.1077E+01  0.4708E+01
      2.568  0.1112E+01  0.4805E+01
      2.655  0.1091E+01  0.4899E+01
      2.742  0.1127E+01  0.4997E+01
      2.829  0.1286E+01  0.5109E+01
      2.916  0.1473E+01  0.5237E+01
      3.003  0.1546E+01  0.5372E+01
      3.090  0.1493E+01  0.5502E+01
      3.177  0.1409E+01  0.5624E+01
      3.264  0.1368E+01  0.5743E+01
      3.351  0.1372E+01  0.5863E+01
      3.438  0.1354E+01  0.5980E+01
      3.525  0.1283E+01  0.6092E+01
      3.612  0.1246E+01  0.6200E+01
      3.699  0.1318E+01  0.6315E+01
      3.786  0.1439E+01  0.6440E+01
      3.873  0.1500E+01  0.6571E+01
      3.960  0.1480E+01  0.6699E+01
      4.047  0.1415E+01  0.6822E+01
      4.134  0.1289E+01  0.6935E+01
      4.220  0.1097E+01  0.7030E+01
      4.307  0.9520E+00  0.7113E+01
      4.394  0.9683E+00  0.7197E+01
      4.481  0.1086E+01  0.7291E+01
      4.568  0.1137E+01  0.7390E+01
      4.655  0.1049E+01  0.7482E+01
      4.742  0.9143E+00  0.7561E+01
      4.829  0.8387E+00  0.7634E+01
      4.916  0.7993E+00  0.7704E+01
      5.003  0.7014E+00  0.7765E+01
      5.090  0.5386E+00  0.7811E+01
      5.177  0.4039E+00  0.7847E+01
      5.264  0.3461E+00  0.7877E+01
      5.351  0.3128E+00  0.7904E+01
      5.438  0.2567E+00  0.7926E+01
      5.525  0.2044E+00  0.7944E+01
      5.612  0.1860E+00  0.7960E+01
      5.699  0.1754E+00  0.7975E+01
      5.786  0.1384E+00  0.7987E+01
      5.873  0.8412E-01  0.7995E+01
      5.960  0.3981E-01  0.7998E+01
      6.047  0.1562E-01  0.8000E+01
      6.134  0.7472E-02  0.8000E+01
      6.221  0.1143E-01  0.8001E+01
      6.308  0.2826E-01  0.8004E+01
      6.395  0.6087E-01  0.8009E+01
      6.482  0.1112E+00  0.8019E+01
      6.569  0.1750E+00  0.8034E+01
      6.656  0.2363E+00  0.8054E+01
      6.743  0.2800E+00  0.8079E+01
      6.830  0.3070E+00  0.8105E+01
      6.917  0.3220E+00  0.8133E+01
      7.004  0.3269E+00  0.8162E+01
      7.091  0.3436E+00  0.8192E+01
      7.178  0.4194E+00  0.8228E+01
      7.265  0.5793E+00  0.8279E+01
      7.352  0.7661E+00  0.8345E+01
      7.439  0.8831E+00  0.8422E+01
      7.526  0.9234E+00  0.8502E+01
      7.613  0.9522E+00  0.8585E+01
      7.700  0.9743E+00  0.8670E+01
      7.787  0.9868E+00  0.8756E+01
      7.874  0.1091E+01  0.8851E+01
      7.961  0.1352E+01  0.8968E+01
      8.047  0.1631E+01  0.9110E+01
      8.134  0.1719E+01  0.9260E+01
      8.221  0.1558E+01  0.9395E+01
      8.308  0.1278E+01  0.9506E+01
      8.395  0.1097E+01  0.9602E+01
      8.482  0.1131E+01  0.9700E+01
      8.569  0.1257E+01  0.9809E+01
      8.656  0.1249E+01  0.9918E+01
      8.743  0.1074E+01  0.1001E+02
      8.830  0.9191E+00  0.1009E+02
      8.917  0.9578E+00  0.1017E+02
      9.004  0.1238E+01  0.1028E+02
      9.091  0.1701E+01  0.1043E+02
      9.178  0.2155E+01  0.1062E+02
      9.265  0.2346E+01  0.1082E+02
      9.352  0.2241E+01  0.1102E+02
      9.439  0.2070E+01  0.1120E+02
      9.526  0.1962E+01  0.1137E+02
      9.613  0.1791E+01  0.1152E+02
      9.700  0.1488E+01  0.1165E+02
      9.787  0.1211E+01  0.1176E+02
      9.874  0.1092E+01  0.1185E+02
      9.961  0.1059E+01  0.1194E+02
     10.048  0.1008E+01  0.1203E+02
     10.135  0.9497E+00  0.1212E+02
     10.222  0.9370E+00  0.1220E+02
     10.309  0.9962E+00  0.1228E+02
     10.396  0.1145E+01  0.1238E+02
     10.483  0.1348E+01  0.1250E+02
     10.570  0.1484E+01  0.1263E+02
     10.657  0.1484E+01  0.1276E+02
     10.744  0.1437E+01  0.1288E+02
     10.831  0.1483E+01  0.1301E+02
     10.918  0.1600E+01  0.1315E+02
     11.005  0.1610E+01  0.1329E+02
     11.092  0.1423E+01  0.1342E+02
     11.179  0.1167E+01  0.1352E+02
     11.266  0.9985E+00  0.1360E+02
     11.353  0.9044E+00  0.1368E+02
     11.440  0.8003E+00  0.1375E+02
     11.527  0.7061E+00  0.1381E+02
     11.614  0.7223E+00  0.1388E+02
     11.701  0.8856E+00  0.1395E+02
     11.787  0.1088E+01  0.1405E+02
     11.874  0.1155E+01  0.1415E+02
     11.961  0.1043E+01  0.1424E+02
     12.048  0.9041E+00  0.1432E+02
     12.135  0.8729E+00  0.1439E+02
     12.222  0.9020E+00  0.1447E+02
     12.309  0.8979E+00  0.1455E+02
     12.396  0.9050E+00  0.1463E+02
     12.483  0.1032E+01  0.1472E+02
     12.570  0.1265E+01  0.1483E+02
     12.657  0.1454E+01  0.1496E+02
     12.744  0.1460E+01  0.1508E+02
     12.831  0.1252E+01  0.1519E+02
     12.918  0.9028E+00  0.1527E+02
     13.005  0.5335E+00  0.1532E+02
     13.092  0.2551E+00  0.1534E+02
     13.179  0.1145E+00  0.1535E+02
     13.266  0.9710E-01  0.1536E+02
     13.353  0.1642E+00  0.1537E+02
     13.440  0.2773E+00  0.1540E+02
     13.527  0.4074E+00  0.1543E+02
     13.614  0.5205E+00  0.1548E+02
     13.701  0.5692E+00  0.1553E+02
     13.788  0.5525E+00  0.1557E+02
     13.875  0.5328E+00  0.1562E+02
     13.962  0.5243E+00  0.1567E+02
     14.049  0.4682E+00  0.1571E+02
     14.136  0.3678E+00  0.1574E+02
     14.223  0.3160E+00  0.1577E+02
     14.310  0.3529E+00  0.1580E+02
     14.397  0.4087E+00  0.1583E+02
     14.484  0.4191E+00  0.1587E+02
     14.571  0.3967E+00  0.1590E+02
     14.658  0.3599E+00  0.1593E+02
     14.745  0.2913E+00  0.1596E+02
     14.832  0.1904E+00  0.1598E+02
     14.919  0.9439E-01  0.1598E+02
     15.006  0.3436E-01  0.1599E+02
     15.093  0.9008E-02  0.1599E+02
     15.180  0.1679E-02  0.1599E+02
     15.267  0.2205E-03  0.1599E+02
     15.354  0.2143E-04  0.1599E+02
     15.441  0.1655E-04  0.1599E+02
     15.527  0.1369E-03  0.1599E+02
     15.614  0.8492E-03  0.1599E+02
     15.701  0.3648E-02  0.1599E+02
     15.788  0.1085E-01  0.1599E+02
     15.875  0.2238E-01  0.1599E+02
     15.962  0.3197E-01  0.1599E+02
     16.049  0.3167E-01  0.1600E+02
     16.136  0.2175E-01  0.1600E+02
     16.223  0.1035E-01  0.1600E+02
     16.310  0.3415E-02  0.1600E+02
     16.397  0.7801E-03  0.1600E+02
     16.484  0.1233E-03  0.1600E+02
     16.571  0.1349E-04  0.1600E+02
     16.658  0.1020E-05  0.1600E+02
     16.745  0.5330E-07  0.1600E+02
     16.832  0.1922E-08  0.1600E+02
     16.919  0.4783E-10  0.1600E+02
     17.006  0.8205E-12  0.1600E+02
     17.093  0.9704E-14  0.1600E+02
     17.180  0.7659E-16  0.1600E+02
     17.267  0.0000E+00  0.1600E+02
     17.354  0.0000E+00  0.1600E+02
     17.441  0.0000E+00  0.1600E+02
     17.528  0.0000E+00  0.1600E+02
     17.615  0.0000E+00  0.1600E+02
     17.702  0.0000E+00  0.1600E+02
     17.789  0.0000E+00  0.1600E+02
     17.876  0.0000E+00  0.1600E+02
     17.963  0.0000E+00  0.1600E+02
