 running on    1 total cores
 distrk:  each k-point on    1 cores,    1 groups
 distr:  one band on    1 cores,    1 groups
 using from now: INCAR     
 vasp.5.4.4.18Apr17-6-g9f103f2a35 (build May 20 2018 16:52:39) complex          
  
 POSCAR found type information on POSCAR  Si
 POSCAR found :  1 types and       2 ions
 scaLAPACK will be used
 LDA part: xc-table for Pade appr. of Perdew
 WARNING: stress and forces are not correct
 POSCAR, INCAR and KPOINTS ok, starting setup
 FFT: planning ...
 WAVECAR not read
 reading imaginary part of occupancies ...
 charge-density read from file: Si                                      
 entering main loop
       N       E                     dE             d eps       ncg     rms          rms(c)
DAV:   1     0.113339394298E+01    0.11334E+01   -0.24551E+03   760   0.500E+02
DAV:   2    -0.107044996965E+02   -0.11838E+02   -0.11106E+02  1176   0.633E+01
DAV:   3    -0.108370760810E+02   -0.13258E+00   -0.13257E+00   912   0.845E+00
DAV:   4    -0.108376348500E+02   -0.55877E-03   -0.55877E-03  1224   0.600E-01
DAV:   5    -0.108376351224E+02   -0.27235E-06   -0.27290E-06   928   0.116E-02
DAV:   6    -0.108376351253E+02   -0.28940E-08   -0.26429E-08  1224   0.802E-04
   1 F= -.10837635E+02 E0= -.10837567E+02  d E =-.137105E-03
 writing wavefunctions
