<?xml version="1.0" encoding="ISO-8859-1"?>
<modeling>
 <generator>
  <i name="program" type="string">vasp </i>
  <i name="version" type="string">5.4.4.18Apr17-6-g9f103f2a35  </i>
  <i name="subversion" type="string">(build May 20 2018 16:52:39) complex            parallel </i>
  <i name="platform" type="string">LinuxIFC </i>
  <i name="date" type="string">2022 11 04 </i>
  <i name="time" type="string">18:26:47 </i>
 </generator>
 <incar>
  <i type="string" name="SYSTEM"> Si gaussian</i>
  <i type="string" name="PREC">normal</i>
  <i type="int" name="ICHARG">    11</i>
  <i name="EDIFF">      0.00000010</i>
  <i name="ENCUT">    300.00000000</i>
  <i type="int" name="ISMEAR">     0</i>
  <i type="logical" name="LCHARG"> F  </i>
  <v type="int" name="KPOINT_BSE">    -1     0     0     0</v>
 </incar>
 <structure name="primitive_cell" >
  <crystal>
   <varray name="basis" >
    <v>       0.00000000       2.71500000       2.71500000 </v>
    <v>       2.71500000       0.00000000       2.71500000 </v>
    <v>       2.71500000       2.71500000       0.00000000 </v>
   </varray>
   <i name="volume">     40.02575175 </i>
   <varray name="rec_basis" >
    <v>      -0.18416206       0.18416206       0.18416206 </v>
    <v>       0.18416206      -0.18416206       0.18416206 </v>
    <v>       0.18416206       0.18416206      -0.18416206 </v>
   </varray>
  </crystal>
  <varray name="positions" >
   <v>       0.00000000       0.00000000       0.00000000 </v>
   <v>       0.25000000       0.25000000       0.25000000 </v>
  </varray>
 </structure>
 <varray name="primitive_index" >
  <v type="int" >        1 </v>
  <v type="int" >        2 </v>
 </varray>
 <kpoints>
  <generation param="Gamma">
   <v type="int" name="divisions">      10       10       10 </v>
   <v name="usershift">      0.00000000       0.00000000       0.00000000 </v>
   <v name="genvec1">      0.10000000       0.00000000       0.00000000 </v>
   <v name="genvec2">      0.00000000       0.10000000       0.00000000 </v>
   <v name="genvec3">      0.00000000       0.00000000       0.10000000 </v>
   <v name="shift">      0.00000000       0.00000000       0.00000000 </v>
  </generation>
  <varray name="kpointlist" >
   <v>       0.00000000       0.00000000       0.00000000 </v>
   <v>       0.10000000       0.00000000       0.00000000 </v>
   <v>       0.20000000       0.00000000       0.00000000 </v>
   <v>       0.30000000       0.00000000       0.00000000 </v>
   <v>       0.40000000       0.00000000       0.00000000 </v>
   <v>       0.50000000       0.00000000       0.00000000 </v>
   <v>       0.10000000       0.10000000       0.00000000 </v>
   <v>       0.20000000       0.10000000       0.00000000 </v>
   <v>       0.30000000       0.10000000       0.00000000 </v>
   <v>       0.40000000       0.10000000       0.00000000 </v>
   <v>       0.50000000       0.10000000       0.00000000 </v>
   <v>      -0.40000000       0.10000000       0.00000000 </v>
   <v>      -0.30000000       0.10000000       0.00000000 </v>
   <v>      -0.20000000       0.10000000       0.00000000 </v>
   <v>      -0.10000000       0.10000000       0.00000000 </v>
   <v>       0.20000000       0.20000000       0.00000000 </v>
   <v>       0.30000000       0.20000000       0.00000000 </v>
   <v>       0.40000000       0.20000000       0.00000000 </v>
   <v>       0.50000000       0.20000000       0.00000000 </v>
   <v>      -0.40000000       0.20000000       0.00000000 </v>
   <v>      -0.30000000       0.20000000       0.00000000 </v>
   <v>      -0.20000000       0.20000000       0.00000000 </v>
   <v>       0.30000000       0.30000000       0.00000000 </v>
   <v>       0.40000000       0.30000000       0.00000000 </v>
   <v>       0.50000000       0.30000000       0.00000000 </v>
   <v>      -0.40000000       0.30000000       0.00000000 </v>
   <v>      -0.30000000       0.30000000       0.00000000 </v>
   <v>       0.40000000       0.40000000       0.00000000 </v>
   <v>       0.50000000       0.40000000       0.00000000 </v>
   <v>      -0.40000000       0.40000000       0.00000000 </v>
   <v>       0.50000000       0.50000000       0.00000000 </v>
   <v>       0.30000000       0.20000000       0.10000000 </v>
   <v>       0.40000000       0.20000000       0.10000000 </v>
   <v>       0.50000000       0.20000000       0.10000000 </v>
   <v>      -0.40000000       0.20000000       0.10000000 </v>
   <v>       0.40000000       0.30000000       0.10000000 </v>
   <v>       0.50000000       0.30000000       0.10000000 </v>
   <v>      -0.40000000       0.30000000       0.10000000 </v>
   <v>      -0.30000000       0.30000000       0.10000000 </v>
   <v>      -0.20000000       0.30000000       0.10000000 </v>
   <v>       0.50000000       0.40000000       0.10000000 </v>
   <v>      -0.40000000       0.40000000       0.10000000 </v>
   <v>      -0.30000000       0.40000000       0.10000000 </v>
   <v>      -0.40000000       0.50000000       0.10000000 </v>
   <v>      -0.40000000       0.40000000       0.20000000 </v>
   <v>      -0.30000000       0.40000000       0.20000000 </v>
   <v>      -0.30000000       0.50000000       0.20000000 </v>
  </varray>
  <varray name="weights" >
   <v>       0.00100000 </v>
   <v>       0.00800000 </v>
   <v>       0.00800000 </v>
   <v>       0.00800000 </v>
   <v>       0.00800000 </v>
   <v>       0.00400000 </v>
   <v>       0.00600000 </v>
   <v>       0.02400000 </v>
   <v>       0.02400000 </v>
   <v>       0.02400000 </v>
   <v>       0.02400000 </v>
   <v>       0.02400000 </v>
   <v>       0.02400000 </v>
   <v>       0.02400000 </v>
   <v>       0.01200000 </v>
   <v>       0.00600000 </v>
   <v>       0.02400000 </v>
   <v>       0.02400000 </v>
   <v>       0.02400000 </v>
   <v>       0.02400000 </v>
   <v>       0.02400000 </v>
   <v>       0.01200000 </v>
   <v>       0.00600000 </v>
   <v>       0.02400000 </v>
   <v>       0.02400000 </v>
   <v>       0.02400000 </v>
   <v>       0.01200000 </v>
   <v>       0.00600000 </v>
   <v>       0.02400000 </v>
   <v>       0.01200000 </v>
   <v>       0.00300000 </v>
   <v>       0.02400000 </v>
   <v>       0.04800000 </v>
   <v>       0.04800000 </v>
   <v>       0.02400000 </v>
   <v>       0.02400000 </v>
   <v>       0.04800000 </v>
   <v>       0.04800000 </v>
   <v>       0.04800000 </v>
   <v>       0.02400000 </v>
   <v>       0.02400000 </v>
   <v>       0.04800000 </v>
   <v>       0.02400000 </v>
   <v>       0.01200000 </v>
   <v>       0.02400000 </v>
   <v>       0.02400000 </v>
   <v>       0.01200000 </v>
  </varray>
 </kpoints>
 <parameters>
  <separator name="general" >
   <i type="string" name="SYSTEM">Si gaussian</i>
   <i type="logical" name="LCOMPAT"> F  </i>
  </separator>
  <separator name="electronic" >
   <i type="string" name="PREC">normal</i>
   <i name="ENMAX">    300.00000000</i>
   <i name="ENAUG">    322.06900000</i>
   <i name="EDIFF">      0.00000010</i>
   <i type="int" name="IALGO">    38</i>
   <i type="int" name="IWAVPR">    10</i>
   <i type="int" name="NBANDS">     8</i>
   <i name="NELECT">      8.00000000</i>
   <i type="int" name="TURBO">     0</i>
   <i type="int" name="IRESTART">     0</i>
   <i type="int" name="NREBOOT">     0</i>
   <i type="int" name="NMIN">     0</i>
   <i name="EREF">      0.00000000</i>
   <separator name="electronic smearing" >
    <i type="int" name="ISMEAR">     0</i>
    <i name="SIGMA">      0.20000000</i>
    <i name="KSPACING">      0.50000000</i>
    <i type="logical" name="KGAMMA"> T  </i>
   </separator>
   <separator name="electronic projectors" >
    <i type="logical" name="LREAL"> F  </i>
    <v name="ROPT">      0.00000000</v>
    <i type="int" name="LMAXPAW">  -100</i>
    <i type="int" name="LMAXMIX">     2</i>
    <i type="logical" name="NLSPLINE"> F  </i>
   </separator>
   <separator name="electronic startup" >
    <i type="int" name="ISTART">     0</i>
    <i type="int" name="ICHARG">    11</i>
    <i type="int" name="INIWAV">     1</i>
   </separator>
   <separator name="electronic spin" >
    <i type="int" name="ISPIN">     1</i>
    <i type="logical" name="LNONCOLLINEAR"> F  </i>
    <v name="MAGMOM">      1.00000000      1.00000000</v>
    <i name="NUPDOWN">     -1.00000000</i>
    <i type="logical" name="LSORBIT"> F  </i>
    <v name="SAXIS">      0.00000000      0.00000000      1.00000000</v>
    <i type="logical" name="LSPIRAL"> F  </i>
    <v name="QSPIRAL">      0.00000000      0.00000000      0.00000000</v>
    <i type="logical" name="LZEROZ"> F  </i>
   </separator>
   <separator name="electronic exchange-correlation" >
    <i type="logical" name="LASPH"> F  </i>
    <i type="logical" name="LMETAGGA"> F  </i>
   </separator>
   <separator name="electronic convergence" >
    <i type="int" name="NELM">    60</i>
    <i type="int" name="NELMDL">    -5</i>
    <i type="int" name="NELMIN">     2</i>
    <i name="ENINI">    300.00000000</i>
    <separator name="electronic convergence detail" >
     <i type="logical" name="LDIAG"> T  </i>
     <i type="logical" name="LSUBROT"> F  </i>
     <i name="WEIMIN">      0.00000000</i>
     <i name="EBREAK">      0.00000000</i>
     <i name="DEPER">      0.30000000</i>
     <i type="int" name="NRMM">     4</i>
     <i name="TIME">      0.40000000</i>
    </separator>
   </separator>
   <separator name="electronic mixer" >
    <i name="AMIX">      0.40000000</i>
    <i name="BMIX">      1.00000000</i>
    <i name="AMIN">      0.10000000</i>
    <i name="AMIX_MAG">      1.60000000</i>
    <i name="BMIX_MAG">      1.00000000</i>
    <separator name="electronic mixer details" >
     <i type="int" name="IMIX">     4</i>
     <i type="logical" name="MIXFIRST"> F  </i>
     <i type="int" name="MAXMIX">   -45</i>
     <i name="WC">    100.00000000</i>
     <i type="int" name="INIMIX">     1</i>
     <i type="int" name="MIXPRE">     1</i>
     <i type="int" name="MREMOVE">     5</i>
    </separator>
   </separator>
   <separator name="electronic dipolcorrection" >
    <i type="logical" name="LDIPOL"> F  </i>
    <i type="logical" name="LMONO"> F  </i>
    <i type="int" name="IDIPOL">     0</i>
    <i name="EPSILON">      1.00000000</i>
    <v name="DIPOL">   -100.00000000   -100.00000000   -100.00000000</v>
    <i name="EFIELD">      0.00000000</i>
   </separator>
  </separator>
  <separator name="grids" >
   <i type="int" name="NGX">    16</i>
   <i type="int" name="NGY">    16</i>
   <i type="int" name="NGZ">    16</i>
   <i type="int" name="NGXF">    32</i>
   <i type="int" name="NGYF">    32</i>
   <i type="int" name="NGZF">    32</i>
   <i type="logical" name="ADDGRID"> F  </i>
  </separator>
  <separator name="ionic" >
   <i type="int" name="NSW">     0</i>
   <i type="int" name="IBRION">    -1</i>
   <i type="int" name="MDALGO">     0</i>
   <i type="int" name="ISIF">     2</i>
   <i name="PSTRESS">      0.00000000</i>
   <i name="EDIFFG">      0.00000100</i>
   <i type="int" name="NFREE">     0</i>
   <i name="POTIM">      0.50000000</i>
   <i name="SMASS">     -3.00000000</i>
   <i name="SCALEE">      1.00000000</i>
  </separator>
  <separator name="ionic md" >
   <i name="TEBEG">      0.00010000</i>
   <i name="TEEND">      0.00010000</i>
   <i type="int" name="NBLOCK">     1</i>
   <i type="int" name="KBLOCK">     1</i>
   <i type="int" name="NPACO">   256</i>
   <i name="APACO">     16.00000000</i>
  </separator>
  <separator name="symmetry" >
   <i type="int" name="ISYM">     2</i>
   <i name="SYMPREC">      0.00001000</i>
  </separator>
  <separator name="dos" >
   <i type="int" name="LORBIT">     0</i>
   <v name="RWIGS">     -1.00000000</v>
   <i type="int" name="NEDOS">   301</i>
   <i name="EMIN">     10.00000000</i>
   <i name="EMAX">    -10.00000000</i>
   <i name="EFERMI">      0.00000000</i>
  </separator>
  <separator name="writing" >
   <i type="int" name="NWRITE">     2</i>
   <i type="logical" name="LWAVE"> T  </i>
   <i type="logical" name="LDOWNSAMPLE"> F  </i>
   <i type="logical" name="LCHARG"> F  </i>
   <i type="logical" name="LPARD"> F  </i>
   <i type="logical" name="LVTOT"> F  </i>
   <i type="logical" name="LVHAR"> F  </i>
   <i type="logical" name="LELF"> F  </i>
   <i type="logical" name="LOPTICS"> F  </i>
   <v name="STM">      0.00000000      0.00000000      0.00000000      0.00000000      0.00000000      0.00000000      0.00000000</v>
  </separator>
  <separator name="performance" >
   <i type="int" name="NPAR">     1</i>
   <i type="int" name="NSIM">     4</i>
   <i type="int" name="NBLK">    -1</i>
   <i type="logical" name="LPLANE"> T  </i>
   <i type="logical" name="LSCALAPACK"> T  </i>
   <i type="logical" name="LSCAAWARE"> F  </i>
   <i type="logical" name="LSCALU"> F  </i>
   <i type="logical" name="LASYNC"> F  </i>
   <i type="logical" name="LORBITALREAL"> F  </i>
  </separator>
  <separator name="miscellaneous" >
   <i type="int" name="IDIOT">     3</i>
   <i type="int" name="ISPECIAL">     0</i>
   <i type="logical" name="LMUSIC"> F  </i>
   <v name="POMASS">     28.08500000</v>
   <v name="DARWINR">      0.00000000</v>
   <v name="DARWINV">      1.00000000</v>
   <i type="logical" name="LCORR"> T  </i>
  </separator>
  <i type="logical" name="GGA_COMPAT"> T  </i>
  <i type="logical" name="LBERRY"> F  </i>
  <i type="int" name="ICORELEVEL">     0</i>
  <i type="logical" name="LDAU"> F  </i>
  <i type="int" name="I_CONSTRAINED_M">     0</i>
  <separator name="electronic exchange-correlation" >
   <i type="string" name="GGA">--</i>
   <i type="int" name="VOSKOWN">     0</i>
   <i type="logical" name="LHFCALC"> F  </i>
   <i type="string" name="PRECFOCK"></i>
   <i type="logical" name="LSYMGRAD"> F  </i>
   <i type="logical" name="LHFONE"> F  </i>
   <i type="logical" name="LRHFCALC"> F  </i>
   <i type="logical" name="LTHOMAS"> F  </i>
   <i type="logical" name="LMODELHF"> F  </i>
   <i name="ENCUT4O">     -1.00000000</i>
   <i type="int" name="EXXOEP">     0</i>
   <i type="int" name="FOURORBIT">     0</i>
   <i name="AEXX">      0.00000000</i>
   <i name="HFALPHA">      0.00000000</i>
   <i name="MCALPHA">      0.00000000</i>
   <i name="ALDAX">      1.00000000</i>
   <i name="AGGAX">      1.00000000</i>
   <i name="ALDAC">      1.00000000</i>
   <i name="AGGAC">      1.00000000</i>
   <i type="int" name="NKREDX">     1</i>
   <i type="int" name="NKREDY">     1</i>
   <i type="int" name="NKREDZ">     1</i>
   <i type="logical" name="SHIFTRED"> F  </i>
   <i type="logical" name="ODDONLY"> F  </i>
   <i type="logical" name="EVENONLY"> F  </i>
   <i type="int" name="LMAXFOCK">     0</i>
   <i type="int" name="NMAXFOCKAE">     0</i>
   <i type="logical" name="LFOCKAEDFT"> F  </i>
   <i name="HFSCREEN">      0.00000000</i>
   <i name="HFSCREENC">      0.00000000</i>
   <i type="int" name="NBANDSGWLOW">     0</i>
  </separator>
  <separator name="vdW DFT" >
   <i type="logical" name="LUSE_VDW"> F  </i>
   <i name="Zab_VDW">     -0.84910000</i>
   <i name="PARAM1">      0.12340000</i>
   <i name="PARAM2">      1.00000000</i>
   <i name="PARAM3">      0.00000000</i>
  </separator>
  <separator name="model GW" >
   <i type="int" name="MODEL_GW">     0</i>
   <i name="MODEL_EPS0">     12.00772552</i>
   <i name="MODEL_ALPHA">      1.00000000</i>
  </separator>
  <separator name="linear response parameters" >
   <i type="logical" name="LEPSILON"> F  </i>
   <i type="logical" name="LRPA"> F  </i>
   <i type="logical" name="LNABLA"> F  </i>
   <i type="logical" name="LVEL"> F  </i>
   <i type="int" name="KINTER">     0</i>
   <i name="CSHIFT">      0.10000000</i>
   <i name="OMEGAMAX">     -1.00000000</i>
   <i name="DEG_THRESHOLD">      0.00200000</i>
   <i name="RTIME">     -0.10000000</i>
   <i name="WPLASMAI">      0.00000000</i>
   <v name="DFIELD">      0.00000000      0.00000000      0.00000000</v>
   <v name="WPLASMA">      0.00000000      0.00000000      0.00000000      0.00000000      0.00000000      0.00000000      0.00000000      0.00000000      0.00000000</v>
  </separator>
  <separator name="orbital magnetization" >
   <i type="logical" name="NUCIND"> F  </i>
   <v name="MAGPOS">      0.00000000      0.00000000      0.00000000</v>
   <i type="logical" name="LNICSALL"> T  </i>
   <i type="logical" name="ORBITALMAG"> F  </i>
   <i type="logical" name="LMAGBLOCH"> F  </i>
   <i type="logical" name="LCHIMAG"> F  </i>
   <i type="logical" name="LGAUGE"> T  </i>
   <i type="int" name="MAGATOM">     0</i>
   <v name="MAGDIPOL">      0.00000000      0.00000000      0.00000000</v>
   <v name="AVECCONST">      0.00000000      0.00000000      0.00000000</v>
  </separator>
  <separator name="response functions" >
   <i type="logical" name="LADDER"> F  </i>
   <i type="logical" name="LRPAFORCE"> F  </i>
   <i type="logical" name="LFXC"> F  </i>
   <i type="logical" name="LHARTREE"> T  </i>
   <i type="int" name="IBSE">     0</i>
   <v type="int" name="KPOINT">    -1     0     0     0</v>
   <i type="logical" name="LTCTE"> F  </i>
   <i type="logical" name="LTETE"> F  </i>
   <i type="logical" name="LTRIPLET"> F  </i>
   <i type="logical" name="LFXCEPS"> F  </i>
   <i type="logical" name="LFXHEG"> F  </i>
   <i type="int" name="NATURALO">     2</i>
   <i type="logical" name="L2ORDER"> F  </i>
   <i type="logical" name="LMP2LT"> F  </i>
   <i type="logical" name="LUSEW"> F  </i>
   <i name="ENCUTGW">     -2.00000000</i>
   <i name="ENCUTGWSOFT">     -2.00000000</i>
   <i name="ENCUTLF">     -1.00000000</i>
   <i type="int" name="LMAXMP2">    -1</i>
   <i name="SCISSOR">      0.00000000</i>
   <i type="int" name="NOMEGA">     0</i>
   <i type="int" name="NOMEGAR">     0</i>
   <i type="int" name="NBANDSGW">    -1</i>
   <i type="int" name="NBANDSO">    -1</i>
   <i type="int" name="NBANDSV">    -1</i>
   <i type="int" name="NELM">     1</i>
   <i type="int" name="NELMHF">     1</i>
   <i type="int" name="DIM">     3</i>
   <i type="int" name="ANTIRES">     0</i>
   <i name="OMEGAMAX">    -30.00000000</i>
   <i name="OMEGAMIN">    -30.00000000</i>
   <i name="OMEGATL">   -200.00000000</i>
   <i type="int" name="OMEGAGRID">   140</i>
   <i name="CSHIFT">     -0.10000000</i>
   <i type="logical" name="SELFENERGY"> F  </i>
   <i type="logical" name="LSPECTRAL"> F  </i>
   <i type="logical" name="LSPECTRALGW"> F  </i>
   <i type="logical" name="LSINGLES"> F  </i>
   <i type="logical" name="LFERMIGW"> F  </i>
   <i type="logical" name="ODDONLYGW"> F  </i>
   <i type="logical" name="EVENONLYGW"> F  </i>
   <i type="int" name="NKREDLFX">     1</i>
   <i type="int" name="NKREDLFY">     1</i>
   <i type="int" name="NKREDLFZ">     1</i>
   <i type="int" name="MAXMEM">  2800</i>
   <i type="int" name="TELESCOPE">     0</i>
   <i type="int" name="TAUPAR">     1</i>
   <i type="int" name="OMEGAPAR">    -1</i>
   <i name="LAMBDA">      1.00000000</i>
  </separator>
  <separator name="External order field" >
   <i name="OFIELD_KAPPA">      0.00000000</i>
   <v name="OFIELD_K">      0.00000000      0.00000000      0.00000000</v>
   <i name="OFIELD_Q6_NEAR">      0.00000000</i>
   <i name="OFIELD_Q6_FAR">      0.00000000</i>
   <i name="OFIELD_A">      0.00000000</i>
  </separator>
 </parameters>
 <atominfo>
  <atoms>       2 </atoms>
  <types>       1 </types>
  <array name="atoms" >
   <dimension dim="1">ion</dimension>
   <field type="string">element</field>
   <field type="int">atomtype</field>
   <set>
    <rc><c>Si</c><c>   1</c></rc>
    <rc><c>Si</c><c>   1</c></rc>
   </set>
  </array>
  <array name="atomtypes" >
   <dimension dim="1">type</dimension>
   <field type="int">atomspertype</field>
   <field type="string">element</field>
   <field>mass</field>
   <field>valence</field>
   <field type="string">pseudopotential</field>
   <set>
    <rc><c>   2</c><c>Si</c><c>     28.08500000</c><c>      4.00000000</c><c> PAW_PBE Si 05Jan2001                   </c></rc>
   </set>
  </array>
 </atominfo>
 <structure name="initialpos" >
  <crystal>
   <varray name="basis" >
    <v>       0.00000000       2.71500000       2.71500000 </v>
    <v>       2.71500000       0.00000000       2.71500000 </v>
    <v>       2.71500000       2.71500000       0.00000000 </v>
   </varray>
   <i name="volume">     40.02575175 </i>
   <varray name="rec_basis" >
    <v>      -0.18416206       0.18416206       0.18416206 </v>
    <v>       0.18416206      -0.18416206       0.18416206 </v>
    <v>       0.18416206       0.18416206      -0.18416206 </v>
   </varray>
  </crystal>
  <varray name="positions" >
   <v>       0.00000000       0.00000000       0.00000000 </v>
   <v>       0.25000000       0.25000000       0.25000000 </v>
  </varray>
 </structure>
 <calculation>
  <scstep>
   <time name="dav">    0.10    0.10</time>
   <time name="total">    0.12    0.12</time>
   <energy>
    <i name="alphaZ">      3.36414203 </i>
    <i name="ewald">   -228.56352493 </i>
    <i name="hartreedc">    -14.91639326 </i>
    <i name="XCdc">    -17.95967901 </i>
    <i name="pawpsdc">     74.49672717 </i>
    <i name="pawaedc">    -39.53645523 </i>
    <i name="eentropy">     -0.01231406 </i>
    <i name="bandstr">     18.13120537 </i>
    <i name="atom">    206.12968587 </i>
    <i name="e_fr_energy">      1.13339394 </i>
    <i name="e_wo_entrp">      1.14570801 </i>
    <i name="e_0_energy">      1.13955098 </i>
   </energy>
  </scstep>
  <scstep>
   <time name="dav">    0.14    0.14</time>
   <time name="total">    0.14    0.15</time>
   <energy>
    <i name="e_fr_energy">    -10.70449970 </i>
    <i name="e_wo_entrp">    -10.70442014 </i>
    <i name="e_0_energy">    -10.70445992 </i>
   </energy>
  </scstep>
  <scstep>
   <time name="dav">    0.11    0.11</time>
   <time name="total">    0.11    0.12</time>
   <energy>
    <i name="e_fr_energy">    -10.83707608 </i>
    <i name="e_wo_entrp">    -10.83693936 </i>
    <i name="e_0_energy">    -10.83700772 </i>
   </energy>
  </scstep>
  <scstep>
   <time name="dav">    0.14    0.14</time>
   <time name="total">    0.14    0.14</time>
   <energy>
    <i name="e_fr_energy">    -10.83763485 </i>
    <i name="e_wo_entrp">    -10.83749774 </i>
    <i name="e_0_energy">    -10.83756630 </i>
   </energy>
  </scstep>
  <scstep>
   <time name="dav">    0.11    0.11</time>
   <time name="total">    0.11    0.11</time>
   <energy>
    <i name="e_fr_energy">    -10.83763512 </i>
    <i name="e_wo_entrp">    -10.83749802 </i>
    <i name="e_0_energy">    -10.83756657 </i>
   </energy>
  </scstep>
  <scstep>
   <time name="dav">    0.14    0.14</time>
   <time name="total">    0.14    0.14</time>
   <energy>
    <i name="alphaZ">      3.36414203 </i>
    <i name="ewald">   -228.56352493 </i>
    <i name="hartreedc">    -14.91639326 </i>
    <i name="XCdc">    -17.95967901 </i>
    <i name="pawpsdc">     74.49672717 </i>
    <i name="pawaedc">    -39.53645523 </i>
    <i name="eentropy">     -0.00013711 </i>
    <i name="bandstr">      6.14799934 </i>
    <i name="atom">    206.12968587 </i>
    <i name="e_fr_energy">    -10.83763513 </i>
    <i name="e_wo_entrp">    -10.83749802 </i>
    <i name="e_0_energy">    -10.83756657 </i>
   </energy>
  </scstep>
  <structure>
   <crystal>
    <varray name="basis" >
     <v>       0.00000000       2.71500000       2.71500000 </v>
     <v>       2.71500000       0.00000000       2.71500000 </v>
     <v>       2.71500000       2.71500000       0.00000000 </v>
    </varray>
    <i name="volume">     40.02575175 </i>
    <varray name="rec_basis" >
     <v>      -0.18416206       0.18416206       0.18416206 </v>
     <v>       0.18416206      -0.18416206       0.18416206 </v>
     <v>       0.18416206       0.18416206      -0.18416206 </v>
    </varray>
   </crystal>
   <varray name="positions" >
    <v>       0.00000000       0.00000000       0.00000000 </v>
    <v>       0.25000000       0.25000000       0.25000000 </v>
   </varray>
  </structure>
  <varray name="forces" >
   <v>       0.00000000       0.00000000       0.00000000 </v>
   <v>      -0.00000000      -0.00000000      -0.00000000 </v>
  </varray>
  <varray name="stress" >
   <v>      18.65383011      -0.00000000      -0.00000000 </v>
   <v>       0.00000000      18.65383011      -0.00000000 </v>
   <v>       0.00000000       0.00000000      18.65383011 </v>
  </varray>
  <energy>
   <i name="e_fr_energy">    -10.83763513 </i>
   <i name="e_wo_entrp">    -10.83756657 </i>
   <i name="e_0_energy">     -0.00013711 </i>
  </energy>
  <time name="totalsc">    0.94    0.95</time>
  <eigenvalues>
   <array>
    <dimension dim="1">band</dimension>
    <dimension dim="2">kpoint</dimension>
    <dimension dim="3">spin</dimension>
    <field>eigene</field>
    <field>occ</field>
    <set>
     <set comment="spin 1">
      <set comment="kpoint 1">
       <r>   -6.1302    1.0000 </r>
       <r>    5.8335    0.9735 </r>
       <r>    5.8335    0.9734 </r>
       <r>    5.8335    0.9734 </r>
       <r>    8.4014    0.0000 </r>
       <r>    8.4015    0.0000 </r>
       <r>    8.4015    0.0000 </r>
       <r>    9.2084    0.0000 </r>
      </set>
      <set comment="kpoint 2">
       <r>   -5.9993    1.0000 </r>
       <r>    4.6873    1.0000 </r>
       <r>    5.6336    0.9996 </r>
       <r>    5.6337    0.9996 </r>
       <r>    8.4117    0.0000 </r>
       <r>    8.6922    0.0000 </r>
       <r>    8.6923    0.0000 </r>
       <r>   10.1298    0.0000 </r>
      </set>
      <set comment="kpoint 3">
       <r>   -5.6125    1.0000 </r>
       <r>    2.8246    1.0000 </r>
       <r>    5.2532    1.0000 </r>
       <r>    5.2532    1.0000 </r>
       <r>    8.0586    0.0000 </r>
       <r>    9.2012    0.0000 </r>
       <r>    9.2012    0.0000 </r>
       <r>   11.8931    0.0000 </r>
      </set>
      <set comment="kpoint 4">
       <r>   -4.9969    1.0000 </r>
       <r>    1.0378    1.0000 </r>
       <r>    4.9181    1.0000 </r>
       <r>    4.9181    1.0000 </r>
       <r>    7.6975    0.0000 </r>
       <r>    9.3718    0.0000 </r>
       <r>    9.3719    0.0000 </r>
       <r>   13.4582    0.0000 </r>
      </set>
      <set comment="kpoint 5">
       <r>   -4.2495    1.0000 </r>
       <r>   -0.4390    1.0000 </r>
       <r>    4.7058    1.0000 </r>
       <r>    4.7058    1.0000 </r>
       <r>    7.4579    0.0000 </r>
       <r>    9.2543    0.0000 </r>
       <r>    9.2544    0.0000 </r>
       <r>   13.6766    0.0000 </r>
      </set>
      <set comment="kpoint 6">
       <r>   -3.7977    1.0000 </r>
       <r>   -1.1373    1.0000 </r>
       <r>    4.6340    1.0000 </r>
       <r>    4.6340    1.0000 </r>
       <r>    7.3758    0.0000 </r>
       <r>    9.1775    0.0000 </r>
       <r>    9.1776    0.0000 </r>
       <r>   13.5638    0.0000 </r>
      </set>
      <set comment="kpoint 7">
       <r>   -5.9554    1.0000 </r>
       <r>    4.8950    1.0000 </r>
       <r>    5.2554    1.0000 </r>
       <r>    5.2554    1.0000 </r>
       <r>    8.0204    0.0000 </r>
       <r>    9.1914    0.0000 </r>
       <r>    9.1915    0.0000 </r>
       <r>   10.0336    0.0000 </r>
      </set>
      <set comment="kpoint 8">
       <r>   -5.6526    1.0000 </r>
       <r>    3.3823    1.0000 </r>
       <r>    4.8209    1.0000 </r>
       <r>    4.9927    1.0000 </r>
       <r>    8.0809    0.0000 </r>
       <r>    9.2498    0.0000 </r>
       <r>    9.8475    0.0000 </r>
       <r>   10.8286    0.0000 </r>
      </set>
      <set comment="kpoint 9">
       <r>   -5.1088    1.0000 </r>
       <r>    1.6209    1.0000 </r>
       <r>    4.5019    1.0000 </r>
       <r>    4.5592    1.0000 </r>
       <r>    8.2152    0.0000 </r>
       <r>    9.2284    0.0000 </r>
       <r>   10.1282    0.0000 </r>
       <r>   11.1641    0.0000 </r>
      </set>
      <set comment="kpoint 10">
       <r>   -4.3844    1.0000 </r>
       <r>    0.0469    1.0000 </r>
       <r>    4.1477    1.0000 </r>
       <r>    4.3545    1.0000 </r>
       <r>    8.0733    0.0000 </r>
       <r>    9.1861    0.0000 </r>
       <r>    9.9485    0.0000 </r>
       <r>   12.2338    0.0000 </r>
      </set>
      <set comment="kpoint 11">
       <r>   -3.7432    1.0000 </r>
       <r>   -0.9909    1.0000 </r>
       <r>    3.8570    1.0000 </r>
       <r>    4.3874    1.0000 </r>
       <r>    7.9881    0.0000 </r>
       <r>    9.1534    0.0000 </r>
       <r>    9.6801    0.0000 </r>
       <r>   13.6445    0.0000 </r>
      </set>
      <set comment="kpoint 12">
       <r>   -3.9106    1.0000 </r>
       <r>   -0.7419    1.0000 </r>
       <r>    3.7284    1.0000 </r>
       <r>    4.5873    1.0000 </r>
       <r>    8.0509    0.0000 </r>
       <r>    9.2846    0.0000 </r>
       <r>    9.5248    0.0000 </r>
       <r>   13.8984    0.0000 </r>
      </set>
      <set comment="kpoint 13">
       <r>   -4.6401    1.0000 </r>
       <r>    0.5410    1.0000 </r>
       <r>    3.7880    1.0000 </r>
       <r>    4.9223    1.0000 </r>
       <r>    8.2564    0.0000 </r>
       <r>    9.4547    0.0000 </r>
       <r>    9.5357    0.0000 </r>
       <r>   12.8609    0.0000 </r>
      </set>
      <set comment="kpoint 14">
       <r>   -5.3163    1.0000 </r>
       <r>    2.1913    1.0000 </r>
       <r>    4.0629    1.0000 </r>
       <r>    5.3288    1.0000 </r>
       <r>    8.5666    0.0000 </r>
       <r>    9.2108    0.0000 </r>
       <r>    9.5484    0.0000 </r>
       <r>   11.8089    0.0000 </r>
      </set>
      <set comment="kpoint 15">
       <r>   -5.7826    1.0000 </r>
       <r>    3.8029    1.0000 </r>
       <r>    4.6721    1.0000 </r>
       <r>    5.6557    0.9993 </r>
       <r>    8.7596    0.0000 </r>
       <r>    8.8229    0.0000 </r>
       <r>    8.9508    0.0000 </r>
       <r>   11.0424    0.0000 </r>
      </set>
      <set comment="kpoint 16">
       <r>   -5.4344    1.0000 </r>
       <r>    3.2108    1.0000 </r>
       <r>    4.3445    1.0000 </r>
       <r>    4.3445    1.0000 </r>
       <r>    7.2972    0.0000 </r>
       <r>    9.7279    0.0000 </r>
       <r>   10.7345    0.0000 </r>
       <r>   10.7345    0.0000 </r>
      </set>
      <set comment="kpoint 17">
       <r>   -4.9684    1.0000 </r>
       <r>    1.9634    1.0000 </r>
       <r>    3.8374    1.0000 </r>
       <r>    3.9961    1.0000 </r>
       <r>    7.3956    0.0000 </r>
       <r>    9.2934    0.0000 </r>
       <r>   10.9971    0.0000 </r>
       <r>   11.3272    0.0000 </r>
      </set>
      <set comment="kpoint 18">
       <r>   -4.2927    1.0000 </r>
       <r>    0.5251    1.0000 </r>
       <r>    3.2093    1.0000 </r>
       <r>    3.8365    1.0000 </r>
       <r>    7.6112    0.0000 </r>
       <r>    9.9263    0.0000 </r>
       <r>   10.7760    0.0000 </r>
       <r>   11.2788    0.0000 </r>
      </set>
      <set comment="kpoint 19">
       <r>   -3.5612    1.0000 </r>
       <r>   -0.6603    1.0000 </r>
       <r>    2.6990    1.0000 </r>
       <r>    3.8806    1.0000 </r>
       <r>    7.6770    0.0000 </r>
       <r>   10.5419    0.0000 </r>
       <r>   10.9469    0.0000 </r>
       <r>   11.4900    0.0000 </r>
      </set>
      <set comment="kpoint 20">
       <r>   -3.4081    1.0000 </r>
       <r>   -0.8688    1.0000 </r>
       <r>    2.4000    1.0000 </r>
       <r>    4.1190    1.0000 </r>
       <r>    7.8946    0.0000 </r>
       <r>   10.4454    0.0000 </r>
       <r>   10.6432    0.0000 </r>
       <r>   13.4143    0.0000 </r>
      </set>
      <set comment="kpoint 21">
       <r>   -4.0624    1.0000 </r>
       <r>    0.1189    1.0000 </r>
       <r>    2.3792    1.0000 </r>
       <r>    4.5168    1.0000 </r>
       <r>    8.2949    0.0000 </r>
       <r>   10.3715    0.0000 </r>
       <r>   10.4519    0.0000 </r>
       <r>   12.5591    0.0000 </r>
      </set>
      <set comment="kpoint 22">
       <r>   -4.7807    1.0000 </r>
       <r>    1.3581    1.0000 </r>
       <r>    2.8320    1.0000 </r>
       <r>    4.9876    1.0000 </r>
       <r>    8.7323    0.0000 </r>
       <r>    9.8322    0.0000 </r>
       <r>   10.1508    0.0000 </r>
       <r>   11.5825    0.0000 </r>
      </set>
      <set comment="kpoint 23">
       <r>   -4.5802    1.0000 </r>
       <r>    1.4181    1.0000 </r>
       <r>    3.6029    1.0000 </r>
       <r>    3.6030    1.0000 </r>
       <r>    6.6969    0.0000 </r>
       <r>    8.2501    0.0000 </r>
       <r>   12.4961    0.0000 </r>
       <r>   12.4961    0.0000 </r>
      </set>
      <set comment="kpoint 24">
       <r>   -3.9670    1.0000 </r>
       <r>    0.4122    1.0000 </r>
       <r>    2.9766    1.0000 </r>
       <r>    3.3982    1.0000 </r>
       <r>    6.8858    0.0000 </r>
       <r>    8.0813    0.0000 </r>
       <r>   12.8004    0.0000 </r>
       <r>   12.9166    0.0000 </r>
      </set>
      <set comment="kpoint 25">
       <r>   -3.2164    1.0000 </r>
       <r>   -0.5945    1.0000 </r>
       <r>    2.1473    1.0000 </r>
       <r>    3.4048    1.0000 </r>
       <r>    7.0648    0.0000 </r>
       <r>    9.2178    0.0000 </r>
       <r>   12.6199    0.0000 </r>
       <r>   12.6613    0.0000 </r>
      </set>
      <set comment="kpoint 26">
       <r>   -2.7967    1.0000 </r>
       <r>   -1.0708    1.0000 </r>
       <r>    1.5935    1.0000 </r>
       <r>    3.6204    1.0000 </r>
       <r>    7.2988    0.0000 </r>
       <r>   11.0259    0.0000 </r>
       <r>   12.2603    0.0000 </r>
       <r>   12.4632    0.0000 </r>
      </set>
      <set comment="kpoint 27">
       <r>   -3.3356    1.0000 </r>
       <r>   -0.4808    1.0000 </r>
       <r>    1.5674    1.0000 </r>
       <r>    4.0175    1.0000 </r>
       <r>    7.7458    0.0000 </r>
       <r>   11.5931    0.0000 </r>
       <r>   11.8914    0.0000 </r>
       <r>   12.6951    0.0000 </r>
      </set>
      <set comment="kpoint 28">
       <r>   -3.4167    1.0000 </r>
       <r>   -0.3445    1.0000 </r>
       <r>    3.1380    1.0000 </r>
       <r>    3.1380    1.0000 </r>
       <r>    6.4157    0.0145 </r>
       <r>    7.1458    0.0000 </r>
       <r>   14.3629    0.0000 </r>
       <r>   14.3629    0.0000 </r>
      </set>
      <set comment="kpoint 29">
       <r>   -2.6874    1.0000 </r>
       <r>   -1.1854    1.0000 </r>
       <r>    2.5517    1.0000 </r>
       <r>    3.0895    1.0000 </r>
       <r>    6.6513    0.0001 </r>
       <r>    7.4096    0.0000 </r>
       <r>   14.6047    0.0000 </r>
       <r>   14.7067    0.0000 </r>
      </set>
      <set comment="kpoint 30">
       <r>   -2.2112    1.0000 </r>
       <r>   -1.6061    1.0000 </r>
       <r>    1.7681    1.0000 </r>
       <r>    3.2568    1.0000 </r>
       <r>    6.8649    0.0000 </r>
       <r>    8.9885    0.0000 </r>
       <r>   13.9451    0.0000 </r>
       <r>   14.5391    0.0000 </r>
      </set>
      <set comment="kpoint 31">
       <r>   -1.9842    1.0000 </r>
       <r>   -1.9842    1.0000 </r>
       <r>    2.9804    1.0000 </r>
       <r>    2.9804    1.0000 </r>
       <r>    6.5444    0.0010 </r>
       <r>    6.5445    0.0010 </r>
       <r>   15.9574    0.0000 </r>
       <r>   15.9629    0.0000 </r>
      </set>
      <set comment="kpoint 32">
       <r>   -5.2690    1.0000 </r>
       <r>    2.4601    1.0000 </r>
       <r>    3.7517    1.0000 </r>
       <r>    4.8618    1.0000 </r>
       <r>    8.1853    0.0000 </r>
       <r>    9.5724    0.0000 </r>
       <r>   10.4408    0.0000 </r>
       <r>   10.5062    0.0000 </r>
      </set>
      <set comment="kpoint 33">
       <r>   -4.6572    1.0000 </r>
       <r>    1.0504    1.0000 </r>
       <r>    3.1634    1.0000 </r>
       <r>    4.4865    1.0000 </r>
       <r>    8.5379    0.0000 </r>
       <r>    9.4544    0.0000 </r>
       <r>   10.5562    0.0000 </r>
       <r>   10.9649    0.0000 </r>
      </set>
      <set comment="kpoint 34">
       <r>   -3.9100    1.0000 </r>
       <r>   -0.3134    1.0000 </r>
       <r>    2.9323    1.0000 </r>
       <r>    4.1359    1.0000 </r>
       <r>    8.5928    0.0000 </r>
       <r>    9.1226    0.0000 </r>
       <r>   10.9001    0.0000 </r>
       <r>   11.8987    0.0000 </r>
      </set>
      <set comment="kpoint 35">
       <r>   -3.4506    1.0000 </r>
       <r>   -0.9913    1.0000 </r>
       <r>    2.8729    1.0000 </r>
       <r>    3.9980    1.0000 </r>
       <r>    8.6230    0.0000 </r>
       <r>    8.9365    0.0000 </r>
       <r>   10.8605    0.0000 </r>
       <r>   13.6718    0.0000 </r>
      </set>
      <set comment="kpoint 36">
       <r>   -4.4304    1.0000 </r>
       <r>    1.0620    1.0000 </r>
       <r>    3.0249    1.0000 </r>
       <r>    3.7473    1.0000 </r>
       <r>    7.6139    0.0000 </r>
       <r>    8.8980    0.0000 </r>
       <r>   11.0457    0.0000 </r>
       <r>   12.3854    0.0000 </r>
      </set>
      <set comment="kpoint 37">
       <r>   -3.7098    1.0000 </r>
       <r>   -0.0404    1.0000 </r>
       <r>    2.4064    1.0000 </r>
       <r>    3.4182    1.0000 </r>
       <r>    7.9960    0.0000 </r>
       <r>    9.5954    0.0000 </r>
       <r>   10.6671    0.0000 </r>
       <r>   12.7810    0.0000 </r>
      </set>
      <set comment="kpoint 38">
       <r>   -3.0593    1.0000 </r>
       <r>   -0.9038    1.0000 </r>
       <r>    1.9979    1.0000 </r>
       <r>    3.3626    1.0000 </r>
       <r>    8.1785    0.0000 </r>
       <r>   10.2080    0.0000 </r>
       <r>   11.3543    0.0000 </r>
       <r>   12.7122    0.0000 </r>
      </set>
      <set comment="kpoint 39">
       <r>   -3.2608    1.0000 </r>
       <r>   -0.6442    1.0000 </r>
       <r>    1.8471    1.0000 </r>
       <r>    3.6029    1.0000 </r>
       <r>    8.5220    0.0000 </r>
       <r>    9.9520    0.0000 </r>
       <r>   11.7926    0.0000 </r>
       <r>   12.5732    0.0000 </r>
      </set>
      <set comment="kpoint 40">
       <r>   -3.9968    1.0000 </r>
       <r>    0.3057    1.0000 </r>
       <r>    2.1475    1.0000 </r>
       <r>    4.0436    1.0000 </r>
       <r>    9.0200    0.0000 </r>
       <r>    9.4986    0.0000 </r>
       <r>   10.5576    0.0000 </r>
       <r>   12.1031    0.0000 </r>
      </set>
      <set comment="kpoint 41">
       <r>   -3.2983    1.0000 </r>
       <r>   -0.4303    1.0000 </r>
       <r>    2.6139    1.0000 </r>
       <r>    2.9402    1.0000 </r>
       <r>    7.3210    0.0000 </r>
       <r>    7.9108    0.0000 </r>
       <r>   12.5986    0.0000 </r>
       <r>   14.3486    0.0000 </r>
      </set>
      <set comment="kpoint 42">
       <r>   -2.5596    1.0000 </r>
       <r>   -1.2052    1.0000 </r>
       <r>    1.9116    1.0000 </r>
       <r>    2.8495    1.0000 </r>
       <r>    7.6719    0.0000 </r>
       <r>    9.1190    0.0000 </r>
       <r>   12.1945    0.0000 </r>
       <r>   13.9847    0.0000 </r>
      </set>
      <set comment="kpoint 43">
       <r>   -2.5651    1.0000 </r>
       <r>   -1.1786    1.0000 </r>
       <r>    1.4955    1.0000 </r>
       <r>    3.1192    1.0000 </r>
       <r>    8.0010    0.0000 </r>
       <r>   10.9504    0.0000 </r>
       <r>   11.7993    0.0000 </r>
       <r>   12.1236    0.0000 </r>
      </set>
      <set comment="kpoint 44">
       <r>   -1.9310    1.0000 </r>
       <r>   -1.9310    1.0000 </r>
       <r>    2.5710    1.0000 </r>
       <r>    2.5710    1.0000 </r>
       <r>    7.3988    0.0000 </r>
       <r>    7.3988    0.0000 </r>
       <r>   14.3409    0.0000 </r>
       <r>   14.3410    0.0000 </r>
      </set>
      <set comment="kpoint 45">
       <r>   -2.9773    1.0000 </r>
       <r>   -0.7282    1.0000 </r>
       <r>    1.8530    1.0000 </r>
       <r>    2.8402    1.0000 </r>
       <r>    9.2332    0.0000 </r>
       <r>    9.6080    0.0000 </r>
       <r>   10.2758    0.0000 </r>
       <r>   13.6337    0.0000 </r>
      </set>
      <set comment="kpoint 46">
       <r>   -2.4658    1.0000 </r>
       <r>   -1.2377    1.0000 </r>
       <r>    1.6951    1.0000 </r>
       <r>    2.5889    1.0000 </r>
       <r>    9.5077    0.0000 </r>
       <r>    9.8281    0.0000 </r>
       <r>   11.2409    0.0000 </r>
       <r>   11.6845    0.0000 </r>
      </set>
      <set comment="kpoint 47">
       <r>   -1.8373    1.0000 </r>
       <r>   -1.8373    1.0000 </r>
       <r>    2.0573    1.0000 </r>
       <r>    2.0573    1.0000 </r>
       <r>    9.2685    0.0000 </r>
       <r>    9.2686    0.0000 </r>
       <r>   11.7686    0.0000 </r>
       <r>   11.7687    0.0000 </r>
      </set>
     </set>
    </set>
   </array>
  </eigenvalues>
  <separator name="orbital magnetization" >
   <v name="MAGDIPOLOUT">      0.00000000      0.00000000      0.00000000</v>
  </separator>
  <dos>
   <i name="efermi">      6.10700926 </i>
   <total>
    <array>
     <dimension dim="1">gridpoints</dimension>
     <dimension dim="2">spin</dimension>
     <field>energy</field>
     <field>total</field>
     <field>integrated</field>
     <set>
      <set comment="spin 1">
       <r>    -8.1302     0.0000     0.0000 </r>
       <r>    -8.0433     0.0000     0.0000 </r>
       <r>    -7.9563     0.0000     0.0000 </r>
       <r>    -7.8693     0.0000     0.0000 </r>
       <r>    -7.7823     0.0000     0.0000 </r>
       <r>    -7.6953     0.0000     0.0000 </r>
       <r>    -7.6084     0.0000     0.0000 </r>
       <r>    -7.5214     0.0000     0.0000 </r>
       <r>    -7.4344     0.0000     0.0000 </r>
       <r>    -7.3474     0.0000     0.0000 </r>
       <r>    -7.2605     0.0000     0.0000 </r>
       <r>    -7.1735     0.0000     0.0000 </r>
       <r>    -7.0865     0.0000     0.0000 </r>
       <r>    -6.9995     0.0000     0.0000 </r>
       <r>    -6.9126     0.0000     0.0000 </r>
       <r>    -6.8256     0.0000     0.0000 </r>
       <r>    -6.7386     0.0000     0.0000 </r>
       <r>    -6.6516     0.0000     0.0000 </r>
       <r>    -6.5646     0.0000     0.0000 </r>
       <r>    -6.4777     0.0002     0.0000 </r>
       <r>    -6.3907     0.0012     0.0001 </r>
       <r>    -6.3037     0.0050     0.0006 </r>
       <r>    -6.2167     0.0160     0.0019 </r>
       <r>    -6.1298     0.0391     0.0053 </r>
       <r>    -6.0428     0.0730     0.0117 </r>
       <r>    -5.9558     0.1097     0.0212 </r>
       <r>    -5.8688     0.1461     0.0340 </r>
       <r>    -5.7819     0.1885     0.0503 </r>
       <r>    -5.6949     0.2307     0.0704 </r>
       <r>    -5.6079     0.2494     0.0921 </r>
       <r>    -5.5209     0.2439     0.1133 </r>
       <r>    -5.4339     0.2539     0.1354 </r>
       <r>    -5.3470     0.3044     0.1619 </r>
       <r>    -5.2600     0.3625     0.1934 </r>
       <r>    -5.1730     0.3876     0.2271 </r>
       <r>    -5.0860     0.3814     0.2603 </r>
       <r>    -4.9991     0.3626     0.2918 </r>
       <r>    -4.9121     0.3449     0.3218 </r>
       <r>    -4.8251     0.3607     0.3532 </r>
       <r>    -4.7381     0.4367     0.3912 </r>
       <r>    -4.6512     0.5309     0.4374 </r>
       <r>    -4.5642     0.5695     0.4869 </r>
       <r>    -4.4772     0.5497     0.5347 </r>
       <r>    -4.3902     0.5186     0.5798 </r>
       <r>    -4.3032     0.4865     0.6221 </r>
       <r>    -4.2163     0.4589     0.6620 </r>
       <r>    -4.1293     0.4955     0.7051 </r>
       <r>    -4.0423     0.6389     0.7607 </r>
       <r>    -3.9553     0.8185     0.8319 </r>
       <r>    -3.8684     0.9104     0.9111 </r>
       <r>    -3.7814     0.8783     0.9875 </r>
       <r>    -3.6944     0.7808     1.0554 </r>
       <r>    -3.6074     0.6881     1.1152 </r>
       <r>    -3.5205     0.6567     1.1723 </r>
       <r>    -3.4335     0.7135     1.2344 </r>
       <r>    -3.3465     0.8163     1.3054 </r>
       <r>    -3.2595     0.8761     1.3816 </r>
       <r>    -3.1725     0.8407     1.4547 </r>
       <r>    -3.0856     0.7371     1.5188 </r>
       <r>    -2.9986     0.6157     1.5724 </r>
       <r>    -2.9116     0.5069     1.6165 </r>
       <r>    -2.8246     0.4471     1.6554 </r>
       <r>    -2.7377     0.4725     1.6964 </r>
       <r>    -2.6507     0.5653     1.7456 </r>
       <r>    -2.5637     0.6404     1.8013 </r>
       <r>    -2.4767     0.6042     1.8539 </r>
       <r>    -2.3898     0.4526     1.8932 </r>
       <r>    -2.3028     0.2800     1.9176 </r>
       <r>    -2.2158     0.1728     1.9326 </r>
       <r>    -2.1288     0.1467     1.9454 </r>
       <r>    -2.0418     0.1822     1.9612 </r>
       <r>    -1.9549     0.2484     1.9828 </r>
       <r>    -1.8679     0.2927     2.0083 </r>
       <r>    -1.7809     0.2748     2.0322 </r>
       <r>    -1.6939     0.2110     2.0505 </r>
       <r>    -1.6070     0.1485     2.0635 </r>
       <r>    -1.5200     0.1216     2.0740 </r>
       <r>    -1.4330     0.1667     2.0885 </r>
       <r>    -1.3460     0.3327     2.1175 </r>
       <r>    -1.2591     0.6074     2.1703 </r>
       <r>    -1.1721     0.8704     2.2460 </r>
       <r>    -1.0851     1.0063     2.3335 </r>
       <r>    -0.9981     1.0276     2.4229 </r>
       <r>    -0.9111     1.0113     2.5109 </r>
       <r>    -0.8242     1.0012     2.5979 </r>
       <r>    -0.7372     1.0074     2.6856 </r>
       <r>    -0.6502     0.9995     2.7725 </r>
       <r>    -0.5632     0.9287     2.8533 </r>
       <r>    -0.4763     0.8087     2.9236 </r>
       <r>    -0.3893     0.6949     2.9841 </r>
       <r>    -0.3023     0.5958     3.0359 </r>
       <r>    -0.2153     0.5036     3.0797 </r>
       <r>    -0.1284     0.4597     3.1197 </r>
       <r>    -0.0414     0.4873     3.1620 </r>
       <r>     0.0456     0.5226     3.2075 </r>
       <r>     0.1326     0.4973     3.2508 </r>
       <r>     0.2196     0.4341     3.2885 </r>
       <r>     0.3065     0.4033     3.3236 </r>
       <r>     0.3935     0.4246     3.3605 </r>
       <r>     0.4805     0.4481     3.3995 </r>
       <r>     0.5675     0.4099     3.4351 </r>
       <r>     0.6544     0.2994     3.4612 </r>
       <r>     0.7414     0.1809     3.4769 </r>
       <r>     0.8284     0.1411     3.4892 </r>
       <r>     0.9154     0.2192     3.5083 </r>
       <r>     1.0023     0.3640     3.5399 </r>
       <r>     1.0893     0.4524     3.5793 </r>
       <r>     1.1763     0.4115     3.6151 </r>
       <r>     1.2633     0.3132     3.6423 </r>
       <r>     1.3503     0.2841     3.6670 </r>
       <r>     1.4372     0.3690     3.6991 </r>
       <r>     1.5242     0.5224     3.7446 </r>
       <r>     1.6112     0.6785     3.8036 </r>
       <r>     1.6982     0.8186     3.8748 </r>
       <r>     1.7851     0.9787     3.9599 </r>
       <r>     1.8721     1.1585     4.0607 </r>
       <r>     1.9591     1.2687     4.1710 </r>
       <r>     2.0461     1.2312     4.2781 </r>
       <r>     2.1330     1.0799     4.3720 </r>
       <r>     2.2200     0.9291     4.4528 </r>
       <r>     2.3070     0.8864     4.5299 </r>
       <r>     2.3940     0.9683     4.6141 </r>
       <r>     2.4810     1.0771     4.7078 </r>
       <r>     2.5679     1.1120     4.8046 </r>
       <r>     2.6549     1.0906     4.8994 </r>
       <r>     2.7419     1.1272     4.9974 </r>
       <r>     2.8289     1.2862     5.1093 </r>
       <r>     2.9158     1.4730     5.2374 </r>
       <r>     3.0028     1.5457     5.3719 </r>
       <r>     3.0898     1.4933     5.5018 </r>
       <r>     3.1768     1.4093     5.6243 </r>
       <r>     3.2637     1.3683     5.7433 </r>
       <r>     3.3507     1.3721     5.8627 </r>
       <r>     3.4377     1.3536     5.9804 </r>
       <r>     3.5247     1.2825     6.0920 </r>
       <r>     3.6117     1.2456     6.2003 </r>
       <r>     3.6986     1.3179     6.3149 </r>
       <r>     3.7856     1.4390     6.4401 </r>
       <r>     3.8726     1.4998     6.5706 </r>
       <r>     3.9596     1.4800     6.6993 </r>
       <r>     4.0465     1.4154     6.8224 </r>
       <r>     4.1335     1.2894     6.9345 </r>
       <r>     4.2205     1.0970     7.0299 </r>
       <r>     4.3075     0.9520     7.1127 </r>
       <r>     4.3944     0.9683     7.1970 </r>
       <r>     4.4814     1.0861     7.2914 </r>
       <r>     4.5684     1.1367     7.3903 </r>
       <r>     4.6554     1.0490     7.4815 </r>
       <r>     4.7424     0.9143     7.5611 </r>
       <r>     4.8293     0.8387     7.6340 </r>
       <r>     4.9163     0.7993     7.7035 </r>
       <r>     5.0033     0.7014     7.7645 </r>
       <r>     5.0903     0.5386     7.8114 </r>
       <r>     5.1772     0.4039     7.8465 </r>
       <r>     5.2642     0.3461     7.8766 </r>
       <r>     5.3512     0.3128     7.9038 </r>
       <r>     5.4382     0.2567     7.9262 </r>
       <r>     5.5251     0.2044     7.9439 </r>
       <r>     5.6121     0.1860     7.9601 </r>
       <r>     5.6991     0.1754     7.9754 </r>
       <r>     5.7861     0.1384     7.9874 </r>
       <r>     5.8731     0.0841     7.9947 </r>
       <r>     5.9600     0.0398     7.9982 </r>
       <r>     6.0470     0.0156     7.9995 </r>
       <r>     6.1340     0.0075     8.0002 </r>
       <r>     6.2210     0.0114     8.0012 </r>
       <r>     6.3079     0.0283     8.0036 </r>
       <r>     6.3949     0.0609     8.0089 </r>
       <r>     6.4819     0.1112     8.0186 </r>
       <r>     6.5689     0.1750     8.0338 </r>
       <r>     6.6558     0.2363     8.0544 </r>
       <r>     6.7428     0.2800     8.0787 </r>
       <r>     6.8298     0.3070     8.1054 </r>
       <r>     6.9168     0.3220     8.1335 </r>
       <r>     7.0038     0.3269     8.1619 </r>
       <r>     7.0907     0.3436     8.1918 </r>
       <r>     7.1777     0.4194     8.2282 </r>
       <r>     7.2647     0.5793     8.2786 </r>
       <r>     7.3517     0.7661     8.3453 </r>
       <r>     7.4386     0.8831     8.4221 </r>
       <r>     7.5256     0.9234     8.5024 </r>
       <r>     7.6126     0.9522     8.5852 </r>
       <r>     7.6996     0.9743     8.6700 </r>
       <r>     7.7866     0.9868     8.7558 </r>
       <r>     7.8735     1.0911     8.8507 </r>
       <r>     7.9605     1.3520     8.9683 </r>
       <r>     8.0475     1.6310     9.1101 </r>
       <r>     8.1345     1.7188     9.2596 </r>
       <r>     8.2214     1.5576     9.3951 </r>
       <r>     8.3084     1.2785     9.5063 </r>
       <r>     8.3954     1.0966     9.6017 </r>
       <r>     8.4824     1.1306     9.7000 </r>
       <r>     8.5693     1.2572     9.8094 </r>
       <r>     8.6563     1.2487     9.9180 </r>
       <r>     8.7433     1.0737    10.0114 </r>
       <r>     8.8303     0.9191    10.0913 </r>
       <r>     8.9173     0.9578    10.1746 </r>
       <r>     9.0042     1.2377    10.2823 </r>
       <r>     9.0912     1.7012    10.4302 </r>
       <r>     9.1782     2.1550    10.6177 </r>
       <r>     9.2652     2.3461    10.8217 </r>
       <r>     9.3521     2.2409    11.0166 </r>
       <r>     9.4391     2.0700    11.1967 </r>
       <r>     9.5261     1.9623    11.3674 </r>
       <r>     9.6131     1.7910    11.5231 </r>
       <r>     9.7000     1.4882    11.6526 </r>
       <r>     9.7870     1.2114    11.7579 </r>
       <r>     9.8740     1.0915    11.8529 </r>
       <r>     9.9610     1.0591    11.9450 </r>
       <r>    10.0480     1.0082    12.0327 </r>
       <r>    10.1349     0.9497    12.1153 </r>
       <r>    10.2219     0.9370    12.1968 </r>
       <r>    10.3089     0.9962    12.2834 </r>
       <r>    10.3959     1.1452    12.3830 </r>
       <r>    10.4828     1.3475    12.5003 </r>
       <r>    10.5698     1.4836    12.6293 </r>
       <r>    10.6568     1.4835    12.7583 </r>
       <r>    10.7438     1.4375    12.8834 </r>
       <r>    10.8307     1.4830    13.0123 </r>
       <r>    10.9177     1.5999    13.1515 </r>
       <r>    11.0047     1.6104    13.2916 </r>
       <r>    11.0917     1.4232    13.4154 </r>
       <r>    11.1787     1.1671    13.5169 </r>
       <r>    11.2656     0.9985    13.6037 </r>
       <r>    11.3526     0.9044    13.6824 </r>
       <r>    11.4396     0.8003    13.7520 </r>
       <r>    11.5266     0.7061    13.8134 </r>
       <r>    11.6135     0.7223    13.8762 </r>
       <r>    11.7005     0.8856    13.9532 </r>
       <r>    11.7875     1.0882    14.0479 </r>
       <r>    11.8745     1.1550    14.1484 </r>
       <r>    11.9614     1.0432    14.2391 </r>
       <r>    12.0484     0.9041    14.3177 </r>
       <r>    12.1354     0.8729    14.3936 </r>
       <r>    12.2224     0.9020    14.4721 </r>
       <r>    12.3094     0.8979    14.5502 </r>
       <r>    12.3963     0.9050    14.6289 </r>
       <r>    12.4833     1.0321    14.7187 </r>
       <r>    12.5703     1.2652    14.8287 </r>
       <r>    12.6573     1.4544    14.9552 </r>
       <r>    12.7442     1.4600    15.0822 </r>
       <r>    12.8312     1.2524    15.1911 </r>
       <r>    12.9182     0.9028    15.2697 </r>
       <r>    13.0052     0.5335    15.3161 </r>
       <r>    13.0921     0.2551    15.3383 </r>
       <r>    13.1791     0.1145    15.3482 </r>
       <r>    13.2661     0.0971    15.3567 </r>
       <r>    13.3531     0.1642    15.3709 </r>
       <r>    13.4401     0.2773    15.3951 </r>
       <r>    13.5270     0.4074    15.4305 </r>
       <r>    13.6140     0.5205    15.4758 </r>
       <r>    13.7010     0.5692    15.5253 </r>
       <r>    13.7880     0.5525    15.5733 </r>
       <r>    13.8749     0.5328    15.6197 </r>
       <r>    13.9619     0.5243    15.6653 </r>
       <r>    14.0489     0.4682    15.7060 </r>
       <r>    14.1359     0.3678    15.7380 </r>
       <r>    14.2228     0.3160    15.7655 </r>
       <r>    14.3098     0.3529    15.7962 </r>
       <r>    14.3968     0.4087    15.8317 </r>
       <r>    14.4838     0.4191    15.8682 </r>
       <r>    14.5708     0.3967    15.9027 </r>
       <r>    14.6577     0.3599    15.9340 </r>
       <r>    14.7447     0.2913    15.9593 </r>
       <r>    14.8317     0.1904    15.9759 </r>
       <r>    14.9187     0.0944    15.9841 </r>
       <r>    15.0056     0.0344    15.9870 </r>
       <r>    15.0926     0.0090    15.9878 </r>
       <r>    15.1796     0.0017    15.9880 </r>
       <r>    15.2666     0.0002    15.9880 </r>
       <r>    15.3535     0.0000    15.9880 </r>
       <r>    15.4405     0.0000    15.9880 </r>
       <r>    15.5275     0.0001    15.9880 </r>
       <r>    15.6145     0.0008    15.9881 </r>
       <r>    15.7015     0.0036    15.9884 </r>
       <r>    15.7884     0.0109    15.9893 </r>
       <r>    15.8754     0.0224    15.9913 </r>
       <r>    15.9624     0.0320    15.9941 </r>
       <r>    16.0494     0.0317    15.9968 </r>
       <r>    16.1363     0.0218    15.9987 </r>
       <r>    16.2233     0.0104    15.9996 </r>
       <r>    16.3103     0.0034    15.9999 </r>
       <r>    16.3973     0.0008    16.0000 </r>
       <r>    16.4842     0.0001    16.0000 </r>
       <r>    16.5712     0.0000    16.0000 </r>
       <r>    16.6582     0.0000    16.0000 </r>
       <r>    16.7452     0.0000    16.0000 </r>
       <r>    16.8322     0.0000    16.0000 </r>
       <r>    16.9191     0.0000    16.0000 </r>
       <r>    17.0061     0.0000    16.0000 </r>
       <r>    17.0931     0.0000    16.0000 </r>
       <r>    17.1801     0.0000    16.0000 </r>
       <r>    17.2670     0.0000    16.0000 </r>
       <r>    17.3540     0.0000    16.0000 </r>
       <r>    17.4410     0.0000    16.0000 </r>
       <r>    17.5280     0.0000    16.0000 </r>
       <r>    17.6149     0.0000    16.0000 </r>
       <r>    17.7019     0.0000    16.0000 </r>
       <r>    17.7889     0.0000    16.0000 </r>
       <r>    17.8759     0.0000    16.0000 </r>
       <r>    17.9629     0.0000    16.0000 </r>
      </set>
     </set>
    </array>
   </total>
  </dos>
 </calculation>
 <structure name="finalpos" >
  <crystal>
   <varray name="basis" >
    <v>       0.00000000       2.71500000       2.71500000 </v>
    <v>       2.71500000       0.00000000       2.71500000 </v>
    <v>       2.71500000       2.71500000       0.00000000 </v>
   </varray>
   <i name="volume">     40.02575175 </i>
   <varray name="rec_basis" >
    <v>      -0.18416206       0.18416206       0.18416206 </v>
    <v>       0.18416206      -0.18416206       0.18416206 </v>
    <v>       0.18416206       0.18416206      -0.18416206 </v>
   </varray>
  </crystal>
  <varray name="positions" >
   <v>       0.00000000       0.00000000       0.00000000 </v>
   <v>       0.25000000       0.25000000       0.25000000 </v>
  </varray>
 </structure>
</modeling>
