crte2                                   
   1.00000000000000     
     1.224209   -2.120392    0.000000
     1.224209    2.120392    0.000000
     0.000000    0.000000    5.508850
   C 
     2
Direct
  0.000000  0.000000  0.250000
  0.333333  0.666667  0.250000
 
   20   20   48
 0.17842951887E+01 0.17564102704E+01 0.16792120744E+01 0.15688262974E+01 0.14443033137E+01
 0.13227204255E+01 0.12177253327E+01 0.11387114238E+01 0.10887412818E+01 0.10637885551E+01
 0.10566547424E+01 0.10637885426E+01 0.10887412762E+01 0.11387114474E+01 0.12177253903E+01
 0.13227204987E+01 0.14443033731E+01 0.15688263244E+01 0.16792120726E+01 0.17564102605E+01
 0.17564102605E+01 0.17565172076E+01 0.16978553510E+01 0.15921558888E+01 0.14579982181E+01
 0.13149238337E+01 0.11802901894E+01 0.10680421703E+01 0.98677280366E+00 0.93764322221E+00
 0.91571954892E+00 0.91571574208E+00 0.93762461892E+00 0.98673193211E+00 0.10680053655E+01
 0.11803181449E+01 0.13150285495E+01 0.14580724241E+01 0.15920723335E+01 0.16976566732E+01
 0.16792120726E+01 0.17102462918E+01 0.16792121490E+01 0.15920724517E+01 0.14641727267E+01
 0.13148880948E+01 0.11634287876E+01 0.10268282864E+01 0.91807659768E+00 0.84354251360E+00
 0.80221728726E+00 0.78930609894E+00 0.80221732035E+00 0.84354257265E+00 0.91807666538E+00
 0.10268283351E+01 0.11634287886E+01 0.13148880336E+01 0.14641726168E+01 0.15920723335E+01
 0.15688263244E+01 0.16295099976E+01 0.16294237896E+01 0.15686640721E+01 0.14579981997E+01
 0.13149384305E+01 0.11590985967E+01 0.10091465481E+01 0.88077589158E+00 0.78432616114E+00
 0.72297622184E+00 0.69409963959E+00 0.69410123043E+00 0.72298642060E+00 0.78435139164E+00
 0.88079827458E+00 0.10091222377E+01 0.11590199490E+01 0.13148880336E+01 0.14580724241E+01
 0.14443033731E+01 0.15318940558E+01 0.15629706379E+01 0.15318939863E+01 0.14443032704E+01
 0.13150284621E+01 0.11634287493E+01 0.10091222470E+01 0.86931307141E+00 0.75677387754E+00
 0.67799257953E+00 0.63304157065E+00 0.61867432809E+00 0.63304156640E+00 0.67799256338E+00
 0.75677384609E+00 0.86931303744E+00 0.10091222377E+01 0.11634287886E+01 0.13150285495E+01
 0.13227204987E+01 0.14336912820E+01 0.14948388637E+01 0.14949001394E+01 0.14338095650E+01
 0.13227814159E+01 0.11802901354E+01 0.10267731364E+01 0.88077591570E+00 0.75678491010E+00
 0.66367704428E+00 0.60400167693E+00 0.57559916010E+00 0.57559884915E+00 0.60399609946E+00
 0.66366163411E+00 0.75677384609E+00 0.88079827458E+00 0.10268283351E+01 0.11803181449E+01
 0.12177253903E+01 0.13471993893E+01 0.14357977827E+01 0.14673904806E+01 0.14357977193E+01
 0.13471992901E+01 0.12177252948E+01 0.10680053037E+01 0.91807664552E+00 0.78435140197E+00
 0.67799258466E+00 0.60399611731E+00 0.56180104813E+00 0.54829189357E+00 0.56180103912E+00
 0.60399609946E+00 0.67799256338E+00 0.78435139164E+00 0.91807666538E+00 0.10680053655E+01
 0.11387114474E+01 0.12809632809E+01 0.13925069476E+01 0.14541226203E+01 0.14540769545E+01
 0.13924194783E+01 0.12809199188E+01 0.11387344223E+01 0.98677286557E+00 0.84355656017E+00
 0.72297622075E+00 0.63303193921E+00 0.57559913880E+00 0.54829402302E+00 0.54829189357E+00
 0.57559884915E+00 0.63304156640E+00 0.72298642060E+00 0.84354257265E+00 0.98673193211E+00
 0.10887412762E+01 0.12389253410E+01 0.13682318029E+01 0.14564179652E+01 0.14878061481E+01
 0.14564180525E+01 0.13682319344E+01 0.12389254565E+01 0.10887413320E+01 0.93762460791E+00
 0.80221726725E+00 0.69410116990E+00 0.61867428379E+00 0.57559913880E+00 0.56180104813E+00
 0.57559916010E+00 0.61867432809E+00 0.69410123043E+00 0.80221732035E+00 0.93762461892E+00
 0.10637885426E+01 0.12184958051E+01 0.13612323268E+01 0.14719916376E+01 0.15328568931E+01
 0.15328948946E+01 0.14720580500E+01 0.13612518512E+01 0.12184640162E+01 0.10637598679E+01
 0.91571950769E+00 0.78932123889E+00 0.69410116990E+00 0.63303193921E+00 0.60399611731E+00
 0.60400167693E+00 0.63304157065E+00 0.69409963959E+00 0.78930609894E+00 0.91571574208E+00
 0.10566547424E+01 0.12117975109E+01 0.13637854007E+01 0.14931767473E+01 0.15808196243E+01
 0.16119221700E+01 0.15808196277E+01 0.14931767435E+01 0.13637853782E+01 0.12117974683E+01
 0.10566546915E+01 0.91571950769E+00 0.80221726725E+00 0.72297622075E+00 0.67799258466E+00
 0.66367704428E+00 0.67799257953E+00 0.72297622184E+00 0.80221728726E+00 0.91571954892E+00
 0.10637885551E+01 0.12117894244E+01 0.13661363305E+01 0.15083248308E+01 0.16186465990E+01
 0.16792718360E+01 0.16792435977E+01 0.16186070284E+01 0.15083347681E+01 0.13661758785E+01
 0.12117974683E+01 0.10637598679E+01 0.93762460791E+00 0.84355656017E+00 0.78435140197E+00
 0.75678491010E+00 0.75677387754E+00 0.78432616113E+00 0.84354251360E+00 0.93764322221E+00
 0.10887412818E+01 0.12184640128E+01 0.13637854452E+01 0.15083348961E+01 0.16331501612E+01
 0.17186724285E+01 0.17492200014E+01 0.17186723348E+01 0.16331500187E+01 0.15083347681E+01
 0.13637853782E+01 0.12184640162E+01 0.10887413320E+01 0.98677286557E+00 0.91807664552E+00
 0.88077591570E+00 0.86931307141E+00 0.88077589158E+00 0.91807659768E+00 0.98677280366E+00
 0.11387114238E+01 0.12388678195E+01 0.13612324049E+01 0.14932163592E+01 0.16186465500E+01
 0.17186691663E+01 0.17747292189E+01 0.17747414677E+01 0.17186723348E+01 0.16186070284E+01
 0.14931767435E+01 0.13612518512E+01 0.12389254565E+01 0.11387344223E+01 0.10680053037E+01
 0.10267731364E+01 0.10091222470E+01 0.10091465481E+01 0.10268282864E+01 0.10680421703E+01
 0.12177253327E+01 0.12809199179E+01 0.13682318920E+01 0.14720579825E+01 0.15808195583E+01
 0.16792435449E+01 0.17492199740E+01 0.17747292189E+01 0.17492200014E+01 0.16792435977E+01
 0.15808196277E+01 0.14720580500E+01 0.13682319344E+01 0.12809199188E+01 0.12177252948E+01
 0.11802901354E+01 0.11634287493E+01 0.11590985967E+01 0.11634287876E+01 0.11802901894E+01
 0.13227204255E+01 0.13472366911E+01 0.13925070160E+01 0.14564588583E+01 0.15328568527E+01
 0.16118617323E+01 0.16792435448E+01 0.17186691663E+01 0.17186724285E+01 0.16792718360E+01
 0.16119221700E+01 0.15328948946E+01 0.14564180525E+01 0.13924194783E+01 0.13471992901E+01
 0.13227814159E+01 0.13150284621E+01 0.13149384305E+01 0.13148880948E+01 0.13149238337E+01
 0.14443033137E+01 0.14338096346E+01 0.14357977994E+01 0.14540770143E+01 0.14878061599E+01
 0.15328568527E+01 0.15808195583E+01 0.16186465500E+01 0.16331501612E+01 0.16186465990E+01
 0.15808196243E+01 0.15328568931E+01 0.14878061481E+01 0.14540769545E+01 0.14357977193E+01
 0.14338095650E+01 0.14443032704E+01 0.14579981997E+01 0.14641727267E+01 0.14579982181E+01
 0.15688262974E+01 0.15319729359E+01 0.14948388138E+01 0.14672792929E+01 0.14540770143E+01
 0.14564588583E+01 0.14720579825E+01 0.14932163592E+01 0.15083348961E+01 0.15083248308E+01
 0.14931767473E+01 0.14719916376E+01 0.14564179652E+01 0.14541226203E+01 0.14673904806E+01
 0.14949001394E+01 0.15318939863E+01 0.15686640721E+01 0.15920724517E+01 0.15921558888E+01
 0.16792120744E+01 0.16294236755E+01 0.15629705353E+01 0.14948388138E+01 0.14357977994E+01
 0.13925070160E+01 0.13682318920E+01 0.13612324049E+01 0.13637854452E+01 0.13661363305E+01
 0.13637854007E+01 0.13612323268E+01 0.13682318029E+01 0.13925069476E+01 0.14357977827E+01
 0.14948388637E+01 0.15629706379E+01 0.16294237896E+01 0.16792121490E+01 0.16978553510E+01
 0.17564102704E+01 0.17100456558E+01 0.16294236755E+01 0.15319729359E+01 0.14338096346E+01
 0.13472366911E+01 0.12809199179E+01 0.12388678195E+01 0.12184640128E+01 0.12117894244E+01
 0.12117975109E+01 0.12184958051E+01 0.12389253410E+01 0.12809632809E+01 0.13471993893E+01
 0.14336912820E+01 0.15318940558E+01 0.16295099976E+01 0.17102462918E+01 0.17565172076E+01
 0.26722031028E+01 0.26351498945E+01 0.25322087079E+01 0.23835239627E+01 0.22119680037E+01
 0.20370897071E+01 0.18747532778E+01 0.17383758729E+01 0.16378612464E+01 0.15776823874E+01
 0.15578580631E+01 0.15776823721E+01 0.16378612424E+01 0.17383759101E+01 0.18747533619E+01
 0.20370898116E+01 0.22119680876E+01 0.23835240000E+01 0.25322087046E+01 0.26351498799E+01
 0.26351498799E+01 0.26353222888E+01 0.25512875534E+01 0.23996114616E+01 0.22058325661E+01
 0.19956495815E+01 0.17910509351E+01 0.16104619325E+01 0.14683058676E+01 0.13728428572E+01
 0.13257639470E+01 0.13257484688E+01 0.13727669674E+01 0.14681707674E+01 0.16103970152E+01
 0.17911939004E+01 0.19959287391E+01 0.22059776435E+01 0.23994428060E+01 0.25509473754E+01
 0.25322087046E+01 0.25795111045E+01 0.25322088215E+01 0.23994429872E+01 0.22044742442E+01
 0.19759301426E+01 0.17412040380E+01 0.15242295369E+01 0.13444122844E+01 0.12141783293E+01
 0.11374287230E+01 0.11123831072E+01 0.11374287784E+01 0.12141784272E+01 0.13444123957E+01
 0.15242296173E+01 0.17412040426E+01 0.19759300500E+01 0.22044740759E+01 0.23994428060E+01
 0.23835240000E+01 0.24806572163E+01 0.24804873549E+01 0.23831982566E+01 0.22058325315E+01
 0.19760792295E+01 0.17248669868E+01 0.14815115547E+01 0.12707392181E+01 0.11094713091E+01
 0.10044035621E+01 0.95378831736E+00 0.95379580024E+00 0.10044553079E+01 0.11095799706E+01
 0.12708050582E+01 0.14814021859E+01 0.17246177672E+01 0.19759300500E+01 0.22059776435E+01
 0.22119680876E+01 0.23574505480E+01 0.24088627932E+01 0.23574504416E+01 0.22119679289E+01
 0.19959286025E+01 0.17412039782E+01 0.14814021966E+01 0.12465550344E+01 0.10585645491E+01
 0.92781735470E+00 0.85360628712E+00 0.82995279737E+00 0.85360627766E+00 0.92781732608E+00
 0.10585644988E+01 0.12465549834E+01 0.14814021859E+01 0.17412040426E+01 0.19959287391E+01
 0.20370898116E+01 0.22265220003E+01 0.23299081160E+01 0.23300626005E+01 0.22268077263E+01
 0.20371981765E+01 0.17910508492E+01 0.15240307028E+01 0.12707392575E+01 0.10586261511E+01
 0.90318720292E+00 0.80654664101E+00 0.76179586751E+00 0.76179585514E+00 0.80652153539E+00
 0.90311339657E+00 0.10585644988E+01 0.12708050582E+01 0.15242296173E+01 0.17911939004E+01
 0.18747533619E+01 0.21002129755E+01 0.22521625974E+01 0.23058273394E+01 0.22521625014E+01
 0.21002128241E+01 0.18747532137E+01 0.16103969166E+01 0.13444123614E+01 0.11095799856E+01
 0.92781736204E+00 0.80652156835E+00 0.74051882423E+00 0.72007861926E+00 0.74051880618E+00
 0.80652153539E+00 0.92781732608E+00 0.11095799706E+01 0.13444123957E+01 0.16103970152E+01
 0.17383759101E+01 0.19885948436E+01 0.21815966898E+01 0.22866963704E+01 0.22865764308E+01
 0.21813818553E+01 0.19885266178E+01 0.17384922350E+01 0.14683059658E+01 0.12142042346E+01
 0.10044035598E+01 0.85356693543E+00 0.76179582832E+00 0.72008592179E+00 0.72007861926E+00
 0.76179585514E+00 0.85360627766E+00 0.10044553079E+01 0.12141784272E+01 0.14681707674E+01
 0.16378612424E+01 0.19004140906E+01 0.21238422745E+01 0.22742115565E+01 0.23272795826E+01
 0.22742116859E+01 0.21238424699E+01 0.19004142627E+01 0.16378613251E+01 0.13727669481E+01
 0.11374286921E+01 0.95379569904E+00 0.82995271982E+00 0.76179582832E+00 0.74051882423E+00
 0.76179586751E+00 0.82995279737E+00 0.95379580024E+00 0.11374287784E+01 0.13727669674E+01
 0.15776823721E+01 0.18412301429E+01 0.20832302659E+01 0.22695700307E+01 0.23712875549E+01
 0.23713625588E+01 0.22696991894E+01 0.20832589510E+01 0.18411477347E+01 0.15776108772E+01
 0.13257638841E+01 0.11124347398E+01 0.95379569904E+00 0.85356693543E+00 0.80652156835E+00
 0.80654664101E+00 0.85360628712E+00 0.95378831736E+00 0.11123831072E+01 0.13257484688E+01
 0.15578580631E+01 0.18121781188E+01 0.20604878948E+01 0.22712182541E+01 0.24135595658E+01
 0.24639882416E+01 0.24135595708E+01 0.22712182484E+01 0.20604878609E+01 0.18121780542E+01
 0.15578579858E+01 0.13257638841E+01 0.11374286921E+01 0.10044035598E+01 0.92781736204E+00
 0.90318720292E+00 0.92781735470E+00 0.10044035621E+01 0.11374287230E+01 0.13257639470E+01
 0.15776823874E+01 0.18121605286E+01 0.20533963423E+01 0.22743115769E+01 0.24454280104E+01
 0.25394690909E+01 0.25394327414E+01 0.24453737399E+01 0.22743230562E+01 0.20534600383E+01
 0.18121780542E+01 0.15776108772E+01 0.13727669481E+01 0.12142042346E+01 0.11095799856E+01
 0.10586261511E+01 0.10585645491E+01 0.11094713091E+01 0.12141783293E+01 0.13728428572E+01
 0.16378612464E+01 0.18411477293E+01 0.20604879642E+01 0.22743232531E+01 0.24574510917E+01
 0.25826872699E+01 0.26274264371E+01 0.25826871263E+01 0.24574508731E+01 0.22743230562E+01
 0.20604878609E+01 0.18411477347E+01 0.16378613251E+01 0.14683059658E+01 0.13444123614E+01
 0.12707392575E+01 0.12465550344E+01 0.12707392181E+01 0.13444122844E+01 0.14683058676E+01
 0.17383758729E+01 0.19002707266E+01 0.20832303872E+01 0.22712845718E+01 0.24454279349E+01
 0.25826857664E+01 0.26592855623E+01 0.26592978643E+01 0.25826871263E+01 0.24453737399E+01
 0.22712182484E+01 0.20832589510E+01 0.19004142627E+01 0.17384922350E+01 0.16103969166E+01
 0.15240307028E+01 0.14814021966E+01 0.14815115547E+01 0.15242295369E+01 0.16104619325E+01
 0.18747532778E+01 0.19885266243E+01 0.21238424120E+01 0.22696990887E+01 0.24135594620E+01
 0.25394326548E+01 0.26274263904E+01 0.26592855623E+01 0.26274264371E+01 0.25394327414E+01
 0.24135595708E+01 0.22696991894E+01 0.21238424699E+01 0.19885266178E+01 0.18747532137E+01
 0.17910508492E+01 0.17412039782E+01 0.17248669868E+01 0.17412040380E+01 0.17910509351E+01
 0.20370897071E+01 0.21003604925E+01 0.21815967943E+01 0.22742866215E+01 0.23712874869E+01
 0.24638920370E+01 0.25394326548E+01 0.25826857664E+01 0.25826872699E+01 0.25394690909E+01
 0.24639882416E+01 0.23713625588E+01 0.22742116859E+01 0.21813818553E+01 0.21002128241E+01
 0.20371981765E+01 0.19959286025E+01 0.19760792295E+01 0.19759301426E+01 0.19956495815E+01
 0.22119680037E+01 0.22268078372E+01 0.22521626215E+01 0.22865765146E+01 0.23272795918E+01
 0.23712874869E+01 0.24135594620E+01 0.24454279349E+01 0.24574510917E+01 0.24454280104E+01
 0.24135595658E+01 0.23712875549E+01 0.23272795826E+01 0.22865764308E+01 0.22521625014E+01
 0.22268077263E+01 0.22119679289E+01 0.22058325315E+01 0.22044742442E+01 0.22058325661E+01
 0.23835239627E+01 0.23575978930E+01 0.23299080382E+01 0.23055620533E+01 0.22865765146E+01
 0.22742866215E+01 0.22696990887E+01 0.22712845718E+01 0.22743232532E+01 0.22743115769E+01
 0.22712182541E+01 0.22695700307E+01 0.22742115565E+01 0.22866963704E+01 0.23058273394E+01
 0.23300626005E+01 0.23574504416E+01 0.23831982566E+01 0.23994429872E+01 0.23996114616E+01
 0.25322087079E+01 0.24804871805E+01 0.24088626354E+01 0.23299080382E+01 0.22521626215E+01
 0.21815967943E+01 0.21238424120E+01 0.20832303872E+01 0.20604879642E+01 0.20533963423E+01
 0.20604878948E+01 0.20832302659E+01 0.21238422745E+01 0.21815966898E+01 0.22521625974E+01
 0.23299081160E+01 0.24088627932E+01 0.24804873549E+01 0.25322088215E+01 0.25512875534E+01
 0.26351498945E+01 0.25791699707E+01 0.24804871805E+01 0.23575978930E+01 0.22268078372E+01
 0.21003604925E+01 0.19885266243E+01 0.19002707266E+01 0.18411477293E+01 0.18121605286E+01
 0.18121781188E+01 0.18412301429E+01 0.19004140906E+01 0.19885948436E+01 0.21002129755E+01
 0.22265220003E+01 0.23574505480E+01 0.24806572163E+01 0.25795111045E+01 0.26353222888E+01
 0.38940148077E+01 0.38484362452E+01 0.37215583297E+01 0.35370385576E+01 0.33199388262E+01
 0.30885243368E+01 0.28558395086E+01 0.26369495225E+01 0.24532879463E+01 0.23295888766E+01
 0.22858110520E+01 0.23295888852E+01 0.24532879634E+01 0.26369495471E+01 0.28558395381E+01
 0.30885243673E+01 0.33199388537E+01 0.35370385792E+01 0.37215583441E+01 0.38484362523E+01
 0.38484362523E+01 0.38485735468E+01 0.37337803506E+01 0.35279212997E+01 0.32660613684E+01
 0.29798624605E+01 0.26922958915E+01 0.24221658575E+01 0.21900315053E+01 0.20184536047E+01
 0.19270345501E+01 0.19270018003E+01 0.20183653617E+01 0.21899251913E+01 0.24221150219E+01
 0.26923724289E+01 0.29800372661E+01 0.32661663959E+01 0.35278048300E+01 0.37335198122E+01
 0.37215583441E+01 0.37910086886E+01 0.37215583896E+01 0.35278048996E+01 0.32460091230E+01
 0.29181003033E+01 0.25798978867E+01 0.22594436018E+01 0.19806705795E+01 0.17649511609E+01
 0.16289756677E+01 0.15826146758E+01 0.16289757251E+01 0.17649512580E+01 0.19806706861E+01
 0.22594436843E+01 0.25798979204E+01 0.29181002821E+01 0.32460090622E+01 0.35278048300E+01
 0.35370385792E+01 0.36863401570E+01 0.36862218356E+01 0.35368119703E+01 0.32660613304E+01
 0.29181883915E+01 0.25396959974E+01 0.21712194317E+01 0.18455512737E+01 0.15871142020E+01
 0.14107380033E+01 0.13221969575E+01 0.13222202161E+01 0.14108063217E+01 0.15872047845E+01
 0.18455980208E+01 0.21711532506E+01 0.25395437044E+01 0.29181002821E+01 0.32661663959E+01
 0.33199388537E+01 0.35493500026E+01 0.36305407615E+01 0.35493499476E+01 0.33199387636E+01
 0.29800371711E+01 0.25798978483E+01 0.21711532162E+01 0.17988467975E+01 0.14959564206E+01
 0.12799660656E+01 0.11537985337E+01 0.11127508764E+01 0.11537985138E+01 0.12799660349E+01
 0.14959563952E+01 0.17988467954E+01 0.21711532506E+01 0.25798979204E+01 0.29800372661E+01
 0.30885243673E+01 0.33917907509E+01 0.35564308515E+01 0.35565265451E+01 0.33919749653E+01
 0.30886092983E+01 0.26922958279E+01 0.22593153392E+01 0.18455513120E+01 0.14960081734E+01
 0.12367282122E+01 0.10728814634E+01 0.99575145850E+00 0.99574482337E+00 0.10728450594E+01
 0.12366552904E+01 0.14959563952E+01 0.18455980208E+01 0.22594436843E+01 0.26923724289E+01
 0.28558395381E+01 0.32210587090E+01 0.34644151188E+01 0.35497823223E+01 0.34644150672E+01
 0.32210586218E+01 0.28558394413E+01 0.24221149421E+01 0.19806706416E+01 0.15872047793E+01
 0.12799660588E+01 0.10728450930E+01 0.95881115680E+00 0.92317554396E+00 0.95881113363E+00
 0.10728450594E+01 0.12799660349E+01 0.15872047845E+01 0.19806706861E+01 0.24221150219E+01
 0.26369495471E+01 0.30454349819E+01 0.33564313716E+01 0.35242272915E+01 0.35241462339E+01
 0.33562806463E+01 0.30453795308E+01 0.26370322109E+01 0.21900315654E+01 0.17649635656E+01
 0.14107379871E+01 0.11537469599E+01 0.99575140233E+00 0.92319096144E+00 0.92317554396E+00
 0.99574482337E+00 0.11537985138E+01 0.14108063217E+01 0.17649512580E+01 0.21899251913E+01
 0.24532879634E+01 0.28802804636E+01 0.32404311793E+01 0.34810011928E+01 0.35655347366E+01
 0.34810012335E+01 0.32404312404E+01 0.28802805141E+01 0.24532879751E+01 0.20183653213E+01
 0.16289756395E+01 0.13222201095E+01 0.11127507807E+01 0.99575140233E+00 0.95881115680E+00
 0.99575145850E+00 0.11127508764E+01 0.13222202161E+01 0.16289757251E+01 0.20183653617E+01
 0.23295888852E+01 0.27487161001E+01 0.31327999154E+01 0.34282554448E+01 0.35894130750E+01
 0.35894835285E+01 0.34283745547E+01 0.31328160747E+01 0.27486186392E+01 0.23295104501E+01
 0.19270345110E+01 0.15826992131E+01 0.13222201095E+01 0.11537469599E+01 0.10728450930E+01
 0.10728814634E+01 0.11537985337E+01 0.13221969575E+01 0.15826146758E+01 0.19270018003E+01
 0.22858110520E+01 0.26750733200E+01 0.30552964696E+01 0.33797977435E+01 0.36003435451E+01
 0.36787701494E+01 0.36003435334E+01 0.33797977197E+01 0.30552964342E+01 0.26750732768E+01
 0.22858110071E+01 0.19270345110E+01 0.16289756395E+01 0.14107379871E+01 0.12799660588E+01
 0.12367282122E+01 0.12799660656E+01 0.14107380033E+01 0.16289756677E+01 0.19270345501E+01
 0.23295888766E+01 0.26750375831E+01 0.30269355350E+01 0.33506388655E+01 0.36039115919E+01
 0.37442979780E+01 0.37442458804E+01 0.36038392708E+01 0.33506678870E+01 0.30270370366E+01
 0.26750732768E+01 0.23295104501E+01 0.20183653213E+01 0.17649635656E+01 0.15872047793E+01
 0.14960081734E+01 0.14959564206E+01 0.15871142020E+01 0.17649511609E+01 0.20184536047E+01
 0.24532879463E+01 0.27486186639E+01 0.30552965166E+01 0.33506680072E+01 0.36045410460E+01
 0.37795674094E+01 0.38424347347E+01 0.37795673357E+01 0.36045409272E+01 0.33506678870E+01
 0.30552964342E+01 0.27486186392E+01 0.24532879751E+01 0.21900315654E+01 0.19806706416E+01
 0.18455513120E+01 0.17988467975E+01 0.18455512737E+01 0.19806705795E+01 0.21900315053E+01
 0.26369495225E+01 0.28801625568E+01 0.31327999922E+01 0.33798864723E+01 0.36039115580E+01
 0.37795587376E+01 0.38776060137E+01 0.38776284644E+01 0.37795673357E+01 0.36038392708E+01
 0.33797977197E+01 0.31328160747E+01 0.28802805141E+01 0.26370322109E+01 0.24221149421E+01
 0.22593153392E+01 0.21711532162E+01 0.21712194317E+01 0.22594436018E+01 0.24221658575E+01
 0.28558395086E+01 0.30453795797E+01 0.32404312563E+01 0.34283745360E+01 0.36003434914E+01
 0.37442458349E+01 0.38424347057E+01 0.38776060137E+01 0.38424347347E+01 0.37442458804E+01
 0.36003435334E+01 0.34283745547E+01 0.32404312404E+01 0.30453795308E+01 0.28558394413E+01
 0.26922958279E+01 0.25798978483E+01 0.25396959974E+01 0.25798978867E+01 0.26922958915E+01
 0.30885243368E+01 0.32211417399E+01 0.33564314176E+01 0.34810607262E+01 0.35894130239E+01
 0.36786659946E+01 0.37442458349E+01 0.37795587376E+01 0.37795674094E+01 0.37442979780E+01
 0.36787701494E+01 0.35894835285E+01 0.34810012335E+01 0.33562806463E+01 0.32210586218E+01
 0.30886092983E+01 0.29800371711E+01 0.29181883915E+01 0.29181003033E+01 0.29798624605E+01
 0.33199388262E+01 0.33919750307E+01 0.34644151125E+01 0.35241462441E+01 0.35655347100E+01
 0.35894130239E+01 0.36003434914E+01 0.36039115580E+01 0.36045410460E+01 0.36039115919E+01
 0.36003435451E+01 0.35894130750E+01 0.35655347366E+01 0.35241462339E+01 0.34644150672E+01
 0.33919749653E+01 0.33199387636E+01 0.32660613304E+01 0.32460091230E+01 0.32660613684E+01
 0.35370385576E+01 0.35494582669E+01 0.35564307905E+01 0.35496073591E+01 0.35241462441E+01
 0.34810607262E+01 0.34283745360E+01 0.33798864723E+01 0.33506680072E+01 0.33506388655E+01
 0.33797977435E+01 0.34282554448E+01 0.34810011928E+01 0.35242272915E+01 0.35497823223E+01
 0.35565265451E+01 0.35493499476E+01 0.35368119703E+01 0.35278048996E+01 0.35279212997E+01
 0.37215583297E+01 0.36862217392E+01 0.36305406654E+01 0.35564307905E+01 0.34644151125E+01
 0.33564314176E+01 0.32404312563E+01 0.31327999922E+01 0.30552965166E+01 0.30269355350E+01
 0.30552964696E+01 0.31327999155E+01 0.32404311793E+01 0.33564313716E+01 0.34644151188E+01
 0.35564308515E+01 0.36305407615E+01 0.36862218356E+01 0.37215583896E+01 0.37337803507E+01
 0.38484362452E+01 0.37907467591E+01 0.36862217392E+01 0.35494582669E+01 0.33919750307E+01
 0.32211417399E+01 0.30453795797E+01 0.28801625568E+01 0.27486186639E+01 0.26750375831E+01
 0.26750733200E+01 0.27487161001E+01 0.28802804636E+01 0.30454349819E+01 0.32210587090E+01
 0.33917907509E+01 0.35493500026E+01 0.36863401570E+01 0.37910086886E+01 0.38485735468E+01
 0.58145613873E+01 0.57415223840E+01 0.55388022906E+01 0.52473776761E+01 0.49128150285E+01
 0.45662635509E+01 0.42207047243E+01 0.38859959086E+01 0.35889007018E+01 0.33771515844E+01
 0.32996153617E+01 0.33771516324E+01 0.35889007512E+01 0.38859959052E+01 0.42207046530E+01
 0.45662634494E+01 0.49128149585E+01 0.52473776744E+01 0.55388023410E+01 0.57415224324E+01
 0.57415224324E+01 0.57415075935E+01 0.55519138336E+01 0.52179655282E+01 0.48060368456E+01
 0.43728894161E+01 0.39500608865E+01 0.35520370433E+01 0.31970952034E+01 0.29202517345E+01
 0.27659433101E+01 0.27659092980E+01 0.29202417793E+01 0.31971832250E+01 0.35520786990E+01
 0.39499188138E+01 0.43726874766E+01 0.48059761269E+01 0.52180357259E+01 0.55519774133E+01
 0.55388023410E+01 0.56553810347E+01 0.55388022419E+01 0.52180355706E+01 0.47643535008E+01
 0.42565414167E+01 0.37524489420E+01 0.32838587938E+01 0.28708783778E+01 0.25381854421E+01
 0.23183516538E+01 0.22410459936E+01 0.23183517027E+01 0.25381855166E+01 0.28708784521E+01
 0.32838588622E+01 0.37524490233E+01 0.42565415346E+01 0.47643536555E+01 0.52180357259E+01
 0.52473776744E+01 0.54959807587E+01 0.54960430228E+01 0.52475101096E+01 0.48060368140E+01
 0.42564201284E+01 0.36791661038E+01 0.31316189508E+01 0.26494751756E+01 0.22581419714E+01
 0.19804150618E+01 0.18358311291E+01 0.18358559062E+01 0.19804122227E+01 0.22580449121E+01
 0.26494081342E+01 0.31317326955E+01 0.36793893690E+01 0.42565415346E+01 0.48059761269E+01
 0.49128149585E+01 0.52850923719E+01 0.54183948241E+01 0.52850924192E+01 0.49128150074E+01
 0.43726874732E+01 0.37524489492E+01 0.31317325842E+01 0.25704774641E+01 0.21086872437E+01
 0.17699660645E+01 0.15651226611E+01 0.14968349411E+01 0.15651226282E+01 0.17699660393E+01
 0.21086872715E+01 0.25704775535E+01 0.31317326955E+01 0.37524490233E+01 0.43726874766E+01
 0.45662634494E+01 0.50442862112E+01 0.53062658220E+01 0.53061755862E+01 0.50441231762E+01
 0.45662241333E+01 0.39500608758E+01 0.32840440510E+01 0.26494752028E+01 0.21086298796E+01
 0.16984967242E+01 0.14309648021E+01 0.13011291177E+01 0.13011178959E+01 0.14309720065E+01
 0.16985630010E+01 0.21086872715E+01 0.26494081342E+01 0.32838588622E+01 0.39499188138E+01
 0.42207046530E+01 0.47859885924E+01 0.51646843621E+01 0.52980060360E+01 0.51646843987E+01
 0.47859886355E+01 0.42207046662E+01 0.35520786688E+01 0.28708783975E+01 0.22580448695E+01
 0.17699660329E+01 0.14309720303E+01 0.12378739521E+01 0.11760404312E+01 0.12378739273E+01
 0.14309720065E+01 0.17699660393E+01 0.22580449121E+01 0.28708784521E+01 0.35520786990E+01
 0.38859959052E+01 0.45157744058E+01 0.49973331993E+01 0.52584332988E+01 0.52584864699E+01
 0.49974269386E+01 0.45157975569E+01 0.38859270140E+01 0.31970951786E+01 0.25381430645E+01
 0.19804150228E+01 0.15651390426E+01 0.13011290437E+01 0.11760438446E+01 0.11760404312E+01
 0.13011178959E+01 0.15651226282E+01 0.19804122227E+01 0.25381855166E+01 0.31971832250E+01
 0.35889007512E+01 0.42481349046E+01 0.48094867240E+01 0.51881930402E+01 0.53220872473E+01
 0.51881929108E+01 0.48094865276E+01 0.42481347225E+01 0.35889006294E+01 0.29202417073E+01
 0.23183516357E+01 0.18358558129E+01 0.14968348341E+01 0.13011290437E+01 0.12378739521E+01
 0.13011291177E+01 0.14968349411E+01 0.18358559062E+01 0.23183517027E+01 0.29202417793E+01
 0.33771516324E+01 0.40205856940E+01 0.46217435517E+01 0.50934728135E+01 0.53544316286E+01
 0.53544503239E+01 0.50934916952E+01 0.46217162832E+01 0.40205382119E+01 0.33771420798E+01
 0.27659433209E+01 0.22410850723E+01 0.18358558129E+01 0.15651390426E+01 0.14309720303E+01
 0.14309648021E+01 0.15651226611E+01 0.18358311291E+01 0.22410459936E+01 0.27659092980E+01
 0.32996153617E+01 0.38865791581E+01 0.44765644053E+01 0.49962571345E+01 0.53584001355E+01
 0.54889091655E+01 0.53584000912E+01 0.49962570757E+01 0.44765643680E+01 0.38865791572E+01
 0.32996153820E+01 0.27659433208E+01 0.23183516357E+01 0.19804150228E+01 0.17699660329E+01
 0.16984967242E+01 0.17699660645E+01 0.19804150618E+01 0.23183516538E+01 0.27659433101E+01
 0.33771515844E+01 0.38865329648E+01 0.44211801045E+01 0.49329218284E+01 0.53473552851E+01
 0.55821265639E+01 0.55820698532E+01 0.53472874155E+01 0.49329706276E+01 0.44212883722E+01
 0.38865791572E+01 0.33771420798E+01 0.29202417073E+01 0.25381430645E+01 0.22580448694E+01
 0.21086298796E+01 0.21086872437E+01 0.22581419714E+01 0.25381854421E+01 0.29202517345E+01
 0.35889007018E+01 0.40205382918E+01 0.44765644014E+01 0.49329705895E+01 0.53405396966E+01
 0.56289729827E+01 0.57338606966E+01 0.56289730486E+01 0.53405397792E+01 0.49329706276E+01
 0.44765643680E+01 0.40205382119E+01 0.35889006294E+01 0.31970951785E+01 0.28708783975E+01
 0.26494752028E+01 0.25704774641E+01 0.26494751756E+01 0.28708783778E+01 0.31970952034E+01
 0.38859959086E+01 0.42481757944E+01 0.46217435304E+01 0.49963374528E+01 0.53473553352E+01
 0.56289535567E+01 0.57877957945E+01 0.57878279005E+01 0.56289730486E+01 0.53472874155E+01
 0.49962570757E+01 0.46217162832E+01 0.42481347225E+01 0.38859270140E+01 0.35520786688E+01
 0.32840440511E+01 0.31317325842E+01 0.31316189508E+01 0.32838587938E+01 0.35520370433E+01
 0.42207047243E+01 0.45157976705E+01 0.48094866739E+01 0.50934918332E+01 0.53584001879E+01
 0.55820699016E+01 0.57338607121E+01 0.57877957945E+01 0.57338606966E+01 0.55820698532E+01
 0.53584000912E+01 0.50934916952E+01 0.48094865276E+01 0.45157975569E+01 0.42207046662E+01
 0.39500608758E+01 0.37524489492E+01 0.36791661038E+01 0.37524489420E+01 0.39500608865E+01
 0.45662635509E+01 0.47858732569E+01 0.49973331283E+01 0.51881779653E+01 0.53544316263E+01
 0.54888485084E+01 0.55820699015E+01 0.56289535566E+01 0.56289729827E+01 0.55821265639E+01
 0.54889091655E+01 0.53544503239E+01 0.51881929108E+01 0.49974269386E+01 0.47859886355E+01
 0.45662241333E+01 0.43726874732E+01 0.42564201284E+01 0.42565414167E+01 0.43728894161E+01
 0.49128150285E+01 0.50441231404E+01 0.51646842993E+01 0.52584863502E+01 0.53220871695E+01
 0.53544316263E+01 0.53584001879E+01 0.53473553352E+01 0.53405396966E+01 0.53473552851E+01
 0.53584001355E+01 0.53544316286E+01 0.53220872473E+01 0.52584864699E+01 0.51646843987E+01
 0.50441231762E+01 0.49128150074E+01 0.48060368140E+01 0.47643535008E+01 0.48060368456E+01
 0.52473776761E+01 0.52850450234E+01 0.53062658007E+01 0.52981368440E+01 0.52584863502E+01
 0.51881779653E+01 0.50934918332E+01 0.49963374529E+01 0.49329705895E+01 0.49329218283E+01
 0.49962571345E+01 0.50934728135E+01 0.51881930402E+01 0.52584332987E+01 0.52980060360E+01
 0.53061755862E+01 0.52850924192E+01 0.52475101096E+01 0.52180355706E+01 0.52179655282E+01
 0.55388022906E+01 0.54960430851E+01 0.54183948559E+01 0.53062658007E+01 0.51646842993E+01
 0.49973331283E+01 0.48094866739E+01 0.46217435304E+01 0.44765644014E+01 0.44211801045E+01
 0.44765644053E+01 0.46217435517E+01 0.48094867240E+01 0.49973331993E+01 0.51646843621E+01
 0.53062658220E+01 0.54183948241E+01 0.54960430228E+01 0.55388022419E+01 0.55519138336E+01
 0.57415223840E+01 0.56554389308E+01 0.54960430851E+01 0.52850450234E+01 0.50441231404E+01
 0.47858732569E+01 0.45157976705E+01 0.42481757944E+01 0.40205382918E+01 0.38865329647E+01
 0.38865791581E+01 0.40205856940E+01 0.42481349046E+01 0.45157744058E+01 0.47859885924E+01
 0.50442862112E+01 0.52850923719E+01 0.54959807587E+01 0.56553810347E+01 0.57415075935E+01
 0.88932101531E+01 0.87577681183E+01 0.83780764508E+01 0.78280925591E+01 0.72061298692E+01
 0.65956287692E+01 0.60353234237E+01 0.55296350563E+01 0.50930944061E+01 0.47806834643E+01
 0.46651575307E+01 0.47806835354E+01 0.50930944770E+01 0.55296350461E+01 0.60353233125E+01
 0.65956286178E+01 0.72061297715E+01 0.78280925682E+01 0.83780765376E+01 0.87577681976E+01
 0.87577681976E+01 0.87576695986E+01 0.84137544636E+01 0.78089275266E+01 0.70728102062E+01
 0.63267366255E+01 0.56413381504E+01 0.50350749355E+01 0.45125400767E+01 0.41056608541E+01