 vasp.5.3.5 31Mar14 (build Aug 31 2014 21:42:44) complex                        
  
 executed on             LinuxIFC date 2020.11.01  17:46:19
 running on   16 total cores
 distrk:  each k-point on   16 cores,    1 groups
 distr:  one band on NCORES_PER_BAND=   1 cores,   16 groups


--------------------------------------------------------------------------------------------------------


 INCAR:
 POTCAR:   PAW_PBE C 08Apr2002                    

 ----------------------------------------------------------------------------- 
|                                                                             |
|           W    W    AA    RRRRR   N    N  II  N    N   GGGG   !!!           |
|           W    W   A  A   R    R  NN   N  II  NN   N  G    G  !!!           |
|           W    W  A    A  R    R  N N  N  II  N N  N  G       !!!           |
|           W WW W  AAAAAA  RRRRR   N  N N  II  N  N N  G  GGG   !            |
|           WW  WW  A    A  R   R   N   NN  II  N   NN  G    G                |
|           W    W  A    A  R    R  N    N  II  N    N   GGGG   !!!           |
|                                                                             |
|      For optimal performance we recommend to set                            |
|        NCORE= 4 - approx SQRT( number of cores)                             |
|      NCORE specifies how many cores store one orbital (NPAR=cpu/NCORE).     |
|      This setting can  greatly improve the performance of VASP for DFT.     |
|      The default, NPAR=number of cores might be grossly inefficient         |
|      on modern multi-core architectures or massively parallel machines.     |
|      Do your own testing !!!!                                               |
|      Unfortunately you need to use the default for GW and RPA calculations. |
|      (for HF NCORE is supported but not extensively tested yet)             |
|                                                                             |
 ----------------------------------------------------------------------------- 

 POTCAR:   PAW_PBE C 08Apr2002                    
   VRHFIN =C: s2p2                                                              
   LEXCH  = PE                                                                  
   EATOM  =   147.1560 eV,   10.8157 Ry                                         
                                                                                
   TITEL  = PAW_PBE C 08Apr2002                                                 
   LULTRA =        F    use ultrasoft PP ?                                      
   IUNSCR =        0    unscreen: 0-lin 1-nonlin 2-no                           
   RPACOR =     .000    partial core radius                                     
   POMASS =   12.011; ZVAL   =    4.000    mass and valenz                      
   RCORE  =    1.500    outmost cutoff radius                                   
   RWIGS  =    1.630; RWIGS  =     .863    wigner-seitz radius (au A)           
   ENMAX  =  400.000; ENMIN  =  300.000 eV                                      
   ICORE  =        2    local potential                                         
   LCOR   =        T    correct aug charges                                     
   LPAW   =        T    paw PP                                                  
   EAUG   =  644.873                                                            
   DEXC   =     .000                                                            
   RMAX   =    2.266    core radius for proj-oper                               
   RAUG   =    1.300    factor for augmentation sphere                          
   RDEP   =    1.501    radius for radial grids                                 
   RDEPT  =    1.300    core radius for aug-charge                              
   QCUT   =   -5.516; QGAM   =   11.032    optimization parameters              
                                                                                
   Description                                                                  
     l     E      TYP  RCUT    TYP  RCUT                                        
     0   .000     23  1.200                                                     
     0   .000     23  1.200                                                     
     1   .000     23  1.500                                                     
     1  2.500     23  1.500                                                     
     2   .000      7  1.500                                                     
  local pseudopotential read in
  atomic valenz-charges read in
  non local Contribution for L=           0  read in
    real space projection operators read in
  non local Contribution for L=           0  read in
    real space projection operators read in
  non local Contribution for L=           1  read in
    real space projection operators read in
  non local Contribution for L=           1  read in
    real space projection operators read in
    PAW grid and wavefunctions read in
 
   number of l-projection  operators is LMAX  =           4
   number of lm-projection operators is LMMAX =           8
 
 PAW_PBE C 08Apr2002                    :
 energy of atom  1       EATOM= -147.1560
 kinetic energy error for atom=    0.2561 (will be added to EATOM!!)
 
 
 POSCAR: c                                       
  positions in direct lattice
  velocities in cartesian coordinates
 exchange correlation table for  LEXCH =        8
   RHO(1)=    0.500       N(1)  =     2000
   RHO(2)=  100.500       N(2)  =     4000
 


--------------------------------------------------------------------------------------------------------


 ion  position               nearest neighbor table
   1  0.000  0.000  0.250-   2 1.41   2 1.41   2 1.41
   2  0.333  0.667  0.250-   1 1.41   1 1.41   1 1.41
 
  LATTYP: Found a hexagonal cell.
 ALAT       =     2.4484174828
 C/A-ratio  =     2.2499633369
  
  Lattice vectors:
  
 A1 = (   1.2242087414,  -2.1203917375,   0.0000000000)
 A2 = (   1.2242087414,   2.1203917375,   0.0000000000)
 A3 = (   0.0000000000,   0.0000000000,   5.5088495697)


Analysis of symmetry for initial positions (statically):
=====================================================================
 Subroutine PRICEL returns:
 Original cell was already a primitive cell.
 

 Routine SETGRP: Setting up the symmetry group for a 
 hexagonal supercell.


 Subroutine GETGRP returns: Found 24 space group operations
 (whereof  6 operations were pure point group operations)
 out of a pool of 24 trial point group operations.


The static configuration has the point symmetry C_3v.
 The point group associated with its full space group is D_6h.


Analysis of symmetry for dynamics (positions and initial velocities):
=====================================================================
 Subroutine PRICEL returns:
 Original cell was already a primitive cell.
 

 Routine SETGRP: Setting up the symmetry group for a 
 hexagonal supercell.


 Subroutine GETGRP returns: Found 24 space group operations
 (whereof  6 operations were pure point group operations)
 out of a pool of 24 trial point group operations.


The dynamic configuration has the point symmetry C_3v.
 The point group associated with its full space group is D_6h.
 
 
 KPOINTS: k                                       
  interpolating k-points between supplied coordinates
  k-points in reciprocal lattice
Space group operators:
 irot       det(A)        alpha          n_x          n_y          n_z        tau_x        tau_y        tau_z
    1     1.000000     0.000001     1.000000     0.000000     0.000000     0.000000     0.000000     0.000000
    2     1.000000   120.000000     0.000000     0.000000    -1.000000     0.000000     0.000000     0.000000
    3     1.000000   120.000000     0.000000     0.000000     1.000000     0.000000     0.000000     0.000000
    4    -1.000000   180.000000     0.500000    -0.866025     0.000000     0.000000     0.000000     0.000000
    5    -1.000000   180.000000    -0.500000    -0.866025     0.000000     0.000000     0.000000     0.000000
    6    -1.000000   180.000000     1.000000     0.000000     0.000000     0.000000     0.000000     0.000000
    7    -1.000000     0.000001     1.000000     0.000000     0.000000     0.333333     0.666667     0.500000
    8     1.000000    60.000000     0.000000     0.000000    -1.000000     0.333333     0.666667     0.000000
    9    -1.000000    60.000000     0.000000     0.000000    -1.000000     0.000000     0.000000     0.500000
   10    -1.000000   120.000000     0.000000     0.000000    -1.000000     0.333333     0.666667     0.500000
   11     1.000000   180.000000     0.000000     0.000000     1.000000     0.333333     0.666667     0.000000
   12    -1.000000   180.000000     0.000000     0.000000     1.000000     0.000000     0.000000     0.500000
   13    -1.000000   120.000000     0.000000     0.000000     1.000000     0.333333     0.666667     0.500000
   14     1.000000    60.000000     0.000000     0.000000     1.000000     0.333333     0.666667     0.000000
   15    -1.000000    60.000000     0.000000     0.000000     1.000000     0.000000     0.000000     0.500000
   16     1.000000   180.000000     0.500000    -0.866025     0.000000     0.333333     0.666667     0.500000
   17     1.000000   180.000000     0.000000     1.000000     0.000000     0.000000     0.000000     0.500000
   18    -1.000000   180.000000     0.000000     1.000000     0.000000     0.333333     0.666667     0.000000
   19     1.000000   180.000000    -0.500000    -0.866025     0.000000     0.333333     0.666667     0.500000
   20     1.000000   180.000000     0.866025     0.500000     0.000000     0.000000     0.000000     0.500000
   21    -1.000000   180.000000     0.866025     0.500000     0.000000     0.333333     0.666667     0.000000
   22     1.000000   180.000000     1.000000     0.000000     0.000000     0.333333     0.666667     0.500000
   23     1.000000   180.000000     0.866025    -0.500000     0.000000     0.000000     0.000000     0.500000
   24    -1.000000   180.000000     0.866025    -0.500000     0.000000     0.333333     0.666667     0.000000


--------------------------------------------------------------------------------------------------------




 Dimension of arrays:
   k-points           NKPTS =    300   k-points in BZ     NKDIM =    300   number of bands    NBANDS=     16
   number of dos      NEDOS =   3001   number of ions     NIONS =      2
   non local maximal  LDIM  =      4   non local SUM 2l+1 LMDIM =      8
   total plane-waves  NPLWV =   2400
   max r-space proj   IRMAX =      1   max aug-charges    IRDMAX=   1190
   dimension x,y,z NGX =    10 NGY =   10 NGZ =   24
   dimension x,y,z NGXF=    20 NGYF=   20 NGZF=   48
   support grid    NGXF=    20 NGYF=   20 NGZF=   48
   ions per type =               2
 NGX,Y,Z   is equivalent  to a cutoff of   6.79,  6.79,  7.24 a.u.
 NGXF,Y,Z  is equivalent  to a cutoff of  13.58, 13.58, 14.49 a.u.


 I would recommend the setting:
   dimension x,y,z NGX =    10 NGY =   10 NGZ =   23
 SYSTEM =  C                                       
 POSCAR =  c                                       

 Startparameter for this run:
   NWRITE =      2    write-flag & timer
   PREC   = normal    normal or accurate (medium, high low for compatibility)
   ISTART =      0    job   : 0-new  1-cont  2-samecut
   ICHARG =      2    charge: 1-file 2-atom 10-const
   ISPIN  =      1    spin polarized calculation?
   LNONCOLLINEAR =      F non collinear calculations
   LSORBIT =      F    spin-orbit coupling
   INIWAV =      1    electr: 0-lowe 1-rand  2-diag
   LASPH  =      F    aspherical Exc in radial PAW
   METAGGA=      F    non-selfconsistent MetaGGA calc.

 Electronic Relaxation 1
   ENCUT  =  300.0 eV  22.05 Ry    4.70 a.u.   3.46  3.46  7.78*2*pi/ulx,y,z
   ENINI  =  300.0     initial cutoff
   ENAUG  =  644.9 eV  augmentation charge cutoff
   NELM   =     60;   NELMIN=  2; NELMDL= -5     # of ELM steps 
   EDIFF  = 0.1E-06   stopping-criterion for ELM
   LREAL  =      F    real-space projection
   NLSPLINE    = F    spline interpolate recip. space projectors
   LCOMPAT=      F    compatible to vasp.4.4
   GGA_COMPAT  = T    GGA compatible to vasp.4.4-vasp.4.6
   LMAXPAW     = -100 max onsite density
   LMAXMIX     =    2 max onsite mixed and CHGCAR
   VOSKOWN=      0    Vosko Wilk Nusair interpolation
   ROPT   =    0.00000
 Ionic relaxation
   EDIFFG = 0.1E-05   stopping-criterion for IOM
   NSW    =      0    number of steps for IOM
   NBLOCK =      1;   KBLOCK =      1    inner block; outer block 
   IBRION =     -1    ionic relax: 0-MD 1-quasi-New 2-CG
   NFREE  =      0    steps in history (QN), initial steepest desc. (CG)
   ISIF   =      2    stress and relaxation
   IWAVPR =     10    prediction:  0-non 1-charg 2-wave 3-comb
   ISYM   =      2    0-nonsym 1-usesym 2-fastsym
   LCORR  =      T    Harris-Foulkes like correction to forces

   POTIM  = 0.5000    time-step for ionic-motion
   TEIN   =    0.0    initial temperature
   TEBEG  =    0.0;   TEEND  =   0.0 temperature during run
   SMASS  =  -3.00    Nose mass-parameter (am)
   estimated Nose-frequenzy (Omega)   =  0.10E-29 period in steps =****** mass=  -0.137E-27a.u.
   SCALEE = 1.0000    scale energy and forces
   NPACO  =    256;   APACO  = 16.0  distance and # of slots for P.C.
   PSTRESS=    0.0 pullay stress

  Mass of Ions in am
   POMASS =  12.01
  Ionic Valenz
   ZVAL   =   4.00
  Atomic Wigner-Seitz radii
   RWIGS  =  -1.00
  virtual crystal weights 
   VCA    =   1.00
   NELECT =       8.0000    total number of electrons
   NUPDOWN=      -1.0000    fix difference up-down

 DOS related values:
   EMIN   =  10.00;   EMAX   =-10.00  energy-range for DOS
   EFERMI =   0.00
   ISMEAR =     1;   SIGMA  =   0.20  broadening in eV -4-tet -1-fermi 0-gaus

 Electronic relaxation 2 (details)
   IALGO  =     38    algorithm
   LDIAG  =      T    sub-space diagonalisation (order eigenvalues)
   LSUBROT=      F    optimize rotation matrix (better conditioning)
   TURBO    =      0    0=normal 1=particle mesh
   IRESTART =      0    0=no restart 2=restart with 2 vectors
   NREBOOT  =      0    no. of reboots
   NMIN     =      0    reboot dimension
   EREF     =   0.00    reference energy to select bands
   IMIX   =      4    mixing-type and parameters
     AMIX     =   0.40;   BMIX     =  1.00
     AMIX_MAG =   1.60;   BMIX_MAG =  1.00
     AMIN     =   0.10
     WC   =   100.;   INIMIX=   1;  MIXPRE=   1;  MAXMIX= -45

 Intra band minimization:
   WEIMIN = 0.0000     energy-eigenvalue tresh-hold
   EBREAK =  0.16E-08  absolut break condition
   DEPER  =   0.30     relativ break condition  

   TIME   =   0.40     timestep for ELM

  volume/ion in A,a.u.               =      14.30        96.50
  Fermi-wavevector in a.u.,A,eV,Ry     =   1.070658  2.023250 15.596467  1.146308
  Thomas-Fermi vector in A             =   2.206374
 
 Write flags
   LWAVE  =      T    write WAVECAR
   LCHARG =      F    write CHGCAR
   LVTOT  =      F    write LOCPOT, total local potential
   LVHAR  =      F    write LOCPOT, Hartree potential only
   LELF   =      F    write electronic localiz. function (ELF)
   LORBIT =     11    0 simple, 1 ext, 2 COOP (PROOUT)


 Dipole corrections
   LMONO  =      F    monopole corrections only (constant potential shift)
   LDIPOL =      F    correct potential (dipole corrections)
   IDIPOL =      0    1-x, 2-y, 3-z, 4-all directions 
   EPSILON=  1.0000000 bulk dielectric constant

 Exchange correlation treatment:
   GGA     =    --    GGA type
   LEXCH   =     8    internal setting for exchange type
   VOSKOWN=      0    Vosko Wilk Nusair interpolation
   LHFCALC =     F    Hartree Fock is set to
   LHFONE  =     F    Hartree Fock one center treatment
   AEXX    =    0.0000 exact exchange contribution

 Linear response parameters
   LEPSILON=     F    determine dielectric tensor
   LRPA    =     F    only Hartree local field effects (RPA)
   LNABLA  =     F    use nabla operator in PAW spheres
   LVEL    =     F    velocity operator in full k-point grid
   LINTERFAST=   F  fast interpolation
   KINTER  =     0    interpolate to denser k-point grid
   CSHIFT  =0.1000    complex shift for real part using Kramers Kronig
   OMEGAMAX=  -1.0    maximum frequency
   DEG_THRESHOLD= 0.2000000E-02 threshold for treating states as degnerate
   RTIME   =    0.100 relaxation time in fs

 Orbital magnetization related:
   ORBITALMAG=     F  switch on orbital magnetization
   LCHIMAG   =     F  perturbation theory with respect to B field
   DQ        =  0.001000  dq finite difference perturbation B field



--------------------------------------------------------------------------------------------------------


 Static calculation
 charge density and potential will be updated during run
 non-spin polarized calculation
 Variant of blocked Davidson
 Davidson routine will perform the subspace rotation
 perform sub-space diagonalisation
    after iterative eigenvector-optimisation
 modified Broyden-mixing scheme, WC =      100.0
 initial mixing is a Kerker type mixing with AMIX =  0.4000 and BMIX =      1.0000
 Hartree-type preconditioning will be used
 using additional bands           12
 reciprocal scheme for non local part
 calculate Harris-corrections to forces 
   (improved forces if not selfconsistent)
 use gradient corrections 
 use of overlap-Matrix (Vanderbilt PP)
 Methfessel and Paxton  Order N= 1 SIGMA  =   0.20


--------------------------------------------------------------------------------------------------------


  energy-cutoff  :      300.00
  volume of cell :       28.60
      direct lattice vectors                 reciprocal lattice vectors
     1.224208741 -2.120391738  0.000000000     0.408427079 -0.235805484  0.000000000
     1.224208741  2.120391738  0.000000000     0.408427079  0.235805484  0.000000000
     0.000000000  0.000000000  5.508849570     0.000000000  0.000000000  0.181526104

  length of vectors
     2.448417481  2.448417481  5.508849570     0.471610968  0.471610968  0.181526104


 
 k-points in units of 2pi/SCALE and weight: k                                       
   0.00000000  0.00000000  0.00000000       0.003
   0.00275035  0.00000000  0.00061120       0.003
   0.00550070  0.00000000  0.00122240       0.003
   0.00825105  0.00000000  0.00183360       0.003
   0.01100140  0.00000000  0.00244480       0.003
   0.01375175  0.00000000  0.00305599       0.003
   0.01650210  0.00000000  0.00366719       0.003
   0.01925245  0.00000000  0.00427839       0.003
   0.02200281  0.00000000  0.00488959       0.003
   0.02475316  0.00000000  0.00550079       0.003
   0.02750351  0.00000000  0.00611199       0.003
   0.03025386  0.00000000  0.00672319       0.003
   0.03300421  0.00000000  0.00733439       0.003
   0.03575456  0.00000000  0.00794559       0.003
   0.03850491  0.00000000  0.00855679       0.003
   0.04125526  0.00000000  0.00916798       0.003
   0.04400561  0.00000000  0.00977918       0.003
   0.04675596  0.00000000  0.01039038       0.003
   0.04950631  0.00000000  0.01100158       0.003
   0.05225666  0.00000000  0.01161278       0.003
   0.05500701  0.00000000  0.01222398       0.003
   0.05775736  0.00000000  0.01283518       0.003
   0.06050771  0.00000000  0.01344638       0.003
   0.06325807  0.00000000  0.01405758       0.003
   0.06600842  0.00000000  0.01466878       0.003
   0.06875877  0.00000000  0.01527997       0.003
   0.07150912  0.00000000  0.01589117       0.003
   0.07425947  0.00000000  0.01650237       0.003
   0.07700982  0.00000000  0.01711357       0.003
   0.07976017  0.00000000  0.01772477       0.003
   0.08251052  0.00000000  0.01833597       0.003
   0.08526087  0.00000000  0.01894717       0.003
   0.08801122  0.00000000  0.01955837       0.003
   0.09076157  0.00000000  0.02016957       0.003
   0.09351192  0.00000000  0.02078077       0.003
   0.09626227  0.00000000  0.02139196       0.003
   0.09901262  0.00000000  0.02200316       0.003
   0.10176297  0.00000000  0.02261436       0.003
   0.10451333  0.00000000  0.02322556       0.003
   0.10726368  0.00000000  0.02383676       0.003
   0.11001403  0.00000000  0.02444796       0.003
   0.11276438  0.00000000  0.02505916       0.003
   0.11551473  0.00000000  0.02567036       0.003
   0.11826508  0.00000000  0.02628156       0.003
   0.12101543  0.00000000  0.02689276       0.003
   0.12376578  0.00000000  0.02750395       0.003
   0.12651613  0.00000000  0.02811515       0.003
   0.12926648  0.00000000  0.02872635       0.003
   0.13201683  0.00000000  0.02933755       0.003
   0.13476718  0.00000000  0.02994875       0.003
   0.13751753  0.00000000  0.03055995       0.003
   0.14026788  0.00000000  0.03117115       0.003
   0.14301823  0.00000000  0.03178235       0.003
   0.14576859  0.00000000  0.03239355       0.003
   0.14851894  0.00000000  0.03300475       0.003
   0.15126929  0.00000000  0.03361594       0.003
   0.15401964  0.00000000  0.03422714       0.003
   0.15676999  0.00000000  0.03483834       0.003
   0.15952034  0.00000000  0.03544954       0.003
   0.16227069  0.00000000  0.03606074       0.003
   0.16502104  0.00000000  0.03667194       0.003
   0.16777139  0.00000000  0.03728314       0.003
   0.17052174  0.00000000  0.03789434       0.003
   0.17327209  0.00000000  0.03850554       0.003
   0.17602244  0.00000000  0.03911674       0.003
   0.17877279  0.00000000  0.03972793       0.003
   0.18152314  0.00000000  0.04033913       0.003
   0.18427349  0.00000000  0.04095033       0.003
   0.18702385  0.00000000  0.04156153       0.003
   0.18977420  0.00000000  0.04217273       0.003
   0.19252455  0.00000000  0.04278393       0.003
   0.19527490  0.00000000  0.04339513       0.003
   0.19802525  0.00000000  0.04400633       0.003
   0.20077560  0.00000000  0.04461753       0.003
   0.20352595  0.00000000  0.04522873       0.003
   0.20627630  0.00000000  0.04583992       0.003
   0.20902665  0.00000000  0.04645112       0.003
   0.21177700  0.00000000  0.04706232       0.003
   0.21452735  0.00000000  0.04767352       0.003
   0.21727770  0.00000000  0.04828472       0.003
   0.22002805  0.00000000  0.04889592       0.003
   0.22277840  0.00000000  0.04950712       0.003
   0.22552876  0.00000000  0.05011832       0.003
   0.22827911  0.00000000  0.05072952       0.003
   0.23102946  0.00000000  0.05134072       0.003
   0.23377981  0.00000000  0.05195191       0.003
   0.23653016  0.00000000  0.05256311       0.003
   0.23928051  0.00000000  0.05317431       0.003
   0.24203086  0.00000000  0.05378551       0.003
   0.24478121  0.00000000  0.05439671       0.003
   0.24753156  0.00000000  0.05500791       0.003
   0.25028191  0.00000000  0.05561911       0.003
   0.25303226  0.00000000  0.05623031       0.003
   0.25578261  0.00000000  0.05684151       0.003
   0.25853296  0.00000000  0.05745271       0.003
   0.26128331  0.00000000  0.05806390       0.003
   0.26403366  0.00000000  0.05867510       0.003
   0.26678402  0.00000000  0.05928630       0.003
   0.26953437  0.00000000  0.05989750       0.003
   0.27228472  0.00000000  0.06050870       0.003
   0.27228472  0.00000000  0.06050870       0.003
   0.27159713 -0.00119094  0.05989750       0.003
   0.27090954 -0.00238187  0.05928630       0.003
   0.27022195 -0.00357281  0.05867510       0.003
   0.26953437 -0.00476375  0.05806390       0.003
   0.26884678 -0.00595468  0.05745271       0.003
   0.26815919 -0.00714562  0.05684151       0.003
   0.26747160 -0.00833656  0.05623031       0.003
   0.26678402 -0.00952749  0.05561911       0.003
   0.26609643 -0.01071843  0.05500791       0.003
   0.26540884 -0.01190937  0.05439671       0.003
   0.26472125 -0.01310030  0.05378551       0.003
   0.26403366 -0.01429124  0.05317431       0.003
   0.26334608 -0.01548218  0.05256311       0.003
   0.26265849 -0.01667312  0.05195191       0.003
   0.26197090 -0.01786405  0.05134072       0.003
   0.26128331 -0.01905499  0.05072952       0.003
   0.26059573 -0.02024593  0.05011832       0.003
   0.25990814 -0.02143686  0.04950712       0.003
   0.25922055 -0.02262780  0.04889592       0.003
   0.25853296 -0.02381874  0.04828472       0.003
   0.25784538 -0.02500967  0.04767352       0.003
   0.25715779 -0.02620061  0.04706232       0.003
   0.25647020 -0.02739155  0.04645112       0.003
   0.25578261 -0.02858248  0.04583992       0.003
   0.25509503 -0.02977342  0.04522873       0.003
   0.25440744 -0.03096436  0.04461753       0.003
   0.25371985 -0.03215529  0.04400633       0.003
   0.25303226 -0.03334623  0.04339513       0.003
   0.25234467 -0.03453717  0.04278393       0.003
   0.25165709 -0.03572810  0.04217273       0.003
   0.25096950 -0.03691904  0.04156153       0.003
   0.25028191 -0.03810998  0.04095033       0.003
   0.24959432 -0.03930091  0.04033913       0.003
   0.24890674 -0.04049185  0.03972793       0.003
   0.24821915 -0.04168279  0.03911674       0.003
   0.24753156 -0.04287372  0.03850554       0.003
   0.24684397 -0.04406466  0.03789434       0.003
   0.24615639 -0.04525560  0.03728314       0.003
   0.24546880 -0.04644653  0.03667194       0.003
   0.24478121 -0.04763747  0.03606074       0.003
   0.24409362 -0.04882841  0.03544954       0.003
   0.24340604 -0.05001935  0.03483834       0.003
   0.24271845 -0.05121028  0.03422714       0.003
   0.24203086 -0.05240122  0.03361594       0.003
   0.24134327 -0.05359216  0.03300475       0.003
   0.24065568 -0.05478309  0.03239355       0.003
   0.23996810 -0.05597403  0.03178235       0.003
   0.23928051 -0.05716497  0.03117115       0.003
   0.23859292 -0.05835590  0.03055995       0.003
   0.23790533 -0.05954684  0.02994875       0.003
   0.23721775 -0.06073778  0.02933755       0.003
   0.23653016 -0.06192871  0.02872635       0.003
   0.23584257 -0.06311965  0.02811515       0.003
   0.23515498 -0.06431059  0.02750395       0.003
   0.23446740 -0.06550152  0.02689276       0.003
   0.23377981 -0.06669246  0.02628156       0.003
   0.23309222 -0.06788340  0.02567036       0.003
   0.23240463 -0.06907433  0.02505916       0.003
   0.23171705 -0.07026527  0.02444796       0.003
   0.23102946 -0.07145621  0.02383676       0.003
   0.23034187 -0.07264714  0.02322556       0.003
   0.22965428 -0.07383808  0.02261436       0.003
   0.22896669 -0.07502902  0.02200316       0.003
   0.22827911 -0.07621995  0.02139196       0.003
   0.22759152 -0.07741089  0.02078077       0.003
   0.22690393 -0.07860183  0.02016957       0.003
   0.22621634 -0.07979276  0.01955837       0.003
   0.22552876 -0.08098370  0.01894717       0.003
   0.22484117 -0.08217464  0.01833597       0.003
   0.22415358 -0.08336558  0.01772477       0.003
   0.22346599 -0.08455651  0.01711357       0.003
   0.22277841 -0.08574745  0.01650237       0.003
   0.22209082 -0.08693839  0.01589117       0.003
   0.22140323 -0.08812932  0.01527997       0.003
   0.22071564 -0.08932026  0.01466878       0.003
   0.22002806 -0.09051120  0.01405758       0.003
   0.21934047 -0.09170213  0.01344638       0.003
   0.21865288 -0.09289307  0.01283518       0.003
   0.21796529 -0.09408401  0.01222398       0.003
   0.21727770 -0.09527494  0.01161278       0.003
   0.21659012 -0.09646588  0.01100158       0.003
   0.21590253 -0.09765682  0.01039038       0.003
   0.21521494 -0.09884775  0.00977918       0.003
   0.21452735 -0.10003869  0.00916798       0.003
   0.21383977 -0.10122963  0.00855679       0.003
   0.21315218 -0.10242056  0.00794559       0.003
   0.21246459 -0.10361150  0.00733439       0.003
   0.21177700 -0.10480244  0.00672319       0.003
   0.21108942 -0.10599337  0.00611199       0.003
   0.21040183 -0.10718431  0.00550079       0.003
   0.20971424 -0.10837525  0.00488959       0.003
   0.20902665 -0.10956618  0.00427839       0.003
   0.20833907 -0.11075712  0.00366719       0.003
   0.20765148 -0.11194806  0.00305599       0.003
   0.20696389 -0.11313899  0.00244480       0.003
   0.20627630 -0.11432993  0.00183360       0.003
   0.20558871 -0.11552087  0.00122240       0.003
   0.20490113 -0.11671181  0.00061120       0.003
   0.20421354 -0.11790274  0.00000000       0.003
   0.20421354 -0.11790274  0.00000000       0.003
   0.20215078 -0.11671181  0.00000000       0.003
   0.20008801 -0.11552087  0.00000000       0.003
   0.19802525 -0.11432993  0.00000000       0.003
   0.19596249 -0.11313899  0.00000000       0.003
   0.19389972 -0.11194806  0.00000000       0.003
   0.19183696 -0.11075712  0.00000000       0.003
   0.18977420 -0.10956618  0.00000000       0.003
   0.18771144 -0.10837525  0.00000000       0.003
   0.18564867 -0.10718431  0.00000000       0.003
   0.18358591 -0.10599337  0.00000000       0.003
   0.18152315 -0.10480244  0.00000000       0.003
   0.17946038 -0.10361150  0.00000000       0.003
   0.17739762 -0.10242056  0.00000000       0.003
   0.17533486 -0.10122963  0.00000000       0.003
   0.17327209 -0.10003869  0.00000000       0.003
   0.17120933 -0.09884775  0.00000000       0.003
   0.16914657 -0.09765682  0.00000000       0.003
   0.16708380 -0.09646588  0.00000000       0.003
   0.16502104 -0.09527494  0.00000000       0.003
   0.16295828 -0.09408401  0.00000000       0.003
   0.16089552 -0.09289307  0.00000000       0.003
   0.15883275 -0.09170213  0.00000000       0.003
   0.15676999 -0.09051120  0.00000000       0.003
   0.15470723 -0.08932026  0.00000000       0.003
   0.15264446 -0.08812932  0.00000000       0.003
   0.15058170 -0.08693839  0.00000000       0.003
   0.14851894 -0.08574745  0.00000000       0.003
   0.14645617 -0.08455651  0.00000000       0.003
   0.14439341 -0.08336558  0.00000000       0.003
   0.14233065 -0.08217464  0.00000000       0.003
   0.14026789 -0.08098370  0.00000000       0.003
   0.13820512 -0.07979276  0.00000000       0.003
   0.13614236 -0.07860183  0.00000000       0.003
   0.13407960 -0.07741089  0.00000000       0.003
   0.13201683 -0.07621995  0.00000000       0.003
   0.12995407 -0.07502902  0.00000000       0.003
   0.12789131 -0.07383808  0.00000000       0.003
   0.12582854 -0.07264714  0.00000000       0.003
   0.12376578 -0.07145621  0.00000000       0.003
   0.12170302 -0.07026527  0.00000000       0.003
   0.11964026 -0.06907433  0.00000000       0.003
   0.11757749 -0.06788340  0.00000000       0.003
   0.11551473 -0.06669246  0.00000000       0.003
   0.11345197 -0.06550152  0.00000000       0.003
   0.11138920 -0.06431059  0.00000000       0.003
   0.10932644 -0.06311965  0.00000000       0.003
   0.10726368 -0.06192871  0.00000000       0.003
   0.10520091 -0.06073778  0.00000000       0.003
   0.10313815 -0.05954684  0.00000000       0.003
   0.10107539 -0.05835590  0.00000000       0.003
   0.09901263 -0.05716497  0.00000000       0.003
   0.09694986 -0.05597403  0.00000000       0.003
   0.09488710 -0.05478309  0.00000000       0.003
   0.09282434 -0.05359216  0.00000000       0.003
   0.09076157 -0.05240122  0.00000000       0.003
   0.08869881 -0.05121028  0.00000000       0.003
   0.08663605 -0.05001935  0.00000000       0.003
   0.08457328 -0.04882841  0.00000000       0.003
   0.08251052 -0.04763747  0.00000000       0.003
   0.08044776 -0.04644653  0.00000000       0.003
   0.07838499 -0.04525560  0.00000000       0.003
   0.07632223 -0.04406466  0.00000000       0.003
   0.07425947 -0.04287372  0.00000000       0.003
   0.07219671 -0.04168279  0.00000000       0.003
   0.07013394 -0.04049185  0.00000000       0.003
   0.06807118 -0.03930091  0.00000000       0.003
   0.06600842 -0.03810998  0.00000000       0.003
   0.06394565 -0.03691904  0.00000000       0.003
   0.06188289 -0.03572810  0.00000000       0.003
   0.05982013 -0.03453717  0.00000000       0.003
   0.05775736 -0.03334623  0.00000000       0.003
   0.05569460 -0.03215529  0.00000000       0.003
   0.05363184 -0.03096436  0.00000000       0.003
   0.05156908 -0.02977342  0.00000000       0.003
   0.04950631 -0.02858248  0.00000000       0.003
   0.04744355 -0.02739155  0.00000000       0.003
   0.04538079 -0.02620061  0.00000000       0.003
   0.04331802 -0.02500967  0.00000000       0.003
   0.04125526 -0.02381874  0.00000000       0.003
   0.03919250 -0.02262780  0.00000000       0.003
   0.03712973 -0.02143686  0.00000000       0.003
   0.03506697 -0.02024593  0.00000000       0.003
   0.03300421 -0.01905499  0.00000000       0.003
   0.03094145 -0.01786405  0.00000000       0.003
   0.02887868 -0.01667312  0.00000000       0.003
   0.02681592 -0.01548218  0.00000000       0.003
   0.02475316 -0.01429124  0.00000000       0.003
   0.02269039 -0.01310030  0.00000000       0.003
   0.02062763 -0.01190937  0.00000000       0.003
   0.01856487 -0.01071843  0.00000000       0.003
   0.01650210 -0.00952749  0.00000000       0.003
   0.01443934 -0.00833656  0.00000000       0.003
   0.01237658 -0.00714562  0.00000000       0.003
   0.01031382 -0.00595468  0.00000000       0.003
   0.00825105 -0.00476375  0.00000000       0.003
   0.00618829 -0.00357281  0.00000000       0.003
   0.00412553 -0.00238187  0.00000000       0.003
   0.00206276 -0.00119094  0.00000000       0.003
   0.00000000  0.00000000  0.00000000       0.003
 
 k-points in reciprocal lattice and weights: k                                       
   0.00000000  0.00000000  0.00000000       0.003
   0.00336700  0.00336700  0.00336700       0.003
   0.00673401  0.00673401  0.00673401       0.003
   0.01010101  0.01010101  0.01010101       0.003
   0.01346801  0.01346801  0.01346801       0.003
   0.01683502  0.01683502  0.01683502       0.003
   0.02020202  0.02020202  0.02020202       0.003
   0.02356902  0.02356902  0.02356902       0.003
   0.02693603  0.02693603  0.02693603       0.003
   0.03030303  0.03030303  0.03030303       0.003
   0.03367003  0.03367003  0.03367003       0.003
   0.03703704  0.03703704  0.03703704       0.003
   0.04040404  0.04040404  0.04040404       0.003
   0.04377104  0.04377104  0.04377104       0.003
   0.04713805  0.04713805  0.04713805       0.003
   0.05050505  0.05050505  0.05050505       0.003
   0.05387205  0.05387205  0.05387205       0.003
   0.05723906  0.05723906  0.05723906       0.003
   0.06060606  0.06060606  0.06060606       0.003
   0.06397306  0.06397306  0.06397306       0.003
   0.06734007  0.06734007  0.06734007       0.003
   0.07070707  0.07070707  0.07070707       0.003
   0.07407407  0.07407407  0.07407407       0.003
   0.07744108  0.07744108  0.07744108       0.003
   0.08080808  0.08080808  0.08080808       0.003
   0.08417508  0.08417508  0.08417508       0.003
   0.08754209  0.08754209  0.08754209       0.003
   0.09090909  0.09090909  0.09090909       0.003
   0.09427609  0.09427609  0.09427609       0.003
   0.09764310  0.09764310  0.09764310       0.003
   0.10101010  0.10101010  0.10101010       0.003
   0.10437710  0.10437710  0.10437710       0.003
   0.10774411  0.10774411  0.10774411       0.003
   0.11111111  0.11111111  0.11111111       0.003
   0.11447811  0.11447811  0.11447811       0.003
   0.11784512  0.11784512  0.11784512       0.003
   0.12121212  0.12121212  0.12121212       0.003
   0.12457912  0.12457912  0.12457912       0.003
   0.12794613  0.12794613  0.12794613       0.003
   0.13131313  0.13131313  0.13131313       0.003
   0.13468013  0.13468013  0.13468013       0.003
   0.13804714  0.13804714  0.13804714       0.003
   0.14141414  0.14141414  0.14141414       0.003
   0.14478114  0.14478114  0.14478114       0.003
   0.14814815  0.14814815  0.14814815       0.003
   0.15151515  0.15151515  0.15151515       0.003
   0.15488215  0.15488215  0.15488215       0.003
   0.15824916  0.15824916  0.15824916       0.003
   0.16161616  0.16161616  0.16161616       0.003
   0.16498316  0.16498316  0.16498316       0.003
   0.16835017  0.16835017  0.16835017       0.003
   0.17171717  0.17171717  0.17171717       0.003
   0.17508417  0.17508417  0.17508417       0.003
   0.17845118  0.17845118  0.17845118       0.003
   0.18181818  0.18181818  0.18181818       0.003
   0.18518518  0.18518518  0.18518518       0.003
   0.18855219  0.18855219  0.18855219       0.003
   0.19191919  0.19191919  0.19191919       0.003
   0.19528619  0.19528619  0.19528619       0.003
   0.19865320  0.19865320  0.19865320       0.003
   0.20202020  0.20202020  0.20202020       0.003
   0.20538720  0.20538720  0.20538720       0.003
   0.20875421  0.20875421  0.20875421       0.003
   0.21212121  0.21212121  0.21212121       0.003
   0.21548821  0.21548821  0.21548821       0.003
   0.21885522  0.21885522  0.21885522       0.003
   0.22222222  0.22222222  0.22222222       0.003
   0.22558922  0.22558922  0.22558922       0.003
   0.22895623  0.22895623  0.22895623       0.003
   0.23232323  0.23232323  0.23232323       0.003
   0.23569023  0.23569023  0.23569023       0.003
   0.23905724  0.23905724  0.23905724       0.003
   0.24242424  0.24242424  0.24242424       0.003
   0.24579124  0.24579124  0.24579124       0.003
   0.24915825  0.24915825  0.24915825       0.003
   0.25252525  0.25252525  0.25252525       0.003
   0.25589225  0.25589225  0.25589225       0.003
   0.25925926  0.25925926  0.25925926       0.003
   0.26262626  0.26262626  0.26262626       0.003
   0.26599326  0.26599326  0.26599326       0.003
   0.26936027  0.26936027  0.26936027       0.003
   0.27272727  0.27272727  0.27272727       0.003
   0.27609427  0.27609427  0.27609427       0.003
   0.27946128  0.27946128  0.27946128       0.003
   0.28282828  0.28282828  0.28282828       0.003
   0.28619528  0.28619528  0.28619528       0.003
   0.28956229  0.28956229  0.28956229       0.003
   0.29292929  0.29292929  0.29292929       0.003
   0.29629629  0.29629629  0.29629629       0.003
   0.29966330  0.29966330  0.29966330       0.003
   0.30303030  0.30303030  0.30303030       0.003
   0.30639730  0.30639730  0.30639730       0.003
   0.30976431  0.30976431  0.30976431       0.003
   0.31313131  0.31313131  0.31313131       0.003
   0.31649831  0.31649831  0.31649831       0.003
   0.31986532  0.31986532  0.31986532       0.003
   0.32323232  0.32323232  0.32323232       0.003
   0.32659932  0.32659932  0.32659932       0.003
   0.32996633  0.32996633  0.32996633       0.003
   0.33333333  0.33333333  0.33333333       0.003
   0.33333333  0.33333333  0.33333333       0.003
   0.33501683  0.32996633  0.32996633       0.003
   0.33670033  0.32659932  0.32659932       0.003
   0.33838384  0.32323232  0.32323232       0.003
   0.34006734  0.31986532  0.31986532       0.003
   0.34175084  0.31649831  0.31649831       0.003
   0.34343434  0.31313131  0.31313131       0.003
   0.34511784  0.30976431  0.30976431       0.003
   0.34680134  0.30639730  0.30639730       0.003
   0.34848485  0.30303030  0.30303030       0.003
   0.35016835  0.29966330  0.29966330       0.003
   0.35185185  0.29629629  0.29629629       0.003
   0.35353535  0.29292929  0.29292929       0.003
   0.35521885  0.28956229  0.28956229       0.003
   0.35690235  0.28619528  0.28619528       0.003
   0.35858586  0.28282828  0.28282828       0.003
   0.36026936  0.27946128  0.27946128       0.003
   0.36195286  0.27609427  0.27609427       0.003
   0.36363636  0.27272727  0.27272727       0.003
   0.36531986  0.26936027  0.26936027       0.003
   0.36700336  0.26599326  0.26599326       0.003
   0.36868687  0.26262626  0.26262626       0.003
   0.37037037  0.25925926  0.25925926       0.003
   0.37205387  0.25589225  0.25589225       0.003
   0.37373737  0.25252525  0.25252525       0.003
   0.37542087  0.24915825  0.24915825       0.003
   0.37710437  0.24579124  0.24579124       0.003
   0.37878788  0.24242424  0.24242424       0.003
   0.38047138  0.23905724  0.23905724       0.003
   0.38215488  0.23569023  0.23569023       0.003
   0.38383838  0.23232323  0.23232323       0.003
   0.38552188  0.22895623  0.22895623       0.003
   0.38720538  0.22558922  0.22558922       0.003
   0.38888889  0.22222222  0.22222222       0.003
   0.39057239  0.21885522  0.21885522       0.003
   0.39225589  0.21548821  0.21548821       0.003
   0.39393939  0.21212121  0.21212121       0.003
   0.39562289  0.20875421  0.20875421       0.003
   0.39730640  0.20538720  0.20538720       0.003
   0.39898990  0.20202020  0.20202020       0.003
   0.40067340  0.19865320  0.19865320       0.003
   0.40235690  0.19528619  0.19528619       0.003
   0.40404040  0.19191919  0.19191919       0.003
   0.40572390  0.18855219  0.18855219       0.003
   0.40740741  0.18518518  0.18518518       0.003
   0.40909091  0.18181818  0.18181818       0.003
   0.41077441  0.17845118  0.17845118       0.003
   0.41245791  0.17508417  0.17508417       0.003
   0.41414141  0.17171717  0.17171717       0.003
   0.41582491  0.16835017  0.16835017       0.003
   0.41750842  0.16498316  0.16498316       0.003
   0.41919192  0.16161616  0.16161616       0.003
   0.42087542  0.15824916  0.15824916       0.003
   0.42255892  0.15488215  0.15488215       0.003
   0.42424242  0.15151515  0.15151515       0.003
   0.42592592  0.14814815  0.14814815       0.003
   0.42760943  0.14478114  0.14478114       0.003
   0.42929293  0.14141414  0.14141414       0.003
   0.43097643  0.13804714  0.13804714       0.003
   0.43265993  0.13468013  0.13468013       0.003
   0.43434343  0.13131313  0.13131313       0.003
   0.43602693  0.12794613  0.12794613       0.003
   0.43771044  0.12457912  0.12457912       0.003
   0.43939394  0.12121212  0.12121212       0.003
   0.44107744  0.11784512  0.11784512       0.003
   0.44276094  0.11447811  0.11447811       0.003
   0.44444444  0.11111111  0.11111111       0.003
   0.44612795  0.10774411  0.10774411       0.003
   0.44781145  0.10437710  0.10437710       0.003
   0.44949495  0.10101010  0.10101010       0.003
   0.45117845  0.09764310  0.09764310       0.003
   0.45286195  0.09427609  0.09427609       0.003
   0.45454545  0.09090909  0.09090909       0.003
   0.45622896  0.08754209  0.08754209       0.003
   0.45791246  0.08417508  0.08417508       0.003
   0.45959596  0.08080808  0.08080808       0.003
   0.46127946  0.07744108  0.07744108       0.003
   0.46296296  0.07407407  0.07407407       0.003
   0.46464646  0.07070707  0.07070707       0.003
   0.46632997  0.06734007  0.06734007       0.003
   0.46801347  0.06397306  0.06397306       0.003
   0.46969697  0.06060606  0.06060606       0.003
   0.47138047  0.05723906  0.05723906       0.003
   0.47306397  0.05387205  0.05387205       0.003
   0.47474747  0.05050505  0.05050505       0.003
   0.47643098  0.04713805  0.04713805       0.003
   0.47811448  0.04377104  0.04377104       0.003
   0.47979798  0.04040404  0.04040404       0.003
   0.48148148  0.03703704  0.03703704       0.003
   0.48316498  0.03367003  0.03367003       0.003
   0.48484848  0.03030303  0.03030303       0.003
   0.48653199  0.02693603  0.02693603       0.003
   0.48821549  0.02356902  0.02356902       0.003
   0.48989899  0.02020202  0.02020202       0.003
   0.49158249  0.01683502  0.01683502       0.003
   0.49326599  0.01346801  0.01346801       0.003
   0.49494949  0.01010101  0.01010101       0.003
   0.49663300  0.00673401  0.00673401       0.003
   0.49831650  0.00336700  0.00336700       0.003
   0.50000000  0.00000000  0.00000000       0.003
   0.50000000  0.00000000  0.00000000       0.003
   0.49494949  0.00000000  0.00000000       0.003
   0.48989899  0.00000000  0.00000000       0.003
   0.48484848  0.00000000  0.00000000       0.003
   0.47979798  0.00000000  0.00000000       0.003
   0.47474747  0.00000000  0.00000000       0.003
   0.46969697  0.00000000  0.00000000       0.003
   0.46464646  0.00000000  0.00000000       0.003
   0.45959596  0.00000000  0.00000000       0.003
   0.45454545  0.00000000  0.00000000       0.003
   0.44949495  0.00000000  0.00000000       0.003
   0.44444444  0.00000000  0.00000000       0.003
   0.43939394  0.00000000  0.00000000       0.003
   0.43434343  0.00000000  0.00000000       0.003
   0.42929293  0.00000000  0.00000000       0.003
   0.42424242  0.00000000  0.00000000       0.003
   0.41919192  0.00000000  0.00000000       0.003
   0.41414141  0.00000000  0.00000000       0.003
   0.40909091  0.00000000  0.00000000       0.003
   0.40404040  0.00000000  0.00000000       0.003
   0.39898990  0.00000000  0.00000000       0.003
   0.39393939  0.00000000  0.00000000       0.003
   0.38888889  0.00000000  0.00000000       0.003
   0.38383838  0.00000000  0.00000000       0.003
   0.37878788  0.00000000  0.00000000       0.003
   0.37373737  0.00000000  0.00000000       0.003
   0.36868687  0.00000000  0.00000000       0.003
   0.36363636  0.00000000  0.00000000       0.003
   0.35858586  0.00000000  0.00000000       0.003
   0.35353535  0.00000000  0.00000000       0.003
   0.34848485  0.00000000  0.00000000       0.003
   0.34343434  0.00000000  0.00000000       0.003
   0.33838384  0.00000000  0.00000000       0.003
   0.33333333  0.00000000  0.00000000       0.003
   0.32828283  0.00000000  0.00000000       0.003
   0.32323232  0.00000000  0.00000000       0.003
   0.31818182  0.00000000  0.00000000       0.003
   0.31313131  0.00000000  0.00000000       0.003
   0.30808081  0.00000000  0.00000000       0.003
   0.30303030  0.00000000  0.00000000       0.003
   0.29797980  0.00000000  0.00000000       0.003
   0.29292929  0.00000000  0.00000000       0.003
   0.28787879  0.00000000  0.00000000       0.003
   0.28282828  0.00000000  0.00000000       0.003
   0.27777778  0.00000000  0.00000000       0.003
   0.27272727  0.00000000  0.00000000       0.003
   0.26767677  0.00000000  0.00000000       0.003
   0.26262626  0.00000000  0.00000000       0.003
   0.25757576  0.00000000  0.00000000       0.003
   0.25252525  0.00000000  0.00000000       0.003
   0.24747475  0.00000000  0.00000000       0.003
   0.24242424  0.00000000  0.00000000       0.003
   0.23737374  0.00000000  0.00000000       0.003
   0.23232323  0.00000000  0.00000000       0.003
   0.22727273  0.00000000  0.00000000       0.003
   0.22222222  0.00000000  0.00000000       0.003
   0.21717172  0.00000000  0.00000000       0.003
   0.21212121  0.00000000  0.00000000       0.003
   0.20707071  0.00000000  0.00000000       0.003
   0.20202020  0.00000000  0.00000000       0.003
   0.19696970  0.00000000  0.00000000       0.003
   0.19191919  0.00000000  0.00000000       0.003
   0.18686869  0.00000000  0.00000000       0.003
   0.18181818  0.00000000  0.00000000       0.003
   0.17676768  0.00000000  0.00000000       0.003
   0.17171717  0.00000000  0.00000000       0.003
   0.16666667  0.00000000  0.00000000       0.003
   0.16161616  0.00000000  0.00000000       0.003
   0.15656566  0.00000000  0.00000000       0.003
   0.15151515  0.00000000  0.00000000       0.003
   0.14646465  0.00000000  0.00000000       0.003
   0.14141414  0.00000000  0.00000000       0.003
   0.13636364  0.00000000  0.00000000       0.003
   0.13131313  0.00000000  0.00000000       0.003
   0.12626263  0.00000000  0.00000000       0.003
   0.12121212  0.00000000  0.00000000       0.003
   0.11616162  0.00000000  0.00000000       0.003
   0.11111111  0.00000000  0.00000000       0.003
   0.10606061  0.00000000  0.00000000       0.003
   0.10101010  0.00000000  0.00000000       0.003
   0.09595960  0.00000000  0.00000000       0.003
   0.09090909  0.00000000  0.00000000       0.003
   0.08585859  0.00000000  0.00000000       0.003
   0.08080808  0.00000000  0.00000000       0.003
   0.07575758  0.00000000  0.00000000       0.003
   0.07070707  0.00000000  0.00000000       0.003
   0.06565657  0.00000000  0.00000000       0.003
   0.06060606  0.00000000  0.00000000       0.003
   0.05555556  0.00000000  0.00000000       0.003
   0.05050505  0.00000000  0.00000000       0.003
   0.04545455  0.00000000  0.00000000       0.003
   0.04040404  0.00000000  0.00000000       0.003
   0.03535354  0.00000000  0.00000000       0.003
   0.03030303  0.00000000  0.00000000       0.003
   0.02525253  0.00000000  0.00000000       0.003
   0.02020202  0.00000000  0.00000000       0.003
   0.01515152  0.00000000  0.00000000       0.003
   0.01010101  0.00000000  0.00000000       0.003
   0.00505051  0.00000000  0.00000000       0.003
   0.00000000  0.00000000  0.00000000       0.003
 
 position of ions in fractional coordinates (direct lattice) 
   0.00000000  0.00000000  0.25000000
   0.33333333  0.66666667  0.25000000
 
 position of ions in cartesian coordinates  (Angst):
   0.00000000  0.00000000  1.37721239
   1.22420874  0.70679726  1.37721239
 


--------------------------------------------------------------------------------------------------------


 k-point  1 :   0.0000 0.0000 0.0000  plane waves:     333
 k-point  2 :   0.0034 0.0034 0.0034  plane waves:     333
 k-point  3 :   0.0067 0.0067 0.0067  plane waves:     335
 k-point  4 :   0.0101 0.0101 0.0101  plane waves:     335
 k-point  5 :   0.0135 0.0135 0.0135  plane waves:     335
 k-point  6 :   0.0168 0.0168 0.0168  plane waves:     335
 k-point  7 :   0.0202 0.0202 0.0202  plane waves:     337
 k-point  8 :   0.0236 0.0236 0.0236  plane waves:     339
 k-point  9 :   0.0269 0.0269 0.0269  plane waves:     339
 k-point 10 :   0.0303 0.0303 0.0303  plane waves:     339
 k-point 11 :   0.0337 0.0337 0.0337  plane waves:     339
 k-point 12 :   0.0370 0.0370 0.0370  plane waves:     339
 k-point 13 :   0.0404 0.0404 0.0404  plane waves:     341
 k-point 14 :   0.0438 0.0438 0.0438  plane waves:     341
 k-point 15 :   0.0471 0.0471 0.0471  plane waves:     341
 k-point 16 :   0.0505 0.0505 0.0505  plane waves:     343
 k-point 17 :   0.0539 0.0539 0.0539  plane waves:     345
 k-point 18 :   0.0572 0.0572 0.0572  plane waves:     345
 k-point 19 :   0.0606 0.0606 0.0606  plane waves:     347
 k-point 20 :   0.0640 0.0640 0.0640  plane waves:     345
 k-point 21 :   0.0673 0.0673 0.0673  plane waves:     347
 k-point 22 :   0.0707 0.0707 0.0707  plane waves:     347
 k-point 23 :   0.0741 0.0741 0.0741  plane waves:     347
 k-point 24 :   0.0774 0.0774 0.0774  plane waves:     347
 k-point 25 :   0.0808 0.0808 0.0808  plane waves:     346
 k-point 26 :   0.0842 0.0842 0.0842  plane waves:     346
 k-point 27 :   0.0875 0.0875 0.0875  plane waves:     346
 k-point 28 :   0.0909 0.0909 0.0909  plane waves:     346
 k-point 29 :   0.0943 0.0943 0.0943  plane waves:     348
 k-point 30 :   0.0976 0.0976 0.0976  plane waves:     348
 k-point 31 :   0.1010 0.1010 0.1010  plane waves:     348
 k-point 32 :   0.1044 0.1044 0.1044  plane waves:     348
 k-point 33 :   0.1077 0.1077 0.1077  plane waves:     350
 k-point 34 :   0.1111 0.1111 0.1111  plane waves:     350
 k-point 35 :   0.1145 0.1145 0.1145  plane waves:     350
 k-point 36 :   0.1178 0.1178 0.1178  plane waves:     348
 k-point 37 :   0.1212 0.1212 0.1212  plane waves:     348
 k-point 38 :   0.1246 0.1246 0.1246  plane waves:     346
 k-point 39 :   0.1279 0.1279 0.1279  plane waves:     346
 k-point 40 :   0.1313 0.1313 0.1313  plane waves:     344
 k-point 41 :   0.1347 0.1347 0.1347  plane waves:     344
 k-point 42 :   0.1380 0.1380 0.1380  plane waves:     341
 k-point 43 :   0.1414 0.1414 0.1414  plane waves:     341
 k-point 44 :   0.1448 0.1448 0.1448  plane waves:     341
 k-point 45 :   0.1481 0.1481 0.1481  plane waves:     341
 k-point 46 :   0.1515 0.1515 0.1515  plane waves:     341
 k-point 47 :   0.1549 0.1549 0.1549  plane waves:     339
 k-point 48 :   0.1582 0.1582 0.1582  plane waves:     339
 k-point 49 :   0.1616 0.1616 0.1616  plane waves:     337
 k-point 50 :   0.1650 0.1650 0.1650  plane waves:     337
 k-point 51 :   0.1684 0.1684 0.1684  plane waves:     337
 k-point 52 :   0.1717 0.1717 0.1717  plane waves:     338
 k-point 53 :   0.1751 0.1751 0.1751  plane waves:     340
 k-point 54 :   0.1785 0.1785 0.1785  plane waves:     340
 k-point 55 :   0.1818 0.1818 0.1818  plane waves:     342
 k-point 56 :   0.1852 0.1852 0.1852  plane waves:     340
 k-point 57 :   0.1886 0.1886 0.1886  plane waves:     340
 k-point 58 :   0.1919 0.1919 0.1919  plane waves:     338
 k-point 59 :   0.1953 0.1953 0.1953  plane waves:     336
 k-point 60 :   0.1987 0.1987 0.1987  plane waves:     336
 k-point 61 :   0.2020 0.2020 0.2020  plane waves:     336
 k-point 62 :   0.2054 0.2054 0.2054  plane waves:     334
 k-point 63 :   0.2088 0.2088 0.2088  plane waves:     334
 k-point 64 :   0.2121 0.2121 0.2121  plane waves:     334
 k-point 65 :   0.2155 0.2155 0.2155  plane waves:     334
 k-point 66 :   0.2189 0.2189 0.2189  plane waves:     334
 k-point 67 :   0.2222 0.2222 0.2222  plane waves:     334
 k-point 68 :   0.2256 0.2256 0.2256  plane waves:     330
 k-point 69 :   0.2290 0.2290 0.2290  plane waves:     330
 k-point 70 :   0.2323 0.2323 0.2323  plane waves:     330
 k-point 71 :   0.2357 0.2357 0.2357  plane waves:     330
 k-point 72 :   0.2391 0.2391 0.2391  plane waves:     330
 k-point 73 :   0.2424 0.2424 0.2424  plane waves:     328
 k-point 74 :   0.2458 0.2458 0.2458  plane waves:     328
 k-point 75 :   0.2492 0.2492 0.2492  plane waves:     326
 k-point 76 :   0.2525 0.2525 0.2525  plane waves:     326
 k-point 77 :   0.2559 0.2559 0.2559  plane waves:     326
 k-point 78 :   0.2593 0.2593 0.2593  plane waves:     328
 k-point 79 :   0.2626 0.2626 0.2626  plane waves:     330
 k-point 80 :   0.2660 0.2660 0.2660  plane waves:     330
 k-point 81 :   0.2694 0.2694 0.2694  plane waves:     330
 k-point 82 :   0.2727 0.2727 0.2727  plane waves:     330
 k-point 83 :   0.2761 0.2761 0.2761  plane waves:     330
 k-point 84 :   0.2795 0.2795 0.2795  plane waves:     329
 k-point 85 :   0.2828 0.2828 0.2828  plane waves:     329
 k-point 86 :   0.2862 0.2862 0.2862  plane waves:     327
 k-point 87 :   0.2896 0.2896 0.2896  plane waves:     327
 k-point 88 :   0.2929 0.2929 0.2929  plane waves:     327
 k-point 89 :   0.2963 0.2963 0.2963  plane waves:     326
 k-point 90 :   0.2997 0.2997 0.2997  plane waves:     326
 k-point 91 :   0.3030 0.3030 0.3030  plane waves:     324
 k-point 92 :   0.3064 0.3064 0.3064  plane waves:     324
 k-point 93 :   0.3098 0.3098 0.3098  plane waves:     324
 k-point 94 :   0.3131 0.3131 0.3131  plane waves:     325
 k-point 95 :   0.3165 0.3165 0.3165  plane waves:     325
 k-point 96 :   0.3199 0.3199 0.3199  plane waves:     325
 k-point 97 :   0.3232 0.3232 0.3232  plane waves:     325
 k-point 98 :   0.3266 0.3266 0.3266  plane waves:     327
 k-point 99 :   0.3300 0.3300 0.3300  plane waves:     327
 k-point ** :   0.3333 0.3333 0.3333  plane waves:     327
 k-point ** :   0.3333 0.3333 0.3333  plane waves:     327
 k-point ** :   0.3350 0.3300 0.3300  plane waves:     327
 k-point ** :   0.3367 0.3266 0.3266  plane waves:     327
 k-point ** :   0.3384 0.3232 0.3232  plane waves:     327
 k-point ** :   0.3401 0.3199 0.3199  plane waves:     325
 k-point ** :   0.3418 0.3165 0.3165  plane waves:     325
 k-point ** :   0.3434 0.3131 0.3131  plane waves:     325
 k-point ** :   0.3451 0.3098 0.3098  plane waves:     325
 k-point ** :   0.3468 0.3064 0.3064  plane waves:     325
 k-point ** :   0.3485 0.3030 0.3030  plane waves:     325
 k-point ** :   0.3502 0.2997 0.2997  plane waves:     326
 k-point ** :   0.3519 0.2963 0.2963  plane waves:     326
 k-point ** :   0.3535 0.2929 0.2929  plane waves:     326
 k-point ** :   0.3552 0.2896 0.2896  plane waves:     326
 k-point ** :   0.3569 0.2862 0.2862  plane waves:     326
 k-point ** :   0.3586 0.2828 0.2828  plane waves:     326
 k-point ** :   0.3603 0.2795 0.2795  plane waves:     326
 k-point ** :   0.3620 0.2761 0.2761  plane waves:     326
 k-point ** :   0.3636 0.2727 0.2727  plane waves:     326
 k-point ** :   0.3653 0.2694 0.2694  plane waves:     326
 k-point ** :   0.3670 0.2660 0.2660  plane waves:     326
 k-point ** :   0.3687 0.2626 0.2626  plane waves:     328
 k-point ** :   0.3704 0.2593 0.2593  plane waves:     326
 k-point ** :   0.3721 0.2559 0.2559  plane waves:     327
 k-point ** :   0.3737 0.2525 0.2525  plane waves:     327
 k-point ** :   0.3754 0.2492 0.2492  plane waves:     328
 k-point ** :   0.3771 0.2458 0.2458  plane waves:     330
 k-point ** :   0.3788 0.2424 0.2424  plane waves:     330
 k-point ** :   0.3805 0.2391 0.2391  plane waves:     332
 k-point ** :   0.3822 0.2357 0.2357  plane waves:     332
 k-point ** :   0.3838 0.2323 0.2323  plane waves:     332
 k-point ** :   0.3855 0.2290 0.2290  plane waves:     333
 k-point ** :   0.3872 0.2256 0.2256  plane waves:     333
 k-point ** :   0.3889 0.2222 0.2222  plane waves:     333
 k-point ** :   0.3906 0.2189 0.2189  plane waves:     333
 k-point ** :   0.3923 0.2155 0.2155  plane waves:     333
 k-point ** :   0.3939 0.2121 0.2121  plane waves:     335
 k-point ** :   0.3956 0.2088 0.2088  plane waves:     333
 k-point ** :   0.3973 0.2054 0.2054  plane waves:     333
 k-point ** :   0.3990 0.2020 0.2020  plane waves:     333
 k-point ** :   0.4007 0.1987 0.1987  plane waves:     333
 k-point ** :   0.4024 0.1953 0.1953  plane waves:     333
 k-point ** :   0.4040 0.1919 0.1919  plane waves:     333
 k-point ** :   0.4057 0.1886 0.1886  plane waves:     333
 k-point ** :   0.4074 0.1852 0.1852  plane waves:     333
 k-point ** :   0.4091 0.1818 0.1818  plane waves:     333
 k-point ** :   0.4108 0.1785 0.1785  plane waves:     333
 k-point ** :   0.4125 0.1751 0.1751  plane waves:     333
 k-point ** :   0.4141 0.1717 0.1717  plane waves:     333
 k-point ** :   0.4158 0.1684 0.1684  plane waves:     331
 k-point ** :   0.4175 0.1650 0.1650  plane waves:     331
 k-point ** :   0.4192 0.1616 0.1616  plane waves:     333
 k-point ** :   0.4209 0.1582 0.1582  plane waves:     334
 k-point ** :   0.4226 0.1549 0.1549  plane waves:     334
 k-point ** :   0.4242 0.1515 0.1515  plane waves:     336
 k-point ** :   0.4259 0.1481 0.1481  plane waves:     336
 k-point ** :   0.4276 0.1448 0.1448  plane waves:     336
 k-point ** :   0.4293 0.1414 0.1414  plane waves:     336
 k-point ** :   0.4310 0.1380 0.1380  plane waves:     336
 k-point ** :   0.4327 0.1347 0.1347  plane waves:     334
 k-point ** :   0.4343 0.1313 0.1313  plane waves:     334
 k-point ** :   0.4360 0.1279 0.1279  plane waves:     334
 k-point ** :   0.4377 0.1246 0.1246  plane waves:     334
 k-point ** :   0.4394 0.1212 0.1212  plane waves:     334
 k-point ** :   0.4411 0.1178 0.1178  plane waves:     336
 k-point ** :   0.4428 0.1145 0.1145  plane waves:     336
 k-point ** :   0.4444 0.1111 0.1111  plane waves:     336
 k-point ** :   0.4461 0.1077 0.1077  plane waves:     336
 k-point ** :   0.4478 0.1044 0.1044  plane waves:     336
 k-point ** :   0.4495 0.1010 0.1010  plane waves:     336
 k-point ** :   0.4512 0.0976 0.0976  plane waves:     336
 k-point ** :   0.4529 0.0943 0.0943  plane waves:     334
 k-point ** :   0.4545 0.0909 0.0909  plane waves:     334
 k-point ** :   0.4562 0.0875 0.0875  plane waves:     334
 k-point ** :   0.4579 0.0842 0.0842  plane waves:     332
 k-point ** :   0.4596 0.0808 0.0808  plane waves:     332
 k-point ** :   0.4613 0.0774 0.0774  plane waves:     334
 k-point ** :   0.4630 0.0741 0.0741  plane waves:     334
 k-point ** :   0.4646 0.0707 0.0707  plane waves:     334
 k-point ** :   0.4663 0.0673 0.0673  plane waves:     334
 k-point ** :   0.4680 0.0640 0.0640  plane waves:     334
 k-point ** :   0.4697 0.0606 0.0606  plane waves:     334
 k-point ** :   0.4714 0.0572 0.0572  plane waves:     334
 k-point ** :   0.4731 0.0539 0.0539  plane waves:     334
 k-point ** :   0.4747 0.0505 0.0505  plane waves:     334
 k-point ** :   0.4764 0.0471 0.0471  plane waves:     334
 k-point ** :   0.4781 0.0438 0.0438  plane waves:     333
 k-point ** :   0.4798 0.0404 0.0404  plane waves:     333
 k-point ** :   0.4815 0.0370 0.0370  plane waves:     333
 k-point ** :   0.4832 0.0337 0.0337  plane waves:     333
 k-point ** :   0.4848 0.0303 0.0303  plane waves:     331
 k-point ** :   0.4865 0.0269 0.0269  plane waves:     330
 k-point ** :   0.4882 0.0236 0.0236  plane waves:     330
 k-point ** :   0.4899 0.0202 0.0202  plane waves:     328
 k-point ** :   0.4916 0.0168 0.0168  plane waves:     328
 k-point ** :   0.4933 0.0135 0.0135  plane waves:     328
 k-point ** :   0.4949 0.0101 0.0101  plane waves:     326
 k-point ** :   0.4966 0.0067 0.0067  plane waves:     328
 k-point ** :   0.4983 0.0034 0.0034  plane waves:     328
 k-point ** :   0.5000 0.0000 0.0000  plane waves:     330
 k-point ** :   0.5000 0.0000 0.0000  plane waves:     330
 k-point ** :   0.4949 0.0000 0.0000  plane waves:     326
 k-point ** :   0.4899 0.0000 0.0000  plane waves:     326
 k-point ** :   0.4848 0.0000 0.0000  plane waves:     326
 k-point ** :   0.4798 0.0000 0.0000  plane waves:     326
 k-point ** :   0.4747 0.0000 0.0000  plane waves:     330
 k-point ** :   0.4697 0.0000 0.0000  plane waves:     330
 k-point ** :   0.4646 0.0000 0.0000  plane waves:     330
 k-point ** :   0.4596 0.0000 0.0000  plane waves:     330
 k-point ** :   0.4545 0.0000 0.0000  plane waves:     330
 k-point ** :   0.4495 0.0000 0.0000  plane waves:     330
 k-point ** :   0.4444 0.0000 0.0000  plane waves:     330
 k-point ** :   0.4394 0.0000 0.0000  plane waves:     336
 k-point ** :   0.4343 0.0000 0.0000  plane waves:     336
 k-point ** :   0.4293 0.0000 0.0000  plane waves:     334
 k-point ** :   0.4242 0.0000 0.0000  plane waves:     334
 k-point ** :   0.4192 0.0000 0.0000  plane waves:     334
 k-point ** :   0.4141 0.0000 0.0000  plane waves:     334
 k-point ** :   0.4091 0.0000 0.0000  plane waves:     338
 k-point ** :   0.4040 0.0000 0.0000  plane waves:     338
 k-point ** :   0.3990 0.0000 0.0000  plane waves:     338
 k-point ** :   0.3939 0.0000 0.0000  plane waves:     338
 k-point ** :   0.3889 0.0000 0.0000  plane waves:     338
 k-point ** :   0.3838 0.0000 0.0000  plane waves:     338
 k-point ** :   0.3788 0.0000 0.0000  plane waves:     338
 k-point ** :   0.3737 0.0000 0.0000  plane waves:     334
 k-point ** :   0.3687 0.0000 0.0000  plane waves:     334
 k-point ** :   0.3636 0.0000 0.0000  plane waves:     336
 k-point ** :   0.3586 0.0000 0.0000  plane waves:     336
 k-point ** :   0.3535 0.0000 0.0000  plane waves:     336
 k-point ** :   0.3485 0.0000 0.0000  plane waves:     336
 k-point ** :   0.3434 0.0000 0.0000  plane waves:     336
 k-point ** :   0.3384 0.0000 0.0000  plane waves:     340
 k-point ** :   0.3333 0.0000 0.0000  plane waves:     340
 k-point ** :   0.3283 0.0000 0.0000  plane waves:     340
 k-point ** :   0.3232 0.0000 0.0000  plane waves:     340
 k-point ** :   0.3182 0.0000 0.0000  plane waves:     344
 k-point ** :   0.3131 0.0000 0.0000  plane waves:     344
 k-point ** :   0.3081 0.0000 0.0000  plane waves:     344
 k-point ** :   0.3030 0.0000 0.0000  plane waves:     346
 k-point ** :   0.2980 0.0000 0.0000  plane waves:     346
 k-point ** :   0.2929 0.0000 0.0000  plane waves:     348
 k-point ** :   0.2879 0.0000 0.0000  plane waves:     348
 k-point ** :   0.2828 0.0000 0.0000  plane waves:     348
 k-point ** :   0.2778 0.0000 0.0000  plane waves:     348
 k-point ** :   0.2727 0.0000 0.0000  plane waves:     348
 k-point ** :   0.2677 0.0000 0.0000  plane waves:     348
 k-point ** :   0.2626 0.0000 0.0000  plane waves:     348
 k-point ** :   0.2576 0.0000 0.0000  plane waves:     352
 k-point ** :   0.2525 0.0000 0.0000  plane waves:     352
 k-point ** :   0.2475 0.0000 0.0000  plane waves:     352
 k-point ** :   0.2424 0.0000 0.0000  plane waves:     352
 k-point ** :   0.2374 0.0000 0.0000  plane waves:     352
 k-point ** :   0.2323 0.0000 0.0000  plane waves:     350
 k-point ** :   0.2273 0.0000 0.0000  plane waves:     350
 k-point ** :   0.2222 0.0000 0.0000  plane waves:     346
 k-point ** :   0.2172 0.0000 0.0000  plane waves:     346
 k-point ** :   0.2121 0.0000 0.0000  plane waves:     346
 k-point ** :   0.2071 0.0000 0.0000  plane waves:     346
 k-point ** :   0.2020 0.0000 0.0000  plane waves:     342
 k-point ** :   0.1970 0.0000 0.0000  plane waves:     346
 k-point ** :   0.1919 0.0000 0.0000  plane waves:     346
 k-point ** :   0.1869 0.0000 0.0000  plane waves:     346
 k-point ** :   0.1818 0.0000 0.0000  plane waves:     346
 k-point ** :   0.1768 0.0000 0.0000  plane waves:     346
 k-point ** :   0.1717 0.0000 0.0000  plane waves:     346
 k-point ** :   0.1667 0.0000 0.0000  plane waves:     346
 k-point ** :   0.1616 0.0000 0.0000  plane waves:     346
 k-point ** :   0.1566 0.0000 0.0000  plane waves:     346
 k-point ** :   0.1515 0.0000 0.0000  plane waves:     350
 k-point ** :   0.1465 0.0000 0.0000  plane waves:     350
 k-point ** :   0.1414 0.0000 0.0000  plane waves:     350
 k-point ** :   0.1364 0.0000 0.0000  plane waves:     350
 k-point ** :   0.1313 0.0000 0.0000  plane waves:     350
 k-point ** :   0.1263 0.0000 0.0000  plane waves:     350
 k-point ** :   0.1212 0.0000 0.0000  plane waves:     354
 k-point ** :   0.1162 0.0000 0.0000  plane waves:     354
 k-point ** :   0.1111 0.0000 0.0000  plane waves:     354
 k-point ** :   0.1061 0.0000 0.0000  plane waves:     352
 k-point ** :   0.1010 0.0000 0.0000  plane waves:     348
 k-point ** :   0.0960 0.0000 0.0000  plane waves:     348
 k-point ** :   0.0909 0.0000 0.0000  plane waves:     346
 k-point ** :   0.0859 0.0000 0.0000  plane waves:     346
 k-point ** :   0.0808 0.0000 0.0000  plane waves:     342
 k-point ** :   0.0758 0.0000 0.0000  plane waves:     342
 k-point ** :   0.0707 0.0000 0.0000  plane waves:     342
 k-point ** :   0.0657 0.0000 0.0000  plane waves:     342
 k-point ** :   0.0606 0.0000 0.0000  plane waves:     338
 k-point ** :   0.0556 0.0000 0.0000  plane waves:     338
 k-point ** :   0.0505 0.0000 0.0000  plane waves:     338
 k-point ** :   0.0455 0.0000 0.0000  plane waves:     338
 k-point ** :   0.0404 0.0000 0.0000  plane waves:     338
 k-point ** :   0.0354 0.0000 0.0000  plane waves:     338
 k-point ** :   0.0303 0.0000 0.0000  plane waves:     338
 k-point ** :   0.0253 0.0000 0.0000  plane waves:     336
 k-point ** :   0.0202 0.0000 0.0000  plane waves:     336
 k-point ** :   0.0152 0.0000 0.0000  plane waves:     336
 k-point ** :   0.0101 0.0000 0.0000  plane waves:     334
 k-point ** :   0.0051 0.0000 0.0000  plane waves:     333
 k-point ** :   0.0000 0.0000 0.0000  plane waves:     333

 maximum and minimum number of plane-waves per node :       354      324

 maximum number of plane-waves:       354
 maximum index in each direction: 
   IXMAX=    3   IYMAX=    3   IZMAX=    7
   IXMIN=   -3   IYMIN=   -3   IZMIN=   -7

 WARNING: aliasing errors must be expected set NGX to  14 to avoid them
 WARNING: aliasing errors must be expected set NGY to  14 to avoid them
 WARNING: aliasing errors must be expected set NGZ to  30 to avoid them
 aliasing errors are usually negligible using standard VASP settings
 and one can safely disregard these warnings

 serial   3D FFT for wavefunctions
 parallel 3D FFT for charge:
    minimum data exchange during FFTs selected (reduces bandwidth)


 total amount of memory used by VASP on root node    39290. kBytes
========================================================================

   base      :      30000. kBytes
   nonl-proj :       7077. kBytes
   fftplans  :        134. kBytes
   grid      :        230. kBytes
   one-center:          6. kBytes
   wavefun   :       1843. kBytes
 
     INWAV:  cpu time    0.00: real time    0.00
 Broyden mixing: mesh for mixing (old mesh)
   NGX =  7   NGY =  7   NGZ = 15
  (NGX  = 20   NGY  = 20   NGZ  = 48)
  gives a total of    735 points

 initial charge density was supplied:
 charge density of overlapping atoms calculated
 number of electron       8.0000000 magnetization 
 keeping initial charge density in first step


--------------------------------------------------------------------------------------------------------


 Maximum index for augmentation-charges          176 (set IRDMAX)


--------------------------------------------------------------------------------------------------------


 First call to EWALD:  gamma=   0.580
 Maximum number of real-space cells 4x 4x 2
 Maximum number of reciprocal cells 2x 2x 5

 FEWALD executed in parallel
    FEWALD:  cpu time    0.00: real time    0.00


----------------------------------------- Iteration    1(   1)  ---------------------------------------


    POTLOK:  cpu time    0.01: real time    0.01
    SETDIJ:  cpu time    0.00: real time    0.00
     EDDAV:  cpu time    2.10: real time    2.10
       DOS:  cpu time    0.01: real time    0.01
    --------------------------------------------
      LOOP:  cpu time    2.11: real time    2.12

 eigenvalue-minimisations  : 11552
 total energy-change (2. order) :-0.1181933E+02  (-0.3613338E+03)
 number of electron       8.0000000 magnetization 
 augmentation part        8.0000000 magnetization 

 Free energy of the ion-electron system (eV)
  ---------------------------------------------------
  alpha Z        PSCENC =        11.39592015
  Ewald energy   TEWEN  =       -29.57875518
  -Hartree energ DENC   =      -231.49353485
  -exchange      EXHF   =         0.00000000
  -V(xc)+E(xc)   XCENC  =        27.65396872
  PAW double counting   =        75.66288619      -77.96384553
  entropy T*S    EENTRO =         0.00016860
  eigenvalues    EBANDS =       -81.29594301
  atomic energy  EATOM  =       293.79980732
  ---------------------------------------------------
  free energy    TOTEN  =       -11.81932759 eV

  energy without entropy =      -11.81949619  energy(sigma->0) =      -11.81938379


--------------------------------------------------------------------------------------------------------




----------------------------------------- Iteration    1(   2)  ---------------------------------------


     EDDAV:  cpu time    3.34: real time    3.34
       DOS:  cpu time    0.01: real time    0.01
    --------------------------------------------
      LOOP:  cpu time    3.35: real time    3.35

 eigenvalue-minimisations  : 15456
 total energy-change (2. order) :-0.6887300E+01  (-0.6742277E+01)
 number of electron       8.0000000 magnetization 
 augmentation part        8.0000000 magnetization 

 Free energy of the ion-electron system (eV)
  ---------------------------------------------------
  alpha Z        PSCENC =        11.39592015
  Ewald energy   TEWEN  =       -29.57875518
  -Hartree energ DENC   =      -231.49353485
  -exchange      EXHF   =         0.00000000
  -V(xc)+E(xc)   XCENC  =        27.65396872
  PAW double counting   =        75.66288619      -77.96384553
  entropy T*S    EENTRO =        -0.00035619
  eigenvalues    EBANDS =       -88.18271787
  atomic energy  EATOM  =       293.79980732
  ---------------------------------------------------
  free energy    TOTEN  =       -18.70662725 eV

  energy without entropy =      -18.70627105  energy(sigma->0) =      -18.70650852


--------------------------------------------------------------------------------------------------------




----------------------------------------- Iteration    1(   3)  ---------------------------------------


     EDDAV:  cpu time    1.88: real time    1.88
       DOS:  cpu time    0.01: real time    0.01
    --------------------------------------------
      LOOP:  cpu time    1.89: real time    1.89

 eigenvalue-minimisations  : 10528
 total energy-change (2. order) :-0.1782260E-01  (-0.1782275E-01)
 number of electron       8.0000000 magnetization 
 augmentation part        8.0000000 magnetization 

 Free energy of the ion-electron system (eV)
  ---------------------------------------------------
  alpha Z        PSCENC =        11.39592015
  Ewald energy   TEWEN  =       -29.57875518
  -Hartree energ DENC   =      -231.49353485
  -exchange      EXHF   =         0.00000000
  -V(xc)+E(xc)   XCENC  =        27.65396872
  PAW double counting   =        75.66288619      -77.96384553
  entropy T*S    EENTRO =        -0.00035901
  eigenvalues    EBANDS =       -88.20053765
  atomic energy  EATOM  =       293.79980732
  ---------------------------------------------------
  free energy    TOTEN  =       -18.72444985 eV

  energy without entropy =      -18.72409083  energy(sigma->0) =      -18.72433018


--------------------------------------------------------------------------------------------------------




----------------------------------------- Iteration    1(   4)  ---------------------------------------


     EDDAV:  cpu time    3.64: real time    3.64
       DOS:  cpu time    0.01: real time    0.01
    --------------------------------------------
      LOOP:  cpu time    3.65: real time    3.68

 eigenvalue-minimisations  : 16096
 total energy-change (2. order) :-0.2459208E-04  (-0.2459200E-04)
 number of electron       8.0000000 magnetization 
 augmentation part        8.0000000 magnetization 

 Free energy of the ion-electron system (eV)
  ---------------------------------------------------
  alpha Z        PSCENC =        11.39592015
  Ewald energy   TEWEN  =       -29.57875518
  -Hartree energ DENC   =      -231.49353485
  -exchange      EXHF   =         0.00000000
  -V(xc)+E(xc)   XCENC  =        27.65396872
  PAW double counting   =        75.66288619      -77.96384553
  entropy T*S    EENTRO =        -0.00035901
  eigenvalues    EBANDS =       -88.20056225
  atomic energy  EATOM  =       293.79980732
  ---------------------------------------------------
  free energy    TOTEN  =       -18.72447444 eV

  energy without entropy =      -18.72411543  energy(sigma->0) =      -18.72435477


--------------------------------------------------------------------------------------------------------




----------------------------------------- Iteration    1(   5)  ---------------------------------------


     EDDAV:  cpu time    1.82: real time    1.83
       DOS:  cpu time    0.01: real time    0.01
    CHARGE:  cpu time    0.03: real time    0.03
    MIXING:  cpu time    0.00: real time    0.00
    --------------------------------------------
      LOOP:  cpu time    1.86: real time    1.86

 eigenvalue-minimisations  : 10432
 total energy-change (2. order) :-0.2248498E-08  (-0.2318607E-08)
 number of electron       7.9999997 magnetization 
 augmentation part        0.2085013 magnetization 

 Broyden mixing:
  rms(total) = 0.57536E+00    rms(broyden)= 0.57491E+00
  rms(prec ) = 0.10655E+01
  weight for this iteration     100.00

 Free energy of the ion-electron system (eV)
  ---------------------------------------------------
  alpha Z        PSCENC =        11.39592015
  Ewald energy   TEWEN  =       -29.57875518
  -Hartree energ DENC   =      -231.49353485
  -exchange      EXHF   =         0.00000000
  -V(xc)+E(xc)   XCENC  =        27.65396872
  PAW double counting   =        75.66288619      -77.96384553
  entropy T*S    EENTRO =        -0.00035901
  eigenvalues    EBANDS =       -88.20056225
  atomic energy  EATOM  =       293.79980732
  ---------------------------------------------------
  free energy    TOTEN  =       -18.72447444 eV

  energy without entropy =      -18.72411543  energy(sigma->0) =      -18.72435477


--------------------------------------------------------------------------------------------------------




----------------------------------------- Iteration    1(   6)  ---------------------------------------


    POTLOK:  cpu time    0.00: real time    0.01
    SETDIJ:  cpu time    0.00: real time    0.00
     EDDAV:  cpu time    2.10: real time    2.10
       DOS:  cpu time    0.01: real time    0.01
    CHARGE:  cpu time    0.03: real time    0.03
    MIXING:  cpu time    0.00: real time    0.00
    --------------------------------------------
      LOOP:  cpu time    2.14: real time    2.17

 eigenvalue-minimisations  : 11472
 total energy-change (2. order) : 0.9682273E+00  (-0.8777376E-01)
 number of electron       7.9999996 magnetization 
 augmentation part        0.2003968 magnetization 

 Broyden mixing:
  rms(total) = 0.30718E+00    rms(broyden)= 0.30706E+00
  rms(prec ) = 0.57837E+00
  weight for this iteration     100.00

 eigenvalues of (default mixing * dielectric matrix)
  average eigenvalue GAMMA=   2.0866
  2.0866

 Free energy of the ion-electron system (eV)
  ---------------------------------------------------
  alpha Z        PSCENC =        11.39592015
  Ewald energy   TEWEN  =       -29.57875518
  -Hartree energ DENC   =      -242.12205230
  -exchange      EXHF   =         0.00000000
  -V(xc)+E(xc)   XCENC  =        28.18185065
  PAW double counting   =       104.13878213     -106.57949269
  entropy T*S    EENTRO =        -0.00035670
  eigenvalues    EBANDS =       -76.99195053
  atomic energy  EATOM  =       293.79980732
  ---------------------------------------------------
  free energy    TOTEN  =       -17.75624715 eV

  energy without entropy =      -17.75589046  energy(sigma->0) =      -17.75612825


--------------------------------------------------------------------------------------------------------




----------------------------------------- Iteration    1(   7)  ---------------------------------------


    POTLOK:  cpu time    0.00: real time    0.00
    SETDIJ:  cpu time    0.00: real time    0.00
     EDDAV:  cpu time    2.23: real time    2.23
       DOS:  cpu time    0.01: real time    0.01
    CHARGE:  cpu time    0.03: real time    0.03
    MIXING:  cpu time    0.00: real time    0.00
    --------------------------------------------
      LOOP:  cpu time    2.28: real time    2.28

 eigenvalue-minimisations  : 11856
 total energy-change (2. order) : 0.3923840E+00  (-0.1172496E+00)
 number of electron       7.9999996 magnetization 
 augmentation part        0.1908522 magnetization 

 Broyden mixing:
  rms(total) = 0.49683E-01    rms(broyden)= 0.49154E-01
  rms(prec ) = 0.96579E-01
  weight for this iteration     100.00

 eigenvalues of (default mixing * dielectric matrix)
  average eigenvalue GAMMA=   2.3107
  2.2451  2.3764

 Free energy of the ion-electron system (eV)
  ---------------------------------------------------
  alpha Z        PSCENC =        11.39592015
  Ewald energy   TEWEN  =       -29.57875518
  -Hartree energ DENC   =      -255.82408169
  -exchange      EXHF   =         0.00000000
  -V(xc)+E(xc)   XCENC  =        28.87240046
  PAW double counting   =       142.35509456     -144.91428726
  entropy T*S    EENTRO =        -0.00035415
  eigenvalues    EBANDS =       -63.46960740
  atomic energy  EATOM  =       293.79980732
  ---------------------------------------------------
  free energy    TOTEN  =       -17.36386319 eV

  energy without entropy =      -17.36350904  energy(sigma->0) =      -17.36374514


--------------------------------------------------------------------------------------------------------




----------------------------------------- Iteration    1(   8)  ---------------------------------------


    POTLOK:  cpu time    0.00: real time    0.00
    SETDIJ:  cpu time    0.00: real time    0.00
     EDDAV:  cpu time    2.02: real time    2.02
       DOS:  cpu time    0.01: real time    0.01
    CHARGE:  cpu time    0.03: real time    0.03
    MIXING:  cpu time    0.00: real time    0.00
    --------------------------------------------
      LOOP:  cpu time    2.06: real time    2.06

 eigenvalue-minimisations  : 11104
 total energy-change (2. order) :-0.3565968E-03  (-0.8746637E-03)
 number of electron       7.9999995 magnetization 
 augmentation part        0.1906114 magnetization 

 Broyden mixing:
  rms(total) = 0.70269E-02    rms(broyden)= 0.68155E-02
  rms(prec ) = 0.25094E-01
  weight for this iteration     100.00

 eigenvalues of (default mixing * dielectric matrix)
  average eigenvalue GAMMA=   2.0501
  1.3230  2.7775  2.0498

 Free energy of the ion-electron system (eV)
  ---------------------------------------------------
  alpha Z        PSCENC =        11.39592015
  Ewald energy   TEWEN  =       -29.57875518
  -Hartree energ DENC   =      -257.41044779
[...]
     15      30.4676      0.00000
     16      31.1625      0.00000

 k-point   282 :       0.0909    0.0000    0.0000
  band No.  band energies     occupation 
      1     -18.0963      2.00000
      2      -6.0684      2.00000
      3      -2.3179      2.00000
      4      -1.9166      2.00000
      5       4.1970      0.00000
      6      10.1295      0.00000
      7      10.9421      0.00000
      8      11.6111      0.00000
      9      12.7094      0.00000
     10      14.7610      0.00000
     11      15.6959      0.00000
     12      24.7972      0.00000
     13      27.4966      0.00000
     14      28.5688      0.00000
     15      30.4175      0.00000
     16      31.4420      0.00000

 k-point   283 :       0.0859    0.0000    0.0000
  band No.  band energies     occupation 
      1     -18.1177      2.00000
      2      -6.0940      2.00000
      3      -2.2374      2.00000
      4      -1.8758      2.00000
      5       4.1681      0.00000
      6      10.1286      0.00000
      7      10.8539      0.00000
      8      11.5866      0.00000
      9      12.7829      0.00000
     10      14.7184      0.00000
     11      15.6685      0.00000
     12      24.7295      0.00000
     13      27.6796      0.00000
     14      28.6822      0.00000
     15      30.3679      0.00000
     16      31.7238      0.00000

 k-point   284 :       0.0808    0.0000    0.0000
  band No.  band energies     occupation 
      1     -18.1378      2.00000
      2      -6.1172      2.00000
      3      -2.1364      2.00000
      4      -1.8353      2.00000
      5       4.1410      0.00000
      6      10.1335      0.00000
      7      10.7707      0.00000
      8      11.5648      0.00000
      9      12.8739      0.00000
     10      14.6842      0.00000
     11      15.6428      0.00000
     12      24.6658      0.00000
     13      27.8671      0.00000
     14      28.7952      0.00000
     15      30.3203      0.00000
     16      32.0092      0.00000

 k-point   285 :       0.0758    0.0000    0.0000
  band No.  band energies     occupation 
      1     -18.1568      2.00000
      2      -6.1399      2.00000
      3      -2.0636      2.00000
      4      -1.7979      2.00000
      5       4.1154      0.00000
      6      10.1315      0.00000
      7      10.6913      0.00000
      8      11.5429      0.00000
      9      12.9398      0.00000
     10      14.6465      0.00000
     11      15.6184      0.00000
     12      24.6034      0.00000
     13      28.0481      0.00000
     14      28.9069      0.00000
     15      30.2741      0.00000
     16      32.2951      0.00000

 k-point   286 :       0.0707    0.0000    0.0000
  band No.  band energies     occupation 
      1     -18.1745      2.00000
      2      -6.1612      2.00000
      3      -1.9947      2.00000
      4      -1.7624      2.00000
      5       4.0915      0.00000
      6      10.1290      0.00000
      7      10.6164      0.00000
      8      11.5223      0.00000
      9      13.0020      0.00000
     10      14.6115      0.00000
     11      15.5956      0.00000
     12      24.5441      0.00000
     13      28.2272      0.00000
     14      29.0171      0.00000
     15      30.2300      0.00000
     16      32.5828      0.00000

 k-point   287 :       0.0657    0.0000    0.0000
  band No.  band energies     occupation 
      1     -18.1911      2.00000
      2      -6.1810      2.00000
      3      -1.9299      2.00000
      4      -1.7289      2.00000
      5       4.0693      0.00000
      6      10.1261      0.00000
      7      10.5462      0.00000
      8      11.5031      0.00000
      9      13.0602      0.00000
     10      14.5792      0.00000
     11      15.5744      0.00000
     12      24.4881      0.00000
     13      28.4036      0.00000
     14      29.1255      0.00000
     15      30.1884      0.00000
     16      32.8720      0.00000

 k-point   288 :       0.0606    0.0000    0.0000
  band No.  band energies     occupation 
      1     -18.2058      2.00000
      2      -6.1992      2.00000
      3      -1.8693      2.00000
      4      -1.6955      2.00000
      5       4.0490      0.00000
      6      10.1334      0.00000
      7      10.5134      0.00000
      8      11.4856      0.00000
      9      13.1145      0.00000
     10      14.5496      0.00000
     11      15.5557      0.00000
     12      24.4370      0.00000
     13      28.5769      0.00000
     14      29.2317      0.00000
     15      30.1498      0.00000
     16      33.1626      0.00000

 k-point   289 :       0.0556    0.0000    0.0000
  band No.  band energies     occupation 
      1     -18.2199      2.00000
      2      -6.2161      2.00000
      3      -1.8130      2.00000
      4      -1.6663      2.00000
      5       4.0301      0.00000
      6      10.1300      0.00000
      7      10.4527      0.00000
      8      11.4692      0.00000
      9      13.1648      0.00000
     10      14.5225      0.00000
     11      15.5375      0.00000
     12      24.3879      0.00000
     13      28.7451      0.00000
     14      29.3348      0.00000
     15      30.1136      0.00000
     16      33.4541      0.00000

 k-point   290 :       0.0505    0.0000    0.0000
  band No.  band energies     occupation 
      1     -18.2328      2.00000
      2      -6.2315      2.00000
      3      -1.7612      2.00000
      4      -1.6394      2.00000
      5       4.0128      0.00000
      6      10.1265      0.00000
      7      10.3969      0.00000
      8      11.4542      0.00000
      9      13.2110      0.00000
     10      14.4979      0.00000
     11      15.5209      0.00000
     12      24.3426      0.00000
     13      28.9076      0.00000
     14      29.4342      0.00000
     15      30.0806      0.00000
     16      33.7463      0.00000

 k-point   291 :       0.0455    0.0000    0.0000
  band No.  band energies     occupation 
      1     -18.2444      2.00000
      2      -6.2455      2.00000
      3      -1.7140      2.00000
      4      -1.6147      2.00000
      5       3.9971      0.00000
      6      10.1229      0.00000
      7      10.3462      0.00000
      8      11.4406      0.00000
      9      13.2529      0.00000
     10      14.4759      0.00000
     11      15.5059      0.00000
     12      24.3013      0.00000
     13      29.0629      0.00000
     14      29.5291      0.00000
     15      30.0509      0.00000
     16      34.0530      0.00000

 k-point   292 :       0.0404    0.0000    0.0000
  band No.  band energies     occupation 
      1     -18.2548      2.00000
      2      -6.2580      2.00000
      3      -1.6714      2.00000
      4      -1.5924      2.00000
      5       3.9831      0.00000
      6      10.1195      0.00000
      7      10.3006      0.00000
      8      11.4285      0.00000
      9      13.2907      0.00000
     10      14.4563      0.00000
     11      15.4924      0.00000
     12      24.2640      0.00000
     13      29.2093      0.00000
     14      29.6187      0.00000
     15      30.0251      0.00000
     16      33.9798      0.00000

 k-point   293 :       0.0354    0.0000    0.0000
  band No.  band energies     occupation 
      1     -18.2640      2.00000
      2      -6.2690      2.00000
      3      -1.6336      2.00000
      4      -1.5726      2.00000
      5       3.9708      0.00000
      6      10.1163      0.00000
      7      10.2602      0.00000
      8      11.4178      0.00000
      9      13.3241      0.00000
     10      14.4391      0.00000
     11      15.4805      0.00000
     12      24.2309      0.00000
     13      29.3446      0.00000
     14      29.7019      0.00000
     15      30.0036      0.00000
     16      33.9079      0.00000

 k-point   294 :       0.0303    0.0000    0.0000
  band No.  band energies     occupation 
      1     -18.2720      2.00000
      2      -6.2786      2.00000
      3      -1.6006      2.00000
      4      -1.5552      2.00000
      5       3.9601      0.00000
      6      10.1133      0.00000
      7      10.2250      0.00000
      8      11.4085      0.00000
      9      13.3532      0.00000
     10      14.4244      0.00000
     11      15.4701      0.00000
     12      24.2020      0.00000
     13      29.4662      0.00000
     14      29.7776      0.00000
     15      29.9872      0.00000
     16      33.8395      0.00000

 k-point   295 :       0.0253    0.0000    0.0000
  band No.  band energies     occupation 
      1     -18.2785      2.00000
      2      -6.2866      2.00000
      3      -1.5719      2.00000
      4      -1.5405      2.00000
      5       3.9511      0.00000
      6      10.1320      0.00000
      7      10.1952      0.00000
      8      11.4007      0.00000
      9      13.3779      0.00000
     10      14.4122      0.00000
     11      15.4619      0.00000
     12      24.1780      0.00000
     13      29.5714      0.00000
     14      29.8446      0.00000
     15      29.9771      0.00000
     16      33.7759      0.00000

 k-point   296 :       0.0202    0.0000    0.0000
  band No.  band energies     occupation 
      1     -18.2840      2.00000
      2      -6.2932      2.00000
      3      -1.5489      2.00000
      4      -1.5283      2.00000
      5       3.9437      0.00000
      6      10.1297      0.00000
      7      10.1708      0.00000
      8      11.3942      0.00000
      9      13.3981      0.00000
     10      14.4020      0.00000
     11      15.4547      0.00000
     12      24.1576      0.00000
     13      29.6556      0.00000
     14      29.9016      0.00000
     15      29.9746      0.00000
     16      33.7201      0.00000

 k-point   297 :       0.0152    0.0000    0.0000
  band No.  band energies     occupation 
      1     -18.2883      2.00000
      2      -6.2983      2.00000
      3      -1.5310      2.00000
      4      -1.5187      2.00000
      5       3.9380      0.00000
      6      10.1279      0.00000
      7      10.1517      0.00000
      8      11.3892      0.00000
      9      13.4139      0.00000
     10      14.3942      0.00000
     11      15.4491      0.00000
     12      24.1417      0.00000
     13      29.7163      0.00000
     14      29.9475      0.00000
     15      29.9805      0.00000
     16      33.6775      0.00000

 k-point   298 :       0.0101    0.0000    0.0000
  band No.  band energies     occupation 
      1     -18.2911      2.00000
      2      -6.3020      2.00000
      3      -1.5182      2.00000
      4      -1.5114      2.00000
      5       3.9339      0.00000
      6      10.1320      0.00000
      7      10.1540      0.00000
      8      11.3856      0.00000
      9      13.4252      0.00000
     10      14.3888      0.00000
     11      15.4456      0.00000
     12      24.1304      0.00000
     13      29.7538      0.00000
     14      29.9812      0.00000
     15      29.9924      0.00000
     16      33.6382      0.00000

 k-point   299 :       0.0051    0.0000    0.0000
  band No.  band energies     occupation 
      1     -18.2929      2.00000
      2      -6.3042      2.00000
      3      -1.5105      2.00000
      4      -1.5071      2.00000
      5       3.9315      0.00000
      6      10.1416      0.00000
      7      10.1461      0.00000
      8      11.3835      0.00000
      9      13.4319      0.00000
     10      14.3855      0.00000
     11      15.4435      0.00000
     12      24.1235      0.00000
     13      29.7726      0.00000
     14      30.0018      0.00000
     15      30.0039      0.00000
     16      33.6153      0.00000

 k-point   300 :       0.0000    0.0000    0.0000
  band No.  band energies     occupation 
      1     -18.2935      2.00000
      2      -6.3050      2.00000
      3      -1.5081      2.00000
      4      -1.5056      2.00000
      5       3.9307      0.00000
      6      10.1410      0.00000
      7      10.1437      0.00000
      8      11.3827      0.00000
      9      13.4342      0.00000
     10      14.3844      0.00000
     11      15.4427      0.00000
     12      24.1212      0.00000
     13      29.7782      0.00000
     14      30.0086      0.00000
     15      30.0088      0.00000
     16      33.6069      0.00000


--------------------------------------------------------------------------------------------------------


 soft charge-density along one line, spin component           1
         0         1         2         3         4         5         6         7         8         9
 total charge-density along one line
 
 pseudopotential strength for first ion, spin component:           1
  9.964   0.000   0.011   0.000   0.000   0.000   0.000   0.000   0.000   0.000   0.000   0.000   0.000   0.000   0.000   0.000
  0.011   0.000  -0.002   0.000   0.000   0.000   0.000   0.000   0.000   0.000   0.000   0.000   0.000   0.000   0.000   0.000
  0.000   0.000   0.000   0.000  -4.128   0.000   0.000   0.000   0.000   0.000  -0.016   0.000   0.000   0.000   0.000   0.000
  0.000   0.000   0.000   0.000   0.000   0.000  -4.122   0.000   0.000   0.000   0.000   0.000  -0.013   0.000   0.000   0.000
  0.000   0.000   0.000   0.000   0.000   0.000   0.000   0.000  -4.128   0.000   0.000   0.000   0.000   0.000  -0.016   0.000
  0.000   0.000   0.000   0.000  -0.016   0.000   0.000   0.000   0.000   0.000  -0.768   0.000   0.000   0.000   0.000   0.000
  0.000   0.000   0.000   0.000   0.000   0.000  -0.013   0.000   0.000   0.000   0.000   0.000  -0.768   0.000   0.000   0.000
  0.000   0.000   0.000   0.000   0.000   0.000   0.000   0.000  -0.016   0.000   0.000   0.000   0.000   0.000  -0.768   0.000
 total augmentation occupancy for first ion, spin component:           1
  1.455  -0.964   0.000   0.000   0.000   0.000   0.000   0.000
 -0.964   0.888   0.000   0.000   0.000   0.000   0.000   0.000
  0.000   0.000   1.224   0.000   0.000   0.275   0.000   0.000
  0.000   0.000   0.000   0.908   0.000   0.000   0.158   0.000
  0.000   0.000   0.000   0.000   1.224   0.000   0.000   0.275
  0.000   0.000   0.275   0.000   0.000   0.069   0.000   0.000
  0.000   0.000   0.000   0.158   0.000   0.000   0.029   0.000
  0.000   0.000   0.000   0.000   0.275   0.000   0.000   0.069


------------------------ aborting loop because EDIFF is reached ----------------------------------------


 


 total charge     
 
# of ion     s       p       d       tot
----------------------------------------
  1        0.844   1.848   0.000   2.692
  2        0.844   1.848   0.000   2.692
------------------------------------------------
tot        1.689   3.695   0.000   5.384
 
    CHARGE:  cpu time    0.03: real time    0.03
    FORLOC:  cpu time    0.00: real time    0.00
    FORNL :  cpu time    0.03: real time    0.03
    STRESS:  cpu time    0.55: real time    0.55
    FORHAR:  cpu time    0.00: real time    0.00
    MIXING:  cpu time    0.00: real time    0.00
    OFIELD:  cpu time    0.00: real time    0.00

  FORCE on cell =-STRESS in cart. coord.  units (eV):
  Direction    XX          YY          ZZ          XY          YZ          ZX
  --------------------------------------------------------------------------------------
  Alpha Z    11.39592    11.39592    11.39592
  Ewald     241.22437   241.22437  -512.02772     0.00000     0.00000     0.00000
  Hartree   246.99806   246.99807  -235.62191     0.00000     0.00000     0.00000
  E(xc)     -29.37395   -29.37397   -30.53975     0.00000     0.00000     0.00000
  Local    -583.89999  -583.91034   634.37118     0.00000     0.00000     0.00000
  n-local    -8.09864    -7.67096    -7.19742     0.01918     0.00175     0.00490
  augment    -0.77144    -0.77151    -0.70616     0.00000     0.00000     0.00000
  Kinetic   125.78949   120.14024   138.27118    -1.79591    -0.02249    -0.07433
  Fock        0.00000     0.00000     0.00000     0.00000     0.00000     0.00000
  -------------------------------------------------------------------------------------
  Total       0.64782     0.64782    -2.05469     0.00000     0.00000     0.00000
  in kB      36.29143    36.29143  -115.10515     0.00000     0.00000     0.00000
  external pressure =      -14.17 kB  Pullay stress =        0.00 kB


 VOLUME and BASIS-vectors are now :
 -----------------------------------------------------------------------------
  energy-cutoff  :      300.00
  volume of cell :       28.60
      direct lattice vectors                 reciprocal lattice vectors
     1.224208741 -2.120391738  0.000000000     0.408427079 -0.235805484  0.000000000
     1.224208741  2.120391738  0.000000000     0.408427079  0.235805484  0.000000000
     0.000000000  0.000000000  5.508849570     0.000000000  0.000000000  0.181526104

  length of vectors
     2.448417481  2.448417481  5.508849570     0.471610968  0.471610968  0.181526104


 FORCES acting on ions
    electron-ion (+dipol)            ewald-force                    non-local-force                 convergence-correction
 -----------------------------------------------------------------------------------------------
   -.704E-10 -.400E-03 -.142E-12   0.111E-13 0.274E-05 -.235E-17   0.555E-16 -.180E-15 -.463E-22   0.814E-15 -.318E-07 -.735E-13
   0.134E-09 -.718E-03 -.173E-12   -.126E-13 -.274E-05 0.235E-17   -.125E-15 0.125E-15 -.662E-22   0.167E-14 0.319E-07 -.732E-13
 -----------------------------------------------------------------------------------------------
   0.634E-10 -.112E-02 -.314E-12   -.148E-14 0.101E-14 0.000E+00   -.694E-16 -.555E-16 -.112E-21   0.248E-14 0.407E-10 -.147E-12
 
 
 POSITION                                       TOTAL-FORCE (eV/Angst)
 -----------------------------------------------------------------------------------
      0.00000      0.00000      1.37721         0.000000      0.000000      0.000000
      1.22421      0.70680      1.37721         0.000000      0.000000      0.000000
 -----------------------------------------------------------------------------------
    total drift:                                0.000000     -0.001117      0.000000


--------------------------------------------------------------------------------------------------------



  FREE ENERGIE OF THE ION-ELECTRON SYSTEM (eV)
  ---------------------------------------------------
  free  energy   TOTEN  =       -17.36492031 eV

  energy  without entropy=      -17.36456621  energy(sigma->0) =      -17.36480227
 


--------------------------------------------------------------------------------------------------------


    POTLOK:  cpu time    0.01: real time    0.01


--------------------------------------------------------------------------------------------------------


 writing wavefunctions
     LOOP+:  cpu time   31.89: real time   32.50
    4ORBIT:  cpu time    0.00: real time    0.00
 


 total charge     
 
# of ion     s       p       d       tot
----------------------------------------
  1        0.844   1.848   0.000   2.692
  2        0.844   1.848   0.000   2.692
------------------------------------------------
tot        1.689   3.695   0.000   5.384
 

 total amount of memory used by VASP on root node    39290. kBytes
========================================================================

   base      :      30000. kBytes
   nonl-proj :       7077. kBytes
   fftplans  :        134. kBytes
   grid      :        230. kBytes
   one-center:          6. kBytes
   wavefun   :       1843. kBytes
 
  
  
 General timing and accounting informations for this job:
 ========================================================
  
                  Total CPU time used (sec):       33.056
                            User time (sec):       32.810
                          System time (sec):        0.246
                         Elapsed time (sec):       34.931
  
                   Maximum memory used (kb):       35892.
                   Average memory used (kb):           0.
  
                          Minor page faults:         9616
                          Major page faults:           15
                 Voluntary context switches:         4984
