   4   4   1   0
  0.9063964E+01  0.5107186E-09  0.5107186E-09  0.5107186E-09  0.5000000E-15
  1.000000000000000E-004
  CAR 
 NiO_af2                                 
     15.85499794    -17.04133577  301      4.69765809      1.00000000
    -17.041  0.0000E+00  0.0000E+00  0.0000E+00  0.0000E+00
    -16.932  0.0000E+00  0.0000E+00  0.0000E+00  0.0000E+00
    -16.822  0.0000E+00  0.0000E+00  0.0000E+00  0.0000E+00
    -16.712  0.0000E+00  0.0000E+00  0.0000E+00  0.0000E+00
    -16.603  0.0000E+00  0.0000E+00  0.0000E+00  0.0000E+00
    -16.493  0.0000E+00  0.0000E+00  0.0000E+00  0.0000E+00
    -16.383  0.0000E+00  0.0000E+00  0.0000E+00  0.0000E+00
    -16.274  0.0000E+00  0.0000E+00  0.0000E+00  0.0000E+00
    -16.164  0.0000E+00  0.0000E+00  0.0000E+00  0.0000E+00
    -16.054  0.0000E+00  0.0000E+00  0.0000E+00  0.0000E+00
    -15.945  0.0000E+00  0.0000E+00  0.0000E+00  0.0000E+00
    -15.835  0.0000E+00  0.0000E+00  0.0000E+00  0.0000E+00
    -15.725  0.0000E+00  0.0000E+00  0.0000E+00  0.0000E+00
    -15.616  0.0000E+00  0.0000E+00  0.0000E+00  0.0000E+00
    -15.506  0.0000E+00  0.0000E+00  0.0000E+00  0.0000E+00
    -15.397  0.0000E+00  0.0000E+00  0.0000E+00  0.0000E+00
    -15.287  0.0000E+00  0.0000E+00  0.0000E+00  0.0000E+00
    -15.177  0.0000E+00  0.0000E+00  0.0000E+00  0.0000E+00
    -15.068  0.0000E+00  0.0000E+00  0.0000E+00  0.0000E+00
    -14.958  0.3426E-01  0.3426E-01  0.1335E-02  0.1335E-02
    -14.848  0.1000E+00  0.1000E+00  0.8481E-02  0.8481E-02
    -14.739  0.1893E+00  0.1893E+00  0.2413E-01  0.2413E-01
    -14.629  0.3203E+00  0.3203E+00  0.5158E-01  0.5158E-01
    -14.519  0.4671E+00  0.4671E+00  0.9471E-01  0.9471E-01
    -14.410  0.5663E+00  0.5663E+00  0.1514E+00  0.1514E+00
    -14.300  0.6682E+00  0.6682E+00  0.2192E+00  0.2192E+00
    -14.190  0.7524E+00  0.7524E+00  0.2973E+00  0.2973E+00
    -14.081  0.1062E+01  0.1062E+01  0.3951E+00  0.3951E+00
    -13.971  0.1354E+01  0.1354E+01  0.5277E+00  0.5277E+00
    -13.861  0.1746E+01  0.1746E+01  0.6967E+00  0.6967E+00
    -13.752  0.5128E+01  0.5128E+01  0.1003E+01  0.1003E+01
    -13.642  0.4049E+01  0.4049E+01  0.1454E+01  0.1454E+01
    -13.532  0.1204E+01  0.1204E+01  0.1995E+01  0.1995E+01
    -13.423  0.0000E+00  0.0000E+00  0.2000E+01  0.2000E+01
    -13.313  0.0000E+00  0.0000E+00  0.2000E+01  0.2000E+01
    -13.203  0.0000E+00  0.0000E+00  0.2000E+01  0.2000E+01
    -13.094  0.0000E+00  0.0000E+00  0.2000E+01  0.2000E+01
    -12.984  0.0000E+00  0.0000E+00  0.2000E+01  0.2000E+01
    -12.874  0.0000E+00  0.0000E+00  0.2000E+01  0.2000E+01
    -12.765  0.0000E+00  0.0000E+00  0.2000E+01  0.2000E+01
    -12.655  0.0000E+00  0.0000E+00  0.2000E+01  0.2000E+01
    -12.546  0.0000E+00  0.0000E+00  0.2000E+01  0.2000E+01
    -12.436  0.0000E+00  0.0000E+00  0.2000E+01  0.2000E+01
    -12.326  0.0000E+00  0.0000E+00  0.2000E+01  0.2000E+01
    -12.217  0.0000E+00  0.0000E+00  0.2000E+01  0.2000E+01
    -12.107  0.0000E+00  0.0000E+00  0.2000E+01  0.2000E+01
    -11.997  0.0000E+00  0.0000E+00  0.2000E+01  0.2000E+01
    -11.888  0.0000E+00  0.0000E+00  0.2000E+01  0.2000E+01
    -11.778  0.0000E+00  0.0000E+00  0.2000E+01  0.2000E+01
    -11.668  0.0000E+00  0.0000E+00  0.2000E+01  0.2000E+01
    -11.559  0.0000E+00  0.0000E+00  0.2000E+01  0.2000E+01
    -11.449  0.0000E+00  0.0000E+00  0.2000E+01  0.2000E+01
    -11.339  0.0000E+00  0.0000E+00  0.2000E+01  0.2000E+01
    -11.230  0.0000E+00  0.0000E+00  0.2000E+01  0.2000E+01
    -11.120  0.0000E+00  0.0000E+00  0.2000E+01  0.2000E+01
    -11.010  0.0000E+00  0.0000E+00  0.2000E+01  0.2000E+01
    -10.901  0.0000E+00  0.0000E+00  0.2000E+01  0.2000E+01
    -10.791  0.0000E+00  0.0000E+00  0.2000E+01  0.2000E+01
    -10.681  0.0000E+00  0.0000E+00  0.2000E+01  0.2000E+01
    -10.572  0.0000E+00  0.0000E+00  0.2000E+01  0.2000E+01
    -10.462  0.0000E+00  0.0000E+00  0.2000E+01  0.2000E+01
    -10.352  0.0000E+00  0.0000E+00  0.2000E+01  0.2000E+01
    -10.243  0.0000E+00  0.0000E+00  0.2000E+01  0.2000E+01
    -10.133  0.0000E+00  0.0000E+00  0.2000E+01  0.2000E+01
    -10.023  0.0000E+00  0.0000E+00  0.2000E+01  0.2000E+01
     -9.914  0.0000E+00  0.0000E+00  0.2000E+01  0.2000E+01
     -9.804  0.0000E+00  0.0000E+00  0.2000E+01  0.2000E+01
     -9.694  0.0000E+00  0.0000E+00  0.2000E+01  0.2000E+01
     -9.585  0.0000E+00  0.0000E+00  0.2000E+01  0.2000E+01
     -9.475  0.0000E+00  0.0000E+00  0.2000E+01  0.2000E+01
     -9.366  0.0000E+00  0.0000E+00  0.2000E+01  0.2000E+01
     -9.256  0.0000E+00  0.0000E+00  0.2000E+01  0.2000E+01
     -9.146  0.0000E+00  0.0000E+00  0.2000E+01  0.2000E+01
     -9.037  0.0000E+00  0.0000E+00  0.2000E+01  0.2000E+01
     -8.927  0.0000E+00  0.0000E+00  0.2000E+01  0.2000E+01
     -8.817  0.0000E+00  0.0000E+00  0.2000E+01  0.2000E+01
     -8.708  0.0000E+00  0.0000E+00  0.2000E+01  0.2000E+01
     -8.598  0.0000E+00  0.0000E+00  0.2000E+01  0.2000E+01
     -8.488  0.0000E+00  0.0000E+00  0.2000E+01  0.2000E+01
     -8.379  0.0000E+00  0.0000E+00  0.2000E+01  0.2000E+01
     -8.269  0.0000E+00  0.0000E+00  0.2000E+01  0.2000E+01
     -8.159  0.0000E+00  0.0000E+00  0.2000E+01  0.2000E+01
     -8.050  0.0000E+00  0.0000E+00  0.2000E+01  0.2000E+01
     -7.940  0.0000E+00  0.0000E+00  0.2000E+01  0.2000E+01
     -7.830  0.0000E+00  0.0000E+00  0.2000E+01  0.2000E+01
     -7.721  0.0000E+00  0.0000E+00  0.2000E+01  0.2000E+01
     -7.611  0.0000E+00  0.0000E+00  0.2000E+01  0.2000E+01
     -7.501  0.0000E+00  0.0000E+00  0.2000E+01  0.2000E+01
     -7.392  0.0000E+00  0.0000E+00  0.2000E+01  0.2000E+01
     -7.282  0.0000E+00  0.0000E+00  0.2000E+01  0.2000E+01
     -7.172  0.0000E+00  0.0000E+00  0.2000E+01  0.2000E+01
     -7.063  0.0000E+00  0.0000E+00  0.2000E+01  0.2000E+01
     -6.953  0.0000E+00  0.0000E+00  0.2000E+01  0.2000E+01
     -6.843  0.0000E+00  0.0000E+00  0.2000E+01  0.2000E+01
     -6.734  0.0000E+00  0.0000E+00  0.2000E+01  0.2000E+01
     -6.624  0.0000E+00  0.0000E+00  0.2000E+01  0.2000E+01
     -6.515  0.0000E+00  0.0000E+00  0.2000E+01  0.2000E+01
     -6.405  0.0000E+00  0.0000E+00  0.2000E+01  0.2000E+01
     -6.295  0.0000E+00  0.0000E+00  0.2000E+01  0.2000E+01
     -6.186  0.0000E+00  0.0000E+00  0.2000E+01  0.2000E+01
     -6.076  0.0000E+00  0.0000E+00  0.2000E+01  0.2000E+01
     -5.966  0.0000E+00  0.0000E+00  0.2000E+01  0.2000E+01
     -5.857  0.0000E+00  0.0000E+00  0.2000E+01  0.2000E+01
     -5.747  0.0000E+00  0.0000E+00  0.2000E+01  0.2000E+01
     -5.637  0.0000E+00  0.0000E+00  0.2000E+01  0.2000E+01
     -5.528  0.0000E+00  0.0000E+00  0.2000E+01  0.2000E+01
     -5.418  0.0000E+00  0.0000E+00  0.2000E+01  0.2000E+01
     -5.308  0.0000E+00  0.0000E+00  0.2000E+01  0.2000E+01
     -5.199  0.0000E+00  0.0000E+00  0.2000E+01  0.2000E+01
     -5.089  0.0000E+00  0.0000E+00  0.2000E+01  0.2000E+01
     -4.979  0.0000E+00  0.0000E+00  0.2000E+01  0.2000E+01
     -4.870  0.0000E+00  0.0000E+00  0.2000E+01  0.2000E+01
     -4.760  0.0000E+00  0.0000E+00  0.2000E+01  0.2000E+01
     -4.650  0.0000E+00  0.0000E+00  0.2000E+01  0.2000E+01
     -4.541  0.0000E+00  0.0000E+00  0.2000E+01  0.2000E+01
     -4.431  0.0000E+00  0.0000E+00  0.2000E+01  0.2000E+01
     -4.321  0.0000E+00  0.0000E+00  0.2000E+01  0.2000E+01
     -4.212  0.0000E+00  0.0000E+00  0.2000E+01  0.2000E+01
     -4.102  0.0000E+00  0.0000E+00  0.2000E+01  0.2000E+01
     -3.992  0.0000E+00  0.0000E+00  0.2000E+01  0.2000E+01
     -3.883  0.0000E+00  0.0000E+00  0.2000E+01  0.2000E+01
     -3.773  0.0000E+00  0.0000E+00  0.2000E+01  0.2000E+01
     -3.663  0.0000E+00  0.0000E+00  0.2000E+01  0.2000E+01
     -3.554  0.0000E+00  0.0000E+00  0.2000E+01  0.2000E+01
     -3.444  0.0000E+00  0.0000E+00  0.2000E+01  0.2000E+01
     -3.335  0.0000E+00  0.0000E+00  0.2000E+01  0.2000E+01
     -3.225  0.0000E+00  0.0000E+00  0.2000E+01  0.2000E+01
     -3.115  0.0000E+00  0.0000E+00  0.2000E+01  0.2000E+01
     -3.006  0.0000E+00  0.0000E+00  0.2000E+01  0.2000E+01
     -2.896  0.0000E+00  0.0000E+00  0.2000E+01  0.2000E+01
     -2.786  0.3358E-01  0.3358E-01  0.2001E+01  0.2001E+01
     -2.677  0.1152E+00  0.1152E+00  0.2009E+01  0.2009E+01
     -2.567  0.2249E+00  0.2249E+00  0.2027E+01  0.2027E+01
     -2.457  0.3626E+00  0.3626E+00  0.2059E+01  0.2059E+01
     -2.348  0.5285E+00  0.5285E+00  0.2108E+01  0.2108E+01
     -2.238  0.8561E+00  0.8561E+00  0.2179E+01  0.2179E+01
     -2.128  0.1479E+01  0.1479E+01  0.2306E+01  0.2306E+01
     -2.019  0.2229E+01  0.2229E+01  0.2508E+01  0.2508E+01
     -1.909  0.1230E+01  0.1230E+01  0.2838E+01  0.2838E+01
     -1.799  0.8674E+00  0.8674E+00  0.2940E+01  0.2940E+01
     -1.690  0.1297E+01  0.1297E+01  0.3036E+01  0.3036E+01
     -1.580  0.1437E+01  0.1437E+01  0.3195E+01  0.3195E+01
     -1.470  0.1366E+01  0.1366E+01  0.3349E+01  0.3349E+01
     -1.361  0.1187E+01  0.1187E+01  0.3491E+01  0.3491E+01
     -1.251  0.9186E+00  0.9186E+00  0.3607E+01  0.3607E+01
     -1.141  0.6572E+00  0.6572E+00  0.3691E+01  0.3691E+01
     -1.032  0.5959E+00  0.5959E+00  0.3760E+01  0.3760E+01
     -0.922  0.5385E+00  0.5385E+00  0.3822E+01  0.3822E+01
     -0.812  0.4401E+00  0.4401E+00  0.3877E+01  0.3877E+01
     -0.703  0.2370E+01  0.2370E+01  0.3999E+01  0.3999E+01
     -0.593  0.2791E+01  0.2791E+01  0.4303E+01  0.4303E+01
     -0.484  0.1737E+01  0.1737E+01  0.4547E+01  0.4547E+01
     -0.374  0.4917E+01  0.4917E+01  0.4812E+01  0.4812E+01
     -0.264  0.3508E+01  0.3508E+01  0.5220E+01  0.5220E+01
     -0.155  0.3387E+01  0.3387E+01  0.5602E+01  0.5602E+01
     -0.045  0.2528E+01  0.2528E+01  0.5922E+01  0.5922E+01
      0.065  0.1978E+01  0.1978E+01  0.6164E+01  0.6164E+01
      0.174  0.1606E+01  0.1606E+01  0.6392E+01  0.6392E+01
      0.284  0.1643E+01  0.1643E+01  0.6570E+01  0.6570E+01
      0.394  0.1784E+01  0.1784E+01  0.6758E+01  0.6758E+01
      0.503  0.1940E+01  0.1940E+01  0.6962E+01  0.6962E+01
      0.613  0.1976E+01  0.1976E+01  0.7180E+01  0.7180E+01
      0.723  0.1679E+01  0.1679E+01  0.7382E+01  0.7382E+01
      0.832  0.1398E+01  0.1398E+01  0.7552E+01  0.7552E+01
      0.942  0.1211E+01  0.1211E+01  0.7690E+01  0.7690E+01
      1.052  0.1384E+01  0.1384E+01  0.7820E+01  0.7820E+01
      1.161  0.3767E+00  0.3767E+00  0.7884E+01  0.7884E+01
      1.271  0.2895E+00  0.2895E+00  0.7920E+01  0.7920E+01
      1.381  0.2197E+00  0.2197E+00  0.7948E+01  0.7948E+01
      1.490  0.1590E+00  0.1590E+00  0.7969E+01  0.7969E+01
      1.600  0.1073E+00  0.1073E+00  0.7983E+01  0.7983E+01
      1.710  0.6465E-01  0.6465E-01  0.7993E+01  0.7993E+01
      1.819  0.3107E-01  0.3107E-01  0.7998E+01  0.7998E+01
      1.929  0.8301E-02  0.8301E-02  0.8000E+01  0.8000E+01
      2.039  0.0000E+00  0.0000E+00  0.8000E+01  0.8000E+01
      2.148  0.0000E+00  0.0000E+00  0.8000E+01  0.8000E+01
      2.258  0.5910E-01  0.5910E-01  0.8002E+01  0.8002E+01
      2.368  0.1824E+00  0.1824E+00  0.8015E+01  0.8015E+01
      2.477  0.4272E+00  0.4272E+00  0.8045E+01  0.8045E+01
      2.587  0.1018E+01  0.1018E+01  0.8124E+01  0.8124E+01
      2.696  0.1789E+01  0.1789E+01  0.8278E+01  0.8278E+01
      2.806  0.2147E+01  0.2147E+01  0.8503E+01  0.8503E+01
      2.916  0.1387E+01  0.1387E+01  0.8709E+01  0.8709E+01
      3.025  0.1344E+01  0.1344E+01  0.8859E+01  0.8859E+01
      3.135  0.1763E+01  0.1763E+01  0.9032E+01  0.9032E+01
      3.245  0.5255E+01  0.5255E+01  0.9353E+01  0.9353E+01
      3.354  0.5278E+01  0.5278E+01  0.9964E+01  0.9964E+01
      3.464  0.4154E+01  0.4154E+01  0.1045E+02  0.1045E+02
      3.574  0.1659E+01  0.1659E+01  0.1104E+02  0.1104E+02
      3.683  0.2201E+01  0.2201E+01  0.1122E+02  0.1122E+02
      3.793  0.5259E+01  0.5259E+01  0.1154E+02  0.1154E+02
      3.903  0.5250E+01  0.5250E+01  0.1236E+02  0.1236E+02
      4.012  0.2910E+01  0.2910E+01  0.1275E+02  0.1275E+02
      4.122  0.1559E+01  0.1559E+01  0.1298E+02  0.1298E+02
      4.232  0.9925E+01  0.9925E+01  0.1341E+02  0.1341E+02
      4.341  0.2749E+01  0.2749E+01  0.1392E+02  0.1392E+02
      4.451  0.1224E+02  0.1224E+02  0.1458E+02  0.1458E+02
      4.561  0.7418E+01  0.7418E+01  0.1536E+02  0.1536E+02
      4.670  0.0000E+00  0.0000E+00  0.1600E+02  0.1600E+02
      4.780  0.0000E+00  0.0000E+00  0.1600E+02  0.1600E+02
      4.890  0.0000E+00  0.0000E+00  0.1600E+02  0.1600E+02
      4.999  0.0000E+00  0.0000E+00  0.1600E+02  0.1600E+02
      5.109  0.0000E+00  0.0000E+00  0.1600E+02  0.1600E+02
      5.219  0.0000E+00  0.0000E+00  0.1600E+02  0.1600E+02
      5.328  0.0000E+00  0.0000E+00  0.1600E+02  0.1600E+02
      5.438  0.2825E-01  0.2825E-01  0.1600E+02  0.1600E+02
      5.547  0.6076E+00  0.6076E+00  0.1603E+02  0.1603E+02
      5.657  0.1468E+01  0.1468E+01  0.1614E+02  0.1614E+02
      5.767  0.2655E+01  0.2655E+01  0.1639E+02  0.1639E+02
      5.876  0.1769E+01  0.1769E+01  0.1664E+02  0.1664E+02
      5.986  0.1076E+01  0.1076E+01  0.1679E+02  0.1679E+02
      6.096  0.2308E+01  0.2308E+01  0.1695E+02  0.1695E+02
      6.205  0.3711E+01  0.3711E+01  0.1729E+02  0.1729E+02
      6.315  0.3335E+01  0.3335E+01  0.1769E+02  0.1769E+02
      6.425  0.1249E+01  0.1249E+01  0.1796E+02  0.1796E+02
      6.534  0.0000E+00  0.0000E+00  0.1800E+02  0.1800E+02
      6.644  0.0000E+00  0.0000E+00  0.1800E+02  0.1800E+02
      6.754  0.0000E+00  0.0000E+00  0.1800E+02  0.1800E+02
      6.863  0.0000E+00  0.0000E+00  0.1800E+02  0.1800E+02
      6.973  0.0000E+00  0.0000E+00  0.1800E+02  0.1800E+02
      7.083  0.0000E+00  0.0000E+00  0.1800E+02  0.1800E+02
      7.192  0.0000E+00  0.0000E+00  0.1800E+02  0.1800E+02
      7.302  0.1756E-02  0.1756E-02  0.1800E+02  0.1800E+02
      7.412  0.3931E-02  0.3931E-02  0.1800E+02  0.1800E+02
      7.521  0.6335E-02  0.6335E-02  0.1800E+02  0.1800E+02
      7.631  0.8969E-02  0.8969E-02  0.1800E+02  0.1800E+02
      7.741  0.1183E-01  0.1183E-01  0.1800E+02  0.1800E+02
      7.850  0.1492E-01  0.1492E-01  0.1800E+02  0.1800E+02
      7.960  0.1825E-01  0.1825E-01  0.1801E+02  0.1801E+02
      8.070  0.2180E-01  0.2180E-01  0.1801E+02  0.1801E+02
      8.179  0.2558E-01  0.2558E-01  0.1801E+02  0.1801E+02
      8.289  0.2959E-01  0.2959E-01  0.1801E+02  0.1801E+02
      8.398  0.3383E-01  0.3383E-01  0.1802E+02  0.1802E+02
      8.508  0.3830E-01  0.3830E-01  0.1802E+02  0.1802E+02
      8.618  0.4300E-01  0.4300E-01  0.1803E+02  0.1803E+02
      8.727  0.4792E-01  0.4792E-01  0.1803E+02  0.1803E+02
      8.837  0.5387E-01  0.5387E-01  0.1804E+02  0.1804E+02
      8.947  0.6069E-01  0.6069E-01  0.1804E+02  0.1804E+02
      9.056  0.6760E-01  0.6760E-01  0.1805E+02  0.1805E+02
      9.166  0.7458E-01  0.7458E-01  0.1806E+02  0.1806E+02
      9.276  0.8166E-01  0.8166E-01  0.1807E+02  0.1807E+02
      9.385  0.8881E-01  0.8881E-01  0.1808E+02  0.1808E+02
      9.495  0.9605E-01  0.9605E-01  0.1809E+02  0.1809E+02
      9.605  0.1039E+00  0.1039E+00  0.1810E+02  0.1810E+02
      9.714  0.1128E+00  0.1128E+00  0.1811E+02  0.1811E+02
      9.824  0.1225E+00  0.1225E+00  0.1812E+02  0.1812E+02
      9.934  0.1329E+00  0.1329E+00  0.1814E+02  0.1814E+02
     10.043  0.1440E+00  0.1440E+00  0.1815E+02  0.1815E+02
     10.153  0.1555E+00  0.1555E+00  0.1817E+02  0.1817E+02
     10.263  0.1668E+00  0.1668E+00  0.1818E+02  0.1818E+02
     10.372  0.1826E+00  0.1826E+00  0.1820E+02  0.1820E+02
     10.482  0.2020E+00  0.2020E+00  0.1822E+02  0.1822E+02
     10.592  0.2227E+00  0.2227E+00  0.1825E+02  0.1825E+02
     10.701  0.2448E+00  0.2448E+00  0.1827E+02  0.1827E+02
     10.811  0.2682E+00  0.2682E+00  0.1830E+02  0.1830E+02
     10.921  0.2936E+00  0.2936E+00  0.1833E+02  0.1833E+02
     11.030  0.3205E+00  0.3205E+00  0.1837E+02  0.1837E+02
     11.140  0.3480E+00  0.3480E+00  0.1840E+02  0.1840E+02
     11.250  0.3712E+00  0.3712E+00  0.1844E+02  0.1844E+02
     11.359  0.3986E+00  0.3986E+00  0.1848E+02  0.1848E+02
     11.469  0.4262E+00  0.4262E+00  0.1853E+02  0.1853E+02
     11.578  0.4518E+00  0.4518E+00  0.1858E+02  0.1858E+02
     11.688  0.4920E+00  0.4920E+00  0.1863E+02  0.1863E+02
     11.798  0.5597E+00  0.5597E+00  0.1869E+02  0.1869E+02
     11.907  0.6271E+00  0.6271E+00  0.1875E+02  0.1875E+02
     12.017  0.6800E+00  0.6800E+00  0.1882E+02  0.1882E+02
     12.127  0.7184E+00  0.7184E+00  0.1890E+02  0.1890E+02
     12.236  0.7425E+00  0.7425E+00  0.1898E+02  0.1898E+02
     12.346  0.7520E+00  0.7520E+00  0.1906E+02  0.1906E+02
     12.456  0.1715E+01  0.1715E+01  0.1916E+02  0.1916E+02
     12.565  0.1079E+01  0.1079E+01  0.1933E+02  0.1933E+02
     12.675  0.4397E+00  0.4397E+00  0.1940E+02  0.1940E+02
     12.785  0.4871E+00  0.4871E+00  0.1945E+02  0.1945E+02
     12.894  0.5311E+00  0.5311E+00  0.1951E+02  0.1951E+02
     13.004  0.5716E+00  0.5716E+00  0.1957E+02  0.1957E+02
     13.114  0.6086E+00  0.6086E+00  0.1964E+02  0.1964E+02
     13.223  0.6298E+00  0.6298E+00  0.1970E+02  0.1970E+02
     13.333  0.6702E+00  0.6702E+00  0.1977E+02  0.1977E+02
     13.443  0.6437E+00  0.6437E+00  0.1985E+02  0.1985E+02
     13.552  0.5262E+00  0.5262E+00  0.1991E+02  0.1991E+02
     13.662  0.3699E+00  0.3699E+00  0.1996E+02  0.1996E+02
     13.772  0.1746E+00  0.1746E+00  0.1999E+02  0.1999E+02
     13.881  0.0000E+00  0.0000E+00  0.2000E+02  0.2000E+02
     13.991  0.0000E+00  0.0000E+00  0.2000E+02  0.2000E+02
     14.101  0.0000E+00  0.0000E+00  0.2000E+02  0.2000E+02
     14.210  0.0000E+00  0.0000E+00  0.2000E+02  0.2000E+02
     14.320  0.0000E+00  0.0000E+00  0.2000E+02  0.2000E+02
     14.429  0.0000E+00  0.0000E+00  0.2000E+02  0.2000E+02
     14.539  0.0000E+00  0.0000E+00  0.2000E+02  0.2000E+02
     14.649  0.0000E+00  0.0000E+00  0.2000E+02  0.2000E+02
     14.758  0.0000E+00  0.0000E+00  0.2000E+02  0.2000E+02
     14.868  0.0000E+00  0.0000E+00  0.2000E+02  0.2000E+02
     14.978  0.0000E+00  0.0000E+00  0.2000E+02  0.2000E+02
     15.087  0.0000E+00  0.0000E+00  0.2000E+02  0.2000E+02
     15.197  0.0000E+00  0.0000E+00  0.2000E+02  0.2000E+02
     15.307  0.0000E+00  0.0000E+00  0.2000E+02  0.2000E+02
     15.416  0.0000E+00  0.0000E+00  0.2000E+02  0.2000E+02
     15.526  0.0000E+00  0.0000E+00  0.2000E+02  0.2000E+02
     15.636  0.0000E+00  0.0000E+00  0.2000E+02  0.2000E+02
     15.745  0.0000E+00  0.0000E+00  0.2000E+02  0.2000E+02
     15.855  0.0000E+00  0.0000E+00  0.2000E+02  0.2000E+02
     15.85499794    -17.04133577  301      4.69765809      1.00000000
    -17.041  0.0000E+00  0.0000E+00  0.0000E+00  0.0000E+00  0.0000E+00  0.0000E+00  0.0000E+00  0.0000E+00  0.0000E+00  0.0000E+00  0.0000E+00  0.0000E+00  0.0000E+00  0.0000E+00  0.0000E+00  0.0000E+00  0.0000E+00  0.0000E+00
    -16.932  0.0000E+00  0.0000E+00  0.0000E+00  0.0000E+00  0.0000E+00  0.0000E+00  0.0000E+00  0.0000E+00  0.0000E+00  0.0000E+00  0.0000E+00  0.0000E+00  0.0000E+00  0.0000E+00  0.0000E+00  0.0000E+00  0.0000E+00  0.0000E+00
    -16.822  0.0000E+00  0.0000E+00  0.0000E+00  0.0000E+00  0.0000E+00  0.0000E+00  0.0000E+00  0.0000E+00  0.0000E+00  0.0000E+00  0.0000E+00  0.0000E+00  0.0000E+00  0.0000E+00  0.0000E+00  0.0000E+00  0.0000E+00  0.0000E+00
    -16.712  0.0000E+00  0.0000E+00  0.0000E+00  0.0000E+00  0.0000E+00  0.0000E+00  0.0000E+00  0.0000E+00  0.0000E+00  0.0000E+00  0.0000E+00  0.0000E+00  0.0000E+00  0.0000E+00  0.0000E+00  0.0000E+00  0.0000E+00  0.0000E+00
    -16.603  0.0000E+00  0.0000E+00  0.0000E+00  0.0000E+00  0.0000E+00  0.0000E+00  0.0000E+00  0.0000E+00  0.0000E+00  0.0000E+00  0.0000E+00  0.0000E+00  0.0000E+00  0.0000E+00  0.0000E+00  0.0000E+00  0.0000E+00  0.0000E+00
    -16.493  0.0000E+00  0.0000E+00  0.0000E+00  0.0000E+00  0.0000E+00  0.0000E+00  0.0000E+00  0.0000E+00  0.0000E+00  0.0000E+00  0.0000E+00  0.0000E+00  0.0000E+00  0.0000E+00  0.0000E+00  0.0000E+00  0.0000E+00  0.0000E+00
    -16.383  0.0000E+00  0.0000E+00  0.0000E+00  0.0000E+00  0.0000E+00  0.0000E+00  0.0000E+00  0.0000E+00  0.0000E+00  0.0000E+00  0.0000E+00  0.0000E+00  0.0000E+00  0.0000E+00  0.0000E+00  0.0000E+00  0.0000E+00  0.0000E+00
    -16.274  0.0000E+00  0.0000E+00  0.0000E+00  0.0000E+00  0.0000E+00  0.0000E+00  0.0000E+00  0.0000E+00  0.0000E+00  0.0000E+00  0.0000E+00  0.0000E+00  0.0000E+00  0.0000E+00  0.0000E+00  0.0000E+00  0.0000E+00  0.0000E+00
    -16.164  0.0000E+00  0.0000E+00  0.0000E+00  0.0000E+00  0.0000E+00  0.0000E+00  0.0000E+00  0.0000E+00  0.0000E+00  0.0000E+00  0.0000E+00  0.0000E+00  0.0000E+00  0.0000E+00  0.0000E+00  0.0000E+00  0.0000E+00  0.0000E+00
    -16.054  0.0000E+00  0.0000E+00  0.0000E+00  0.0000E+00  0.0000E+00  0.0000E+00  0.0000E+00  0.0000E+00  0.0000E+00  0.0000E+00  0.0000E+00  0.0000E+00  0.0000E+00  0.0000E+00  0.0000E+00  0.0000E+00  0.0000E+00  0.0000E+00
    -15.945  0.0000E+00  0.0000E+00  0.0000E+00  0.0000E+00  0.0000E+00  0.0000E+00  0.0000E+00  0.0000E+00  0.0000E+00  0.0000E+00  0.0000E+00  0.0000E+00  0.0000E+00  0.0000E+00  0.0000E+00  0.0000E+00  0.0000E+00  0.0000E+00
    -15.835  0.0000E+00  0.0000E+00  0.0000E+00  0.0000E+00  0.0000E+00  0.0000E+00  0.0000E+00  0.0000E+00  0.0000E+00  0.0000E+00  0.0000E+00  0.0000E+00  0.0000E+00  0.0000E+00  0.0000E+00  0.0000E+00  0.0000E+00  0.0000E+00
    -15.725  0.0000E+00  0.0000E+00  0.0000E+00  0.0000E+00  0.0000E+00  0.0000E+00  0.0000E+00  0.0000E+00  0.0000E+00  0.0000E+00  0.0000E+00  0.0000E+00  0.0000E+00  0.0000E+00  0.0000E+00  0.0000E+00  0.0000E+00  0.0000E+00
    -15.616  0.0000E+00  0.0000E+00  0.0000E+00  0.0000E+00  0.0000E+00  0.0000E+00  0.0000E+00  0.0000E+00  0.0000E+00  0.0000E+00  0.0000E+00  0.0000E+00  0.0000E+00  0.0000E+00  0.0000E+00  0.0000E+00  0.0000E+00  0.0000E+00
    -15.506  0.0000E+00  0.0000E+00  0.0000E+00  0.0000E+00  0.0000E+00  0.0000E+00  0.0000E+00  0.0000E+00  0.0000E+00  0.0000E+00  0.0000E+00  0.0000E+00  0.0000E+00  0.0000E+00  0.0000E+00  0.0000E+00  0.0000E+00  0.0000E+00
    -15.397  0.0000E+00  0.0000E+00  0.0000E+00  0.0000E+00  0.0000E+00  0.0000E+00  0.0000E+00  0.0000E+00  0.0000E+00  0.0000E+00  0.0000E+00  0.0000E+00  0.0000E+00  0.0000E+00  0.0000E+00  0.0000E+00  0.0000E+00  0.0000E+00
    -15.287  0.0000E+00  0.0000E+00  0.0000E+00  0.0000E+00  0.0000E+00  0.0000E+00  0.0000E+00  0.0000E+00  0.0000E+00  0.0000E+00  0.0000E+00  0.0000E+00  0.0000E+00  0.0000E+00  0.0000E+00  0.0000E+00  0.0000E+00  0.0000E+00
    -15.177  0.0000E+00  0.0000E+00  0.0000E+00  0.0000E+00  0.0000E+00  0.0000E+00  0.0000E+00  0.0000E+00  0.0000E+00  0.0000E+00  0.0000E+00  0.0000E+00  0.0000E+00  0.0000E+00  0.0000E+00  0.0000E+00  0.0000E+00  0.0000E+00
    -15.068  0.0000E+00  0.0000E+00  0.0000E+00  0.0000E+00  0.0000E+00  0.0000E+00  0.0000E+00  0.0000E+00  0.0000E+00  0.0000E+00  0.0000E+00  0.0000E+00  0.0000E+00  0.0000E+00  0.0000E+00  0.0000E+00  0.0000E+00  0.0000E+00
    -14.958  0.1566E-02  0.1543E-02  0.6053E-04  0.6058E-04  0.5369E-04  0.5363E-04  0.1418E-03  0.1400E-03  0.2158E-06  0.2211E-06  0.7990E-07  0.6817E-07  0.5184E-05  0.4727E-05  0.1852E-06  0.1944E-06  0.1300E-04  0.1172E-04
    -14.848  0.4401E-02  0.4336E-02  0.1935E-03  0.1938E-03  0.1569E-03  0.1566E-03  0.4684E-03  0.4632E-03  0.6887E-06  0.6922E-06  0.2528E-06  0.2244E-06  0.2289E-04  0.2100E-04  0.5246E-06  0.5495E-06  0.5503E-04  0.4985E-04
    -14.739  0.8120E-02  0.7996E-02  0.3872E-03  0.3879E-03  0.2971E-03  0.2964E-03  0.9541E-03  0.9444E-03  0.1377E-05  0.1368E-05  0.5027E-06  0.4563E-06  0.5298E-04  0.4871E-04  0.9731E-06  0.1018E-05  0.1254E-03  0.1138E-03
    -14.629  0.1321E-01  0.1300E-01  0.6680E-03  0.6704E-03  0.5022E-03  0.5020E-03  0.1761E-02  0.1745E-02  0.2354E-05  0.2312E-05  0.8790E-06  0.8028E-06  0.1280E-03  0.1178E-03  0.1611E-05  0.1665E-05  0.3221E-03  0.2937E-03
    -14.519  0.1833E-01  0.1802E-01  0.9920E-03  0.9961E-03  0.7324E-03  0.7325E-03  0.2840E-02  0.2815E-02  0.3524E-05  0.3439E-05  0.1306E-05  0.1201E-05  0.2518E-03  0.2318E-03  0.2362E-05  0.2426E-05  0.6588E-03  0.6022E-03
    -14.410  0.1765E-01  0.1731E-01  0.1925E-02  0.1949E-02  0.9306E-03  0.9558E-03  0.4269E-02  0.4264E-02  0.7287E-05  0.7065E-05  0.1619E-05  0.1508E-05  0.8846E-03  0.7886E-03  0.2848E-05  0.2883E-05  0.1154E-02  0.9912E-03
    -14.300  0.1777E-01  0.1737E-01  0.2571E-02  0.2651E-02  0.1321E-02  0.1424E-02  0.5324E-02  0.5406E-02  0.9292E-05  0.8943E-05  0.1734E-05  0.1638E-05  0.1314E-02  0.1106E-02  0.3650E-05  0.3626E-05  0.1959E-02  0.1556E-02
    -14.190  0.1653E-01  0.1610E-01  0.3188E-02  0.3349E-02  0.1890E-02  0.2114E-02  0.6187E-02  0.6408E-02  0.1060E-04  0.1014E-04  0.1638E-05  0.1579E-05  0.1705E-02  0.1340E-02  0.4640E-05  0.4551E-05  0.2968E-02  0.2223E-02
    -14.081  0.1916E-01  0.1871E-01  0.5598E-02  0.5849E-02  0.4422E-02  0.4772E-02  0.7670E-02  0.8052E-02  0.1307E-04  0.1241E-04  0.8572E-05  0.8279E-05  0.2593E-02  0.1993E-02  0.7232E-05  0.6936E-05  0.4303E-02  0.3114E-02
    -13.971  0.2052E-01  0.1994E-01  0.7625E-02  0.8012E-02  0.6784E-02  0.7289E-02  0.8855E-02  0.9426E-02  0.1407E-04  0.1323E-04  0.1333E-04  0.1288E-04  0.4630E-02  0.3683E-02  0.8846E-05  0.8320E-05  0.5607E-02  0.3941E-02
    -13.861  0.2120E-01  0.2048E-01  0.1036E-01  0.1085E-01  0.9420E-02  0.9976E-02  0.1030E-01  0.1095E-01  0.1488E-04  0.1387E-04  0.1837E-04  0.1781E-04  0.8845E-02  0.7458E-02  0.9950E-05  0.9256E-05  0.7269E-02  0.5239E-02
    -13.752  0.3849E-01  0.3663E-01  0.3290E-01  0.3420E-01  0.2416E-01  0.2628E-01  0.3500E-01  0.3741E-01  0.7523E-04  0.7167E-04  0.2586E-04  0.2491E-04  0.2841E-01  0.2378E-01  0.3266E-04  0.3056E-04  0.2818E-01  0.2098E-01
    -13.642  0.1586E-01  0.1768E-01  0.2123E-01  0.1852E-01  0.2716E-01  0.2401E-01  0.1101E-01  0.7580E-02  0.3995E-05  0.6273E-05  0.4166E-04  0.4179E-04  0.3666E-01  0.3601E-01  0.7981E-05  0.1034E-04  0.3201E-01  0.3495E-01
    -13.532  0.1641E-02  0.2073E-02  0.4115E-02  0.3475E-02  0.8418E-02  0.7523E-02  0.2763E-02  0.1787E-02  0.1169E-05  0.1652E-05  0.3595E-05  0.3644E-05  0.7498E-02  0.7475E-02  0.1674E-05  0.2371E-05  0.1741E-01  0.1749E-01
    -13.423  0.0000E+00  0.0000E+00  0.0000E+00  0.0000E+00  0.0000E+00  0.0000E+00  0.0000E+00  0.0000E+00  0.0000E+00  0.0000E+00  0.0000E+00  0.0000E+00  0.0000E+00  0.0000E+00  0.0000E+00  0.0000E+00  0.0000E+00  0.0000E+00
    -13.313  0.0000E+00  0.0000E+00  0.0000E+00  0.0000E+00  0.0000E+00  0.0000E+00  0.0000E+00  0.0000E+00  0.0000E+00  0.0000E+00  0.0000E+00  0.0000E+00  0.0000E+00  0.0000E+00  0.0000E+00  0.0000E+00  0.0000E+00  0.0000E+00
    -13.203  0.0000E+00  0.0000E+00  0.0000E+00  0.0000E+00  0.0000E+00  0.0000E+00  0.0000E+00  0.0000E+00  0.0000E+00  0.0000E+00  0.0000E+00  0.0000E+00  0.0000E+00  0.0000E+00  0.0000E+00  0.0000E+00  0.0000E+00  0.0000E+00
    -13.094  0.0000E+00  0.0000E+00  0.0000E+00  0.0000E+00  0.0000E+00  0.0000E+00  0.0000E+00  0.0000E+00  0.0000E+00  0.0000E+00  0.0000E+00  0.0000E+00  0.0000E+00  0.0000E+00  0.0000E+00  0.0000E+00  0.0000E+00  0.0000E+00
    -12.984  0.0000E+00  0.0000E+00  0.0000E+00  0.0000E+00  0.0000E+00  0.0000E+00  0.0000E+00  0.0000E+00  0.0000E+00  0.0000E+00  0.0000E+00  0.0000E+00  0.0000E+00  0.0000E+00  0.0000E+00  0.0000E+00  0.0000E+00  0.0000E+00
    -12.874  0.0000E+00  0.0000E+00  0.0000E+00  0.0000E+00  0.0000E+00  0.0000E+00  0.0000E+00  0.0000E+00  0.0000E+00  0.0000E+00  0.0000E+00  0.0000E+00  0.0000E+00  0.0000E+00  0.0000E+00  0.0000E+00  0.0000E+00  0.0000E+00
    -12.765  0.0000E+00  0.0000E+00  0.0000E+00  0.0000E+00  0.0000E+00  0.0000E+00  0.0000E+00  0.0000E+00  0.0000E+00  0.0000E+00  0.0000E+00  0.0000E+00  0.0000E+00  0.0000E+00  0.0000E+00  0.0000E+00  0.0000E+00  0.0000E+00
    -12.655  0.0000E+00  0.0000E+00  0.0000E+00  0.0000E+00  0.0000E+00  0.0000E+00  0.0000E+00  0.0000E+00  0.0000E+00  0.0000E+00  0.0000E+00  0.0000E+00  0.0000E+00  0.0000E+00  0.0000E+00  0.0000E+00  0.0000E+00  0.0000E+00
    -12.546  0.0000E+00  0.0000E+00  0.0000E+00  0.0000E+00  0.0000E+00  0.0000E+00  0.0000E+00  0.0000E+00  0.0000E+00  0.0000E+00  0.0000E+00  0.0000E+00  0.0000E+00  0.0000E+00  0.0000E+00  0.0000E+00  0.0000E+00  0.0000E+00
    -12.436  0.0000E+00  0.0000E+00  0.0000E+00  0.0000E+00  0.0000E+00  0.0000E+00  0.0000E+00  0.0000E+00  0.0000E+00  0.0000E+00  0.0000E+00  0.0000E+00  0.0000E+00  0.0000E+00  0.0000E+00  0.0000E+00  0.0000E+00  0.0000E+00
    -12.326  0.0000E+00  0.0000E+00  0.0000E+00  0.0000E+00  0.0000E+00  0.0000E+00  0.0000E+00  0.0000E+00  0.0000E+00  0.0000E+00  0.0000E+00  0.0000E+00  0.0000E+00  0.0000E+00  0.0000E+00  0.0000E+00  0.0000E+00  0.0000E+00
    -12.217  0.0000E+00  0.0000E+00  0.0000E+00  0.0000E+00  0.0000E+00  0.0000E+00  0.0000E+00  0.0000E+00  0.0000E+00  0.0000E+00  0.0000E+00  0.0000E+00  0.0000E+00  0.0000E+00  0.0000E+00  0.0000E+00  0.0000E+00  0.0000E+00
    -12.107  0.0000E+00  0.0000E+00  0.0000E+00  0.0000E+00  0.0000E+00  0.0000E+00  0.0000E+00  0.0000E+00  0.0000E+00  0.0000E+00  0.0000E+00  0.0000E+00  0.0000E+00  0.0000E+00  0.0000E+00  0.0000E+00  0.0000E+00  0.0000E+00
    -11.997  0.0000E+00  0.0000E+00  0.0000E+00  0.0000E+00  0.0000E+00  0.0000E+00  0.0000E+00  0.0000E+00  0.0000E+00  0.0000E+00  0.0000E+00  0.0000E+00  0.0000E+00  0.0000E+00  0.0000E+00  0.0000E+00  0.0000E+00  0.0000E+00
    -11.888  0.0000E+00  0.0000E+00  0.0000E+00  0.0000E+00  0.0000E+00  0.0000E+00  0.0000E+00  0.0000E+00  0.0000E+00  0.0000E+00  0.0000E+00  0.0000E+00  0.0000E+00  0.0000E+00  0.0000E+00  0.0000E+00  0.0000E+00  0.0000E+00
    -11.778  0.0000E+00  0.0000E+00  0.0000E+00  0.0000E+00  0.0000E+00  0.0000E+00  0.0000E+00  0.0000E+00  0.0000E+00  0.0000E+00  0.0000E+00  0.0000E+00  0.0000E+00  0.0000E+00  0.0000E+00  0.0000E+00  0.0000E+00  0.0000E+00
    -11.668  0.0000E+00  0.0000E+00  0.0000E+00  0.0000E+00  0.0000E+00  0.0000E+00  0.0000E+00  0.0000E+00  0.0000E+00  0.0000E+00  0.0000E+00  0.0000E+00  0.0000E+00  0.0000E+00  0.0000E+00  0.0000E+00  0.0000E+00  0.0000E+00
    -11.559  0.0000E+00  0.0000E+00  0.0000E+00  0.0000E+00  0.0000E+00  0.0000E+00  0.0000E+00  0.0000E+00  0.0000E+00  0.0000E+00  0.0000E+00  0.0000E+00  0.0000E+00  0.0000E+00  0.0000E+00  0.0000E+00  0.0000E+00  0.0000E+00