  16  16   0   0
  0.1798157E+02  0.6601600E-09  0.6601600E-09  0.6601600E-09  0.5000000E-15
  1.000000000000000E-004
  CAR 
 Nb tetrahedron                          
     10.95724363    -28.07183855  301      4.84122202      1.00000000
    -28.072  0.0000E+00  0.0000E+00
    -27.942  0.0000E+00  0.0000E+00
    -27.812  0.0000E+00  0.0000E+00
    -27.682  0.0000E+00  0.0000E+00
    -27.551  0.0000E+00  0.0000E+00
    -27.421  0.0000E+00  0.0000E+00
    -27.291  0.0000E+00  0.0000E+00
    -27.161  0.0000E+00  0.0000E+00
    -27.031  0.0000E+00  0.0000E+00
    -26.901  0.0000E+00  0.0000E+00
    -26.771  0.0000E+00  0.0000E+00
    -26.641  0.0000E+00  0.0000E+00
    -26.511  0.0000E+00  0.0000E+00
    -26.381  0.0000E+00  0.0000E+00
    -26.250  0.0000E+00  0.0000E+00
    -26.120  0.0000E+00  0.0000E+00
    -25.990  0.3000E+02  0.1544E+01
    -25.860  0.6560E+02  0.7880E+01
    -25.730  0.6867E+02  0.1958E+02
    -25.600  0.3567E+02  0.2622E+02
    -25.470  0.4922E+02  0.3224E+02
    -25.340  0.7935E+02  0.3946E+02
    -25.210  0.8539E+02  0.4863E+02
    -25.080  0.7234E+02  0.5966E+02
    -24.950  0.6779E+02  0.6908E+02
    -24.819  0.1368E+03  0.8274E+02
    -24.689  0.0000E+00  0.9600E+02
    -24.559  0.0000E+00  0.9600E+02
    -24.429  0.0000E+00  0.9600E+02
    -24.299  0.0000E+00  0.9600E+02
    -24.169  0.0000E+00  0.9600E+02
    -24.039  0.0000E+00  0.9600E+02
    -23.909  0.0000E+00  0.9600E+02
    -23.779  0.0000E+00  0.9600E+02
    -23.649  0.0000E+00  0.9600E+02
    -23.518  0.0000E+00  0.9600E+02
    -23.388  0.0000E+00  0.9600E+02
    -23.258  0.0000E+00  0.9600E+02
    -23.128  0.0000E+00  0.9600E+02
    -22.998  0.0000E+00  0.9600E+02
    -22.868  0.0000E+00  0.9600E+02
    -22.738  0.0000E+00  0.9600E+02
    -22.608  0.0000E+00  0.9600E+02
    -22.478  0.0000E+00  0.9600E+02
    -22.348  0.0000E+00  0.9600E+02
    -22.217  0.0000E+00  0.9600E+02
    -22.087  0.0000E+00  0.9600E+02
    -21.957  0.0000E+00  0.9600E+02
    -21.827  0.0000E+00  0.9600E+02
    -21.697  0.0000E+00  0.9600E+02
    -21.567  0.0000E+00  0.9600E+02
    -21.437  0.0000E+00  0.9600E+02
    -21.307  0.0000E+00  0.9600E+02
    -21.177  0.0000E+00  0.9600E+02
    -21.047  0.0000E+00  0.9600E+02
    -20.917  0.0000E+00  0.9600E+02
    -20.786  0.0000E+00  0.9600E+02
    -20.656  0.0000E+00  0.9600E+02
    -20.526  0.0000E+00  0.9600E+02
    -20.396  0.0000E+00  0.9600E+02
    -20.266  0.0000E+00  0.9600E+02
    -20.136  0.0000E+00  0.9600E+02
    -20.006  0.0000E+00  0.9600E+02
    -19.876  0.0000E+00  0.9600E+02
    -19.746  0.0000E+00  0.9600E+02
    -19.616  0.0000E+00  0.9600E+02
    -19.485  0.0000E+00  0.9600E+02
    -19.355  0.0000E+00  0.9600E+02
    -19.225  0.0000E+00  0.9600E+02
    -19.095  0.0000E+00  0.9600E+02
    -18.965  0.0000E+00  0.9600E+02
    -18.835  0.0000E+00  0.9600E+02
    -18.705  0.0000E+00  0.9600E+02
    -18.575  0.0000E+00  0.9600E+02
    -18.445  0.0000E+00  0.9600E+02
    -18.315  0.0000E+00  0.9600E+02
    -18.184  0.0000E+00  0.9600E+02
    -18.054  0.0000E+00  0.9600E+02
    -17.924  0.0000E+00  0.9600E+02
    -17.794  0.0000E+00  0.9600E+02
    -17.664  0.0000E+00  0.9600E+02
    -17.534  0.0000E+00  0.9600E+02
    -17.404  0.0000E+00  0.9600E+02
    -17.274  0.0000E+00  0.9600E+02
    -17.144  0.0000E+00  0.9600E+02
    -17.014  0.0000E+00  0.9600E+02
    -16.884  0.0000E+00  0.9600E+02
    -16.753  0.0000E+00  0.9600E+02
    -16.623  0.0000E+00  0.9600E+02
    -16.493  0.0000E+00  0.9600E+02
    -16.363  0.0000E+00  0.9600E+02
    -16.233  0.0000E+00  0.9600E+02
    -16.103  0.0000E+00  0.9600E+02
    -15.973  0.0000E+00  0.9600E+02
    -15.843  0.0000E+00  0.9600E+02
    -15.713  0.0000E+00  0.9600E+02
    -15.583  0.0000E+00  0.9600E+02
    -15.452  0.0000E+00  0.9600E+02
    -15.322  0.0000E+00  0.9600E+02
    -15.192  0.0000E+00  0.9600E+02
    -15.062  0.0000E+00  0.9600E+02
    -14.932  0.0000E+00  0.9600E+02
    -14.802  0.0000E+00  0.9600E+02
    -14.672  0.0000E+00  0.9600E+02
    -14.542  0.0000E+00  0.9600E+02
    -14.412  0.0000E+00  0.9600E+02
    -14.282  0.0000E+00  0.9600E+02
    -14.151  0.0000E+00  0.9600E+02
    -14.021  0.0000E+00  0.9600E+02
    -13.891  0.0000E+00  0.9600E+02
    -13.761  0.0000E+00  0.9600E+02
    -13.631  0.0000E+00  0.9600E+02
    -13.501  0.0000E+00  0.9600E+02
    -13.371  0.0000E+00  0.9600E+02
    -13.241  0.0000E+00  0.9600E+02
    -13.111  0.0000E+00  0.9600E+02
    -12.981  0.0000E+00  0.9600E+02
    -12.850  0.0000E+00  0.9600E+02
    -12.720  0.0000E+00  0.9600E+02
    -12.590  0.0000E+00  0.9600E+02
    -12.460  0.0000E+00  0.9600E+02
    -12.330  0.0000E+00  0.9600E+02
    -12.200  0.0000E+00  0.9600E+02
    -12.070  0.0000E+00  0.9600E+02
    -11.940  0.0000E+00  0.9600E+02
    -11.810  0.0000E+00  0.9600E+02
    -11.680  0.0000E+00  0.9600E+02
    -11.550  0.0000E+00  0.9600E+02
    -11.419  0.0000E+00  0.9600E+02
    -11.289  0.0000E+00  0.9600E+02
    -11.159  0.0000E+00  0.9600E+02
    -11.029  0.0000E+00  0.9600E+02
    -10.899  0.0000E+00  0.9600E+02
    -10.769  0.0000E+00  0.9600E+02
    -10.639  0.0000E+00  0.9600E+02
    -10.509  0.0000E+00  0.9600E+02
    -10.379  0.0000E+00  0.9600E+02
    -10.249  0.0000E+00  0.9600E+02
    -10.118  0.0000E+00  0.9600E+02
     -9.988  0.0000E+00  0.9600E+02
     -9.858  0.0000E+00  0.9600E+02
     -9.728  0.0000E+00  0.9600E+02
     -9.598  0.0000E+00  0.9600E+02
     -9.468  0.0000E+00  0.9600E+02
     -9.338  0.0000E+00  0.9600E+02
     -9.208  0.0000E+00  0.9600E+02
     -9.078  0.0000E+00  0.9600E+02
     -8.948  0.0000E+00  0.9600E+02
     -8.817  0.0000E+00  0.9600E+02
     -8.687  0.0000E+00  0.9600E+02
     -8.557  0.0000E+00  0.9600E+02
     -8.427  0.0000E+00  0.9600E+02
     -8.297  0.0000E+00  0.9600E+02
     -8.167  0.0000E+00  0.9600E+02
     -8.037  0.0000E+00  0.9600E+02
     -7.907  0.0000E+00  0.9600E+02
     -7.777  0.0000E+00  0.9600E+02
     -7.647  0.0000E+00  0.9600E+02
     -7.517  0.0000E+00  0.9600E+02
     -7.386  0.0000E+00  0.9600E+02
     -7.256  0.0000E+00  0.9600E+02
     -7.126  0.0000E+00  0.9600E+02
     -6.996  0.0000E+00  0.9600E+02
     -6.866  0.0000E+00  0.9600E+02
     -6.736  0.0000E+00  0.9600E+02
     -6.606  0.0000E+00  0.9600E+02
     -6.476  0.0000E+00  0.9600E+02
     -6.346  0.0000E+00  0.9600E+02
     -6.216  0.0000E+00  0.9600E+02
     -6.085  0.0000E+00  0.9600E+02
     -5.955  0.0000E+00  0.9600E+02
     -5.825  0.0000E+00  0.9600E+02
     -5.695  0.0000E+00  0.9600E+02
     -5.565  0.0000E+00  0.9600E+02
     -5.435  0.0000E+00  0.9600E+02
     -5.305  0.0000E+00  0.9600E+02
     -5.175  0.0000E+00  0.9600E+02
     -5.045  0.0000E+00  0.9600E+02
     -4.915  0.0000E+00  0.9600E+02
     -4.784  0.0000E+00  0.9600E+02
     -4.654  0.0000E+00  0.9600E+02
     -4.524  0.0000E+00  0.9600E+02
     -4.394  0.0000E+00  0.9600E+02
     -4.264  0.0000E+00  0.9600E+02
     -4.134  0.0000E+00  0.9600E+02
     -4.004  0.0000E+00  0.9600E+02
     -3.874  0.0000E+00  0.9600E+02
     -3.744  0.0000E+00  0.9600E+02
     -3.614  0.0000E+00  0.9600E+02
     -3.484  0.0000E+00  0.9600E+02
     -3.353  0.0000E+00  0.9600E+02
     -3.223  0.0000E+00  0.9600E+02
     -3.093  0.0000E+00  0.9600E+02
     -2.963  0.0000E+00  0.9600E+02
     -2.833  0.0000E+00  0.9600E+02
     -2.703  0.0000E+00  0.9600E+02
     -2.573  0.0000E+00  0.9600E+02
     -2.443  0.0000E+00  0.9600E+02
     -2.313  0.0000E+00  0.9600E+02
     -2.183  0.0000E+00  0.9600E+02
     -2.052  0.0000E+00  0.9600E+02
     -1.922  0.0000E+00  0.9600E+02
     -1.792  0.0000E+00  0.9600E+02
     -1.662  0.0000E+00  0.9600E+02
     -1.532  0.0000E+00  0.9600E+02
     -1.402  0.0000E+00  0.9600E+02
     -1.272  0.0000E+00  0.9600E+02
     -1.142  0.0000E+00  0.9600E+02
     -1.012  0.2682E+00  0.9601E+02
     -0.882  0.4715E+00  0.9606E+02
     -0.751  0.6292E+00  0.9613E+02
     -0.621  0.7697E+00  0.9623E+02
     -0.491  0.9067E+00  0.9633E+02
     -0.361  0.1028E+01  0.9646E+02
     -0.231  0.1163E+01  0.9660E+02
     -0.101  0.1291E+01  0.9676E+02
      0.029  0.1643E+01  0.9695E+02
      0.159  0.1520E+01  0.9715E+02
      0.289  0.1764E+01  0.9735E+02
      0.419  0.1934E+01  0.9759E+02
      0.549  0.2120E+01  0.9785E+02
      0.680  0.2358E+01  0.9814E+02
      0.810  0.2647E+01  0.9847E+02
      0.940  0.2893E+01  0.9884E+02
      1.070  0.3512E+01  0.9926E+02
      1.200  0.1148E+02  0.1001E+03
      1.330  0.1488E+02  0.1019E+03
      1.460  0.1521E+02  0.1038E+03
      1.590  0.1608E+02  0.1060E+03
      1.720  0.1668E+02  0.1081E+03
      1.850  0.1771E+02  0.1104E+03
      1.981  0.2053E+02  0.1129E+03
      2.111  0.2359E+02  0.1157E+03
      2.241  0.2520E+02  0.1187E+03
      2.371  0.1758E+02  0.1215E+03
      2.501  0.2171E+02  0.1244E+03
      2.631  0.1966E+02  0.1272E+03
      2.761  0.1104E+02  0.1290E+03
      2.891  0.8457E+01  0.1303E+03
      3.021  0.6390E+01  0.1313E+03
      3.151  0.2305E+02  0.1326E+03
      3.282  0.2883E+02  0.1359E+03
      3.412  0.3635E+02  0.1400E+03
      3.542  0.3547E+02  0.1450E+03
      3.672  0.2584E+02  0.1487E+03
      3.802  0.1991E+02  0.1516E+03
      3.932  0.1849E+02  0.1540E+03
      4.062  0.1738E+02  0.1563E+03
      4.192  0.1854E+02  0.1586E+03
      4.322  0.1946E+02  0.1611E+03
      4.452  0.2789E+02  0.1640E+03
      4.582  0.3627E+02  0.1681E+03
      4.713  0.2969E+02  0.1726E+03
      4.843  0.2367E+02  0.1760E+03
      4.973  0.2059E+02  0.1789E+03
      5.103  0.1671E+02  0.1813E+03
      5.233  0.1126E+02  0.1830E+03
      5.363  0.8610E+01  0.1843E+03
      5.493  0.8625E+01  0.1855E+03
      5.623  0.8113E+01  0.1865E+03
      5.753  0.6457E+01  0.1875E+03
      5.883  0.8274E+01  0.1884E+03
      6.014  0.7126E+01  0.1894E+03
      6.144  0.7244E+01  0.1904E+03
      6.274  0.7344E+01  0.1914E+03
      6.404  0.8422E+01  0.1925E+03
      6.534  0.1016E+02  0.1937E+03
      6.664  0.1310E+02  0.1954E+03
      6.794  0.1400E+02  0.1972E+03
      6.924  0.1532E+02  0.1991E+03
      7.054  0.1383E+02  0.2011E+03
      7.184  0.1606E+02  0.2030E+03
      7.315  0.1631E+02  0.2053E+03
      7.445  0.1828E+02  0.2075E+03
      7.575  0.2145E+02  0.2102E+03
      7.705  0.1779E+02  0.2129E+03
      7.835  0.1884E+02  0.2155E+03
      7.965  0.2100E+02  0.2182E+03
      8.095  0.2916E+02  0.2212E+03
      8.225  0.2456E+02  0.2245E+03
      8.355  0.2335E+02  0.2274E+03
      8.485  0.2251E+02  0.2304E+03
      8.615  0.2081E+02  0.2333E+03
      8.746  0.2069E+02  0.2361E+03
      8.876  0.3062E+02  0.2396E+03
      9.006  0.0000E+00  0.2400E+03
      9.136  0.0000E+00  0.2400E+03
      9.266  0.0000E+00  0.2400E+03
      9.396  0.0000E+00  0.2400E+03
      9.526  0.0000E+00  0.2400E+03
      9.656  0.0000E+00  0.2400E+03
      9.786  0.0000E+00  0.2400E+03
      9.916  0.0000E+00  0.2400E+03
     10.047  0.0000E+00  0.2400E+03
     10.177  0.0000E+00  0.2400E+03
     10.307  0.0000E+00  0.2400E+03
     10.437  0.0000E+00  0.2400E+03
     10.567  0.0000E+00  0.2400E+03
     10.697  0.0000E+00  0.2400E+03
     10.827  0.0000E+00  0.2400E+03
     10.957  0.0000E+00  0.2400E+03
