 vasp.5.4.4.18Apr17-6-g9f103f2a35 (build May 20 2018 16:52:39) complex          
  
 executed on             LinuxIFC date 2022.11.17  22:01:42
 running on   40 total cores
 distrk:  each k-point on   40 cores,    1 groups
 distr:  one band on NCORES_PER_BAND=   1 cores,   40 groups


--------------------------------------------------------------------------------------------------------


 INCAR:
 POTCAR:    PAW Nb_pv 09Jan2002                   

 ----------------------------------------------------------------------------- 
|                                                                             |
|           W    W    AA    RRRRR   N    N  II  N    N   GGGG   !!!           |
|           W    W   A  A   R    R  NN   N  II  NN   N  G    G  !!!           |
|           W    W  A    A  R    R  N N  N  II  N N  N  G       !!!           |
|           W WW W  AAAAAA  RRRRR   N  N N  II  N  N N  G  GGG   !            |
|           WW  WW  A    A  R   R   N   NN  II  N   NN  G    G                |
|           W    W  A    A  R    R  N    N  II  N    N   GGGG   !!!           |
|                                                                             |
|      For optimal performance we recommend to set                            |
|        NCORE= 4 - approx SQRT( number of cores)                             |
|      NCORE specifies how many cores store one orbital (NPAR=cpu/NCORE).     |
|      This setting can  greatly improve the performance of VASP for DFT.     |
|      The default,   NCORE=1            might be grossly inefficient         |
|      on modern multi-core architectures or massively parallel machines.     |
|      Do your own testing !!!!                                               |
|      Unfortunately you need to use the default for GW and RPA calculations. |
|      (for HF NCORE is supported but not extensively tested yet)             |
|                                                                             |
 ----------------------------------------------------------------------------- 

 POTCAR:    PAW Nb_pv 09Jan2002                   
   VRHFIN =Nb: s1d4                                                             
   LEXCH  = CA                                                                  
   EATOM  =  1046.3740 eV,   76.9063 Ry                                         
                                                                                
   TITEL  = PAW Nb_pv 09Jan2002                                                 
   LULTRA =        F    use ultrasoft PP ?                                      
   IUNSCR =        1    unscreen: 0-lin 1-nonlin 2-no                           
   RPACOR =    2.200    partial core radius                                     
   POMASS =   92.910; ZVAL   =   11.000    mass and valenz                      
   RCORE  =    2.750    outmost cutoff radius                                   
   RWIGS  =    2.840; RWIGS  =    1.503    wigner-seitz radius (au A)           
   ENMAX  =  207.263; ENMIN  =  155.447 eV                                      
   RCLOC  =    2.209    cutoff for local pot                                    
   LCOR   =        T    correct aug charges                                     
   LPAW   =        T    paw PP                                                  
   EAUG   =  352.745                                                            
   DEXC   =    0.000                                                            
   RMAX   =    2.814    core radius for proj-oper                               
   RAUG   =    1.300    factor for augmentation sphere                          
   RDEP   =    2.785    radius for radial grids                                 
   RDEPT  =    2.205    core radius for aug-charge                              
                                                                                
   Atomic configuration                                                         
   11 entries                                                                   
     n  l   j            E        occ.                                          
     1  0  0.50    -18704.9804   2.0000                                         
     2  0  0.50     -2619.6337   2.0000                                         
     2  1  1.50     -2343.2033   6.0000                                         
     3  0  0.50      -436.6391   2.0000                                         
     3  1  1.50      -345.9106   6.0000                                         
     3  2  2.50      -196.5794  10.0000                                         
     4  0  0.50       -58.2950   2.0000                                         
     4  1  1.50       -34.5590   6.0000                                         
     4  2  2.50        -3.2208   4.0000                                         
     5  0  0.50        -4.1880   1.0000                                         
     4  3  2.50        -1.3606   0.0000                                         
   Description                                                                  
     l       E           TYP  RCUT    TYP  RCUT                                 
     1    -34.5590103     23  2.600                                             
     1     -1.3605826     23  2.600                                             
     2     -3.2207521     23  2.600                                             
     2     -1.6263194     23  2.600                                             
     0     -4.1879630     23  2.750                                             
     0     20.4087390     23  2.750                                             
  local pseudopotential read in
  partial core-charges read in
  partial kinetic energy density read in
  atomic valenz-charges read in
  non local Contribution for L=           1  read in
    real space projection operators read in
  non local Contribution for L=           1  read in
    real space projection operators read in
  non local Contribution for L=           2  read in
    real space projection operators read in
  non local Contribution for L=           2  read in
    real space projection operators read in
  non local Contribution for L=           0  read in
    real space projection operators read in
  non local Contribution for L=           0  read in
    real space projection operators read in
    PAW grid and wavefunctions read in
 
   number of l-projection  operators is LMAX  =           6
   number of lm-projection operators is LMMAX =          18
 
  PAW Nb_pv 09Jan2002                   :
 energy of atom  1       EATOM=-1046.3740
 kinetic energy error for atom=    0.0109 (will be added to EATOM!!)
 
 
 POSCAR: sic16 Nb                                
  positions in direct lattice
  No initial velocities read in
 exchange correlation table for  LEXCH =        2
   RHO(1)=    0.500       N(1)  =     2000
   RHO(2)=  100.500       N(2)  =     4000
 


--------------------------------------------------------------------------------------------------------


 ion  position               nearest neighbor table
   1  0.000  0.000  0.000-   2 2.86   4 2.86   6 2.86   8 2.86  10 2.86  12 2.86  14 2.86  16 2.86
                             7 3.30   5 3.30   3 3.30   7 3.30   5 3.30   3 3.30
   2  0.250  0.250  0.250-   1 2.86   3 2.86   5 2.86   7 2.86   9 2.86  11 2.86  13 2.86  15 2.86
                             4 3.30   8 3.30   6 3.30   8 3.30   6 3.30   4 3.30
   3  0.500  0.000  0.000-   2 2.86   4 2.86   6 2.86   8 2.86  10 2.86  12 2.86  14 2.86  16 2.86
                            13 3.30   1 3.30   9 3.30  13 3.30   9 3.30   1 3.30
   4  0.750  0.250  0.250-   1 2.86   3 2.86   5 2.86   7 2.86   9 2.86  11 2.86  13 2.86  15 2.86
                            10 3.30  14 3.30   2 3.30  14 3.30  10 3.30   2 3.30
   5  0.000  0.500  0.000-   2 2.86   4 2.86   6 2.86   8 2.86  10 2.86  12 2.86  14 2.86  16 2.86
                             9 3.30   1 3.30  11 3.30  11 3.30   1 3.30   9 3.30
   6  0.250  0.750  0.250-   1 2.86   3 2.86   5 2.86   7 2.86   9 2.86  11 2.86  13 2.86  15 2.86
                            12 3.30  10 3.30   2 3.30  12 3.30   2 3.30  10 3.30
   7  0.000  0.000  0.500-   2 2.86   4 2.86   6 2.86   8 2.86  10 2.86  12 2.86  14 2.86  16 2.86
                            13 3.30  11 3.30   1 3.30   1 3.30  11 3.30  13 3.30
   8  0.250  0.250  0.750-   1 2.86   3 2.86   5 2.86   7 2.86   9 2.86  11 2.86  13 2.86  15 2.86
                             2 3.30  14 3.30  12 3.30   2 3.30  12 3.30  14 3.30
   9  0.500  0.500  0.000-   2 2.86   4 2.86   6 2.86   8 2.86  10 2.86  12 2.86  14 2.86  16 2.86
                             3 3.30  15 3.30   5 3.30  15 3.30   3 3.30   5 3.30
  10  0.750  0.750  0.250-   1 2.86   3 2.86   5 2.86   7 2.86   9 2.86  11 2.86  13 2.86  15 2.86
                             6 3.30   4 3.30  16 3.30  16 3.30   4 3.30   6 3.30
  11  0.000  0.500  0.500-   2 2.86   4 2.86   6 2.86   8 2.86  10 2.86  12 2.86  14 2.86  16 2.86
                             7 3.30  15 3.30   5 3.30   5 3.30   7 3.30  15 3.30
  12  0.250  0.750  0.750-   1 2.86   3 2.86   5 2.86   7 2.86   9 2.86  11 2.86  13 2.86  15 2.86
                             6 3.30   8 3.30  16 3.30   6 3.30   8 3.30  16 3.30
  13  0.500  0.000  0.500-   2 2.86   4 2.86   6 2.86   8 2.86  10 2.86  12 2.86  14 2.86  16 2.86
                             7 3.30  15 3.30   3 3.30   3 3.30  15 3.30   7 3.30
  14  0.750  0.250  0.750-   1 2.86   3 2.86   5 2.86   7 2.86   9 2.86  11 2.86  13 2.86  15 2.86
                             4 3.30   8 3.30  16 3.30   4 3.30  16 3.30   8 3.30
  15  0.500  0.500  0.500-   2 2.86   4 2.86   6 2.86   8 2.86  10 2.86  12 2.86  14 2.86  16 2.86
                            13 3.30  11 3.30   9 3.30   9 3.30  13 3.30  11 3.30
  16  0.750  0.750  0.750-   1 2.86   3 2.86   5 2.86   7 2.86   9 2.86  11 2.86  13 2.86  15 2.86
                            10 3.30  14 3.30  12 3.30  10 3.30  14 3.30  12 3.30
 
  LATTYP: Found a simple cubic cell.
 ALAT       =     6.6016000000
  
  Lattice vectors:
  
 A1 = (   6.6016000000,   0.0000000000,   0.0000000000)
 A2 = (   0.0000000000,   6.6016000000,   0.0000000000)
 A3 = (   0.0000000000,   0.0000000000,   6.6016000000)


Analysis of symmetry for initial positions (statically):
=====================================================================
 Subroutine PRICEL returns following result:
 
  LATTYP: Found a body centered cubic cell.
 ALAT       =     3.3008000000
  
  Lattice vectors:
  
 A1 = (   1.6504000000,   1.6504000000,   1.6504000000)
 A2 = (   1.6504000000,  -1.6504000000,  -1.6504000000)
 A3 = (  -1.6504000000,   1.6504000000,  -1.6504000000)
 
  16 primitive cells build up your supercell.
 

 Routine SETGRP: Setting up the symmetry group for a 
 simple cubic supercell.


 Subroutine GETGRP returns: Found 48 space group operations
 (whereof 48 operations were pure point group operations)
 out of a pool of 48 trial point group operations.


The static configuration has the point symmetry O_h .


Analysis of symmetry for dynamics (positions and initial velocities):
=====================================================================
 Subroutine PRICEL returns following result:
 
  LATTYP: Found a body centered cubic cell.
 ALAT       =     3.3008000000
  
  Lattice vectors:
  
 A1 = (   1.6504000000,   1.6504000000,   1.6504000000)
 A2 = (   1.6504000000,  -1.6504000000,  -1.6504000000)
 A3 = (  -1.6504000000,   1.6504000000,  -1.6504000000)
 
  16 primitive cells build up your supercell.
 

 Routine SETGRP: Setting up the symmetry group for a 
 simple cubic supercell.


 Subroutine GETGRP returns: Found 48 space group operations
 (whereof 48 operations were pure point group operations)
 out of a pool of 48 trial point group operations.


The dynamic configuration has the point symmetry O_h .


 Subroutine INISYM returns: Found 48 space group operations
 (whereof 48 operations are pure point group operations),
 and found    16 'primitive' translations

 
 
 KPOINTS: 16*16*16                                

Automatic generation of k-mesh.
Space group operators:
 irot       det(A)        alpha          n_x          n_y          n_z        tau_x        tau_y        tau_z
    1     1.000000     0.000000     1.000000     0.000000     0.000000     0.000000     0.000000     0.000000
    2    -1.000000     0.000000     1.000000     0.000000     0.000000     0.000000     0.000000     0.000000
    3     1.000000   120.000000    -0.577350    -0.577350    -0.577350     0.000000     0.000000     0.000000
    4    -1.000000   120.000000    -0.577350    -0.577350    -0.577350     0.000000     0.000000     0.000000
    5     1.000000   120.000000     0.577350     0.577350     0.577350     0.000000     0.000000     0.000000
    6    -1.000000   120.000000     0.577350     0.577350     0.577350     0.000000     0.000000     0.000000
    7     1.000000    90.000000     0.000000     0.000000    -1.000000     0.000000     0.000000     0.000000
    8    -1.000000    90.000000     0.000000     0.000000    -1.000000     0.000000     0.000000     0.000000
    9     1.000000   180.000000     0.000000     0.707107     0.707107     0.000000     0.000000     0.000000
   10    -1.000000   180.000000     0.000000     0.707107     0.707107     0.000000     0.000000     0.000000
   11     1.000000    90.000000     0.000000     1.000000     0.000000     0.000000     0.000000     0.000000
   12    -1.000000    90.000000     0.000000     1.000000     0.000000     0.000000     0.000000     0.000000
   13     1.000000   180.000000     0.000000     0.000000     1.000000     0.000000     0.000000     0.000000
   14    -1.000000   180.000000     0.000000     0.000000     1.000000     0.000000     0.000000     0.000000
   15     1.000000   120.000000    -0.577350     0.577350     0.577350     0.000000     0.000000     0.000000
   16    -1.000000   120.000000    -0.577350     0.577350     0.577350     0.000000     0.000000     0.000000
   17     1.000000   120.000000    -0.577350     0.577350    -0.577350     0.000000     0.000000     0.000000
   18    -1.000000   120.000000    -0.577350     0.577350    -0.577350     0.000000     0.000000     0.000000
   19     1.000000    90.000000     0.000000     0.000000     1.000000     0.000000     0.000000     0.000000
   20    -1.000000    90.000000     0.000000     0.000000     1.000000     0.000000     0.000000     0.000000
   21     1.000000    90.000000    -1.000000     0.000000     0.000000     0.000000     0.000000     0.000000
   22    -1.000000    90.000000    -1.000000     0.000000     0.000000     0.000000     0.000000     0.000000
   23     1.000000   180.000000     0.707107     0.000000     0.707107     0.000000     0.000000     0.000000
   24    -1.000000   180.000000     0.707107     0.000000     0.707107     0.000000     0.000000     0.000000
   25     1.000000   120.000000     0.577350    -0.577350     0.577350     0.000000     0.000000     0.000000
   26    -1.000000   120.000000     0.577350    -0.577350     0.577350     0.000000     0.000000     0.000000
   27     1.000000   120.000000    -0.577350    -0.577350     0.577350     0.000000     0.000000     0.000000
   28    -1.000000   120.000000    -0.577350    -0.577350     0.577350     0.000000     0.000000     0.000000
   29     1.000000   180.000000     1.000000     0.000000     0.000000     0.000000     0.000000     0.000000
   30    -1.000000   180.000000     1.000000     0.000000     0.000000     0.000000     0.000000     0.000000
   31     1.000000    90.000000     0.000000    -1.000000     0.000000     0.000000     0.000000     0.000000
   32    -1.000000    90.000000     0.000000    -1.000000     0.000000     0.000000     0.000000     0.000000
   33     1.000000   180.000000     0.707107     0.707107     0.000000     0.000000     0.000000     0.000000
   34    -1.000000   180.000000     0.707107     0.707107     0.000000     0.000000     0.000000     0.000000
   35     1.000000    90.000000     1.000000     0.000000     0.000000     0.000000     0.000000     0.000000
   36    -1.000000    90.000000     1.000000     0.000000     0.000000     0.000000     0.000000     0.000000
   37     1.000000   120.000000     0.577350    -0.577350    -0.577350     0.000000     0.000000     0.000000
   38    -1.000000   120.000000     0.577350    -0.577350    -0.577350     0.000000     0.000000     0.000000
   39     1.000000   180.000000     0.000000     1.000000     0.000000     0.000000     0.000000     0.000000
   40    -1.000000   180.000000     0.000000     1.000000     0.000000     0.000000     0.000000     0.000000
   41     1.000000   120.000000     0.577350     0.577350    -0.577350     0.000000     0.000000     0.000000
   42    -1.000000   120.000000     0.577350     0.577350    -0.577350     0.000000     0.000000     0.000000
   43     1.000000   180.000000     0.000000    -0.707107     0.707107     0.000000     0.000000     0.000000
   44    -1.000000   180.000000     0.000000    -0.707107     0.707107     0.000000     0.000000     0.000000
   45     1.000000   180.000000     0.707107    -0.707107     0.000000     0.000000     0.000000     0.000000
   46    -1.000000   180.000000     0.707107    -0.707107     0.000000     0.000000     0.000000     0.000000
   47     1.000000   180.000000     0.707107     0.000000    -0.707107     0.000000     0.000000     0.000000
   48    -1.000000   180.000000     0.707107     0.000000    -0.707107     0.000000     0.000000     0.000000
 
 Subroutine IBZKPT returns following result:
 ===========================================
 
 Found    120 irreducible k-points:
 
 Following reciprocal coordinates:
            Coordinates               Weight
  0.031250  0.031250  0.031250      8.000000
  0.093750  0.031250  0.031250     24.000000
  0.156250  0.031250  0.031250     24.000000
  0.218750  0.031250  0.031250     24.000000
  0.281250  0.031250  0.031250     24.000000
  0.343750  0.031250  0.031250     24.000000
  0.406250  0.031250  0.031250     24.000000
  0.468750  0.031250  0.031250     24.000000
  0.093750  0.093750  0.031250     24.000000
  0.156250  0.093750  0.031250     48.000000
  0.218750  0.093750  0.031250     48.000000
  0.281250  0.093750  0.031250     48.000000
  0.343750  0.093750  0.031250     48.000000
  0.406250  0.093750  0.031250     48.000000
  0.468750  0.093750  0.031250     48.000000
  0.156250  0.156250  0.031250     24.000000
  0.218750  0.156250  0.031250     48.000000
  0.281250  0.156250  0.031250     48.000000
  0.343750  0.156250  0.031250     48.000000
  0.406250  0.156250  0.031250     48.000000
  0.468750  0.156250  0.031250     48.000000
  0.218750  0.218750  0.031250     24.000000
  0.281250  0.218750  0.031250     48.000000
  0.343750  0.218750  0.031250     48.000000
  0.406250  0.218750  0.031250     48.000000
  0.468750  0.218750  0.031250     48.000000
  0.281250  0.281250  0.031250     24.000000
  0.343750  0.281250  0.031250     48.000000
  0.406250  0.281250  0.031250     48.000000
  0.468750  0.281250  0.031250     48.000000
  0.343750  0.343750  0.031250     24.000000
  0.406250  0.343750  0.031250     48.000000
  0.468750  0.343750  0.031250     48.000000
  0.406250  0.406250  0.031250     24.000000
  0.468750  0.406250  0.031250     48.000000
  0.468750  0.468750  0.031250     24.000000
  0.093750  0.093750  0.093750      8.000000
  0.156250  0.093750  0.093750     24.000000
  0.218750  0.093750  0.093750     24.000000
  0.281250  0.093750  0.093750     24.000000
  0.343750  0.093750  0.093750     24.000000
  0.406250  0.093750  0.093750     24.000000
  0.468750  0.093750  0.093750     24.000000
  0.156250  0.156250  0.093750     24.000000
  0.218750  0.156250  0.093750     48.000000
  0.281250  0.156250  0.093750     48.000000
  0.343750  0.156250  0.093750     48.000000
  0.406250  0.156250  0.093750     48.000000
  0.468750  0.156250  0.093750     48.000000
  0.218750  0.218750  0.093750     24.000000
  0.281250  0.218750  0.093750     48.000000
  0.343750  0.218750  0.093750     48.000000
  0.406250  0.218750  0.093750     48.000000
  0.468750  0.218750  0.093750     48.000000
  0.281250  0.281250  0.093750     24.000000
  0.343750  0.281250  0.093750     48.000000
  0.406250  0.281250  0.093750     48.000000
  0.468750  0.281250  0.093750     48.000000
  0.343750  0.343750  0.093750     24.000000
  0.406250  0.343750  0.093750     48.000000
  0.468750  0.343750  0.093750     48.000000
  0.406250  0.406250  0.093750     24.000000
  0.468750  0.406250  0.093750     48.000000
  0.468750  0.468750  0.093750     24.000000
  0.156250  0.156250  0.156250      8.000000
  0.218750  0.156250  0.156250     24.000000
  0.281250  0.156250  0.156250     24.000000
  0.343750  0.156250  0.156250     24.000000
  0.406250  0.156250  0.156250     24.000000
  0.468750  0.156250  0.156250     24.000000
  0.218750  0.218750  0.156250     24.000000
  0.281250  0.218750  0.156250     48.000000
  0.343750  0.218750  0.156250     48.000000
  0.406250  0.218750  0.156250     48.000000
  0.468750  0.218750  0.156250     48.000000
  0.281250  0.281250  0.156250     24.000000
  0.343750  0.281250  0.156250     48.000000
  0.406250  0.281250  0.156250     48.000000
  0.468750  0.281250  0.156250     48.000000
  0.343750  0.343750  0.156250     24.000000
  0.406250  0.343750  0.156250     48.000000
  0.468750  0.343750  0.156250     48.000000
  0.406250  0.406250  0.156250     24.000000
  0.468750  0.406250  0.156250     48.000000
  0.468750  0.468750  0.156250     24.000000
  0.218750  0.218750  0.218750      8.000000
  0.281250  0.218750  0.218750     24.000000
  0.343750  0.218750  0.218750     24.000000
  0.406250  0.218750  0.218750     24.000000
  0.468750  0.218750  0.218750     24.000000
  0.281250  0.281250  0.218750     24.000000
  0.343750  0.281250  0.218750     48.000000
  0.406250  0.281250  0.218750     48.000000
  0.468750  0.281250  0.218750     48.000000
  0.343750  0.343750  0.218750     24.000000
  0.406250  0.343750  0.218750     48.000000
  0.468750  0.343750  0.218750     48.000000
  0.406250  0.406250  0.218750     24.000000
  0.468750  0.406250  0.218750     48.000000
  0.468750  0.468750  0.218750     24.000000
  0.281250  0.281250  0.281250      8.000000
  0.343750  0.281250  0.281250     24.000000
  0.406250  0.281250  0.281250     24.000000
  0.468750  0.281250  0.281250     24.000000
  0.343750  0.343750  0.281250     24.000000
  0.406250  0.343750  0.281250     48.000000
  0.468750  0.343750  0.281250     48.000000
  0.406250  0.406250  0.281250     24.000000
  0.468750  0.406250  0.281250     48.000000
  0.468750  0.468750  0.281250     24.000000
  0.343750  0.343750  0.343750      8.000000
  0.406250  0.343750  0.343750     24.000000
  0.468750  0.343750  0.343750     24.000000
  0.406250  0.406250  0.343750     24.000000
  0.468750  0.406250  0.343750     48.000000
  0.468750  0.468750  0.343750     24.000000
  0.406250  0.406250  0.406250      8.000000
  0.468750  0.406250  0.406250     24.000000
  0.468750  0.468750  0.406250     24.000000
  0.468750  0.468750  0.468750      8.000000
 
 Following cartesian coordinates:
            Coordinates               Weight
  0.015625  0.015625  0.015625      8.000000
  0.046875  0.015625  0.015625     24.000000
  0.078125  0.015625  0.015625     24.000000
  0.109375  0.015625  0.015625     24.000000
  0.140625  0.015625  0.015625     24.000000
  0.171875  0.015625  0.015625     24.000000
  0.203125  0.015625  0.015625     24.000000
  0.234375  0.015625  0.015625     24.000000
  0.046875  0.046875  0.015625     24.000000
  0.078125  0.046875  0.015625     48.000000
  0.109375  0.046875  0.015625     48.000000
  0.140625  0.046875  0.015625     48.000000
  0.171875  0.046875  0.015625     48.000000
  0.203125  0.046875  0.015625     48.000000
  0.234375  0.046875  0.015625     48.000000
  0.078125  0.078125  0.015625     24.000000
  0.109375  0.078125  0.015625     48.000000
  0.140625  0.078125  0.015625     48.000000
  0.171875  0.078125  0.015625     48.000000
  0.203125  0.078125  0.015625     48.000000
  0.234375  0.078125  0.015625     48.000000
  0.109375  0.109375  0.015625     24.000000
  0.140625  0.109375  0.015625     48.000000
  0.171875  0.109375  0.015625     48.000000
  0.203125  0.109375  0.015625     48.000000
  0.234375  0.109375  0.015625     48.000000
  0.140625  0.140625  0.015625     24.000000
  0.171875  0.140625  0.015625     48.000000
  0.203125  0.140625  0.015625     48.000000
  0.234375  0.140625  0.015625     48.000000
  0.171875  0.171875  0.015625     24.000000
  0.203125  0.171875  0.015625     48.000000
  0.234375  0.171875  0.015625     48.000000
  0.203125  0.203125  0.015625     24.000000
  0.234375  0.203125  0.015625     48.000000
  0.234375  0.234375  0.015625     24.000000
  0.046875  0.046875  0.046875      8.000000
  0.078125  0.046875  0.046875     24.000000
  0.109375  0.046875  0.046875     24.000000
  0.140625  0.046875  0.046875     24.000000
  0.171875  0.046875  0.046875     24.000000
  0.203125  0.046875  0.046875     24.000000
  0.234375  0.046875  0.046875     24.000000
  0.078125  0.078125  0.046875     24.000000
  0.109375  0.078125  0.046875     48.000000
  0.140625  0.078125  0.046875     48.000000
  0.171875  0.078125  0.046875     48.000000
  0.203125  0.078125  0.046875     48.000000
  0.234375  0.078125  0.046875     48.000000
  0.109375  0.109375  0.046875     24.000000
  0.140625  0.109375  0.046875     48.000000
  0.171875  0.109375  0.046875     48.000000
  0.203125  0.109375  0.046875     48.000000
  0.234375  0.109375  0.046875     48.000000
  0.140625  0.140625  0.046875     24.000000
  0.171875  0.140625  0.046875     48.000000
  0.203125  0.140625  0.046875     48.000000
  0.234375  0.140625  0.046875     48.000000
  0.171875  0.171875  0.046875     24.000000
  0.203125  0.171875  0.046875     48.000000
  0.234375  0.171875  0.046875     48.000000
  0.203125  0.203125  0.046875     24.000000
  0.234375  0.203125  0.046875     48.000000
  0.234375  0.234375  0.046875     24.000000
  0.078125  0.078125  0.078125      8.000000
  0.109375  0.078125  0.078125     24.000000
  0.140625  0.078125  0.078125     24.000000
  0.171875  0.078125  0.078125     24.000000
  0.203125  0.078125  0.078125     24.000000
  0.234375  0.078125  0.078125     24.000000
  0.109375  0.109375  0.078125     24.000000
  0.140625  0.109375  0.078125     48.000000
  0.171875  0.109375  0.078125     48.000000
  0.203125  0.109375  0.078125     48.000000
  0.234375  0.109375  0.078125     48.000000
  0.140625  0.140625  0.078125     24.000000
  0.171875  0.140625  0.078125     48.000000
  0.203125  0.140625  0.078125     48.000000
  0.234375  0.140625  0.078125     48.000000
  0.171875  0.171875  0.078125     24.000000
  0.203125  0.171875  0.078125     48.000000
  0.234375  0.171875  0.078125     48.000000
  0.203125  0.203125  0.078125     24.000000
  0.234375  0.203125  0.078125     48.000000
  0.234375  0.234375  0.078125     24.000000
  0.109375  0.109375  0.109375      8.000000
  0.140625  0.109375  0.109375     24.000000
  0.171875  0.109375  0.109375     24.000000
  0.203125  0.109375  0.109375     24.000000
  0.234375  0.109375  0.109375     24.000000
  0.140625  0.140625  0.109375     24.000000
  0.171875  0.140625  0.109375     48.000000
  0.203125  0.140625  0.109375     48.000000
  0.234375  0.140625  0.109375     48.000000
  0.171875  0.171875  0.109375     24.000000
  0.203125  0.171875  0.109375     48.000000
  0.234375  0.171875  0.109375     48.000000
  0.203125  0.203125  0.109375     24.000000
  0.234375  0.203125  0.109375     48.000000
  0.234375  0.234375  0.109375     24.000000
  0.140625  0.140625  0.140625      8.000000
  0.171875  0.140625  0.140625     24.000000
  0.203125  0.140625  0.140625     24.000000
  0.234375  0.140625  0.140625     24.000000
  0.171875  0.171875  0.140625     24.000000
  0.203125  0.171875  0.140625     48.000000
  0.234375  0.171875  0.140625     48.000000
  0.203125  0.203125  0.140625     24.000000
  0.234375  0.203125  0.140625     48.000000
  0.234375  0.234375  0.140625     24.000000
  0.171875  0.171875  0.171875      8.000000
  0.203125  0.171875  0.171875     24.000000
  0.234375  0.171875  0.171875     24.000000
  0.203125  0.203125  0.171875     24.000000
  0.234375  0.203125  0.171875     48.000000
  0.234375  0.234375  0.171875     24.000000
  0.203125  0.203125  0.203125      8.000000
  0.234375  0.203125  0.203125     24.000000
  0.234375  0.234375  0.203125     24.000000
  0.234375  0.234375  0.234375      8.000000
 
 TETIRR: Found   1993 inequivalent tetrahedra from    24576


--------------------------------------------------------------------------------------------------------




 Dimension of arrays:
   k-points           NKPTS =    120   k-points in BZ     NKDIM =    120   number of bands    NBANDS=    120
   number of dos      NEDOS =    301   number of ions     NIONS =     16
   non local maximal  LDIM  =      6   non local SUM 2l+1 LMDIM =     18
   total plane-waves  NPLWV =  21952
   max r-space proj   IRMAX =      1   max aug-charges    IRDMAX=   4943
   dimension x,y,z NGX =    28 NGY =   28 NGZ =   28
   dimension x,y,z NGXF=    56 NGYF=   56 NGZF=   56
   support grid    NGXF=    56 NGYF=   56 NGZF=   56
   ions per type =              16
   NGX,Y,Z   is equivalent  to a cutoff of   7.05,  7.05,  7.05 a.u.
   NGXF,Y,Z  is equivalent  to a cutoff of  14.10, 14.10, 14.10 a.u.

 SYSTEM =  Nb tetrahedron                          
 POSCAR =  sic16 Nb                                

 Startparameter for this run:
   NWRITE =      2    write-flag & timer
   PREC   = normal    normal or accurate (medium, high low for compatibility)
   ISTART =      0    job   : 0-new  1-cont  2-samecut
   ICHARG =     11    charge: 1-file 2-atom 10-const
   ISPIN  =      1    spin polarized calculation?
   LNONCOLLINEAR =      F non collinear calculations
   LSORBIT =      F    spin-orbit coupling
   INIWAV =      1    electr: 0-lowe 1-rand  2-diag
   LASPH  =      F    aspherical Exc in radial PAW
   METAGGA=      F    non-selfconsistent MetaGGA calc.

 Electronic Relaxation 1
   ENCUT  =  300.0 eV  22.05 Ry    4.70 a.u.   9.32  9.32  9.32*2*pi/ulx,y,z
   ENINI  =  300.0     initial cutoff
   ENAUG  =  352.7 eV  augmentation charge cutoff
   NELM   =     60;   NELMIN=  2; NELMDL= -5     # of ELM steps 
   EDIFF  = 0.1E-06   stopping-criterion for ELM
   LREAL  =      F    real-space projection
   NLSPLINE    = F    spline interpolate recip. space projectors
   LCOMPAT=      F    compatible to vasp.4.4
   GGA_COMPAT  = T    GGA compatible to vasp.4.4-vasp.4.6
   LMAXPAW     = -100 max onsite density
   LMAXMIX     =    2 max onsite mixed and CHGCAR
   VOSKOWN=      0    Vosko Wilk Nusair interpolation
   ROPT   =    0.00000
 Ionic relaxation
   EDIFFG = 0.1E-05   stopping-criterion for IOM
   NSW    =      0    number of steps for IOM
   NBLOCK =      1;   KBLOCK =      1    inner block; outer block 
   IBRION =     -1    ionic relax: 0-MD 1-quasi-New 2-CG
   NFREE  =      0    steps in history (QN), initial steepest desc. (CG)
   ISIF   =      2    stress and relaxation
   IWAVPR =     10    prediction:  0-non 1-charg 2-wave 3-comb
   ISYM   =      2    0-nonsym 1-usesym 2-fastsym
   LCORR  =      T    Harris-Foulkes like correction to forces

   POTIM  = 0.5000    time-step for ionic-motion
   TEIN   =    0.0    initial temperature
   TEBEG  =    0.0;   TEEND  =   0.0 temperature during run
   SMASS  =  -3.00    Nose mass-parameter (am)
   estimated Nose-frequenzy (Omega)   =  0.10E-29 period in steps =****** mass=  -0.996E-27a.u.
   SCALEE = 1.0000    scale energy and forces
   NPACO  =    256;   APACO  = 16.0  distance and # of slots for P.C.
   PSTRESS=    0.0 pullay stress

  Mass of Ions in am
   POMASS =  92.91
  Ionic Valenz
   ZVAL   =  11.00
  Atomic Wigner-Seitz radii
   RWIGS  =  -1.00
  virtual crystal weights 
   VCA    =   1.00
   NELECT =     176.0000    total number of electrons
   NUPDOWN=      -1.0000    fix difference up-down

 DOS related values:
   EMIN   =  10.00;   EMAX   =-10.00  energy-range for DOS
   EFERMI =   0.00
   ISMEAR =    -5;   SIGMA  =   0.20  broadening in eV -4-tet -1-fermi 0-gaus

 Electronic relaxation 2 (details)
   IALGO  =     38    algorithm
   LDIAG  =      T    sub-space diagonalisation (order eigenvalues)
   LSUBROT=      F    optimize rotation matrix (better conditioning)
   TURBO    =      0    0=normal 1=particle mesh
   IRESTART =      0    0=no restart 2=restart with 2 vectors
   NREBOOT  =      0    no. of reboots
   NMIN     =      0    reboot dimension
   EREF     =   0.00    reference energy to select bands
   IMIX   =      4    mixing-type and parameters
     AMIX     =   0.40;   BMIX     =  1.00
     AMIX_MAG =   1.60;   BMIX_MAG =  1.00
     AMIN     =   0.10
     WC   =   100.;   INIMIX=   1;  MIXPRE=   1;  MAXMIX= -45

 Intra band minimization:
   WEIMIN = 0.0000     energy-eigenvalue tresh-hold
   EBREAK =  0.21E-09  absolut break condition
   DEPER  =   0.30     relativ break condition  

   TIME   =   0.40     timestep for ELM

  volume/ion in A,a.u.               =      17.98       121.35
  Fermi-wavevector in a.u.,A,eV,Ry     =   1.389728  2.626205 26.277534  1.931344
  Thomas-Fermi vector in A             =   2.513731
 
 Write flags
   LWAVE        =      T    write WAVECAR
   LDOWNSAMPLE  =      F    k-point downsampling of WAVECAR
   LCHARG       =      F    write CHGCAR
   LVTOT        =      F    write LOCPOT, total local potential
   LVHAR        =      F    write LOCPOT, Hartree potential only
   LELF         =      F    write electronic localiz. function (ELF)
   LORBIT       =      0    0 simple, 1 ext, 2 COOP (PROOUT), +10 PAW based schemes


 Dipole corrections
   LMONO  =      F    monopole corrections only (constant potential shift)
   LDIPOL =      F    correct potential (dipole corrections)
   IDIPOL =      0    1-x, 2-y, 3-z, 4-all directions 
   EPSILON=  1.0000000 bulk dielectric constant

 Exchange correlation treatment:
   GGA     =    --    GGA type
   LEXCH   =     2    internal setting for exchange type
   VOSKOWN=      0    Vosko Wilk Nusair interpolation
   LHFCALC =     F    Hartree Fock is set to
   LHFONE  =     F    Hartree Fock one center treatment
   AEXX    =    0.0000 exact exchange contribution

 Linear response parameters
   LEPSILON=     F    determine dielectric tensor
   LRPA    =     F    only Hartree local field effects (RPA)
   LNABLA  =     F    use nabla operator in PAW spheres
   LVEL    =     F    velocity operator in full k-point grid
   LINTERFAST=   F  fast interpolation
   KINTER  =     0    interpolate to denser k-point grid
   CSHIFT  =0.1000    complex shift for real part using Kramers Kronig
   OMEGAMAX=  -1.0    maximum frequency
   DEG_THRESHOLD= 0.2000000E-02 threshold for treating states as degnerate
   RTIME   =   -0.100 relaxation time in fs
  (WPLASMAI=    0.000 imaginary part of plasma frequency in eV, 0.658/RTIME)
   DFIELD  = 0.0000000 0.0000000 0.0000000 field for delta impulse in time
 
 Orbital magnetization related:
   ORBITALMAG=     F  switch on orbital magnetization
   LCHIMAG   =     F  perturbation theory with respect to B field
   DQ        =  0.001000  dq finite difference perturbation B field
   LLRAUG    =     F  two centre corrections for induced B field



--------------------------------------------------------------------------------------------------------


 Static calculation
 charge density and potential remain constant during run
 non-spin polarized calculation
 Variant of blocked Davidson
 Davidson routine will perform the subspace rotation
 perform sub-space diagonalisation
    after iterative eigenvector-optimisation
 no mixing
 using additional bands           32
 reciprocal scheme for non local part
 use partial core corrections
 calculate Harris-corrections to forces 
   (improved forces if not selfconsistent)
 use of overlap-Matrix (Vanderbilt PP)
 Fermi weights with tetrahedron method with Bloechl corrections


--------------------------------------------------------------------------------------------------------


  energy-cutoff  :      300.00
  volume of cell :      287.71
      direct lattice vectors                 reciprocal lattice vectors
     6.601600000  0.000000000  0.000000000     0.151478429  0.000000000  0.000000000
     0.000000000  6.601600000  0.000000000     0.000000000  0.151478429  0.000000000
     0.000000000  0.000000000  6.601600000     0.000000000  0.000000000  0.151478429

  length of vectors
     6.601600000  6.601600000  6.601600000     0.151478429  0.151478429  0.151478429


 
 k-points in units of 2pi/SCALE and weight: 16*16*16                                
   0.01562500  0.01562500  0.01562500       0.002
   0.04687500  0.01562500  0.01562500       0.006
   0.07812500  0.01562500  0.01562500       0.006
   0.10937500  0.01562500  0.01562500       0.006
   0.14062500  0.01562500  0.01562500       0.006
   0.17187500  0.01562500  0.01562500       0.006
   0.20312500  0.01562500  0.01562500       0.006
   0.23437500  0.01562500  0.01562500       0.006
   0.04687500  0.04687500  0.01562500       0.006
   0.07812500  0.04687500  0.01562500       0.012
   0.10937500  0.04687500  0.01562500       0.012
   0.14062500  0.04687500  0.01562500       0.012
   0.17187500  0.04687500  0.01562500       0.012
   0.20312500  0.04687500  0.01562500       0.012
   0.23437500  0.04687500  0.01562500       0.012
   0.07812500  0.07812500  0.01562500       0.006
   0.10937500  0.07812500  0.01562500       0.012
   0.14062500  0.07812500  0.01562500       0.012
   0.17187500  0.07812500  0.01562500       0.012
   0.20312500  0.07812500  0.01562500       0.012
   0.23437500  0.07812500  0.01562500       0.012
   0.10937500  0.10937500  0.01562500       0.006
   0.14062500  0.10937500  0.01562500       0.012
   0.17187500  0.10937500  0.01562500       0.012
   0.20312500  0.10937500  0.01562500       0.012
   0.23437500  0.10937500  0.01562500       0.012
   0.14062500  0.14062500  0.01562500       0.006
   0.17187500  0.14062500  0.01562500       0.012
   0.20312500  0.14062500  0.01562500       0.012
   0.23437500  0.14062500  0.01562500       0.012
   0.17187500  0.17187500  0.01562500       0.006
   0.20312500  0.17187500  0.01562500       0.012
   0.23437500  0.17187500  0.01562500       0.012
   0.20312500  0.20312500  0.01562500       0.006
   0.23437500  0.20312500  0.01562500       0.012
   0.23437500  0.23437500  0.01562500       0.006
   0.04687500  0.04687500  0.04687500       0.002
   0.07812500  0.04687500  0.04687500       0.006
   0.10937500  0.04687500  0.04687500       0.006
   0.14062500  0.04687500  0.04687500       0.006
   0.17187500  0.04687500  0.04687500       0.006
   0.20312500  0.04687500  0.04687500       0.006
   0.23437500  0.04687500  0.04687500       0.006
   0.07812500  0.07812500  0.04687500       0.006
   0.10937500  0.07812500  0.04687500       0.012
   0.14062500  0.07812500  0.04687500       0.012
   0.17187500  0.07812500  0.04687500       0.012
   0.20312500  0.07812500  0.04687500       0.012
   0.23437500  0.07812500  0.04687500       0.012
   0.10937500  0.10937500  0.04687500       0.006
   0.14062500  0.10937500  0.04687500       0.012
   0.17187500  0.10937500  0.04687500       0.012
   0.20312500  0.10937500  0.04687500       0.012
   0.23437500  0.10937500  0.04687500       0.012
   0.14062500  0.14062500  0.04687500       0.006
   0.17187500  0.14062500  0.04687500       0.012
   0.20312500  0.14062500  0.04687500       0.012
   0.23437500  0.14062500  0.04687500       0.012
   0.17187500  0.17187500  0.04687500       0.006
   0.20312500  0.17187500  0.04687500       0.012
   0.23437500  0.17187500  0.04687500       0.012
   0.20312500  0.20312500  0.04687500       0.006
   0.23437500  0.20312500  0.04687500       0.012
   0.23437500  0.23437500  0.04687500       0.006
   0.07812500  0.07812500  0.07812500       0.002
   0.10937500  0.07812500  0.07812500       0.006
   0.14062500  0.07812500  0.07812500       0.006
   0.17187500  0.07812500  0.07812500       0.006
   0.20312500  0.07812500  0.07812500       0.006
   0.23437500  0.07812500  0.07812500       0.006
   0.10937500  0.10937500  0.07812500       0.006
   0.14062500  0.10937500  0.07812500       0.012
   0.17187500  0.10937500  0.07812500       0.012
   0.20312500  0.10937500  0.07812500       0.012
   0.23437500  0.10937500  0.07812500       0.012
   0.14062500  0.14062500  0.07812500       0.006
   0.17187500  0.14062500  0.07812500       0.012
   0.20312500  0.14062500  0.07812500       0.012
   0.23437500  0.14062500  0.07812500       0.012
   0.17187500  0.17187500  0.07812500       0.006
   0.20312500  0.17187500  0.07812500       0.012
   0.23437500  0.17187500  0.07812500       0.012
   0.20312500  0.20312500  0.07812500       0.006
   0.23437500  0.20312500  0.07812500       0.012
   0.23437500  0.23437500  0.07812500       0.006
   0.10937500  0.10937500  0.10937500       0.002
   0.14062500  0.10937500  0.10937500       0.006
   0.17187500  0.10937500  0.10937500       0.006
   0.20312500  0.10937500  0.10937500       0.006
   0.23437500  0.10937500  0.10937500       0.006
   0.14062500  0.14062500  0.10937500       0.006
   0.17187500  0.14062500  0.10937500       0.012
   0.20312500  0.14062500  0.10937500       0.012
   0.23437500  0.14062500  0.10937500       0.012
   0.17187500  0.17187500  0.10937500       0.006
   0.20312500  0.17187500  0.10937500       0.012
   0.23437500  0.17187500  0.10937500       0.012
   0.20312500  0.20312500  0.10937500       0.006
   0.23437500  0.20312500  0.10937500       0.012
   0.23437500  0.23437500  0.10937500       0.006
   0.14062500  0.14062500  0.14062500       0.002
   0.17187500  0.14062500  0.14062500       0.006
   0.20312500  0.14062500  0.14062500       0.006
   0.23437500  0.14062500  0.14062500       0.006
   0.17187500  0.17187500  0.14062500       0.006
   0.20312500  0.17187500  0.14062500       0.012
   0.23437500  0.17187500  0.14062500       0.012
   0.20312500  0.20312500  0.14062500       0.006
   0.23437500  0.20312500  0.14062500       0.012
   0.23437500  0.23437500  0.14062500       0.006
   0.17187500  0.17187500  0.17187500       0.002
   0.20312500  0.17187500  0.17187500       0.006
   0.23437500  0.17187500  0.17187500       0.006
   0.20312500  0.20312500  0.17187500       0.006
   0.23437500  0.20312500  0.17187500       0.012
   0.23437500  0.23437500  0.17187500       0.006
   0.20312500  0.20312500  0.20312500       0.002
   0.23437500  0.20312500  0.20312500       0.006
   0.23437500  0.23437500  0.20312500       0.006
   0.23437500  0.23437500  0.23437500       0.002
 
 k-points in reciprocal lattice and weights: 16*16*16                                
   0.03125000  0.03125000  0.03125000       0.002
   0.09375000  0.03125000  0.03125000       0.006
   0.15625000  0.03125000  0.03125000       0.006
   0.21875000  0.03125000  0.03125000       0.006
   0.28125000  0.03125000  0.03125000       0.006
   0.34375000  0.03125000  0.03125000       0.006
   0.40625000  0.03125000  0.03125000       0.006
   0.46875000  0.03125000  0.03125000       0.006
   0.09375000  0.09375000  0.03125000       0.006
   0.15625000  0.09375000  0.03125000       0.012
   0.21875000  0.09375000  0.03125000       0.012
   0.28125000  0.09375000  0.03125000       0.012
   0.34375000  0.09375000  0.03125000       0.012
   0.40625000  0.09375000  0.03125000       0.012
   0.46875000  0.09375000  0.03125000       0.012
   0.15625000  0.15625000  0.03125000       0.006
   0.21875000  0.15625000  0.03125000       0.012
   0.28125000  0.15625000  0.03125000       0.012
   0.34375000  0.15625000  0.03125000       0.012
   0.40625000  0.15625000  0.03125000       0.012
   0.46875000  0.15625000  0.03125000       0.012
   0.21875000  0.21875000  0.03125000       0.006
   0.28125000  0.21875000  0.03125000       0.012
   0.34375000  0.21875000  0.03125000       0.012
   0.40625000  0.21875000  0.03125000       0.012
   0.46875000  0.21875000  0.03125000       0.012
   0.28125000  0.28125000  0.03125000       0.006
   0.34375000  0.28125000  0.03125000       0.012
   0.40625000  0.28125000  0.03125000       0.012
   0.46875000  0.28125000  0.03125000       0.012
   0.34375000  0.34375000  0.03125000       0.006
   0.40625000  0.34375000  0.03125000       0.012
   0.46875000  0.34375000  0.03125000       0.012
   0.40625000  0.40625000  0.03125000       0.006
   0.46875000  0.40625000  0.03125000       0.012
   0.46875000  0.46875000  0.03125000       0.006
   0.09375000  0.09375000  0.09375000       0.002
   0.15625000  0.09375000  0.09375000       0.006
   0.21875000  0.09375000  0.09375000       0.006
   0.28125000  0.09375000  0.09375000       0.006
   0.34375000  0.09375000  0.09375000       0.006
   0.40625000  0.09375000  0.09375000       0.006
   0.46875000  0.09375000  0.09375000       0.006
   0.15625000  0.15625000  0.09375000       0.006
   0.21875000  0.15625000  0.09375000       0.012
   0.28125000  0.15625000  0.09375000       0.012
   0.34375000  0.15625000  0.09375000       0.012
   0.40625000  0.15625000  0.09375000       0.012
   0.46875000  0.15625000  0.09375000       0.012
   0.21875000  0.21875000  0.09375000       0.006
   0.28125000  0.21875000  0.09375000       0.012
   0.34375000  0.21875000  0.09375000       0.012
   0.40625000  0.21875000  0.09375000       0.012
   0.46875000  0.21875000  0.09375000       0.012
   0.28125000  0.28125000  0.09375000       0.006
   0.34375000  0.28125000  0.09375000       0.012
   0.40625000  0.28125000  0.09375000       0.012
   0.46875000  0.28125000  0.09375000       0.012
   0.34375000  0.34375000  0.09375000       0.006
   0.40625000  0.34375000  0.09375000       0.012
   0.46875000  0.34375000  0.09375000       0.012
   0.40625000  0.40625000  0.09375000       0.006
   0.46875000  0.40625000  0.09375000       0.012
   0.46875000  0.46875000  0.09375000       0.006
   0.15625000  0.15625000  0.15625000       0.002
   0.21875000  0.15625000  0.15625000       0.006
   0.28125000  0.15625000  0.15625000       0.006
   0.34375000  0.15625000  0.15625000       0.006
   0.40625000  0.15625000  0.15625000       0.006
   0.46875000  0.15625000  0.15625000       0.006
   0.21875000  0.21875000  0.15625000       0.006
   0.28125000  0.21875000  0.15625000       0.012
   0.34375000  0.21875000  0.15625000       0.012
   0.40625000  0.21875000  0.15625000       0.012
   0.46875000  0.21875000  0.15625000       0.012
   0.28125000  0.28125000  0.15625000       0.006
   0.34375000  0.28125000  0.15625000       0.012
   0.40625000  0.28125000  0.15625000       0.012
   0.46875000  0.28125000  0.15625000       0.012
   0.34375000  0.34375000  0.15625000       0.006
   0.40625000  0.34375000  0.15625000       0.012
   0.46875000  0.34375000  0.15625000       0.012
   0.40625000  0.40625000  0.15625000       0.006
   0.46875000  0.40625000  0.15625000       0.012
   0.46875000  0.46875000  0.15625000       0.006
   0.21875000  0.21875000  0.21875000       0.002
   0.28125000  0.21875000  0.21875000       0.006
   0.34375000  0.21875000  0.21875000       0.006
   0.40625000  0.21875000  0.21875000       0.006
   0.46875000  0.21875000  0.21875000       0.006
   0.28125000  0.28125000  0.21875000       0.006
   0.34375000  0.28125000  0.21875000       0.012
   0.40625000  0.28125000  0.21875000       0.012
   0.46875000  0.28125000  0.21875000       0.012
   0.34375000  0.34375000  0.21875000       0.006
   0.40625000  0.34375000  0.21875000       0.012
   0.46875000  0.34375000  0.21875000       0.012
   0.40625000  0.40625000  0.21875000       0.006
   0.46875000  0.40625000  0.21875000       0.012
   0.46875000  0.46875000  0.21875000       0.006
   0.28125000  0.28125000  0.28125000       0.002
   0.34375000  0.28125000  0.28125000       0.006
   0.40625000  0.28125000  0.28125000       0.006
   0.46875000  0.28125000  0.28125000       0.006
   0.34375000  0.34375000  0.28125000       0.006
   0.40625000  0.34375000  0.28125000       0.012
   0.46875000  0.34375000  0.28125000       0.012
   0.40625000  0.40625000  0.28125000       0.006
   0.46875000  0.40625000  0.28125000       0.012
   0.46875000  0.46875000  0.28125000       0.006
   0.34375000  0.34375000  0.34375000       0.002
   0.40625000  0.34375000  0.34375000       0.006
   0.46875000  0.34375000  0.34375000       0.006
   0.40625000  0.40625000  0.34375000       0.006
   0.46875000  0.40625000  0.34375000       0.012
   0.46875000  0.46875000  0.34375000       0.006
   0.40625000  0.40625000  0.40625000       0.002
   0.46875000  0.40625000  0.40625000       0.006
   0.46875000  0.46875000  0.40625000       0.006
   0.46875000  0.46875000  0.46875000       0.002
 
 position of ions in fractional coordinates (direct lattice) 
   0.00000000  0.00000000  0.00000000
   0.25000000  0.25000000  0.25000000
   0.50000000  0.00000000  0.00000000
   0.75000000  0.25000000  0.25000000
   0.00000000  0.50000000  0.00000000
   0.25000000  0.75000000  0.25000000
   0.00000000  0.00000000  0.50000000
   0.25000000  0.25000000  0.75000000
   0.50000000  0.50000000  0.00000000
   0.75000000  0.75000000  0.25000000
   0.00000000  0.50000000  0.50000000
   0.25000000  0.75000000  0.75000000
   0.50000000  0.00000000  0.50000000
   0.75000000  0.25000000  0.75000000
   0.50000000  0.50000000  0.50000000
   0.75000000  0.75000000  0.75000000
 
 position of ions in cartesian coordinates  (Angst):
   0.00000000  0.00000000  0.00000000
   1.65040000  1.65040000  1.65040000
   3.30080000  0.00000000  0.00000000
   4.95120000  1.65040000  1.65040000
   0.00000000  3.30080000  0.00000000
   1.65040000  4.95120000  1.65040000
   0.00000000  0.00000000  3.30080000
   1.65040000  1.65040000  4.95120000
   3.30080000  3.30080000  0.00000000
   4.95120000  4.95120000  1.65040000
   0.00000000  3.30080000  3.30080000
   1.65040000  4.95120000  4.95120000
   3.30080000  0.00000000  3.30080000
   4.95120000  1.65040000  4.95120000
   3.30080000  3.30080000  3.30080000
   4.95120000  4.95120000  4.95120000
 


--------------------------------------------------------------------------------------------------------


 k-point  1 :   0.0312 0.0312 0.0312  plane waves:    3404
 k-point  2 :   0.0938 0.0312 0.0312  plane waves:    3383
 k-point  3 :   0.1563 0.0312 0.0312  plane waves:    3390
 k-point  4 :   0.2188 0.0312 0.0312  plane waves:    3397
 k-point  5 :   0.2812 0.0312 0.0312  plane waves:    3414
 k-point  6 :   0.3438 0.0312 0.0312  plane waves:    3406
 k-point  7 :   0.4063 0.0312 0.0312  plane waves:    3415
 k-point  8 :   0.4688 0.0312 0.0312  plane waves:    3410
 k-point  9 :   0.0938 0.0938 0.0312  plane waves:    3383
 k-point 10 :   0.1563 0.0938 0.0312  plane waves:    3393
 k-point 11 :   0.2188 0.0938 0.0312  plane waves:    3402
 k-point 12 :   0.2812 0.0938 0.0312  plane waves:    3408
 k-point 13 :   0.3438 0.0938 0.0312  plane waves:    3405
 k-point 14 :   0.4063 0.0938 0.0312  plane waves:    3397
 k-point 15 :   0.4688 0.0938 0.0312  plane waves:    3410
 k-point 16 :   0.1563 0.1563 0.0312  plane waves:    3389
 k-point 17 :   0.2188 0.1563 0.0312  plane waves:    3399
 k-point 18 :   0.2812 0.1563 0.0312  plane waves:    3401
 k-point 19 :   0.3438 0.1563 0.0312  plane waves:    3397
 k-point 20 :   0.4063 0.1563 0.0312  plane waves:    3390
 k-point 21 :   0.4688 0.1563 0.0312  plane waves:    3392
 k-point 22 :   0.2188 0.2188 0.0312  plane waves:    3406
 k-point 23 :   0.2812 0.2188 0.0312  plane waves:    3398
 k-point 24 :   0.3438 0.2188 0.0312  plane waves:    3397
 k-point 25 :   0.4063 0.2188 0.0312  plane waves:    3389
 k-point 26 :   0.4688 0.2188 0.0312  plane waves:    3391
 k-point 27 :   0.2812 0.2812 0.0312  plane waves:    3398
 k-point 28 :   0.3438 0.2812 0.0312  plane waves:    3393
 k-point 29 :   0.4063 0.2812 0.0312  plane waves:    3387
 k-point 30 :   0.4688 0.2812 0.0312  plane waves:    3387
 k-point 31 :   0.3438 0.3438 0.0312  plane waves:    3395
 k-point 32 :   0.4063 0.3438 0.0312  plane waves:    3396
 k-point 33 :   0.4688 0.3438 0.0312  plane waves:    3392
 k-point 34 :   0.4063 0.4063 0.0312  plane waves:    3404
 k-point 35 :   0.4688 0.4063 0.0312  plane waves:    3399
 k-point 36 :   0.4688 0.4688 0.0312  plane waves:    3394
 k-point 37 :   0.0938 0.0938 0.0938  plane waves:    3377
 k-point 38 :   0.1563 0.0938 0.0938  plane waves:    3400
 k-point 39 :   0.2188 0.0938 0.0938  plane waves:    3396
 k-point 40 :   0.2812 0.0938 0.0938  plane waves:    3407
 k-point 41 :   0.3438 0.0938 0.0938  plane waves:    3393
 k-point 42 :   0.4063 0.0938 0.0938  plane waves:    3406
 k-point 43 :   0.4688 0.0938 0.0938  plane waves:    3407
 k-point 44 :   0.1563 0.1563 0.0938  plane waves:    3394
 k-point 45 :   0.2188 0.1563 0.0938  plane waves:    3398
 k-point 46 :   0.2812 0.1563 0.0938  plane waves:    3389
 k-point 47 :   0.3438 0.1563 0.0938  plane waves:    3400
 k-point 48 :   0.4063 0.1563 0.0938  plane waves:    3399
 k-point 49 :   0.4688 0.1563 0.0938  plane waves:    3398
 k-point 50 :   0.2188 0.2188 0.0938  plane waves:    3400
 k-point 51 :   0.2812 0.2188 0.0938  plane waves:    3393
 k-point 52 :   0.3438 0.2188 0.0938  plane waves:    3389
 k-point 53 :   0.4063 0.2188 0.0938  plane waves:    3402
 k-point 54 :   0.4688 0.2188 0.0938  plane waves:    3395
 k-point 55 :   0.2812 0.2812 0.0938  plane waves:    3392
 k-point 56 :   0.3438 0.2812 0.0938  plane waves:    3396
 k-point 57 :   0.4063 0.2812 0.0938  plane waves:    3397
 k-point 58 :   0.4688 0.2812 0.0938  plane waves:    3393
 k-point 59 :   0.3438 0.3438 0.0938  plane waves:    3392
 k-point 60 :   0.4063 0.3438 0.0938  plane waves:    3398
 k-point 61 :   0.4688 0.3438 0.0938  plane waves:    3396
 k-point 62 :   0.4063 0.4063 0.0938  plane waves:    3391
 k-point 63 :   0.4688 0.4063 0.0938  plane waves:    3394
 k-point 64 :   0.4688 0.4688 0.0938  plane waves:    3390
 k-point 65 :   0.1563 0.1563 0.1563  plane waves:    3404
 k-point 66 :   0.2188 0.1563 0.1563  plane waves:    3402
 k-point 67 :   0.2812 0.1563 0.1563  plane waves:    3402
 k-point 68 :   0.3438 0.1563 0.1563  plane waves:    3402
 k-point 69 :   0.4063 0.1563 0.1563  plane waves:    3396
 k-point 70 :   0.4688 0.1563 0.1563  plane waves:    3396
 k-point 71 :   0.2188 0.2188 0.1563  plane waves:    3396
 k-point 72 :   0.2812 0.2188 0.1563  plane waves:    3395
 k-point 73 :   0.3438 0.2188 0.1563  plane waves:    3395
 k-point 74 :   0.4063 0.2188 0.1563  plane waves:    3395
 k-point 75 :   0.4688 0.2188 0.1563  plane waves:    3398
 k-point 76 :   0.2812 0.2812 0.1563  plane waves:    3389
 k-point 77 :   0.3438 0.2812 0.1563  plane waves:    3397
 k-point 78 :   0.4063 0.2812 0.1563  plane waves:    3402
 k-point 79 :   0.4688 0.2812 0.1563  plane waves:    3397
 k-point 80 :   0.3438 0.3438 0.1563  plane waves:    3387
 k-point 81 :   0.4063 0.3438 0.1563  plane waves:    3395
 k-point 82 :   0.4688 0.3438 0.1563  plane waves:    3391
 k-point 83 :   0.4063 0.4063 0.1563  plane waves:    3396
 k-point 84 :   0.4688 0.4063 0.1563  plane waves:    3396
 k-point 85 :   0.4688 0.4688 0.1563  plane waves:    3394
 k-point 86 :   0.2188 0.2188 0.2188  plane waves:    3398
 k-point 87 :   0.2812 0.2188 0.2188  plane waves:    3392
 k-point 88 :   0.3438 0.2188 0.2188  plane waves:    3394
 k-point 89 :   0.4063 0.2188 0.2188  plane waves:    3389
 k-point 90 :   0.4688 0.2188 0.2188  plane waves:    3387
 k-point 91 :   0.2812 0.2812 0.2188  plane waves:    3400
 k-point 92 :   0.3438 0.2812 0.2188  plane waves:    3392
 k-point 93 :   0.4063 0.2812 0.2188  plane waves:    3394
 k-point 94 :   0.4688 0.2812 0.2188  plane waves:    3393
 k-point 95 :   0.3438 0.3438 0.2188  plane waves:    3392
 k-point 96 :   0.4063 0.3438 0.2188  plane waves:    3392
 k-point 97 :   0.4688 0.3438 0.2188  plane waves:    3385
 k-point 98 :   0.4063 0.4063 0.2188  plane waves:    3380
 k-point 99 :   0.4688 0.4063 0.2188  plane waves:    3385
 k-point ** :   0.4688 0.4688 0.2188  plane waves:    3386
 k-point ** :   0.2812 0.2812 0.2812  plane waves:    3392
 k-point ** :   0.3438 0.2812 0.2812  plane waves:    3386
 k-point ** :   0.4063 0.2812 0.2812  plane waves:    3381
 k-point ** :   0.4688 0.2812 0.2812  plane waves:    3378
 k-point ** :   0.3438 0.3438 0.2812  plane waves:    3382
 k-point ** :   0.4063 0.3438 0.2812  plane waves:    3377
 k-point ** :   0.4688 0.3438 0.2812  plane waves:    3388
 k-point ** :   0.4063 0.4063 0.2812  plane waves:    3384
 k-point ** :   0.4688 0.4063 0.2812  plane waves:    3392
 k-point ** :   0.4688 0.4688 0.2812  plane waves:    3390
 k-point ** :   0.3438 0.3438 0.3438  plane waves:    3380
 k-point ** :   0.4063 0.3438 0.3438  plane waves:    3383
 k-point ** :   0.4688 0.3438 0.3438  plane waves:    3386
 k-point ** :   0.4063 0.4063 0.3438  plane waves:    3381
 k-point ** :   0.4688 0.4063 0.3438  plane waves:    3384
 k-point ** :   0.4688 0.4688 0.3438  plane waves:    3388
 k-point ** :   0.4063 0.4063 0.4063  plane waves:    3379
 k-point ** :   0.4688 0.4063 0.4063  plane waves:    3392
 k-point ** :   0.4688 0.4688 0.4063  plane waves:    3398
 k-point ** :   0.4688 0.4688 0.4688  plane waves:    3406

 maximum and minimum number of plane-waves per node :      3415     3377

 maximum number of plane-waves:      3415
 maximum index in each direction: 
   IXMAX=    9   IYMAX=    9   IZMAX=    9
   IXMIN=   -9   IYMIN=   -9   IZMIN=   -9


 serial   3D FFT for wavefunctions
 parallel 3D FFT for charge:
    minimum data exchange during FFTs selected (reduces bandwidth)


 total amount of memory used by VASP MPI-rank0   114004. kBytes
=======================================================================

   base      :      30000. kBytes
   nonl-proj :      60323. kBytes
   fftplans  :        572. kBytes
   grid      :       1204. kBytes
   one-center:        248. kBytes
   wavefun   :      21657. kBytes
 
     INWAV:  cpu time    0.0001: real time    0.0002
 initial charge density was supplied:
 number of electron     176.0000832 magnetization 
 keeping initial charge density in first step


--------------------------------------------------------------------------------------------------------


 Maximum index for augmentation-charges          341 (set IRDMAX)


--------------------------------------------------------------------------------------------------------


 First call to EWALD:  gamma=   0.268
 Maximum number of real-space cells 3x 3x 3
 Maximum number of reciprocal cells 3x 3x 3

    FEWALD:  cpu time    0.0021: real time    0.0031


--------------------------------------- Iteration      1(   1)  ---------------------------------------


    POTLOK:  cpu time    0.0079: real time    0.0151
    SETDIJ:  cpu time    0.0083: real time    0.0110
     EDDAV:  cpu time    8.1442: real time    8.2060
 BZINTS: Fermi energy: 15.649934;176.000000 electrons
         Band energy:-673.477083;  BLOECHL correction: -0.057880
       DOS:  cpu time    0.3828: real time    0.3878
    --------------------------------------------
      LOOP:  cpu time    8.5432: real time    8.6199

 eigenvalue-minimisations  : 31160
 total energy-change (2. order) : 0.1331017E+04  (-0.7056761E+04)
 number of electron     176.0000832 magnetization 
 augmentation part      176.0000832 magnetization 

 Free energy of the ion-electron system (eV)
  ---------------------------------------------------
  alpha Z        PSCENC =      1996.84190797
  Ewald energy   TEWEN  =    -15368.17067784
  -Hartree energ DENC   =     -1922.08918475
  -exchange      EXHF   =         0.00000000
  -V(xc)+E(xc)   XCENC  =       422.99589016
  PAW double counting   =     23987.23605472   -23854.13056809
  entropy T*S    EENTRO =         0.00000000
  eigenvalues    EBANDS =      -673.47708303
  atomic energy  EATOM  =     16741.81022793
  Solvation  Ediel_sol  =         0.00000000
  ---------------------------------------------------
  free energy    TOTEN  =      1331.01656708 eV

  energy without entropy =     1331.01656708  energy(sigma->0) =     1331.01656708


--------------------------------------------------------------------------------------------------------




--------------------------------------- Iteration      1(   2)  ---------------------------------------


     EDDAV:  cpu time    7.7250: real time    7.7818
 BZINTS: Fermi energy:  6.221459;176.000000 electrons
         Band energy:***********;  BLOECHL correction: -0.183523
       DOS:  cpu time    0.4057: real time    0.4516
    --------------------------------------------
      LOOP:  cpu time    8.1307: real time    8.2334

 eigenvalue-minimisations  : 29200
 total energy-change (2. order) :-0.1437065E+04  (-0.1409149E+04)
 number of electron     176.0000832 magnetization 
 augmentation part      176.0000832 magnetization 

 Free energy of the ion-electron system (eV)
  ---------------------------------------------------
  alpha Z        PSCENC =      1996.84190797
  Ewald energy   TEWEN  =    -15368.17067784
  -Hartree energ DENC   =     -1922.08918475
  -exchange      EXHF   =         0.00000000
  -V(xc)+E(xc)   XCENC  =       422.99589016
  PAW double counting   =     23987.23605472   -23854.13056809
  entropy T*S    EENTRO =         0.00000000
  eigenvalues    EBANDS =     -2110.54213988
  atomic energy  EATOM  =     16741.81022793
  Solvation  Ediel_sol  =         0.00000000
  ---------------------------------------------------
  free energy    TOTEN  =      -106.04848977 eV

  energy without entropy =     -106.04848977  energy(sigma->0) =     -106.04848977


--------------------------------------------------------------------------------------------------------




--------------------------------------- Iteration      1(   3)  ---------------------------------------


     EDDAV:  cpu time   11.7936: real time   11.8350
 BZINTS: Fermi energy:  4.869286;176.000000 electrons
         Band energy:***********;  BLOECHL correction: -0.070466
       DOS:  cpu time    0.4092: real time    0.4102
    --------------------------------------------
      LOOP:  cpu time   12.2028: real time   12.2452

 eigenvalue-minimisations  : 42520
 total energy-change (2. order) :-0.7017122E+02  (-0.6635526E+02)
 number of electron     176.0000832 magnetization 
 augmentation part      176.0000832 magnetization 

 Free energy of the ion-electron system (eV)
  ---------------------------------------------------
  alpha Z        PSCENC =      1996.84190797
  Ewald energy   TEWEN  =    -15368.17067784
  -Hartree energ DENC   =     -1922.08918475
  -exchange      EXHF   =         0.00000000
  -V(xc)+E(xc)   XCENC  =       422.99589016
  PAW double counting   =     23987.23605472   -23854.13056809
  entropy T*S    EENTRO =         0.00000000
  eigenvalues    EBANDS =     -2180.71336307
  atomic energy  EATOM  =     16741.81022793
  Solvation  Ediel_sol  =         0.00000000
  ---------------------------------------------------
  free energy    TOTEN  =      -176.21971296 eV

  energy without entropy =     -176.21971296  energy(sigma->0) =     -176.21971296


--------------------------------------------------------------------------------------------------------




--------------------------------------- Iteration      1(   4)  ---------------------------------------


     EDDAV:  cpu time    9.2494: real time    9.2868
 BZINTS: Fermi energy:  4.842599;176.000000 electrons
         Band energy:***********;  BLOECHL correction: -0.069733
       DOS:  cpu time    0.4123: real time    0.4133
    --------------------------------------------
      LOOP:  cpu time    9.6617: real time    9.7000

 eigenvalue-minimisations  : 34800
 total energy-change (2. order) :-0.1881695E+01  (-0.1872549E+01)
 number of electron     176.0000832 magnetization 
 augmentation part      176.0000832 magnetization 

 Free energy of the ion-electron system (eV)
  ---------------------------------------------------
  alpha Z        PSCENC =      1996.84190797
  Ewald energy   TEWEN  =    -15368.17067784
  -Hartree energ DENC   =     -1922.08918475
  -exchange      EXHF   =         0.00000000
  -V(xc)+E(xc)   XCENC  =       422.99589016
  PAW double counting   =     23987.23605472   -23854.13056809
  entropy T*S    EENTRO =         0.00000000
  eigenvalues    EBANDS =     -2182.59505836
  atomic energy  EATOM  =     16741.81022793
  Solvation  Ediel_sol  =         0.00000000
  ---------------------------------------------------
  free energy    TOTEN  =      -178.10140825 eV

  energy without entropy =     -178.10140825  energy(sigma->0) =     -178.10140825


--------------------------------------------------------------------------------------------------------




--------------------------------------- Iteration      1(   5)  ---------------------------------------


     EDDAV:  cpu time   11.7297: real time   11.7805
 BZINTS: Fermi energy:  4.841227;176.000000 electrons
         Band energy:***********;  BLOECHL correction: -0.069778
       DOS:  cpu time    0.4237: real time    0.4248
    --------------------------------------------
      LOOP:  cpu time   12.1534: real time   12.2053

 eigenvalue-minimisations  : 42080
 total energy-change (2. order) :-0.8733926E-01  (-0.8722172E-01)
 number of electron     176.0000832 magnetization 
 augmentation part      176.0000832 magnetization 

 Free energy of the ion-electron system (eV)
  ---------------------------------------------------
  alpha Z        PSCENC =      1996.84190797
  Ewald energy   TEWEN  =    -15368.17067784
  -Hartree energ DENC   =     -1922.08918475
  -exchange      EXHF   =         0.00000000
  -V(xc)+E(xc)   XCENC  =       422.99589016
  PAW double counting   =     23987.23605472   -23854.13056809
  entropy T*S    EENTRO =         0.00000000
  eigenvalues    EBANDS =     -2182.68239761
  atomic energy  EATOM  =     16741.81022793
  Solvation  Ediel_sol  =         0.00000000
  ---------------------------------------------------
  free energy    TOTEN  =      -178.18874750 eV

  energy without entropy =     -178.18874750  energy(sigma->0) =     -178.18874750


--------------------------------------------------------------------------------------------------------




--------------------------------------- Iteration      1(   6)  ---------------------------------------


     EDDAV:  cpu time    9.3439: real time    9.3781
 BZINTS: Fermi energy:  4.841222;176.000000 electrons
         Band energy:***********;  BLOECHL correction: -0.069777
       DOS:  cpu time    0.3822: real time    0.3832
    --------------------------------------------
      LOOP:  cpu time    9.7261: real time    9.7613

 eigenvalue-minimisations  : 34800
 total energy-change (2. order) :-0.9421206E-03  (-0.9419621E-03)
 number of electron     176.0000832 magnetization 
 augmentation part      176.0000832 magnetization 

 Free energy of the ion-electron system (eV)
  ---------------------------------------------------
  alpha Z        PSCENC =      1996.84190797
  Ewald energy   TEWEN  =    -15368.17067784
  -Hartree energ DENC   =     -1922.08918475
  -exchange      EXHF   =         0.00000000
  -V(xc)+E(xc)   XCENC  =       422.99589016
  PAW double counting   =     23987.23605472   -23854.13056809
  entropy T*S    EENTRO =         0.00000000
  eigenvalues    EBANDS =     -2182.68333973
  atomic energy  EATOM  =     16741.81022793
  Solvation  Ediel_sol  =         0.00000000
  ---------------------------------------------------
  free energy    TOTEN  =      -178.18968962 eV

  energy without entropy =     -178.18968962  energy(sigma->0) =     -178.18968962


--------------------------------------------------------------------------------------------------------




--------------------------------------- Iteration      1(   7)  ---------------------------------------


     EDDAV:  cpu time   12.1708: real time   12.2157
 BZINTS: Fermi energy:  4.841222;176.000000 electrons
         Band energy:***********;  BLOECHL correction: -0.069777
       DOS:  cpu time    0.4139: real time    0.4154
    --------------------------------------------
      LOOP:  cpu time   12.5847: real time   12.6311

 eigenvalue-minimisations  : 42920
 total energy-change (2. order) :-0.3946801E-04  (-0.3946610E-04)
 number of electron     176.0000832 magnetization 
 augmentation part      176.0000832 magnetization 

 Free energy of the ion-electron system (eV)
  ---------------------------------------------------
  alpha Z        PSCENC =      1996.84190797
  Ewald energy   TEWEN  =    -15368.17067784
  -Hartree energ DENC   =     -1922.08918475
  -exchange      EXHF   =         0.00000000
  -V(xc)+E(xc)   XCENC  =       422.99589016
  PAW double counting   =     23987.23605472   -23854.13056809
  entropy T*S    EENTRO =         0.00000000
  eigenvalues    EBANDS =     -2182.68337920
  atomic energy  EATOM  =     16741.81022793
  Solvation  Ediel_sol  =         0.00000000
  ---------------------------------------------------
  free energy    TOTEN  =      -178.18972909 eV

  energy without entropy =     -178.18972909  energy(sigma->0) =     -178.18972909


--------------------------------------------------------------------------------------------------------




--------------------------------------- Iteration      1(   8)  ---------------------------------------


     EDDAV:  cpu time   10.1619: real time   10.2433
 BZINTS: Fermi energy:  4.841222;176.000000 electrons
         Band energy:***********;  BLOECHL correction: -0.069777
       DOS:  cpu time    0.3821: real time    0.3830
    --------------------------------------------
      LOOP:  cpu time   10.5440: real time   10.6263

 eigenvalue-minimisations  : 36800
 total energy-change (2. order) :-0.3698333E-06  (-0.3694791E-06)
 number of electron     176.0000832 magnetization 
 augmentation part      176.0000832 magnetization 

 Free energy of the ion-electron system (eV)
  ---------------------------------------------------
  alpha Z        PSCENC =      1996.84190797
  Ewald energy   TEWEN  =    -15368.17067784
  -Hartree energ DENC   =     -1922.08918475
  -exchange      EXHF   =         0.00000000
  -V(xc)+E(xc)   XCENC  =       422.99589016
  PAW double counting   =     23987.23605472   -23854.13056809
  entropy T*S    EENTRO =         0.00000000
  eigenvalues    EBANDS =     -2182.68337957
  atomic energy  EATOM  =     16741.81022793
  Solvation  Ediel_sol  =         0.00000000
  ---------------------------------------------------
  free energy    TOTEN  =      -178.18972946 eV

  energy without entropy =     -178.18972946  energy(sigma->0) =     -178.18972946


--------------------------------------------------------------------------------------------------------




--------------------------------------- Iteration      1(   9)  ---------------------------------------


     EDDAV:  cpu time    9.4807: real time    9.5150
 BZINTS: Fermi energy:  4.841222;176.000000 electrons
         Band energy:***********;  BLOECHL correction: -0.069777
       DOS:  cpu time    0.4138: real time    0.4148
    --------------------------------------------
      LOOP:  cpu time    9.8946: real time    9.9298

 eigenvalue-minimisations  : 31800
 total energy-change (2. order) :-0.1283479E-07  (-0.1275867E-07)
 number of electron     176.0000832 magnetization 
 augmentation part      176.0000832 magnetization 

 Free energy of the ion-electron system (eV)
  ---------------------------------------------------
  alpha Z        PSCENC =      1996.84190797
  Ewald energy   TEWEN  =    -15368.17067784
  -Hartree energ DENC   =     -1922.08918475
  -exchange      EXHF   =         0.00000000
  -V(xc)+E(xc)   XCENC  =       422.99589016
  PAW double counting   =     23987.23605472   -23854.13056809
  entropy T*S    EENTRO =         0.00000000
  eigenvalues    EBANDS =     -2182.68337958
  atomic energy  EATOM  =     16741.81022793
  Solvation  Ediel_sol  =         0.00000000
  ---------------------------------------------------
  free energy    TOTEN  =      -178.18972947 eV

  energy without entropy =     -178.18972947  energy(sigma->0) =     -178.18972947


--------------------------------------------------------------------------------------------------------




 average (electrostatic) potential at core
  the test charge radii are     1.2165
  (the norm of the test charge is              1.0000)
       1 -34.9050       2 -34.9050       3 -34.9050       4 -34.9050       5 -34.9050
       6 -34.9050       7 -34.9050       8 -34.9050       9 -34.9050      10 -34.9050
      11 -34.9050      12 -34.9050      13 -34.9050      14 -34.9050      15 -34.9050
      16 -34.9050
 
 
 
 E-fermi :   4.8412     XC(G=0): -12.6478     alpha+bet :-12.9149


 k-point     1 :       0.0312    0.0312    0.0312
  band No.  band energies     occupation 
      1     -26.0718      2.00000
      2     -26.0718      2.00000
      3     -26.0718      2.00000
      4     -26.0698      2.00000
      5     -26.0698      2.00000
      6     -26.0698      2.00000
      7     -25.6376      2.00000
      8     -25.6376      2.00000
      9     -25.6328      2.00000
     10     -25.4719      2.00000
     11     -25.4719      2.00000
     12     -25.4719      2.00000
     13     -25.4600      2.00000
     14     -25.4270      2.00000
     15     -25.4270      2.00000
     16     -25.4270      2.00000
     17     -25.4268      2.00000
     18     -25.4268      2.00000
     19     -25.3595      2.00000
     20     -25.3595      2.00000
     21     -25.3258      2.00000
     22     -25.1796      2.00000
     23     -25.1796      2.00000
     24     -25.1796      2.00000
     25     -25.1714      2.00000
     26     -25.1714      2.00000
     27     -25.1714      2.00000
     28     -25.1330      2.00000
     29     -25.1330      2.00000
     30     -25.1330      2.00000
     31     -25.1291      2.00000
     32     -25.1291      2.00000
     33     -25.1291      2.00000
     34     -25.1268      2.00000
     35     -25.1268      2.00000
     36     -25.1268      2.00000
     37     -25.1251      2.00000
     38     -25.1251      2.00000
     39     -25.1251      2.00000
     40     -24.7073      2.00000
     41     -24.7073      2.00000
     42     -24.7073      2.00000
     43     -24.7049      2.00000
     44     -24.7049      2.00000
     45     -24.7049      2.00000
     46     -24.6968      2.00000
     47     -24.6913      2.00000
     48     -24.6913      2.00000
     49      -1.0728      2.00000
     50       1.0932      2.00000
     51       1.0932      2.00000
     52       1.0993      2.00000
     53       1.0993      2.00000
     54       1.0993      2.00000
     55       1.1046      2.00000
     56       1.1046      2.00000
     57       1.1046      2.00000
     58       2.2573      2.00000
     59       2.2573      2.00000
     60       2.2573      2.00000
     61       2.4391      2.00000
     62       2.4391      2.00000
     63       2.4391      2.00000
     64       3.1425      2.00000
     65       3.1425      2.00000
     66       3.1425      2.00000
     67       3.1493      2.00000
     68       3.1493      2.00000
     69       3.1493      2.00000
     70       3.5838      2.00000
     71       3.6149      2.00000
     72       3.6149      2.00000
     73       3.6149      2.00000
     74       3.6672      2.00000
     75       3.6672      2.00000
     76       3.8152      2.00000
     77       3.8152      2.00000
     78       3.8783      2.00000
     79       3.9250      2.00000
     80       3.9250      2.00000
     81       3.9250      2.00000
     82       5.1575      0.00000
     83       5.1575      0.00000
     84       5.1818      0.00000
     85       5.7007      0.00000
     86       5.7007      0.00000
     87       5.7007      0.00000
     88       5.7487      0.00000
     89       5.7487      0.00000
     90       5.7487      0.00000
     91       5.8687      0.00000
     92       5.8687      0.00000
     93       5.8687      0.00000
     94       5.9165      0.00000
     95       5.9165      0.00000
     96       5.9165      0.00000
     97       7.1336      0.00000
     98       7.1336      0.00000
     99       7.1336      0.00000
    100       7.1719      0.00000
    101       7.1719      0.00000
    102       7.1719      0.00000
    103       7.3040      0.00000
    104       7.3040      0.00000
    105       7.3040      0.00000
    106       7.5526      0.00000
    107       7.5526      0.00000
    108       7.5526      0.00000
    109       8.0715      0.00000
    110       8.0715      0.00000
    111       8.0913      0.00000
    112       8.0913      0.00000
    113       8.0913      0.00000
    114       8.1181      0.00000
    115       8.1181      0.00000
    116       8.1181      0.00000
    117       8.7892      0.00000
    118       8.7985      0.00000
    119       8.8372      0.00000
    120       8.8926      0.00000

 k-point     2 :       0.0938    0.0312    0.0312
  band No.  band energies     occupation 
      1     -26.0657      2.00000
      2     -26.0657      2.00000
      3     -26.0653      2.00000
      4     -26.0634      2.00000
      5     -26.0596      2.00000
      6     -26.0596      2.00000
      7     -25.6408      2.00000
      8     -25.6329      2.00000
      9     -25.6256      2.00000
     10     -25.5114      2.00000
     11     -25.5109      2.00000
     12     -25.4987      2.00000
     13     -25.4987      2.00000
     14     -25.4936      2.00000
     15     -25.4545      2.00000
     16     -25.4545      2.00000
     17     -25.4077      2.00000
     18     -25.3771      2.00000
     19     -25.3702      2.00000
     20     -25.2925      2.00000
     21     -25.2732      2.00000
     22     -25.2261      2.00000
     23     -25.2177      2.00000
     24     -25.1795      2.00000
     25     -25.1795      2.00000
     26     -25.1469      2.00000
     27     -25.1469      2.00000
     28     -25.1344      2.00000
     29     -25.1332      2.00000
     30     -25.1332      2.00000
     31     -25.1320      2.00000
     32     -25.1320      2.00000
     33     -25.1319      2.00000
     34     -25.1250      2.00000
     35     -25.1250      2.00000
     36     -25.1010      2.00000
     37     -25.1010      2.00000
     38     -25.0868      2.00000
     39     -25.0792      2.00000
     40     -24.7144      2.00000
     41     -24.7144      2.00000
     42     -24.7137      2.00000
     43     -24.7115      2.00000
     44     -24.7093      2.00000
     45     -24.7071      2.00000
     46     -24.7071      2.00000
     47     -24.6957      2.00000
     48     -24.6935      2.00000
     49      -1.0316      2.00000
     50       1.1153      2.00000
     51       1.1178      2.00000
     52       1.1178      2.00000
     53       1.1290      2.00000
     54       1.1332      2.00000
     55       1.1332      2.00000
     56       1.1408      2.00000
     57       1.1457      2.00000
     58       2.0285      2.00000
     59       2.2558      2.00000
     60       2.2558      2.00000
     61       2.4374      2.00000
     62       2.4374      2.00000
     63       2.5642      2.00000
     64       3.1401      2.00000
     65       3.1463      2.00000
     66       3.1653      2.00000
     67       3.1653      2.00000
     68       3.1847      2.00000
     69       3.1847      2.00000
     70       3.3176      2.00000
     71       3.4689      2.00000
     72       3.5387      2.00000
     73       3.6042      2.00000
     74       3.6042      2.00000
     75       3.6490      2.00000
     76       3.7379      2.00000
     77       3.9006      2.00000
     78       3.9006      2.00000
     79       3.9826      2.00000
     80       3.9975      2.00000
     81       4.2450      2.00000
     82       5.1418      0.00000
     83       5.1529      0.00000
[...]
     53       1.9249      2.00000
     54       2.0945      2.00000
     55       2.0945      2.00000
     56       2.3010      2.00000
     57       2.8429      2.00000
     58       2.9019      2.00000
     59       2.9019      2.00000
     60       2.9111      2.00000
     61       3.0070      2.00000
     62       3.0747      2.00000
     63       3.0747      2.00000
     64       3.1060      2.00000
     65       3.1646      2.00000
     66       3.1725      2.00000
     67       3.1725      2.00000
     68       3.1933      2.00000
     69       3.3851      2.00000
     70       3.4072      2.00000
     71       3.4072      2.00000
     72       3.4421      2.00000
     73       3.5666      2.00000
     74       3.5733      2.00000
     75       3.6017      2.00000
     76       3.6017      2.00000
     77       3.6749      2.00000
     78       3.6928      2.00000
     79       3.6928      2.00000
     80       3.7009      2.00000
     81       3.7063      2.00000
     82       3.7063      2.00000
     83       3.7114      2.00000
     84       3.7368      2.00000
     85       3.7694      2.00000
     86       3.7841      2.00000
     87       3.8038      2.00000
     88       3.8038      2.00000
     89       3.8627      2.00000
     90       3.8780      2.00000
     91       3.8832      2.00000
     92       3.8832      2.00000
     93       3.9277      2.00000
     94       3.9551      2.00000
     95       3.9551      2.00000
     96       4.1250      2.00237
     97       7.9045      0.00000
     98       7.9045      0.00000
     99       7.9410      0.00000
    100       7.9539      0.00000
    101       7.9624      0.00000
    102       8.0608      0.00000
    103       8.0608      0.00000
    104       8.1200      0.00000
    105       8.1714      0.00000
    106       8.2030      0.00000
    107       8.2335      0.00000
    108       8.2335      0.00000
    109       8.2481      0.00000
    110       8.2654      0.00000
    111       8.2662      0.00000
    112       8.2662      0.00000
    113       8.3267      0.00000
    114       8.3267      0.00000
    115       8.3431      0.00000
    116       8.3519      0.00000
    117       8.3519      0.00000
    118       8.3571      0.00000
    119       8.4101      0.00000
    120       8.5419      0.00000

 k-point   120 :       0.4688    0.4688    0.4688
  band No.  band energies     occupation 
      1     -25.7273      2.00000
      2     -25.7273      2.00000
      3     -25.7273      2.00000
      4     -25.7253      2.00000
      5     -25.7253      2.00000
      6     -25.7253      2.00000
      7     -25.6893      2.00000
      8     -25.6893      2.00000
      9     -25.6860      2.00000
     10     -25.6860      2.00000
     11     -25.6599      2.00000
     12     -25.6494      2.00000
     13     -25.6494      2.00000
     14     -25.6494      2.00000
     15     -25.6456      2.00000
     16     -25.6456      2.00000
     17     -25.6456      2.00000
     18     -25.6274      2.00000
     19     -25.6274      2.00000
     20     -25.6274      2.00000
     21     -25.5895      2.00000
     22     -25.5895      2.00000
     23     -25.5895      2.00000
     24     -25.5472      2.00000
     25     -24.9982      2.00000
     26     -24.9686      2.00000
     27     -24.9686      2.00000
     28     -24.9686      2.00000
     29     -24.9421      2.00000
     30     -24.9421      2.00000
     31     -24.9421      2.00000
     32     -24.9192      2.00000
     33     -24.8987      2.00000
     34     -24.8987      2.00000
     35     -24.8987      2.00000
     36     -24.8904      2.00000
     37     -24.8904      2.00000
     38     -24.8816      2.00000
     39     -24.8816      2.00000
     40     -24.8816      2.00000
     41     -24.8496      2.00000
     42     -24.8496      2.00000
     43     -24.8496      2.00000
     44     -24.8424      2.00000
     45     -24.8424      2.00000
     46     -24.8353      2.00000
     47     -24.8353      2.00000
     48     -24.8353      2.00000
     49       1.5907      2.00000
     50       1.7686      2.00000
     51       1.7686      2.00000
     52       1.7686      2.00000
     53       1.9462      2.00000
     54       1.9462      2.00000
     55       1.9462      2.00000
     56       2.1414      2.00000
     57       3.0577      2.00000
     58       3.0577      2.00000
     59       3.1109      2.00000
     60       3.1109      2.00000
     61       3.1109      2.00000
     62       3.1520      2.00000
     63       3.1520      2.00000
     64       3.1520      2.00000
     65       3.2209      2.00000
     66       3.2209      2.00000
     67       3.2209      2.00000
     68       3.2971      2.00000
     69       3.4065      2.00000
     70       3.4065      2.00000
     71       3.4065      2.00000
     72       3.4261      2.00000
     73       3.4261      2.00000
     74       3.5394      2.00000
     75       3.5394      2.00000
     76       3.5394      2.00000
     77       3.6104      2.00000
     78       3.6104      2.00000
     79       3.6593      2.00000
     80       3.6593      2.00000
     81       3.6593      2.00000
     82       3.7140      2.00000
     83       3.7140      2.00000
     84       3.7140      2.00000
     85       3.7146      2.00000
     86       3.7146      2.00000
     87       3.7146      2.00000
     88       3.7491      2.00000
     89       3.7491      2.00000
     90       3.7491      2.00000
     91       3.7571      2.00000
     92       3.7571      2.00000
     93       3.7571      2.00000
     94       3.8167      2.00000
     95       3.8167      2.00000
     96       3.8760      2.00000
     97       8.0172      0.00000
     98       8.0172      0.00000
     99       8.0172      0.00000
    100       8.0731      0.00000
    101       8.0731      0.00000
    102       8.0819      0.00000
    103       8.0819      0.00000
    104       8.0819      0.00000
    105       8.2105      0.00000
    106       8.2105      0.00000
    107       8.2137      0.00000
    108       8.2137      0.00000
    109       8.2137      0.00000
    110       8.2420      0.00000
    111       8.2420      0.00000
    112       8.2420      0.00000
    113       8.4291      0.00000
    114       8.4291      0.00000
    115       8.4291      0.00000
    116       8.4761      0.00000
    117       8.4762      0.00000
    118       8.4763      0.00000
    119       8.6115      0.00000
    120       8.6125      0.00000


--------------------------------------------------------------------------------------------------------


 soft charge-density along one line, spin component           1
         0         1         2         3         4         5         6         7         8         9
 total charge-density along one line
 
 pseudopotential strength for first ion, spin component:           1
-27.828   0.000  -0.000   0.000   0.000   0.000   5.815   0.000   0.000   0.000  -0.000   0.000   0.000   0.000  -0.000   0.000
 -0.000   0.000 -27.828   0.000   0.000   0.000   0.000   0.000   5.815   0.000  -0.000   0.000   0.000   0.000  -0.000   0.000
  0.000   0.000   0.000   0.000 -27.828   0.000  -0.000   0.000  -0.000   0.000   5.815   0.000  -0.000   0.000   0.000   0.000
  5.815   0.000   0.000   0.000  -0.000   0.000   4.386   0.000  -0.000   0.000   0.000   0.000  -0.000   0.000   0.000   0.000
  0.000   0.000   5.815   0.000  -0.000   0.000  -0.000   0.000   4.386   0.000   0.000   0.000  -0.000   0.000   0.000   0.000
 -0.000   0.000  -0.000   0.000   5.815   0.000   0.000   0.000   0.000   0.000   4.386   0.000   0.000   0.000  -0.000   0.000
  0.000   0.000   0.000   0.000  -0.000   0.000  -0.000   0.000  -0.000   0.000   0.000   0.000  -6.227   0.000   0.000   0.000
 -0.000   0.000  -0.000   0.000   0.000   0.000   0.000   0.000   0.000   0.000  -0.000   0.000   0.000   0.000  -6.227   0.000
  0.000   0.000  -0.000   0.000  -0.000   0.000  -0.000   0.000   0.000   0.000   0.000   0.000  -0.000   0.000  -0.000   0.000
  0.000   0.000   0.000   0.000  -0.000   0.000  -0.000   0.000  -0.000   0.000   0.000   0.000  -0.000   0.000   0.000   0.000
  0.000   0.000  -0.000   0.000   0.000   0.000  -0.000   0.000   0.000   0.000  -0.000   0.000   0.000   0.000   0.000   0.000
  0.000   0.000   0.000   0.000  -0.000   0.000  -0.000   0.000  -0.000   0.000   0.000   0.000  -7.057   0.000   0.000   0.000
 -0.000   0.000  -0.000   0.000   0.000   0.000   0.000   0.000   0.000   0.000  -0.000   0.000   0.000   0.000  -7.057   0.000
  0.000   0.000  -0.000   0.000  -0.000   0.000  -0.000   0.000   0.000   0.000   0.000   0.000  -0.000   0.000  -0.000   0.000
  0.000   0.000   0.000   0.000  -0.000   0.000  -0.000   0.000  -0.000   0.000   0.000   0.000  -0.000   0.000   0.000   0.000
  0.000   0.000  -0.000   0.000   0.000   0.000  -0.000   0.000   0.000   0.000  -0.000   0.000   0.000   0.000   0.000   0.000
  0.000   0.000   0.000   0.000  -0.000   0.000  -0.000   0.000  -0.000   0.000   0.000   0.000  -0.000   0.000   0.000   0.000
 -0.000   0.000  -0.000   0.000   0.000   0.000  -0.000   0.000  -0.000   0.000   0.000   0.000   0.000   0.000  -0.000   0.000
 total augmentation occupancy for first ion, spin component:           1
  2.000   0.000   0.000   0.000   0.000   0.000   0.000   0.000   0.000   0.000   0.000   0.000   0.000   0.000   0.000   0.000
  0.000   2.000   0.000   0.000   0.000   0.000   0.000   0.000   0.000   0.000   0.000   0.000   0.000   0.000   0.000   0.000
  0.000   0.000   2.000   0.000   0.000   0.000   0.000   0.000   0.000   0.000   0.000   0.000   0.000   0.000   0.000   0.000
  0.000   0.000   0.000   0.000   0.000   0.000   0.000   0.000   0.000   0.000   0.000   0.000   0.000   0.000   0.000   0.000
  0.000   0.000   0.000   0.000   0.000   0.000   0.000   0.000   0.000   0.000   0.000   0.000   0.000   0.000   0.000   0.000
  0.000   0.000   0.000   0.000   0.000   0.000   0.000   0.000   0.000   0.000   0.000   0.000   0.000   0.000   0.000   0.000
  0.000   0.000   0.000   0.000   0.000   0.000   0.800   0.000   0.000   0.000   0.000   0.000   0.000   0.000   0.000   0.000
  0.000   0.000   0.000   0.000   0.000   0.000   0.000   0.800   0.000   0.000   0.000   0.000   0.000   0.000   0.000   0.000
  0.000   0.000   0.000   0.000   0.000   0.000   0.000   0.000   0.800   0.000   0.000   0.000   0.000   0.000   0.000   0.000
  0.000   0.000   0.000   0.000   0.000   0.000   0.000   0.000   0.000   0.800   0.000   0.000   0.000   0.000   0.000   0.000
  0.000   0.000   0.000   0.000   0.000   0.000   0.000   0.000   0.000   0.000   0.800   0.000   0.000   0.000   0.000   0.000
  0.000   0.000   0.000   0.000   0.000   0.000   0.000   0.000   0.000   0.000   0.000   0.000   0.000   0.000   0.000   0.000
  0.000   0.000   0.000   0.000   0.000   0.000   0.000   0.000   0.000   0.000   0.000   0.000   0.000   0.000   0.000   0.000
  0.000   0.000   0.000   0.000   0.000   0.000   0.000   0.000   0.000   0.000   0.000   0.000   0.000   0.000   0.000   0.000
  0.000   0.000   0.000   0.000   0.000   0.000   0.000   0.000   0.000   0.000   0.000   0.000   0.000   0.000   0.000   0.000
  0.000   0.000   0.000   0.000   0.000   0.000   0.000   0.000   0.000   0.000   0.000   0.000   0.000   0.000   0.000   0.000
  0.000   0.000   0.000   0.000   0.000   0.000   0.000   0.000   0.000   0.000   0.000   0.000   0.000   0.000   0.000   0.000
  0.000   0.000   0.000   0.000   0.000   0.000   0.000   0.000   0.000   0.000   0.000   0.000   0.000   0.000   0.000   0.000


------------------------ aborting loop because EDIFF is reached ----------------------------------------


    CHARGE:  cpu time    0.1444: real time    0.1521
    FORLOC:  cpu time    0.0011: real time    0.0018
    FORNL :  cpu time    2.9220: real time    2.9326
    STRESS:  cpu time    4.7003: real time    4.7164
    FORCOR:  cpu time    0.0030: real time    0.0042
    FORHAR:  cpu time    0.0021: real time    0.0027
    OFIELD:  cpu time    0.0003: real time    0.0012

  FORCE on cell =-STRESS in cart. coord.  units (eV):
  Direction    XX          YY          ZZ          XY          YZ          ZX
  --------------------------------------------------------------------------------------
  Alpha Z  1996.84191  1996.84191  1996.84191
  Ewald   -5122.73989 -5122.73989 -5122.73989     0.00000     0.00000     0.00000
  Hartree   640.75025   640.75025   640.75025    -0.00000    -0.00000    -0.00000
  E(xc)    -750.16972  -750.16972  -750.16972     0.00000    -0.00000     0.00000
  Local    1644.51148  1644.51148  1644.51148     0.00000    -0.00000    -0.00000
  n-local  -665.09550  -671.93929  -674.34106    -4.69903    -2.75817    -2.67169
  augment   418.78818   418.78818   418.78818     0.00000     0.00000     0.00000
  Kinetic  1844.53510  1828.70478  1817.68124   -11.69113    -3.89605    -5.64449
  Fock        0.00000     0.00000     0.00000     0.00000     0.00000     0.00000
  -------------------------------------------------------------------------------------
  Total     -12.16936   -12.16936   -12.16936     0.00000     0.00000    -0.00000
  in kB     -67.76896   -67.76896   -67.76896     0.00000     0.00000    -0.00000
  external pressure =      -67.77 kB  Pullay stress =        0.00 kB


 VOLUME and BASIS-vectors are now :
 -----------------------------------------------------------------------------
  energy-cutoff  :      300.00
  volume of cell :      287.71
      direct lattice vectors                 reciprocal lattice vectors
     6.601600000  0.000000000  0.000000000     0.151478429  0.000000000  0.000000000
     0.000000000  6.601600000  0.000000000     0.000000000  0.151478429  0.000000000
     0.000000000  0.000000000  6.601600000     0.000000000  0.000000000  0.151478429

  length of vectors
     6.601600000  6.601600000  6.601600000     0.151478429  0.151478429  0.151478429


 FORCES acting on ions
    electron-ion (+dipol)            ewald-force                    non-local-force                 convergence-correction
 -----------------------------------------------------------------------------------------------
   -.470E-13 0.177E-13 0.546E-14   0.128E-12 0.426E-13 0.711E-13   -.148E-20 0.169E-20 -.101E-20   0.463E-13 -.161E-13 -.744E-14
   0.755E-13 0.165E-12 0.100E-12   0.128E-12 0.840E-13 0.843E-13   0.212E-20 0.000E+00 0.529E-22   -.265E-13 -.823E-13 -.230E-13
   0.233E-12 0.253E-13 0.110E-13   0.426E-13 0.284E-13 0.426E-13   0.106E-20 -.191E-20 0.185E-20   -.110E-12 -.303E-13 -.469E-14
   0.436E-12 -.520E-12 -.587E-12   0.428E-13 0.422E-13 0.698E-13   -.191E-20 -.275E-20 0.238E-20   -.178E-12 -.772E-13 -.217E-13
   -.458E-13 0.174E-12 0.631E-14   0.711E-13 0.000E+00 0.142E-13   0.000E+00 0.148E-20 0.169E-20   0.461E-13 -.293E-13 -.741E-14
   0.756E-13 0.364E-12 0.105E-12   0.663E-13 0.426E-13 -.130E-14   0.212E-20 -.191E-20 0.148E-20   -.261E-13 -.141E-12 -.228E-13
   -.460E-13 0.178E-13 0.190E-12   -.142E-13 -.142E-13 0.142E-13   0.000E+00 -.127E-20 -.371E-20   0.455E-13 -.145E-13 -.555E-13
   0.744E-13 0.170E-12 0.431E-12   -.138E-13 -.235E-14 0.142E-13   0.000E+00 -.222E-20 0.175E-20   -.269E-13 -.843E-13 -.195E-12
   0.236E-12 0.178E-12 0.631E-14   -.142E-13 0.000E+00 0.142E-13   -.847E-21 -.424E-21 -.688E-21   -.119E-12 -.357E-13 -.708E-14
   0.437E-12 0.466E-12 -.128E-11   -.143E-13 0.426E-13 0.180E-13   -.847E-21 -.222E-20 -.222E-20   -.177E-12 -.134E-12 -.225E-13
   -.449E-13 0.175E-12 0.190E-12   -.142E-13 -.426E-13 0.142E-13   0.000E+00 -.169E-20 0.741E-21   0.471E-13 -.303E-13 -.549E-13
   0.750E-13 0.348E-12 0.415E-12   -.117E-13 -.284E-13 0.143E-13   0.424E-21 0.000E+00 0.604E-20   -.279E-13 -.140E-12 -.196E-12
   0.235E-12 0.196E-13 0.184E-12   -.995E-13 0.000E+00 -.568E-13   -.424E-21 0.847E-21 -.688E-21   -.113E-12 -.309E-13 -.548E-13
   0.436E-12 -.122E-11 0.532E-12   -.997E-13 0.147E-13 -.142E-13   -.169E-20 -.466E-20 0.143E-20   -.178E-12 -.798E-13 -.193E-12
   0.233E-12 0.176E-12 0.184E-12   -.128E-12 -.711E-13 -.995E-13   -.635E-21 -.148E-20 0.106E-21   -.118E-12 -.319E-13 -.541E-13
   0.437E-12 0.187E-11 0.194E-11   -.128E-12 -.287E-13 -.285E-13   0.339E-20 -.233E-20 0.424E-21   -.176E-12 -.133E-12 -.193E-12
 -----------------------------------------------------------------------------------------------
   0.280E-11 0.243E-11 0.243E-11   -.582E-13 0.110E-12 0.171E-12   0.127E-20 -.188E-19 0.963E-20   -.109E-11 -.109E-11 -.111E-11
 
 
 POSITION                                       TOTAL-FORCE (eV/Angst)
 -----------------------------------------------------------------------------------
      0.00000      0.00000      0.00000        -0.000000     -0.000000     -0.000000
      1.65040      1.65040      1.65040        -0.000000     -0.000000      0.000000
      3.30080      0.00000      0.00000         0.000000      0.000000      0.000000
      4.95120      1.65040      1.65040         0.000000      0.000000     -0.000000
      0.00000      3.30080      0.00000         0.000000      0.000000     -0.000000
      1.65040      4.95120      1.65040        -0.000000     -0.000000     -0.000000
      0.00000      0.00000      3.30080        -0.000000      0.000000      0.000000
      1.65040      1.65040      4.95120        -0.000000      0.000000      0.000000
      3.30080      3.30080      0.00000         0.000000     -0.000000     -0.000000
      4.95120      4.95120      1.65040         0.000000      0.000000     -0.000000
      0.00000      3.30080      3.30080        -0.000000      0.000000      0.000000
      1.65040      4.95120      4.95120         0.000000      0.000000     -0.000000
      3.30080      0.00000      3.30080         0.000000     -0.000000      0.000000
      4.95120      1.65040      4.95120        -0.000000     -0.000000     -0.000000
      3.30080      3.30080      3.30080         0.000000      0.000000      0.000000
      4.95120      4.95120      4.95120        -0.000000      0.000000      0.000000
 -----------------------------------------------------------------------------------
    total drift:                                0.000000      0.000000      0.000000


--------------------------------------------------------------------------------------------------------



  FREE ENERGIE OF THE ION-ELECTRON SYSTEM (eV)
  ---------------------------------------------------
  free  energy   TOTEN  =      -178.18972947 eV

  energy  without entropy=     -178.18972947  energy(sigma->0) =     -178.18972947
 


--------------------------------------------------------------------------------------------------------


    POTLOK:  cpu time    0.0072: real time    0.0088


--------------------------------------------------------------------------------------------------------


 writing wavefunctions
     LOOP+:  cpu time  103.6223: real time  104.3083
    4ORBIT:  cpu time    0.0000: real time    0.0000
 BZINTS: Fermi energy:  4.841222;176.000000 electrons
         Band energy:***********;  BLOECHL correction: -0.069777

 total amount of memory used by VASP MPI-rank0   114004. kBytes
=======================================================================

   base      :      30000. kBytes
   nonl-proj :      60323. kBytes
   fftplans  :        572. kBytes
   grid      :       1204. kBytes
   one-center:        248. kBytes
   wavefun   :      21657. kBytes
 
  
  
 General timing and accounting informations for this job:
 ========================================================
  
                  Total CPU time used (sec):      109.786
                            User time (sec):      106.745
                          System time (sec):        3.041
                         Elapsed time (sec):      110.816
  
                   Maximum memory used (kb):      162704.
                   Average memory used (kb):           0.
  
                          Minor page faults:        50574
                          Major page faults:           41
                 Voluntary context switches:         2502
