<?xml version="1.0" encoding="ISO-8859-1"?>
<modeling>
 <generator>
  <i name="program" type="string">vasp </i>
  <i name="version" type="string">5.4.4.18Apr17-6-g9f103f2a35  </i>
  <i name="subversion" type="string">(build May 20 2018 16:52:39) complex            parallel </i>
  <i name="platform" type="string">LinuxIFC </i>
  <i name="date" type="string">2022 11 17 </i>
  <i name="time" type="string">22:01:42 </i>
 </generator>
 <incar>
  <i type="string" name="SYSTEM"> Nb tetrahedron</i>
  <i type="string" name="PREC">normal</i>
  <i type="int" name="ICHARG">    11</i>
  <i name="EDIFF">      0.00000010</i>
  <i name="ENCUT">    300.00000000</i>
  <i type="int" name="ISMEAR">    -5</i>
  <i type="logical" name="LCHARG"> F  </i>
  <v type="int" name="KPOINT_BSE">    -1     0     0     0</v>
 </incar>
 <structure name="primitive_cell" >
  <crystal>
   <varray name="basis" >
    <v>       1.65040000       1.65040000       1.65040000 </v>
    <v>       1.65040000      -1.65040000      -1.65040000 </v>
    <v>      -1.65040000       1.65040000      -1.65040000 </v>
   </varray>
   <i name="volume">     17.98157117 </i>
   <varray name="rec_basis" >
    <v>       0.30295686       0.30295686       0.00000000 </v>
    <v>       0.30295686      -0.00000000      -0.30295686 </v>
    <v>      -0.00000000       0.30295686      -0.30295686 </v>
   </varray>
  </crystal>
  <varray name="positions" >
   <v>       0.00000000       0.00000000       0.00000000 </v>
  </varray>
 </structure>
 <varray name="primitive_index" >
  <v type="int" >        1 </v>
 </varray>
 <kpoints>
  <generation param="Monkhorst-Pack">
   <v type="int" name="divisions">      16       16       16 </v>
   <v name="usershift">      0.00000000       0.00000000       0.00000000 </v>
   <v name="genvec1">      0.06250000       0.00000000       0.00000000 </v>
   <v name="genvec2">      0.00000000       0.06250000       0.00000000 </v>
   <v name="genvec3">      0.00000000       0.00000000       0.06250000 </v>
   <v name="shift">      0.50000000       0.50000000       0.50000000 </v>
  </generation>
  <varray name="kpointlist" >
   <v>       0.03125000       0.03125000       0.03125000 </v>
   <v>       0.09375000       0.03125000       0.03125000 </v>
   <v>       0.15625000       0.03125000       0.03125000 </v>
   <v>       0.21875000       0.03125000       0.03125000 </v>
   <v>       0.28125000       0.03125000       0.03125000 </v>
   <v>       0.34375000       0.03125000       0.03125000 </v>
   <v>       0.40625000       0.03125000       0.03125000 </v>
   <v>       0.46875000       0.03125000       0.03125000 </v>
   <v>       0.09375000       0.09375000       0.03125000 </v>
   <v>       0.15625000       0.09375000       0.03125000 </v>
   <v>       0.21875000       0.09375000       0.03125000 </v>
   <v>       0.28125000       0.09375000       0.03125000 </v>
   <v>       0.34375000       0.09375000       0.03125000 </v>
   <v>       0.40625000       0.09375000       0.03125000 </v>
   <v>       0.46875000       0.09375000       0.03125000 </v>
   <v>       0.15625000       0.15625000       0.03125000 </v>
   <v>       0.21875000       0.15625000       0.03125000 </v>
   <v>       0.28125000       0.15625000       0.03125000 </v>
   <v>       0.34375000       0.15625000       0.03125000 </v>
   <v>       0.40625000       0.15625000       0.03125000 </v>
   <v>       0.46875000       0.15625000       0.03125000 </v>
   <v>       0.21875000       0.21875000       0.03125000 </v>
   <v>       0.28125000       0.21875000       0.03125000 </v>
   <v>       0.34375000       0.21875000       0.03125000 </v>
   <v>       0.40625000       0.21875000       0.03125000 </v>
   <v>       0.46875000       0.21875000       0.03125000 </v>
   <v>       0.28125000       0.28125000       0.03125000 </v>
   <v>       0.34375000       0.28125000       0.03125000 </v>
   <v>       0.40625000       0.28125000       0.03125000 </v>
   <v>       0.46875000       0.28125000       0.03125000 </v>
   <v>       0.34375000       0.34375000       0.03125000 </v>
   <v>       0.40625000       0.34375000       0.03125000 </v>
   <v>       0.46875000       0.34375000       0.03125000 </v>
   <v>       0.40625000       0.40625000       0.03125000 </v>
   <v>       0.46875000       0.40625000       0.03125000 </v>
   <v>       0.46875000       0.46875000       0.03125000 </v>
   <v>       0.09375000       0.09375000       0.09375000 </v>
   <v>       0.15625000       0.09375000       0.09375000 </v>
   <v>       0.21875000       0.09375000       0.09375000 </v>
   <v>       0.28125000       0.09375000       0.09375000 </v>
   <v>       0.34375000       0.09375000       0.09375000 </v>
   <v>       0.40625000       0.09375000       0.09375000 </v>
   <v>       0.46875000       0.09375000       0.09375000 </v>
   <v>       0.15625000       0.15625000       0.09375000 </v>
   <v>       0.21875000       0.15625000       0.09375000 </v>
   <v>       0.28125000       0.15625000       0.09375000 </v>
   <v>       0.34375000       0.15625000       0.09375000 </v>
   <v>       0.40625000       0.15625000       0.09375000 </v>
   <v>       0.46875000       0.15625000       0.09375000 </v>
   <v>       0.21875000       0.21875000       0.09375000 </v>
   <v>       0.28125000       0.21875000       0.09375000 </v>
   <v>       0.34375000       0.21875000       0.09375000 </v>
   <v>       0.40625000       0.21875000       0.09375000 </v>
   <v>       0.46875000       0.21875000       0.09375000 </v>
   <v>       0.28125000       0.28125000       0.09375000 </v>
   <v>       0.34375000       0.28125000       0.09375000 </v>
   <v>       0.40625000       0.28125000       0.09375000 </v>
   <v>       0.46875000       0.28125000       0.09375000 </v>
   <v>       0.34375000       0.34375000       0.09375000 </v>
   <v>       0.40625000       0.34375000       0.09375000 </v>
   <v>       0.46875000       0.34375000       0.09375000 </v>
   <v>       0.40625000       0.40625000       0.09375000 </v>
   <v>       0.46875000       0.40625000       0.09375000 </v>
   <v>       0.46875000       0.46875000       0.09375000 </v>
   <v>       0.15625000       0.15625000       0.15625000 </v>
   <v>       0.21875000       0.15625000       0.15625000 </v>
   <v>       0.28125000       0.15625000       0.15625000 </v>
   <v>       0.34375000       0.15625000       0.15625000 </v>
   <v>       0.40625000       0.15625000       0.15625000 </v>
   <v>       0.46875000       0.15625000       0.15625000 </v>
   <v>       0.21875000       0.21875000       0.15625000 </v>
   <v>       0.28125000       0.21875000       0.15625000 </v>
   <v>       0.34375000       0.21875000       0.15625000 </v>
   <v>       0.40625000       0.21875000       0.15625000 </v>
   <v>       0.46875000       0.21875000       0.15625000 </v>
   <v>       0.28125000       0.28125000       0.15625000 </v>
   <v>       0.34375000       0.28125000       0.15625000 </v>
   <v>       0.40625000       0.28125000       0.15625000 </v>
   <v>       0.46875000       0.28125000       0.15625000 </v>
   <v>       0.34375000       0.34375000       0.15625000 </v>
   <v>       0.40625000       0.34375000       0.15625000 </v>
   <v>       0.46875000       0.34375000       0.15625000 </v>
   <v>       0.40625000       0.40625000       0.15625000 </v>
   <v>       0.46875000       0.40625000       0.15625000 </v>
   <v>       0.46875000       0.46875000       0.15625000 </v>
   <v>       0.21875000       0.21875000       0.21875000 </v>
   <v>       0.28125000       0.21875000       0.21875000 </v>
   <v>       0.34375000       0.21875000       0.21875000 </v>
   <v>       0.40625000       0.21875000       0.21875000 </v>
   <v>       0.46875000       0.21875000       0.21875000 </v>
   <v>       0.28125000       0.28125000       0.21875000 </v>
   <v>       0.34375000       0.28125000       0.21875000 </v>
   <v>       0.40625000       0.28125000       0.21875000 </v>
   <v>       0.46875000       0.28125000       0.21875000 </v>
   <v>       0.34375000       0.34375000       0.21875000 </v>
   <v>       0.40625000       0.34375000       0.21875000 </v>
   <v>       0.46875000       0.34375000       0.21875000 </v>
   <v>       0.40625000       0.40625000       0.21875000 </v>
   <v>       0.46875000       0.40625000       0.21875000 </v>
   <v>       0.46875000       0.46875000       0.21875000 </v>
   <v>       0.28125000       0.28125000       0.28125000 </v>
   <v>       0.34375000       0.28125000       0.28125000 </v>
   <v>       0.40625000       0.28125000       0.28125000 </v>
   <v>       0.46875000       0.28125000       0.28125000 </v>
   <v>       0.34375000       0.34375000       0.28125000 </v>
   <v>       0.40625000       0.34375000       0.28125000 </v>
   <v>       0.46875000       0.34375000       0.28125000 </v>
   <v>       0.40625000       0.40625000       0.28125000 </v>
   <v>       0.46875000       0.40625000       0.28125000 </v>
   <v>       0.46875000       0.46875000       0.28125000 </v>
   <v>       0.34375000       0.34375000       0.34375000 </v>
   <v>       0.40625000       0.34375000       0.34375000 </v>
   <v>       0.46875000       0.34375000       0.34375000 </v>
   <v>       0.40625000       0.40625000       0.34375000 </v>
   <v>       0.46875000       0.40625000       0.34375000 </v>
   <v>       0.46875000       0.46875000       0.34375000 </v>
   <v>       0.40625000       0.40625000       0.40625000 </v>
   <v>       0.46875000       0.40625000       0.40625000 </v>
   <v>       0.46875000       0.46875000       0.40625000 </v>
   <v>       0.46875000       0.46875000       0.46875000 </v>
  </varray>
  <varray name="weights" >
   <v>       0.00195312 </v>
   <v>       0.00585938 </v>
   <v>       0.00585938 </v>
   <v>       0.00585938 </v>
   <v>       0.00585938 </v>
   <v>       0.00585938 </v>
   <v>       0.00585938 </v>
   <v>       0.00585938 </v>
   <v>       0.00585938 </v>
   <v>       0.01171875 </v>
   <v>       0.01171875 </v>
   <v>       0.01171875 </v>
   <v>       0.01171875 </v>
   <v>       0.01171875 </v>
   <v>       0.01171875 </v>
   <v>       0.00585938 </v>
   <v>       0.01171875 </v>
   <v>       0.01171875 </v>
   <v>       0.01171875 </v>
   <v>       0.01171875 </v>
   <v>       0.01171875 </v>
   <v>       0.00585938 </v>
   <v>       0.01171875 </v>
   <v>       0.01171875 </v>
   <v>       0.01171875 </v>
   <v>       0.01171875 </v>
   <v>       0.00585938 </v>
   <v>       0.01171875 </v>
   <v>       0.01171875 </v>
   <v>       0.01171875 </v>
   <v>       0.00585938 </v>
   <v>       0.01171875 </v>
   <v>       0.01171875 </v>
   <v>       0.00585938 </v>
   <v>       0.01171875 </v>
   <v>       0.00585938 </v>
   <v>       0.00195312 </v>
   <v>       0.00585938 </v>
   <v>       0.00585938 </v>
   <v>       0.00585938 </v>
   <v>       0.00585938 </v>
   <v>       0.00585938 </v>
   <v>       0.00585938 </v>
   <v>       0.00585938 </v>
   <v>       0.01171875 </v>
   <v>       0.01171875 </v>
   <v>       0.01171875 </v>
   <v>       0.01171875 </v>
   <v>       0.01171875 </v>
   <v>       0.00585938 </v>
   <v>       0.01171875 </v>
   <v>       0.01171875 </v>
   <v>       0.01171875 </v>
   <v>       0.01171875 </v>
   <v>       0.00585938 </v>
   <v>       0.01171875 </v>
   <v>       0.01171875 </v>
   <v>       0.01171875 </v>
   <v>       0.00585938 </v>
   <v>       0.01171875 </v>
   <v>       0.01171875 </v>
   <v>       0.00585938 </v>
   <v>       0.01171875 </v>
   <v>       0.00585938 </v>
   <v>       0.00195312 </v>
   <v>       0.00585938 </v>
   <v>       0.00585938 </v>
   <v>       0.00585938 </v>
   <v>       0.00585938 </v>
   <v>       0.00585938 </v>
   <v>       0.00585938 </v>
   <v>       0.01171875 </v>
   <v>       0.01171875 </v>
   <v>       0.01171875 </v>
   <v>       0.01171875 </v>
   <v>       0.00585938 </v>
   <v>       0.01171875 </v>
   <v>       0.01171875 </v>
   <v>       0.01171875 </v>
   <v>       0.00585938 </v>
   <v>       0.01171875 </v>
   <v>       0.01171875 </v>
   <v>       0.00585938 </v>
   <v>       0.01171875 </v>
   <v>       0.00585938 </v>
   <v>       0.00195312 </v>
   <v>       0.00585938 </v>
   <v>       0.00585938 </v>
   <v>       0.00585938 </v>
   <v>       0.00585938 </v>
   <v>       0.00585938 </v>
   <v>       0.01171875 </v>
   <v>       0.01171875 </v>
   <v>       0.01171875 </v>
   <v>       0.00585938 </v>
   <v>       0.01171875 </v>
   <v>       0.01171875 </v>
   <v>       0.00585938 </v>
   <v>       0.01171875 </v>
   <v>       0.00585938 </v>
   <v>       0.00195312 </v>
   <v>       0.00585938 </v>
   <v>       0.00585938 </v>
   <v>       0.00585938 </v>
   <v>       0.00585938 </v>
   <v>       0.01171875 </v>
   <v>       0.01171875 </v>
   <v>       0.00585938 </v>
   <v>       0.01171875 </v>
   <v>       0.00585938 </v>
   <v>       0.00195312 </v>
   <v>       0.00585938 </v>
   <v>       0.00585938 </v>
   <v>       0.00585938 </v>
   <v>       0.01171875 </v>
   <v>       0.00585938 </v>
   <v>       0.00195312 </v>
   <v>       0.00585938 </v>
   <v>       0.00585938 </v>
   <v>       0.00195312 </v>
  </varray>
  <varray name="tetrahedronlist"  type="int" >
   <v type="int" >       24        1        2        2        9 </v>
   <v type="int" >       18        2        2        9        9 </v>
   <v type="int" >       12        2        9        9       37 </v>
   <v type="int" >       12        2        3        9       10 </v>
   <v type="int" >       24        2        9        9       10 </v>
   <v type="int" >       12        9        9       10       37 </v>
   <v type="int" >       24        3        9       10       10 </v>
   <v type="int" >       24        9       10       10       38 </v>
   <v type="int" >       24        9       10       37       38 </v>
   <v type="int" >       12        3        4       10       11 </v>
   <v type="int" >       24        3       10       10       11 </v>
   <v type="int" >       12       10       10       11       38 </v>
   <v type="int" >       24        4       10       11       11 </v>
   <v type="int" >       12       10       11       11       39 </v>
   <v type="int" >       12       10       11       38       39 </v>
   <v type="int" >       12        4        5       11       12 </v>
   <v type="int" >       24        4       11       11       12 </v>
   <v type="int" >       12       11       11       12       39 </v>
   <v type="int" >       24        5       11       12       12 </v>
   <v type="int" >       12       11       12       12       40 </v>
   <v type="int" >       12       11       12       39       40 </v>
   <v type="int" >       12        5        6       12       13 </v>
   <v type="int" >       24        5       12       12       13 </v>
   <v type="int" >       12       12       12       13       40 </v>
   <v type="int" >       24        6       12       13       13 </v>
   <v type="int" >       12       12       13       13       41 </v>
   <v type="int" >       12       12       13       40       41 </v>
   <v type="int" >       12        6        7       13       14 </v>
   <v type="int" >       24        6       13       13       14 </v>
   <v type="int" >       12       13       13       14       41 </v>
   <v type="int" >       24        7       13       14       14 </v>
   <v type="int" >       12       13       14       14       42 </v>
   <v type="int" >       12       13       14       41       42 </v>
   <v type="int" >       12        7        8       14       15 </v>
   <v type="int" >       24        7       14       14       15 </v>
   <v type="int" >       12       14       14       15       42 </v>
   <v type="int" >       24        8       14       15       15 </v>
   <v type="int" >       12       14       15       15       43 </v>
   <v type="int" >       12       14       15       42       43 </v>
   <v type="int" >       30        8        8       15       15 </v>
   <v type="int" >       36        8       15       15       15 </v>
   <v type="int" >       12       15       15       15       43 </v>
   <v type="int" >        6       15       15       43       43 </v>
   <v type="int" >       18        1        1        2        2 </v>
   <v type="int" >       24        1        2        2        2 </v>
   <v type="int" >       12        2        2        2        9 </v>
   <v type="int" >       12        9       10       16       37 </v>
   <v type="int" >       12       10       16       37       38 </v>
   <v type="int" >       12       16       37       38       44 </v>
   <v type="int" >       12       10       11       17       38 </v>
   <v type="int" >       12       10       16       17       38 </v>
   <v type="int" >       12       16       17       38       44 </v>
   <v type="int" >       12       11       17       38       39 </v>
   <v type="int" >       12       17       38       39       45 </v>
   <v type="int" >       12       17       38       44       45 </v>
   <v type="int" >       12       11       12       18       39 </v>
   <v type="int" >       12       11       17       18       39 </v>
   <v type="int" >       12       17       18       39       45 </v>
   <v type="int" >       12       12       18       39       40 </v>
   <v type="int" >       12       18       39       40       46 </v>
   <v type="int" >       12       18       39       45       46 </v>
   <v type="int" >       12       12       13       19       40 </v>
   <v type="int" >       12       12       18       19       40 </v>
   <v type="int" >       12       18       19       40       46 </v>
   <v type="int" >       12       13       19       40       41 </v>
   <v type="int" >       12       19       40       41       47 </v>
   <v type="int" >       12       19       40       46       47 </v>
   <v type="int" >       12       13       14       20       41 </v>
   <v type="int" >       12       13       19       20       41 </v>
   <v type="int" >       12       19       20       41       47 </v>
   <v type="int" >       12       14       20       41       42 </v>
   <v type="int" >       12       20       41       42       48 </v>
   <v type="int" >       12       20       41       47       48 </v>
   <v type="int" >       12       14       15       21       42 </v>
   <v type="int" >       12       14       20       21       42 </v>
   <v type="int" >       12       20       21       42       48 </v>
   <v type="int" >       12       15       21       42       43 </v>
   <v type="int" >       12       21       42       43       49 </v>
   <v type="int" >       12       21       42       48       49 </v>
   <v type="int" >       12       15       15       21       43 </v>
   <v type="int" >       12       15       21       21       43 </v>
   <v type="int" >       12       21       21       43       49 </v>
   <v type="int" >       12       15       21       43       43 </v>
   <v type="int" >       12       21       43       43       49 </v>
   <v type="int" >       12       21       43       49       49 </v>
   <v type="int" >       12       14       15       20       43 </v>
   <v type="int" >       12       15       20       21       43 </v>
   <v type="int" >       12       20       21       43       49 </v>
   <v type="int" >       12       14       20       42       43 </v>
   <v type="int" >       12       20       42       43       48 </v>
   <v type="int" >       12       20       43       48       49 </v>
   <v type="int" >       12       13       14       19       42 </v>
   <v type="int" >       12       14       19       20       42 </v>
   <v type="int" >       12       19       20       42       48 </v>
   <v type="int" >       12       13       19       41       42 </v>
   <v type="int" >       12       19       41       42       47 </v>
   <v type="int" >       12       19       42       47       48 </v>
   <v type="int" >       12       12       13       18       41 </v>
   <v type="int" >       12       13       18       19       41 </v>
   <v type="int" >       12       18       19       41       47 </v>
   <v type="int" >       12       12       18       40       41 </v>
   <v type="int" >       12       18       40       41       46 </v>
   <v type="int" >       12       18       41       46       47 </v>
   <v type="int" >       12       11       12       17       40 </v>
   <v type="int" >       12       12       17       18       40 </v>
   <v type="int" >       12       17       18       40       46 </v>
   <v type="int" >       12       11       17       39       40 </v>
   <v type="int" >       12       17       39       40       45 </v>
   <v type="int" >       12       17       40       45       46 </v>
   <v type="int" >       12       10       11       16       39 </v>
   <v type="int" >       12       11       16       17       39 </v>
   <v type="int" >       12       16       17       39       45 </v>
   <v type="int" >       12       10       16       38       39 </v>
   <v type="int" >       12       16       38       39       44 </v>
   <v type="int" >       12       16       39       44       45 </v>
   <v type="int" >       12       10       10       16       38 </v>
   <v type="int" >       12       10       16       38       44 </v>
   <v type="int" >       12       10       37       38       38 </v>
   <v type="int" >       12       10       38       38       44 </v>
   <v type="int" >       12        2        3        9       37 </v>
   <v type="int" >       12        3        9       10       37 </v>
   <v type="int" >       12        3       10       37       38 </v>
   <v type="int" >       12        2        2        3        9 </v>
   <v type="int" >       12        2        3        3        9 </v>
   <v type="int" >       12        3        3        9       10 </v>
   <v type="int" >       12        2        3        9        9 </v>
   <v type="int" >       12        3        9        9       10 </v>
   <v type="int" >       12       16       17       22       44 </v>
   <v type="int" >       12       17       22       44       45 </v>
   <v type="int" >       12       22       44       45       50 </v>
   <v type="int" >       12       17       18       23       45 </v>
   <v type="int" >       12       17       22       23       45 </v>
   <v type="int" >       12       22       23       45       50 </v>
   <v type="int" >       12       18       23       45       46 </v>
   <v type="int" >       12       23       45       46       51 </v>
   <v type="int" >       12       23       45       50       51 </v>
   <v type="int" >       12       18       19       24       46 </v>
   <v type="int" >       12       18       23       24       46 </v>
   <v type="int" >       12       23       24       46       51 </v>
   <v type="int" >       12       19       24       46       47 </v>
   <v type="int" >       12       24       46       47       52 </v>
   <v type="int" >       12       24       46       51       52 </v>
   <v type="int" >       12       19       20       25       47 </v>
   <v type="int" >       12       19       24       25       47 </v>
   <v type="int" >       12       24       25       47       52 </v>
   <v type="int" >       12       20       25       47       48 </v>
   <v type="int" >       12       25       47       48       53 </v>
   <v type="int" >       12       25       47       52       53 </v>
   <v type="int" >       12       20       21       26       48 </v>
   <v type="int" >       12       20       25       26       48 </v>
   <v type="int" >       12       25       26       48       53 </v>
   <v type="int" >       12       21       26       48       49 </v>
   <v type="int" >       12       26       48       49       54 </v>
   <v type="int" >       12       26       48       53       54 </v>
   <v type="int" >       12       21       21       26       49 </v>
   <v type="int" >       12       21       26       26       49 </v>
   <v type="int" >       12       26       26       49       54 </v>
   <v type="int" >       12       21       26       49       49 </v>
   <v type="int" >       12       26       49       49       54 </v>
   <v type="int" >       12       26       49       54       54 </v>
   <v type="int" >       12       20       21       25       49 </v>
   <v type="int" >       12       21       25       26       49 </v>
   <v type="int" >       12       25       26       49       54 </v>
   <v type="int" >       12       20       25       48       49 </v>
   <v type="int" >       12       25       48       49       53 </v>
   <v type="int" >       12       25       49       53       54 </v>
   <v type="int" >       12       19       20       24       48 </v>
   <v type="int" >       12       20       24       25       48 </v>
   <v type="int" >       12       24       25       48       53 </v>
   <v type="int" >       12       19       24       47       48 </v>
   <v type="int" >       12       24       47       48       52 </v>
   <v type="int" >       12       24       48       52       53 </v>
   <v type="int" >       12       18       19       23       47 </v>
   <v type="int" >       12       19       23       24       47 </v>
   <v type="int" >       12       23       24       47       52 </v>
   <v type="int" >       12       18       23       46       47 </v>
   <v type="int" >       12       23       46       47       51 </v>
   <v type="int" >       12       23       47       51       52 </v>
   <v type="int" >       12       17       18       22       46 </v>
   <v type="int" >       12       18       22       23       46 </v>
   <v type="int" >       12       22       23       46       51 </v>
   <v type="int" >       12       17       22       45       46 </v>
   <v type="int" >       12       22       45       46       50 </v>
   <v type="int" >       12       22       46       50       51 </v>
   <v type="int" >       12       16       17       17       45 </v>
   <v type="int" >       12       17       17       22       45 </v>
   <v type="int" >       12       17       22       45       50 </v>
   <v type="int" >       12       16       17       44       45 </v>
   <v type="int" >       12       17       44       45       45 </v>
   <v type="int" >       12       17       45       45       50 </v>
   <v type="int" >       12       10       11       16       44 </v>
   <v type="int" >       12       11       16       17       44 </v>
   <v type="int" >       12       11       17       44       45 </v>
   <v type="int" >       12       10       11       38       44 </v>
   <v type="int" >       12       11       38       39       44 </v>
   <v type="int" >       12       11       39       44       45 </v>
   <v type="int" >       12        3        4       10       38 </v>
   <v type="int" >       12        4       10       11       38 </v>
   <v type="int" >       12        4       11       38       39 </v>
   <v type="int" >       12        3        3        4       10 </v>
   <v type="int" >       12        3        4        4       10 </v>
   <v type="int" >       12        4        4       10       11 </v>
   <v type="int" >       12        3        4       10       10 </v>
   <v type="int" >       12        4       10       10       11 </v>
   <v type="int" >       12       22       23       27       50 </v>
   <v type="int" >       12       23       27       50       51 </v>
   <v type="int" >       12       27       50       51       55 </v>
   <v type="int" >       12       23       24       28       51 </v>
   <v type="int" >       12       23       27       28       51 </v>
   <v type="int" >       12       27       28       51       55 </v>
   <v type="int" >       12       24       28       51       52 </v>
   <v type="int" >       12       28       51       52       56 </v>
   <v type="int" >       12       28       51       55       56 </v>
   <v type="int" >       12       24       25       29       52 </v>
   <v type="int" >       12       24       28       29       52 </v>
   <v type="int" >       12       28       29       52       56 </v>
   <v type="int" >       12       25       29       52       53 </v>
   <v type="int" >       12       29       52       53       57 </v>
   <v type="int" >       12       29       52       56       57 </v>
   <v type="int" >       12       25       26       30       53 </v>
   <v type="int" >       12       25       29       30       53 </v>
   <v type="int" >       12       29       30       53       57 </v>
   <v type="int" >       12       26       30       53       54 </v>
   <v type="int" >       12       30       53       54       58 </v>
   <v type="int" >       12       30       53       57       58 </v>
   <v type="int" >       12       26       26       30       54 </v>
   <v type="int" >       12       26       30       30       54 </v>
   <v type="int" >       12       30       30       54       58 </v>
   <v type="int" >       12       26       30       54       54 </v>
   <v type="int" >       12       30       54       54       58 </v>
   <v type="int" >       12       30       54       58       58 </v>
   <v type="int" >       12       25       26       29       54 </v>
   <v type="int" >       12       26       29       30       54 </v>
   <v type="int" >       12       29       30       54       58 </v>
   <v type="int" >       12       25       29       53       54 </v>
   <v type="int" >       12       29       53       54       57 </v>
   <v type="int" >       12       29       54       57       58 </v>
   <v type="int" >       12       24       25       28       53 </v>
   <v type="int" >       12       25       28       29       53 </v>
   <v type="int" >       12       28       29       53       57 </v>
   <v type="int" >       12       24       28       52       53 </v>
   <v type="int" >       12       28       52       53       56 </v>
   <v type="int" >       12       28       53       56       57 </v>
   <v type="int" >       12       23       24       27       52 </v>
   <v type="int" >       12       24       27       28       52 </v>
   <v type="int" >       12       27       28       52       56 </v>
   <v type="int" >       12       23       27       51       52 </v>
   <v type="int" >       12       27       51       52       55 </v>
   <v type="int" >       12       27       52       55       56 </v>
   <v type="int" >       12       22       23       23       51 </v>
   <v type="int" >       12       23       23       27       51 </v>
   <v type="int" >       12       23       27       51       55 </v>
   <v type="int" >       12       22       23       50       51 </v>
   <v type="int" >       12       23       50       51       51 </v>
   <v type="int" >       12       23       51       51       55 </v>
   <v type="int" >       12       17       18       22       50 </v>
   <v type="int" >       12       18       22       23       50 </v>
   <v type="int" >       12       18       23       50       51 </v>
   <v type="int" >       12       17       18       45       50 </v>
   <v type="int" >       12       18       45       46       50 </v>
   <v type="int" >       12       18       46       50       51 </v>
   <v type="int" >       12       11       12       17       45 </v>
   <v type="int" >       12       12       17       18       45 </v>
   <v type="int" >       12       12       18       45       46 </v>
   <v type="int" >       12       11       12       39       45 </v>
   <v type="int" >       12       12       39       40       45 </v>
   <v type="int" >       12       12       40       45       46 </v>
   <v type="int" >       12        4        5       11       39 </v>
   <v type="int" >       12        5       11       12       39 </v>
   <v type="int" >       12        5       12       39       40 </v>
   <v type="int" >       12        4        4        5       11 </v>
   <v type="int" >       12        4        5        5       11 </v>
   <v type="int" >       12        5        5       11       12 </v>
   <v type="int" >       12        4        5       11       11 </v>
   <v type="int" >       12        5       11       11       12 </v>
   <v type="int" >       12       27       28       31       55 </v>
   <v type="int" >       12       28       31       55       56 </v>
   <v type="int" >       12       31       55       56       59 </v>
   <v type="int" >       12       28       29       32       56 </v>
   <v type="int" >       12       28       31       32       56 </v>
   <v type="int" >       12       31       32       56       59 </v>
   <v type="int" >       12       29       32       56       57 </v>
   <v type="int" >       12       32       56       57       60 </v>
   <v type="int" >       12       32       56       59       60 </v>
   <v type="int" >       12       29       30       33       57 </v>
   <v type="int" >       12       29       32       33       57 </v>
   <v type="int" >       12       32       33       57       60 </v>
   <v type="int" >       12       30       33       57       58 </v>
   <v type="int" >       12       33       57       58       61 </v>
   <v type="int" >       12       33       57       60       61 </v>
   <v type="int" >       12       30       30       33       58 </v>
   <v type="int" >       12       30       33       33       58 </v>
   <v type="int" >       12       33       33       58       61 </v>
   <v type="int" >       12       30       33       58       58 </v>
   <v type="int" >       12       33       58       58       61 </v>
   <v type="int" >       12       33       58       61       61 </v>
   <v type="int" >       12       29       30       32       58 </v>
   <v type="int" >       12       30       32       33       58 </v>
   <v type="int" >       12       32       33       58       61 </v>
   <v type="int" >       12       29       32       57       58 </v>
   <v type="int" >       12       32       57       58       60 </v>
   <v type="int" >       12       32       58       60       61 </v>
   <v type="int" >       12       28       29       31       57 </v>
   <v type="int" >       12       29       31       32       57 </v>
   <v type="int" >       12       31       32       57       60 </v>
   <v type="int" >       12       28       31       56       57 </v>
   <v type="int" >       12       31       56       57       59 </v>
   <v type="int" >       12       31       57       59       60 </v>
   <v type="int" >       12       27       28       28       56 </v>
   <v type="int" >       12       28       28       31       56 </v>
   <v type="int" >       12       28       31       56       59 </v>
   <v type="int" >       12       27       28       55       56 </v>
   <v type="int" >       12       28       55       56       56 </v>
   <v type="int" >       12       28       56       56       59 </v>
   <v type="int" >       12       23       24       27       55 </v>
   <v type="int" >       12       24       27       28       55 </v>
   <v type="int" >       12       24       28       55       56 </v>
   <v type="int" >       12       23       24       51       55 </v>
   <v type="int" >       12       24       51       52       55 </v>
   <v type="int" >       12       24       52       55       56 </v>
   <v type="int" >       12       18       19       23       51 </v>
   <v type="int" >       12       19       23       24       51 </v>
   <v type="int" >       12       19       24       51       52 </v>
   <v type="int" >       12       18       19       46       51 </v>
   <v type="int" >       12       19       46       47       51 </v>
   <v type="int" >       12       19       47       51       52 </v>
   <v type="int" >       12       12       13       18       46 </v>
   <v type="int" >       12       13       18       19       46 </v>
   <v type="int" >       12       13       19       46       47 </v>
   <v type="int" >       12       12       13       40       46 </v>
   <v type="int" >       12       13       40       41       46 </v>
   <v type="int" >       12       13       41       46       47 </v>
   <v type="int" >       12        5        6       12       40 </v>
   <v type="int" >       12        6       12       13       40 </v>
   <v type="int" >       12        6       13       40       41 </v>
   <v type="int" >       12        5        5        6       12 </v>
   <v type="int" >       12        5        6        6       12 </v>
   <v type="int" >       12        6        6       12       13 </v>
   <v type="int" >       12        5        6       12       12 </v>
   <v type="int" >       12        6       12       12       13 </v>
   <v type="int" >       12       31       32       34       59 </v>
   <v type="int" >       12       32       34       59       60 </v>
   <v type="int" >       12       34       59       60       62 </v>
   <v type="int" >       12       32       33       35       60 </v>
   <v type="int" >       12       32       34       35       60 </v>
   <v type="int" >       12       34       35       60       62 </v>
   <v type="int" >       12       33       35       60       61 </v>
   <v type="int" >       12       35       60       61       63 </v>
   <v type="int" >       12       35       60       62       63 </v>
   <v type="int" >       12       33       33       35       61 </v>
   <v type="int" >       12       33       35       35       61 </v>
   <v type="int" >       12       35       35       61       63 </v>
   <v type="int" >       12       33       35       61       61 </v>
   <v type="int" >       12       35       61       61       63 </v>
   <v type="int" >       12       35       61       63       63 </v>
   <v type="int" >       12       32       33       34       61 </v>
   <v type="int" >       12       33       34       35       61 </v>
   <v type="int" >       12       34       35       61       63 </v>
   <v type="int" >       12       32       34       60       61 </v>
   <v type="int" >       12       34       60       61       62 </v>
   <v type="int" >       12       34       61       62       63 </v>
   <v type="int" >       12       31       32       32       60 </v>
   <v type="int" >       12       32       32       34       60 </v>
   <v type="int" >       12       32       34       60       62 </v>
   <v type="int" >       12       31       32       59       60 </v>
   <v type="int" >       12       32       59       60       60 </v>
   <v type="int" >       12       32       60       60       62 </v>
   <v type="int" >       12       28       29       31       59 </v>
   <v type="int" >       12       29       31       32       59 </v>
   <v type="int" >       12       29       32       59       60 </v>
   <v type="int" >       12       28       29       56       59 </v>
   <v type="int" >       12       29       56       57       59 </v>
   <v type="int" >       12       29       57       59       60 </v>
   <v type="int" >       12       24       25       28       56 </v>
   <v type="int" >       12       25       28       29       56 </v>
   <v type="int" >       12       25       29       56       57 </v>
   <v type="int" >       12       24       25       52       56 </v>
   <v type="int" >       12       25       52       53       56 </v>
   <v type="int" >       12       25       53       56       57 </v>
   <v type="int" >       12       19       20       24       52 </v>
   <v type="int" >       12       20       24       25       52 </v>
   <v type="int" >       12       20       25       52       53 </v>
   <v type="int" >       12       19       20       47       52 </v>
   <v type="int" >       12       20       47       48       52 </v>
   <v type="int" >       12       20       48       52       53 </v>
   <v type="int" >       12       13       14       19       47 </v>
   <v type="int" >       12       14       19       20       47 </v>
   <v type="int" >       12       14       20       47       48 </v>
   <v type="int" >       12       13       14       41       47 </v>
   <v type="int" >       12       14       41       42       47 </v>
   <v type="int" >       12       14       42       47       48 </v>
   <v type="int" >       12        6        7       13       41 </v>
   <v type="int" >       12        7       13       14       41 </v>
   <v type="int" >       12        7       14       41       42 </v>
   <v type="int" >       12        6        6        7       13 </v>
   <v type="int" >       12        6        7        7       13 </v>
   <v type="int" >       12        7        7       13       14 </v>
   <v type="int" >       12        6        7       13       13 </v>
   <v type="int" >       12        7       13       13       14 </v>
   <v type="int" >       12       34       35       36       62 </v>
   <v type="int" >       12       35       36       62       63 </v>
   <v type="int" >       12       36       62       63       64 </v>
   <v type="int" >       24       35       35       36       63 </v>
   <v type="int" >       12       35       36       36       63 </v>
   <v type="int" >       12       36       36       63       64 </v>
   <v type="int" >       12       35       36       63       63 </v>
   <v type="int" >       12       36       63       63       64 </v>
   <v type="int" >       12       36       63       64       64 </v>
   <v type="int" >       12       34       35       35       63 </v>
   <v type="int" >       12       35       36       63       64 </v>
   <v type="int" >       12       34       35       62       63 </v>
   <v type="int" >       12       35       62       63       63 </v>
   <v type="int" >       24       35       63       63       64 </v>
   <v type="int" >       12       32       33       34       62 </v>
   <v type="int" >       12       33       34       35       62 </v>
   <v type="int" >       12       33       35       62       63 </v>
   <v type="int" >       12       32       33       60       62 </v>
   <v type="int" >       12       33       60       61       62 </v>
   <v type="int" >       12       33       61       62       63 </v>
   <v type="int" >       12       29       30       32       60 </v>
   <v type="int" >       12       30       32       33       60 </v>
   <v type="int" >       12       30       33       60       61 </v>
   <v type="int" >       12       29       30       57       60 </v>
   <v type="int" >       12       30       57       58       60 </v>
   <v type="int" >       12       30       58       60       61 </v>
   <v type="int" >       12       25       26       29       57 </v>
   <v type="int" >       12       26       29       30       57 </v>
   <v type="int" >       12       26       30       57       58 </v>
   <v type="int" >       12       25       26       53       57 </v>
   <v type="int" >       12       26       53       54       57 </v>
   <v type="int" >       12       26       54       57       58 </v>
   <v type="int" >       12       20       21       25       53 </v>
   <v type="int" >       12       21       25       26       53 </v>
   <v type="int" >       12       21       26       53       54 </v>
   <v type="int" >       12       20       21       48       53 </v>
   <v type="int" >       12       21       48       49       53 </v>
   <v type="int" >       12       21       49       53       54 </v>
   <v type="int" >       12       14       15       20       48 </v>
   <v type="int" >       12       15       20       21       48 </v>
   <v type="int" >       12       15       21       48       49 </v>
   <v type="int" >       12       14       15       42       48 </v>
   <v type="int" >       12       15       42       43       48 </v>
   <v type="int" >       12       15       43       48       49 </v>
   <v type="int" >       12        7        8       14       42 </v>
   <v type="int" >       12        8       14       15       42 </v>
   <v type="int" >       12        8       15       42       43 </v>
   <v type="int" >       12        7        7        8       14 </v>
   <v type="int" >       12        7        8        8       14 </v>
   <v type="int" >       12        8        8       14       15 </v>
   <v type="int" >       12        7        8       14       14 </v>
   <v type="int" >       12        8       14       14       15 </v>
   <v type="int" >       12       36       36       36       64 </v>
   <v type="int" >       12       36       36       64       64 </v>
   <v type="int" >       12       36       64       64       64 </v>
   <v type="int" >       12       35       35       36       64 </v>
   <v type="int" >       12       35       36       36       64 </v>
   <v type="int" >       12       35       36       64       64 </v>
   <v type="int" >       12       35       35       63       64 </v>
   <v type="int" >       12       35       63       64       64 </v>
   <v type="int" >       12       33       33       35       63 </v>
   <v type="int" >       12       33       35       35       63 </v>
   <v type="int" >       12       33       35       63       63 </v>
   <v type="int" >       12       33       33       61       63 </v>
   <v type="int" >       12       33       61       61       63 </v>
   <v type="int" >       12       33       61       63       63 </v>
   <v type="int" >       12       30       30       33       61 </v>
   <v type="int" >       12       30       33       33       61 </v>
   <v type="int" >       12       30       33       61       61 </v>
   <v type="int" >       12       30       30       58       61 </v>
   <v type="int" >       12       30       58       58       61 </v>
   <v type="int" >       12       30       58       61       61 </v>
   <v type="int" >       12       26       26       30       58 </v>
   <v type="int" >       12       26       30       30       58 </v>
   <v type="int" >       12       26       30       58       58 </v>
   <v type="int" >       12       26       26       54       58 </v>
   <v type="int" >       12       26       54       54       58 </v>
   <v type="int" >       12       26       54       58       58 </v>
   <v type="int" >       12       21       21       26       54 </v>
   <v type="int" >       12       21       26       26       54 </v>
   <v type="int" >       12       21       26       54       54 </v>
   <v type="int" >       12       21       21       49       54 </v>
   <v type="int" >       12       21       49       49       54 </v>
   <v type="int" >       12       21       49       54       54 </v>
   <v type="int" >       12       15       15       21       49 </v>
   <v type="int" >       12       15       21       21       49 </v>
   <v type="int" >       12       15       21       49       49 </v>
   <v type="int" >       12       15       15       43       49 </v>
   <v type="int" >       12       15       43       43       49 </v>
   <v type="int" >       12       15       43       49       49 </v>
   <v type="int" >       12        8        8       15       43 </v>
   <v type="int" >       12        8       15       15       43 </v>
   <v type="int" >       12        8       15       43       43 </v>
   <v type="int" >       24        8        8        8       15 </v>
   <v type="int" >       12       34       35       36       64 </v>
   <v type="int" >       12       34       35       63       64 </v>
   <v type="int" >       12       34       62       63       64 </v>
   <v type="int" >       12       32       33       35       63 </v>
   <v type="int" >       12       32       34       35       63 </v>
   <v type="int" >       12       32       34       62       63 </v>
   <v type="int" >       12       32       33       61       63 </v>
   <v type="int" >       12       32       60       61       63 </v>
   <v type="int" >       12       32       60       62       63 </v>
   <v type="int" >       12       29       30       33       61 </v>
   <v type="int" >       12       29       32       33       61 </v>
   <v type="int" >       12       29       32       60       61 </v>
   <v type="int" >       12       29       30       58       61 </v>
   <v type="int" >       12       29       57       58       61 </v>
   <v type="int" >       12       29       57       60       61 </v>
   <v type="int" >       12       25       26       30       58 </v>
   <v type="int" >       12       25       29       30       58 </v>
   <v type="int" >       12       25       29       57       58 </v>
   <v type="int" >       12       25       26       54       58 </v>
   <v type="int" >       12       25       53       54       58 </v>
   <v type="int" >       12       25       53       57       58 </v>
   <v type="int" >       12       20       21       26       54 </v>
   <v type="int" >       12       20       25       26       54 </v>
   <v type="int" >       12       20       25       53       54 </v>
   <v type="int" >       12       20       21       49       54 </v>
   <v type="int" >       12       20       48       49       54 </v>
   <v type="int" >       12       20       48       53       54 </v>
   <v type="int" >       12       14       15       21       49 </v>
   <v type="int" >       12       14       20       21       49 </v>
   <v type="int" >       12       14       20       48       49 </v>
   <v type="int" >       12       14       15       43       49 </v>
   <v type="int" >       12       14       42       43       49 </v>
   <v type="int" >       12       14       42       48       49 </v>
   <v type="int" >       12        7        8       15       43 </v>
   <v type="int" >       12        7       14       15       43 </v>
   <v type="int" >       12        7       14       42       43 </v>
   <v type="int" >       12        7        8        8       15 </v>
   <v type="int" >       12        7        7        8       15 </v>
   <v type="int" >       12        7        7       14       15 </v>
   <v type="int" >       12        7        8       15       15 </v>
   <v type="int" >       12        7       14       15       15 </v>
   <v type="int" >       12       31       32       34       62 </v>
   <v type="int" >       12       31       32       60       62 </v>
   <v type="int" >       12       31       59       60       62 </v>
   <v type="int" >       12       28       29       32       60 </v>
   <v type="int" >       12       28       31       32       60 </v>
   <v type="int" >       12       28       31       59       60 </v>
   <v type="int" >       12       28       29       57       60 </v>
   <v type="int" >       12       28       56       57       60 </v>
   <v type="int" >       12       28       56       59       60 </v>
   <v type="int" >       12       24       25       29       57 </v>
   <v type="int" >       12       24       28       29       57 </v>
   <v type="int" >       12       24       28       56       57 </v>
   <v type="int" >       12       24       25       53       57 </v>
   <v type="int" >       12       24       52       53       57 </v>
   <v type="int" >       12       24       52       56       57 </v>
   <v type="int" >       12       19       20       25       53 </v>
   <v type="int" >       12       19       24       25       53 </v>
   <v type="int" >       12       19       24       52       53 </v>
   <v type="int" >       12       19       20       48       53 </v>
   <v type="int" >       12       19       47       48       53 </v>
   <v type="int" >       12       19       47       52       53 </v>
   <v type="int" >       12       13       14       20       48 </v>
   <v type="int" >       12       13       19       20       48 </v>
   <v type="int" >       12       13       19       47       48 </v>
   <v type="int" >       12       13       14       42       48 </v>
   <v type="int" >       12       13       41       42       48 </v>
   <v type="int" >       12       13       41       47       48 </v>
   <v type="int" >       12        6        7       14       42 </v>
   <v type="int" >       12        6       13       14       42 </v>
   <v type="int" >       12        6       13       41       42 </v>
   <v type="int" >       12        6        7        7       14 </v>
   <v type="int" >       12        6        6        7       14 </v>
   <v type="int" >       12        6        6       13       14 </v>
   <v type="int" >       12        6        7       14       14 </v>
   <v type="int" >       12        6       13       14       14 </v>
   <v type="int" >       12       27       28       31       59 </v>
   <v type="int" >       12       27       28       56       59 </v>
   <v type="int" >       12       27       55       56       59 </v>
   <v type="int" >       12       23       24       28       56 </v>
   <v type="int" >       12       23       27       28       56 </v>
   <v type="int" >       12       23       27       55       56 </v>
   <v type="int" >       12       23       24       52       56 </v>
   <v type="int" >       12       23       51       52       56 </v>
   <v type="int" >       12       23       51       55       56 </v>
   <v type="int" >       12       18       19       24       52 </v>
   <v type="int" >       12       18       23       24       52 </v>
   <v type="int" >       12       18       23       51       52 </v>
   <v type="int" >       12       18       19       47       52 </v>
   <v type="int" >       12       18       46       47       52 </v>
   <v type="int" >       12       18       46       51       52 </v>
   <v type="int" >       12       12       13       19       47 </v>
   <v type="int" >       12       12       18       19       47 </v>
   <v type="int" >       12       12       18       46       47 </v>
   <v type="int" >       12       12       13       41       47 </v>
   <v type="int" >       12       12       40       41       47 </v>
   <v type="int" >       12       12       40       46       47 </v>
   <v type="int" >       12        5        6       13       41 </v>
   <v type="int" >       12        5       12       13       41 </v>
   <v type="int" >       12        5       12       40       41 </v>
   <v type="int" >       12        5        6        6       13 </v>
   <v type="int" >       12        5        5        6       13 </v>
   <v type="int" >       12        5        5       12       13 </v>
   <v type="int" >       12        5        6       13       13 </v>
   <v type="int" >       12        5       12       13       13 </v>
   <v type="int" >       12       22       23       27       55 </v>
   <v type="int" >       12       22       23       51       55 </v>
   <v type="int" >       12       22       50       51       55 </v>
   <v type="int" >       12       17       18       23       51 </v>
   <v type="int" >       12       17       22       23       51 </v>
   <v type="int" >       12       17       22       50       51 </v>
   <v type="int" >       12       17       18       46       51 </v>
   <v type="int" >       12       17       45       46       51 </v>
   <v type="int" >       12       17       45       50       51 </v>
   <v type="int" >       12       11       12       18       46 </v>
   <v type="int" >       12       11       17       18       46 </v>
   <v type="int" >       12       11       17       45       46 </v>
   <v type="int" >       12       11       12       40       46 </v>
   <v type="int" >       12       11       39       40       46 </v>
   <v type="int" >       12       11       39       45       46 </v>
   <v type="int" >       12        4        5       12       40 </v>
   <v type="int" >       12        4       11       12       40 </v>
   <v type="int" >       12        4       11       39       40 </v>
   <v type="int" >       12        4        5        5       12 </v>
   <v type="int" >       12        4        4        5       12 </v>
   <v type="int" >       12        4        4       11       12 </v>
   <v type="int" >       12        4        5       12       12 </v>
   <v type="int" >       12        4       11       12       12 </v>
   <v type="int" >       12       16       17       22       50 </v>
   <v type="int" >       12       16       17       45       50 </v>
   <v type="int" >       12       16       44       45       50 </v>
   <v type="int" >       12       10       11       17       45 </v>
   <v type="int" >       12       10       16       17       45 </v>
   <v type="int" >       12       10       16       44       45 </v>
   <v type="int" >       12       10       11       39       45 </v>
   <v type="int" >       12       10       38       39       45 </v>
   <v type="int" >       12       10       38       44       45 </v>
   <v type="int" >       12        3        4       11       39 </v>
   <v type="int" >       12        3       10       11       39 </v>
   <v type="int" >       12        3       10       38       39 </v>
   <v type="int" >       12        3        4        4       11 </v>
   <v type="int" >       12        3        3        4       11 </v>
   <v type="int" >       12        3        3       10       11 </v>
   <v type="int" >       12        3        4       11       11 </v>
   <v type="int" >       12        3       10       11       11 </v>
   <v type="int" >       12        9       10       16       44 </v>
   <v type="int" >       12        9       10       38       44 </v>
   <v type="int" >       12        9       37       38       44 </v>
   <v type="int" >       12        2        3       10       38 </v>
   <v type="int" >       12        2        9       10       38 </v>
   <v type="int" >       12        2        9       37       38 </v>
   <v type="int" >       12        2        3        3       10 </v>
   <v type="int" >       12        2        2        3       10 </v>
   <v type="int" >       12        2        2        9       10 </v>
   <v type="int" >       12        2        3       10       10 </v>
   <v type="int" >       12        2        9       10       10 </v>
   <v type="int" >       12        1        2        9       37 </v>
   <v type="int" >       12        1        1        2        9 </v>
   <v type="int" >       12        1        2        9        9 </v>
   <v type="int" >       12        1        1        1        2 </v>
   <v type="int" >       12       37       38       38       44 </v>
   <v type="int" >       12       38       38       44       44 </v>
   <v type="int" >       12       38       44       44       65 </v>
   <v type="int" >       12       38       39       44       45 </v>
   <v type="int" >       12       38       44       44       45 </v>
   <v type="int" >       12       44       44       45       65 </v>
   <v type="int" >       12       39       44       45       45 </v>
   <v type="int" >       24       44       45       45       66 </v>
   <v type="int" >       24       44       45       65       66 </v>
   <v type="int" >       12       39       40       45       46 </v>
   <v type="int" >       12       39       45       45       46 </v>
   <v type="int" >       12       45       45       46       66 </v>
   <v type="int" >       12       40       45       46       46 </v>
   <v type="int" >       12       45       46       46       67 </v>
   <v type="int" >       12       45       46       66       67 </v>
   <v type="int" >       12       40       41       46       47 </v>
   <v type="int" >       12       40       46       46       47 </v>
   <v type="int" >       12       46       46       47       67 </v>
   <v type="int" >       12       41       46       47       47 </v>
   <v type="int" >       12       46       47       47       68 </v>
   <v type="int" >       12       46       47       67       68 </v>
   <v type="int" >       12       41       42       47       48 </v>
   <v type="int" >       12       41       47       47       48 </v>
   <v type="int" >       12       47       47       48       68 </v>
   <v type="int" >       12       42       47       48       48 </v>
   <v type="int" >       12       47       48       48       69 </v>
   <v type="int" >       12       47       48       68       69 </v>
   <v type="int" >       12       42       43       48       49 </v>
   <v type="int" >       12       42       48       48       49 </v>
   <v type="int" >       12       48       48       49       69 </v>
   <v type="int" >       12       43       48       49       49 </v>
   <v type="int" >       12       48       49       49       70 </v>
   <v type="int" >       12       48       49       69       70 </v>
   <v type="int" >        6       43       43       49       49 </v>
   <v type="int" >       12       43       49       49       49 </v>
   <v type="int" >       12       49       49       49       70 </v>
   <v type="int" >        6       49       49       70       70 </v>
   <v type="int" >        6        9        9       10       10 </v>
   <v type="int" >       12        9       10       10       10 </v>
   <v type="int" >       12       10       10       10       16 </v>
   <v type="int" >        6       10       10       16       16 </v>
   <v type="int" >       12       44       45       50       65 </v>
   <v type="int" >       12       45       50       65       66 </v>
   <v type="int" >       12       50       65       66       71 </v>
   <v type="int" >       12       45       46       51       66 </v>
   <v type="int" >       12       45       50       51       66 </v>
   <v type="int" >       12       50       51       66       71 </v>
   <v type="int" >       12       46       51       66       67 </v>
   <v type="int" >       12       51       66       67       72 </v>
   <v type="int" >       12       51       66       71       72 </v>
   <v type="int" >       12       46       47       52       67 </v>
   <v type="int" >       12       46       51       52       67 </v>
   <v type="int" >       12       51       52       67       72 </v>
   <v type="int" >       12       47       52       67       68 </v>
   <v type="int" >       12       52       67       68       73 </v>
   <v type="int" >       12       52       67       72       73 </v>
   <v type="int" >       12       47       48       53       68 </v>
   <v type="int" >       12       47       52       53       68 </v>
   <v type="int" >       12       52       53       68       73 </v>
   <v type="int" >       12       48       53       68       69 </v>
   <v type="int" >       12       53       68       69       74 </v>
   <v type="int" >       12       53       68       73       74 </v>
   <v type="int" >       12       48       49       54       69 </v>
   <v type="int" >       12       48       53       54       69 </v>
   <v type="int" >       12       53       54       69       74 </v>
   <v type="int" >       12       49       54       69       70 </v>
   <v type="int" >       12       54       69       70       75 </v>
   <v type="int" >       12       54       69       74       75 </v>
   <v type="int" >       12       49       49       54       70 </v>
   <v type="int" >       12       49       54       54       70 </v>
   <v type="int" >       12       54       54       70       75 </v>
   <v type="int" >       12       49       54       70       70 </v>
   <v type="int" >       12       54       70       70       75 </v>
   <v type="int" >       12       54       70       75       75 </v>
   <v type="int" >       12       48       49       53       70 </v>
   <v type="int" >       12       49       53       54       70 </v>
   <v type="int" >       12       53       54       70       75 </v>
   <v type="int" >       12       48       53       69       70 </v>
   <v type="int" >       12       53       69       70       74 </v>
   <v type="int" >       12       53       70       74       75 </v>
   <v type="int" >       12       47       48       52       69 </v>
   <v type="int" >       12       48       52       53       69 </v>
   <v type="int" >       12       52       53       69       74 </v>
   <v type="int" >       12       47       52       68       69 </v>
   <v type="int" >       12       52       68       69       73 </v>
   <v type="int" >       12       52       69       73       74 </v>
   <v type="int" >       12       46       47       51       68 </v>
   <v type="int" >       12       47       51       52       68 </v>
   <v type="int" >       12       51       52       68       73 </v>
   <v type="int" >       12       46       51       67       68 </v>
   <v type="int" >       12       51       67       68       72 </v>
   <v type="int" >       12       51       68       72       73 </v>
   <v type="int" >       12       45       46       50       67 </v>
   <v type="int" >       12       46       50       51       67 </v>
   <v type="int" >       12       50       51       67       72 </v>
   <v type="int" >       12       45       50       66       67 </v>
   <v type="int" >       12       50       66       67       71 </v>
   <v type="int" >       12       50       67       71       72 </v>
   <v type="int" >       12       45       45       50       66 </v>
   <v type="int" >       12       45       50       66       71 </v>
   <v type="int" >       12       45       65       66       66 </v>
   <v type="int" >       12       45       66       66       71 </v>
   <v type="int" >       12       38       39       44       65 </v>
   <v type="int" >       12       39       44       45       65 </v>
   <v type="int" >       12       39       45       65       66 </v>
   <v type="int" >       12       10       10       11       16 </v>
   <v type="int" >       12       10       11       11       16 </v>
   <v type="int" >       12       11       11       16       17 </v>
   <v type="int" >       12       10       11       16       16 </v>
   <v type="int" >       12       11       16       16       17 </v>
   <v type="int" >       12       11       16       17       17 </v>
   <v type="int" >       12       50       51       55       71 </v>
   <v type="int" >       12       51       55       71       72 </v>
   <v type="int" >       12       55       71       72       76 </v>
   <v type="int" >       12       51       52       56       72 </v>
   <v type="int" >       12       51       55       56       72 </v>
   <v type="int" >       12       55       56       72       76 </v>
   <v type="int" >       12       52       56       72       73 </v>
   <v type="int" >       12       56       72       73       77 </v>
   <v type="int" >       12       56       72       76       77 </v>
   <v type="int" >       12       52       53       57       73 </v>
   <v type="int" >       12       52       56       57       73 </v>
   <v type="int" >       12       56       57       73       77 </v>
   <v type="int" >       12       53       57       73       74 </v>
   <v type="int" >       12       57       73       74       78 </v>
   <v type="int" >       12       57       73       77       78 </v>
   <v type="int" >       12       53       54       58       74 </v>
   <v type="int" >       12       53       57       58       74 </v>
   <v type="int" >       12       57       58       74       78 </v>
   <v type="int" >       12       54       58       74       75 </v>
   <v type="int" >       12       58       74       75       79 </v>
   <v type="int" >       12       58       74       78       79 </v>
   <v type="int" >       12       54       54       58       75 </v>
   <v type="int" >       12       54       58       58       75 </v>
   <v type="int" >       12       58       58       75       79 </v>
   <v type="int" >       12       54       58       75       75 </v>
   <v type="int" >       12       58       75       75       79 </v>
   <v type="int" >       12       58       75       79       79 </v>
   <v type="int" >       12       53       54       57       75 </v>
   <v type="int" >       12       54       57       58       75 </v>
   <v type="int" >       12       57       58       75       79 </v>
   <v type="int" >       12       53       57       74       75 </v>
   <v type="int" >       12       57       74       75       78 </v>
   <v type="int" >       12       57       75       78       79 </v>
   <v type="int" >       12       52       53       56       74 </v>
   <v type="int" >       12       53       56       57       74 </v>
   <v type="int" >       12       56       57       74       78 </v>
   <v type="int" >       12       52       56       73       74 </v>
   <v type="int" >       12       56       73       74       77 </v>
   <v type="int" >       12       56       74       77       78 </v>
   <v type="int" >       12       51       52       55       73 </v>
   <v type="int" >       12       52       55       56       73 </v>
   <v type="int" >       12       55       56       73       77 </v>
   <v type="int" >       12       51       55       72       73 </v>
   <v type="int" >       12       55       72       73       76 </v>
   <v type="int" >       12       55       73       76       77 </v>
   <v type="int" >       12       50       51       51       72 </v>
   <v type="int" >       12       51       51       55       72 </v>
   <v type="int" >       12       51       55       72       76 </v>
   <v type="int" >       12       50       51       71       72 </v>
   <v type="int" >       12       51       71       72       72 </v>
   <v type="int" >       12       51       72       72       76 </v>
   <v type="int" >       12       45       46       50       71 </v>
   <v type="int" >       12       46       50       51       71 </v>
   <v type="int" >       12       46       51       71       72 </v>
   <v type="int" >       12       45       46       66       71 </v>
   <v type="int" >       12       46       66       67       71 </v>
   <v type="int" >       12       46       67       71       72 </v>
   <v type="int" >       12       39       40       45       66 </v>
   <v type="int" >       12       40       45       46       66 </v>
   <v type="int" >       12       40       46       66       67 </v>
   <v type="int" >       12       11       11       12       17 </v>
   <v type="int" >       12       11       12       12       17 </v>
   <v type="int" >       12       12       12       17       18 </v>
   <v type="int" >       12       11       12       17       17 </v>
   <v type="int" >       12       12       17       17       18 </v>
   <v type="int" >       12       12       17       18       18 </v>
   <v type="int" >       12       55       56       59       76 </v>
   <v type="int" >       12       56       59       76       77 </v>
   <v type="int" >       12       59       76       77       80 </v>
   <v type="int" >       12       56       57       60       77 </v>
   <v type="int" >       12       56       59       60       77 </v>
   <v type="int" >       12       59       60       77       80 </v>
   <v type="int" >       12       57       60       77       78 </v>
   <v type="int" >       12       60       77       78       81 </v>
   <v type="int" >       12       60       77       80       81 </v>
   <v type="int" >       12       57       58       61       78 </v>
   <v type="int" >       12       57       60       61       78 </v>
   <v type="int" >       12       60       61       78       81 </v>
   <v type="int" >       12       58       61       78       79 </v>
   <v type="int" >       12       61       78       79       82 </v>
   <v type="int" >       12       61       78       81       82 </v>
   <v type="int" >       12       58       58       61       79 </v>
   <v type="int" >       12       58       61       61       79 </v>
   <v type="int" >       12       61       61       79       82 </v>
   <v type="int" >       12       58       61       79       79 </v>
   <v type="int" >       12       61       79       79       82 </v>
   <v type="int" >       12       61       79       82       82 </v>
   <v type="int" >       12       57       58       60       79 </v>
   <v type="int" >       12       58       60       61       79 </v>
   <v type="int" >       12       60       61       79       82 </v>
   <v type="int" >       12       57       60       78       79 </v>
   <v type="int" >       12       60       78       79       81 </v>
   <v type="int" >       12       60       79       81       82 </v>
   <v type="int" >       12       56       57       59       78 </v>
   <v type="int" >       12       57       59       60       78 </v>
   <v type="int" >       12       59       60       78       81 </v>
   <v type="int" >       12       56       59       77       78 </v>
   <v type="int" >       12       59       77       78       80 </v>
   <v type="int" >       12       59       78       80       81 </v>
   <v type="int" >       12       55       56       56       77 </v>
   <v type="int" >       12       56       56       59       77 </v>
   <v type="int" >       12       56       59       77       80 </v>
   <v type="int" >       12       55       56       76       77 </v>
   <v type="int" >       12       56       76       77       77 </v>
   <v type="int" >       12       56       77       77       80 </v>
   <v type="int" >       12       51       52       55       76 </v>
   <v type="int" >       12       52       55       56       76 </v>
   <v type="int" >       12       52       56       76       77 </v>
   <v type="int" >       12       51       52       72       76 </v>
   <v type="int" >       12       52       72       73       76 </v>
   <v type="int" >       12       52       73       76       77 </v>
   <v type="int" >       12       46       47       51       72 </v>
   <v type="int" >       12       47       51       52       72 </v>
   <v type="int" >       12       47       52       72       73 </v>
   <v type="int" >       12       46       47       67       72 </v>
   <v type="int" >       12       47       67       68       72 </v>
   <v type="int" >       12       47       68       72       73 </v>
   <v type="int" >       12       40       41       46       67 </v>
   <v type="int" >       12       41       46       47       67 </v>
   <v type="int" >       12       41       47       67       68 </v>
   <v type="int" >       12       12       12       13       18 </v>
   <v type="int" >       12       12       13       13       18 </v>
   <v type="int" >       12       13       13       18       19 </v>
   <v type="int" >       12       12       13       18       18 </v>
   <v type="int" >       12       13       18       18       19 </v>
   <v type="int" >       12       13       18       19       19 </v>
   <v type="int" >       12       59       60       62       80 </v>
   <v type="int" >       12       60       62       80       81 </v>
   <v type="int" >       12       62       80       81       83 </v>
   <v type="int" >       12       60       61       63       81 </v>
   <v type="int" >       12       60       62       63       81 </v>
   <v type="int" >       12       62       63       81       83 </v>
   <v type="int" >       12       61       63       81       82 </v>
   <v type="int" >       12       63       81       82       84 </v>
   <v type="int" >       12       63       81       83       84 </v>
   <v type="int" >       12       61       61       63       82 </v>
   <v type="int" >       12       61       63       63       82 </v>
   <v type="int" >       12       63       63       82       84 </v>
   <v type="int" >       12       61       63       82       82 </v>
   <v type="int" >       12       63       82       82       84 </v>
   <v type="int" >       12       63       82       84       84 </v>
   <v type="int" >       12       60       61       62       82 </v>
   <v type="int" >       12       61       62       63       82 </v>
   <v type="int" >       12       62       63       82       84 </v>
   <v type="int" >       12       60       62       81       82 </v>
   <v type="int" >       12       62       81       82       83 </v>
   <v type="int" >       12       62       82       83       84 </v>
   <v type="int" >       12       59       60       60       81 </v>
   <v type="int" >       12       60       60       62       81 </v>
   <v type="int" >       12       60       62       81       83 </v>
   <v type="int" >       12       59       60       80       81 </v>
   <v type="int" >       12       60       80       81       81 </v>
   <v type="int" >       12       60       81       81       83 </v>
   <v type="int" >       12       56       57       59       80 </v>
   <v type="int" >       12       57       59       60       80 </v>
   <v type="int" >       12       57       60       80       81 </v>
   <v type="int" >       12       56       57       77       80 </v>
   <v type="int" >       12       57       77       78       80 </v>
   <v type="int" >       12       57       78       80       81 </v>
   <v type="int" >       12       52       53       56       77 </v>
   <v type="int" >       12       53       56       57       77 </v>
   <v type="int" >       12       53       57       77       78 </v>
   <v type="int" >       12       52       53       73       77 </v>
   <v type="int" >       12       53       73       74       77 </v>
   <v type="int" >       12       53       74       77       78 </v>
   <v type="int" >       12       47       48       52       73 </v>
   <v type="int" >       12       48       52       53       73 </v>
   <v type="int" >       12       48       53       73       74 </v>
   <v type="int" >       12       47       48       68       73 </v>
   <v type="int" >       12       48       68       69       73 </v>
   <v type="int" >       12       48       69       73       74 </v>
   <v type="int" >       12       41       42       47       68 </v>
   <v type="int" >       12       42       47       48       68 </v>
   <v type="int" >       12       42       48       68       69 </v>
   <v type="int" >       12       13       13       14       19 </v>
   <v type="int" >       12       13       14       14       19 </v>
   <v type="int" >       12       14       14       19       20 </v>
   <v type="int" >       12       13       14       19       19 </v>
   <v type="int" >       12       14       19       19       20 </v>
   <v type="int" >       12       14       19       20       20 </v>
   <v type="int" >       12       62       63       64       83 </v>
   <v type="int" >       12       63       64       83       84 </v>
   <v type="int" >       12       64       83       84       85 </v>
   <v type="int" >       24       63       63       64       84 </v>
   <v type="int" >       12       63       64       64       84 </v>
   <v type="int" >       12       64       64       84       85 </v>
   <v type="int" >       12       63       64       84       84 </v>
   <v type="int" >       12       64       84       84       85 </v>
   <v type="int" >       12       64       84       85       85 </v>
   <v type="int" >       12       62       63       63       84 </v>
   <v type="int" >       12       63       64       84       85 </v>
   <v type="int" >       12       62       63       83       84 </v>
   <v type="int" >       12       63       83       84       84 </v>
   <v type="int" >       24       63       84       84       85 </v>
   <v type="int" >       12       60       61       62       83 </v>
   <v type="int" >       12       61       62       63       83 </v>
   <v type="int" >       12       61       63       83       84 </v>
   <v type="int" >       12       60       61       81       83 </v>
   <v type="int" >       12       61       81       82       83 </v>
   <v type="int" >       12       61       82       83       84 </v>
   <v type="int" >       12       57       58       60       81 </v>
   <v type="int" >       12       58       60       61       81 </v>
   <v type="int" >       12       58       61       81       82 </v>
[...]
       <r>  -24.8904    1.0000 </r>
       <r>  -24.8816    1.0000 </r>
       <r>  -24.8816    1.0000 </r>
       <r>  -24.8816    1.0000 </r>
       <r>  -24.8496    1.0000 </r>
       <r>  -24.8496    1.0000 </r>
       <r>  -24.8496    1.0000 </r>
       <r>  -24.8424    1.0000 </r>
       <r>  -24.8424    1.0000 </r>
       <r>  -24.8353    1.0000 </r>
       <r>  -24.8353    1.0000 </r>
       <r>  -24.8353    1.0000 </r>
       <r>    1.5907    1.0000 </r>
       <r>    1.7686    1.0000 </r>
       <r>    1.7686    1.0000 </r>
       <r>    1.7686    1.0000 </r>
       <r>    1.9462    1.0000 </r>
       <r>    1.9462    1.0000 </r>
       <r>    1.9462    1.0000 </r>
       <r>    2.1414    1.0000 </r>
       <r>    3.0577    1.0000 </r>
       <r>    3.0577    1.0000 </r>
       <r>    3.1109    1.0000 </r>
       <r>    3.1109    1.0000 </r>
       <r>    3.1109    1.0000 </r>
       <r>    3.1520    1.0000 </r>
       <r>    3.1520    1.0000 </r>
       <r>    3.1520    1.0000 </r>
       <r>    3.2209    1.0000 </r>
       <r>    3.2209    1.0000 </r>
       <r>    3.2209    1.0000 </r>
       <r>    3.2971    1.0000 </r>
       <r>    3.4065    1.0000 </r>
       <r>    3.4065    1.0000 </r>
       <r>    3.4065    1.0000 </r>
       <r>    3.4261    1.0000 </r>
       <r>    3.4261    1.0000 </r>
       <r>    3.5394    1.0000 </r>
       <r>    3.5394    1.0000 </r>
       <r>    3.5394    1.0000 </r>
       <r>    3.6104    1.0000 </r>
       <r>    3.6104    1.0000 </r>
       <r>    3.6593    1.0000 </r>
       <r>    3.6593    1.0000 </r>
       <r>    3.6593    1.0000 </r>
       <r>    3.7140    1.0000 </r>
       <r>    3.7140    1.0000 </r>
       <r>    3.7140    1.0000 </r>
       <r>    3.7146    1.0000 </r>
       <r>    3.7146    1.0000 </r>
       <r>    3.7146    1.0000 </r>
       <r>    3.7491    1.0000 </r>
       <r>    3.7491    1.0000 </r>
       <r>    3.7491    1.0000 </r>
       <r>    3.7571    1.0000 </r>
       <r>    3.7571    1.0000 </r>
       <r>    3.7571    1.0000 </r>
       <r>    3.8167    1.0000 </r>
       <r>    3.8167    1.0000 </r>
       <r>    3.8760    1.0000 </r>
       <r>    8.0172    0.0000 </r>
       <r>    8.0172    0.0000 </r>
       <r>    8.0172    0.0000 </r>
       <r>    8.0731    0.0000 </r>
       <r>    8.0731    0.0000 </r>
       <r>    8.0819    0.0000 </r>
       <r>    8.0819    0.0000 </r>
       <r>    8.0819    0.0000 </r>
       <r>    8.2105    0.0000 </r>
       <r>    8.2105    0.0000 </r>
       <r>    8.2137    0.0000 </r>
       <r>    8.2137    0.0000 </r>
       <r>    8.2137    0.0000 </r>
       <r>    8.2420    0.0000 </r>
       <r>    8.2420    0.0000 </r>
       <r>    8.2420    0.0000 </r>
       <r>    8.4291    0.0000 </r>
       <r>    8.4291    0.0000 </r>
       <r>    8.4291    0.0000 </r>
       <r>    8.4761    0.0000 </r>
       <r>    8.4762    0.0000 </r>
       <r>    8.4763    0.0000 </r>
       <r>    8.6115    0.0000 </r>
       <r>    8.6125    0.0000 </r>
      </set>
     </set>
    </set>
   </array>
  </eigenvalues>
  <separator name="orbital magnetization" >
   <v name="MAGDIPOLOUT">      0.00000000      0.00000000      0.00000000</v>
  </separator>
  <dos>
   <i name="efermi">      4.84122202 </i>
   <total>
    <array>
     <dimension dim="1">gridpoints</dimension>
     <dimension dim="2">spin</dimension>
     <field>energy</field>
     <field>total</field>
     <field>integrated</field>
     <set>
      <set comment="spin 1">
       <r>   -28.0718     0.0000     0.0000 </r>
       <r>   -27.9417     0.0000     0.0000 </r>
       <r>   -27.8116     0.0000     0.0000 </r>
       <r>   -27.6815     0.0000     0.0000 </r>
       <r>   -27.5515     0.0000     0.0000 </r>
       <r>   -27.4214     0.0000     0.0000 </r>
       <r>   -27.2913     0.0000     0.0000 </r>
       <r>   -27.1612     0.0000     0.0000 </r>
       <r>   -27.0311     0.0000     0.0000 </r>
       <r>   -26.9010     0.0000     0.0000 </r>
       <r>   -26.7709     0.0000     0.0000 </r>
       <r>   -26.6408     0.0000     0.0000 </r>
       <r>   -26.5107     0.0000     0.0000 </r>
       <r>   -26.3806     0.0000     0.0000 </r>
       <r>   -26.2505     0.0000     0.0000 </r>
       <r>   -26.1204     0.0000     0.0000 </r>
       <r>   -25.9903    30.0034     1.5437 </r>
       <r>   -25.8602    65.5979     7.8796 </r>
       <r>   -25.7301    68.6659    19.5822 </r>
       <r>   -25.6000    35.6666    26.2225 </r>
       <r>   -25.4699    49.2216    32.2396 </r>
       <r>   -25.3398    79.3525    39.4639 </r>
       <r>   -25.2097    85.3852    48.6273 </r>
       <r>   -25.0796    72.3445    59.6572 </r>
       <r>   -24.9495    67.7916    69.0825 </r>
       <r>   -24.8194   136.7730    82.7421 </r>
       <r>   -24.6893     0.0000    96.0000 </r>
       <r>   -24.5592     0.0000    96.0000 </r>
       <r>   -24.4291     0.0000    96.0000 </r>
       <r>   -24.2990     0.0000    96.0000 </r>
       <r>   -24.1689     0.0000    96.0000 </r>
       <r>   -24.0388     0.0000    96.0000 </r>
       <r>   -23.9087     0.0000    96.0000 </r>
       <r>   -23.7786     0.0000    96.0000 </r>
       <r>   -23.6485     0.0000    96.0000 </r>
       <r>   -23.5184     0.0000    96.0000 </r>
       <r>   -23.3883     0.0000    96.0000 </r>
       <r>   -23.2583     0.0000    96.0000 </r>
       <r>   -23.1282     0.0000    96.0000 </r>
       <r>   -22.9981     0.0000    96.0000 </r>
       <r>   -22.8680     0.0000    96.0000 </r>
       <r>   -22.7379     0.0000    96.0000 </r>
       <r>   -22.6078     0.0000    96.0000 </r>
       <r>   -22.4777     0.0000    96.0000 </r>
       <r>   -22.3476     0.0000    96.0000 </r>
       <r>   -22.2175     0.0000    96.0000 </r>
       <r>   -22.0874     0.0000    96.0000 </r>
       <r>   -21.9573     0.0000    96.0000 </r>
       <r>   -21.8272     0.0000    96.0000 </r>
       <r>   -21.6971     0.0000    96.0000 </r>
       <r>   -21.5670     0.0000    96.0000 </r>
       <r>   -21.4369     0.0000    96.0000 </r>
       <r>   -21.3068     0.0000    96.0000 </r>
       <r>   -21.1767     0.0000    96.0000 </r>
       <r>   -21.0466     0.0000    96.0000 </r>
       <r>   -20.9165     0.0000    96.0000 </r>
       <r>   -20.7864     0.0000    96.0000 </r>
       <r>   -20.6563     0.0000    96.0000 </r>
       <r>   -20.5262     0.0000    96.0000 </r>
       <r>   -20.3961     0.0000    96.0000 </r>
       <r>   -20.2660     0.0000    96.0000 </r>
       <r>   -20.1359     0.0000    96.0000 </r>
       <r>   -20.0058     0.0000    96.0000 </r>
       <r>   -19.8757     0.0000    96.0000 </r>
       <r>   -19.7456     0.0000    96.0000 </r>
       <r>   -19.6155     0.0000    96.0000 </r>
       <r>   -19.4854     0.0000    96.0000 </r>
       <r>   -19.3553     0.0000    96.0000 </r>
       <r>   -19.2252     0.0000    96.0000 </r>
       <r>   -19.0951     0.0000    96.0000 </r>
       <r>   -18.9651     0.0000    96.0000 </r>
       <r>   -18.8350     0.0000    96.0000 </r>
       <r>   -18.7049     0.0000    96.0000 </r>
       <r>   -18.5748     0.0000    96.0000 </r>
       <r>   -18.4447     0.0000    96.0000 </r>
       <r>   -18.3146     0.0000    96.0000 </r>
       <r>   -18.1845     0.0000    96.0000 </r>
       <r>   -18.0544     0.0000    96.0000 </r>
       <r>   -17.9243     0.0000    96.0000 </r>
       <r>   -17.7942     0.0000    96.0000 </r>
       <r>   -17.6641     0.0000    96.0000 </r>
       <r>   -17.5340     0.0000    96.0000 </r>
       <r>   -17.4039     0.0000    96.0000 </r>
       <r>   -17.2738     0.0000    96.0000 </r>
       <r>   -17.1437     0.0000    96.0000 </r>
       <r>   -17.0136     0.0000    96.0000 </r>
       <r>   -16.8835     0.0000    96.0000 </r>
       <r>   -16.7534     0.0000    96.0000 </r>
       <r>   -16.6233     0.0000    96.0000 </r>
       <r>   -16.4932     0.0000    96.0000 </r>
       <r>   -16.3631     0.0000    96.0000 </r>
       <r>   -16.2330     0.0000    96.0000 </r>
       <r>   -16.1029     0.0000    96.0000 </r>
       <r>   -15.9728     0.0000    96.0000 </r>
       <r>   -15.8427     0.0000    96.0000 </r>
       <r>   -15.7126     0.0000    96.0000 </r>
       <r>   -15.5825     0.0000    96.0000 </r>
       <r>   -15.4524     0.0000    96.0000 </r>
       <r>   -15.3223     0.0000    96.0000 </r>
       <r>   -15.1922     0.0000    96.0000 </r>
       <r>   -15.0621     0.0000    96.0000 </r>
       <r>   -14.9320     0.0000    96.0000 </r>
       <r>   -14.8020     0.0000    96.0000 </r>
       <r>   -14.6719     0.0000    96.0000 </r>
       <r>   -14.5418     0.0000    96.0000 </r>
       <r>   -14.4117     0.0000    96.0000 </r>
       <r>   -14.2816     0.0000    96.0000 </r>
       <r>   -14.1515     0.0000    96.0000 </r>
       <r>   -14.0214     0.0000    96.0000 </r>
       <r>   -13.8913     0.0000    96.0000 </r>
       <r>   -13.7612     0.0000    96.0000 </r>
       <r>   -13.6311     0.0000    96.0000 </r>
       <r>   -13.5010     0.0000    96.0000 </r>
       <r>   -13.3709     0.0000    96.0000 </r>
       <r>   -13.2408     0.0000    96.0000 </r>
       <r>   -13.1107     0.0000    96.0000 </r>
       <r>   -12.9806     0.0000    96.0000 </r>
       <r>   -12.8505     0.0000    96.0000 </r>
       <r>   -12.7204     0.0000    96.0000 </r>
       <r>   -12.5903     0.0000    96.0000 </r>
       <r>   -12.4602     0.0000    96.0000 </r>
       <r>   -12.3301     0.0000    96.0000 </r>
       <r>   -12.2000     0.0000    96.0000 </r>
       <r>   -12.0699     0.0000    96.0000 </r>
       <r>   -11.9398     0.0000    96.0000 </r>
       <r>   -11.8097     0.0000    96.0000 </r>
       <r>   -11.6796     0.0000    96.0000 </r>
       <r>   -11.5495     0.0000    96.0000 </r>
       <r>   -11.4194     0.0000    96.0000 </r>
       <r>   -11.2893     0.0000    96.0000 </r>
       <r>   -11.1592     0.0000    96.0000 </r>
       <r>   -11.0291     0.0000    96.0000 </r>
       <r>   -10.8990     0.0000    96.0000 </r>
       <r>   -10.7689     0.0000    96.0000 </r>
       <r>   -10.6388     0.0000    96.0000 </r>
       <r>   -10.5088     0.0000    96.0000 </r>
       <r>   -10.3787     0.0000    96.0000 </r>
       <r>   -10.2486     0.0000    96.0000 </r>
       <r>   -10.1185     0.0000    96.0000 </r>
       <r>    -9.9884     0.0000    96.0000 </r>
       <r>    -9.8583     0.0000    96.0000 </r>
       <r>    -9.7282     0.0000    96.0000 </r>
       <r>    -9.5981     0.0000    96.0000 </r>
       <r>    -9.4680     0.0000    96.0000 </r>
       <r>    -9.3379     0.0000    96.0000 </r>
       <r>    -9.2078     0.0000    96.0000 </r>
       <r>    -9.0777     0.0000    96.0000 </r>
       <r>    -8.9476     0.0000    96.0000 </r>
       <r>    -8.8175     0.0000    96.0000 </r>
       <r>    -8.6874     0.0000    96.0000 </r>
       <r>    -8.5573     0.0000    96.0000 </r>
       <r>    -8.4272     0.0000    96.0000 </r>
       <r>    -8.2971     0.0000    96.0000 </r>
       <r>    -8.1670     0.0000    96.0000 </r>
       <r>    -8.0369     0.0000    96.0000 </r>
       <r>    -7.9068     0.0000    96.0000 </r>
       <r>    -7.7767     0.0000    96.0000 </r>
       <r>    -7.6466     0.0000    96.0000 </r>
       <r>    -7.5165     0.0000    96.0000 </r>
       <r>    -7.3864     0.0000    96.0000 </r>
       <r>    -7.2563     0.0000    96.0000 </r>
       <r>    -7.1262     0.0000    96.0000 </r>
       <r>    -6.9961     0.0000    96.0000 </r>
       <r>    -6.8660     0.0000    96.0000 </r>
       <r>    -6.7359     0.0000    96.0000 </r>
       <r>    -6.6058     0.0000    96.0000 </r>
       <r>    -6.4757     0.0000    96.0000 </r>
       <r>    -6.3456     0.0000    96.0000 </r>
       <r>    -6.2156     0.0000    96.0000 </r>
       <r>    -6.0855     0.0000    96.0000 </r>
       <r>    -5.9554     0.0000    96.0000 </r>
       <r>    -5.8253     0.0000    96.0000 </r>
       <r>    -5.6952     0.0000    96.0000 </r>
       <r>    -5.5651     0.0000    96.0000 </r>
       <r>    -5.4350     0.0000    96.0000 </r>
       <r>    -5.3049     0.0000    96.0000 </r>
       <r>    -5.1748     0.0000    96.0000 </r>
       <r>    -5.0447     0.0000    96.0000 </r>
       <r>    -4.9146     0.0000    96.0000 </r>
       <r>    -4.7845     0.0000    96.0000 </r>
       <r>    -4.6544     0.0000    96.0000 </r>
       <r>    -4.5243     0.0000    96.0000 </r>
       <r>    -4.3942     0.0000    96.0000 </r>
       <r>    -4.2641     0.0000    96.0000 </r>
       <r>    -4.1340     0.0000    96.0000 </r>
       <r>    -4.0039     0.0000    96.0000 </r>
       <r>    -3.8738     0.0000    96.0000 </r>
       <r>    -3.7437     0.0000    96.0000 </r>
       <r>    -3.6136     0.0000    96.0000 </r>
       <r>    -3.4835     0.0000    96.0000 </r>
       <r>    -3.3534     0.0000    96.0000 </r>
       <r>    -3.2233     0.0000    96.0000 </r>
       <r>    -3.0932     0.0000    96.0000 </r>
       <r>    -2.9631     0.0000    96.0000 </r>
       <r>    -2.8330     0.0000    96.0000 </r>
       <r>    -2.7029     0.0000    96.0000 </r>
       <r>    -2.5728     0.0000    96.0000 </r>
       <r>    -2.4427     0.0000    96.0000 </r>
       <r>    -2.3126     0.0000    96.0000 </r>
       <r>    -2.1825     0.0000    96.0000 </r>
       <r>    -2.0525     0.0000    96.0000 </r>
       <r>    -1.9224     0.0000    96.0000 </r>
       <r>    -1.7923     0.0000    96.0000 </r>
       <r>    -1.6622     0.0000    96.0000 </r>
       <r>    -1.5321     0.0000    96.0000 </r>
       <r>    -1.4020     0.0000    96.0000 </r>
       <r>    -1.2719     0.0000    96.0000 </r>
       <r>    -1.1418     0.0000    96.0000 </r>
       <r>    -1.0117     0.2682    96.0120 </r>
       <r>    -0.8816     0.4715    96.0614 </r>
       <r>    -0.7515     0.6292    96.1339 </r>
       <r>    -0.6214     0.7697    96.2255 </r>
       <r>    -0.4913     0.9067    96.3342 </r>
       <r>    -0.3612     1.0275    96.4599 </r>
       <r>    -0.2311     1.1627    96.6023 </r>
       <r>    -0.1010     1.2905    96.7616 </r>
       <r>     0.0291     1.6428    96.9483 </r>
       <r>     0.1592     1.5204    97.1543 </r>
       <r>     0.2893     1.7641    97.3480 </r>
       <r>     0.4194     1.9335    97.5861 </r>
       <r>     0.5495     2.1202    97.8488 </r>
       <r>     0.6796     2.3578    98.1398 </r>
       <r>     0.8097     2.6473    98.4668 </r>
       <r>     0.9398     2.8935    98.8383 </r>
       <r>     1.0699     3.5115    99.2553 </r>
       <r>     1.2000    11.4842   100.1491 </r>
       <r>     1.3301    14.8832   101.8767 </r>
       <r>     1.4602    15.2051   103.8064 </r>
       <r>     1.5903    16.0786   105.9890 </r>
       <r>     1.7204    16.6826   108.0622 </r>
       <r>     1.8505    17.7058   110.3789 </r>
       <r>     1.9806    20.5288   112.9187 </r>
       <r>     2.1107    23.5876   115.6877 </r>
       <r>     2.2407    25.1990   118.6623 </r>
       <r>     2.3708    17.5772   121.4616 </r>
       <r>     2.5009    21.7067   124.4186 </r>
       <r>     2.6310    19.6553   127.2415 </r>
       <r>     2.7611    11.0432   129.0307 </r>
       <r>     2.8912     8.4574   130.3055 </r>
       <r>     3.0213     6.3902   131.3010 </r>
       <r>     3.1514    23.0504   132.6144 </r>
       <r>     3.2815    28.8288   135.9482 </r>
       <r>     3.4116    36.3455   139.9924 </r>
       <r>     3.5417    35.4733   144.9780 </r>
       <r>     3.6718    25.8367   148.7438 </r>
       <r>     3.8019    19.9122   151.5962 </r>
       <r>     3.9320    18.4920   154.0168 </r>
       <r>     4.0621    17.3783   156.3433 </r>
       <r>     4.1922    18.5396   158.6449 </r>
       <r>     4.3223    19.4582   161.0578 </r>
       <r>     4.4524    27.8917   163.9639 </r>
       <r>     4.5825    36.2727   168.1412 </r>
       <r>     4.7126    29.6917   172.5960 </r>
       <r>     4.8427    23.6736   176.0347 </r>
       <r>     4.9728    20.5860   178.9148 </r>
       <r>     5.1029    16.7096   181.3390 </r>
       <r>     5.2330    11.2591   183.0359 </r>
       <r>     5.3631     8.6097   184.3077 </r>
       <r>     5.4932     8.6252   185.4555 </r>
       <r>     5.6233     8.1130   186.5006 </r>
       <r>     5.7534     6.4572   187.5221 </r>
       <r>     5.8835     8.2735   188.3733 </r>
       <r>     6.0136     7.1262   189.3966 </r>
       <r>     6.1437     7.2440   190.3785 </r>
       <r>     6.2738     7.3444   191.3733 </r>
       <r>     6.4039     8.4224   192.5382 </r>
       <r>     6.5339    10.1608   193.6971 </r>
       <r>     6.6640    13.1034   195.4037 </r>
       <r>     6.7941    14.0047   197.2262 </r>
       <r>     6.9242    15.3153   199.0946 </r>
       <r>     7.0543    13.8273   201.0534 </r>
       <r>     7.1844    16.0602   203.0329 </r>
       <r>     7.3145    16.3141   205.2565 </r>
       <r>     7.4446    18.2806   207.4778 </r>
       <r>     7.5747    21.4497   210.2341 </r>
       <r>     7.7048    17.7913   212.9213 </r>
       <r>     7.8349    18.8399   215.5408 </r>
       <r>     7.9650    20.9990   218.2160 </r>
       <r>     8.0951    29.1576   221.2045 </r>
       <r>     8.2252    24.5583   224.5156 </r>
       <r>     8.3553    23.3482   227.4075 </r>
       <r>     8.4854    22.5094   230.3965 </r>
       <r>     8.6155    20.8079   233.2583 </r>
       <r>     8.7456    20.6855   236.0876 </r>
       <r>     8.8757    30.6166   239.5637 </r>
       <r>     9.0058     0.0000   240.0000 </r>
       <r>     9.1359     0.0000   240.0000 </r>
       <r>     9.2660     0.0000   240.0000 </r>
       <r>     9.3961     0.0000   240.0000 </r>
       <r>     9.5262     0.0000   240.0000 </r>
       <r>     9.6563     0.0000   240.0000 </r>
       <r>     9.7864     0.0000   240.0000 </r>
       <r>     9.9165     0.0000   240.0000 </r>
       <r>    10.0466     0.0000   240.0000 </r>
       <r>    10.1767     0.0000   240.0000 </r>
       <r>    10.3068     0.0000   240.0000 </r>
       <r>    10.4369     0.0000   240.0000 </r>
       <r>    10.5670     0.0000   240.0000 </r>
       <r>    10.6970     0.0000   240.0000 </r>
       <r>    10.8271     0.0000   240.0000 </r>
       <r>    10.9572     0.0000   240.0000 </r>
      </set>
     </set>
    </array>
   </total>
  </dos>
 </calculation>
 <structure name="finalpos" >
  <crystal>
   <varray name="basis" >
    <v>       6.60160000       0.00000000       0.00000000 </v>
    <v>       0.00000000       6.60160000       0.00000000 </v>
    <v>       0.00000000       0.00000000       6.60160000 </v>
   </varray>
   <i name="volume">    287.70513869 </i>
   <varray name="rec_basis" >
    <v>       0.15147843       0.00000000       0.00000000 </v>
    <v>       0.00000000       0.15147843       0.00000000 </v>
    <v>       0.00000000       0.00000000       0.15147843 </v>
   </varray>
  </crystal>
  <varray name="positions" >
   <v>       0.00000000       0.00000000       0.00000000 </v>
   <v>       0.25000000       0.25000000       0.25000000 </v>
   <v>       0.50000000       0.00000000       0.00000000 </v>
   <v>       0.75000000       0.25000000       0.25000000 </v>
   <v>       0.00000000       0.50000000       0.00000000 </v>
   <v>       0.25000000       0.75000000       0.25000000 </v>
   <v>       0.00000000       0.00000000       0.50000000 </v>
   <v>       0.25000000       0.25000000       0.75000000 </v>
   <v>       0.50000000       0.50000000       0.00000000 </v>
   <v>       0.75000000       0.75000000       0.25000000 </v>
   <v>       0.00000000       0.50000000       0.50000000 </v>
   <v>       0.25000000       0.75000000       0.75000000 </v>
   <v>       0.50000000       0.00000000       0.50000000 </v>
   <v>       0.75000000       0.25000000       0.75000000 </v>
   <v>       0.50000000       0.50000000       0.50000000 </v>
   <v>       0.75000000       0.75000000       0.75000000 </v>
  </varray>
 </structure>
</modeling>
