   3   3   0   0
  0.8743401E+02  0.3190316E-09  0.3190315E-09  0.2975800E-08  0.5000000E-15
  1.000000000000000E-004
  CAR 
 monolayer MoS2                          
      3.13367113    -19.66705682  301     -3.53879575      1.00000000
    -19.667  0.0000E+00  0.0000E+00
    -19.591  0.0000E+00  0.0000E+00
    -19.515  0.0000E+00  0.0000E+00
    -19.439  0.0000E+00  0.0000E+00
    -19.363  0.0000E+00  0.0000E+00
    -19.287 -0.1306E-27 -0.9922E-29
    -19.211 -0.5108E-25 -0.3892E-26
    -19.135 -0.1490E-22 -0.1137E-23
    -19.059 -0.3251E-20 -0.2482E-21
    -18.983 -0.5300E-18 -0.4053E-19
    -18.907 -0.6456E-16 -0.4947E-17
    -18.831 -0.5679E-14 -0.4366E-15
    -18.755 -0.3858E-12 -0.2976E-13
    -18.679 -0.1945E-10 -0.1508E-11
    -18.603 -0.7300E-09 -0.5699E-10
    -18.527 -0.2037E-07 -0.1605E-08
    -18.451 -0.4214E-06 -0.3363E-07
    -18.375 -0.6445E-05 -0.5234E-06
    -18.299 -0.7249E-04 -0.6033E-05
    -18.223 -0.5948E-03 -0.5124E-04
    -18.147 -0.3511E-02 -0.3181E-03
    -18.071 -0.1452E-01 -0.1422E-02
    -17.995 -0.3961E-01 -0.4432E-02
    -17.919 -0.5776E-01 -0.8822E-02
    -17.843  0.2102E-01 -0.7224E-02
    -17.767  0.3150E+00  0.1672E-01
    -17.691  0.7898E+00  0.7674E-01
    -17.615  0.1177E+01  0.1662E+00
    -17.539  0.1231E+01  0.2597E+00
    -17.463  0.1001E+01  0.3358E+00
    -17.387  0.7244E+00  0.3909E+00
    -17.311  0.5583E+00  0.4333E+00
    -17.235  0.5057E+00  0.4717E+00
    -17.159  0.4913E+00  0.5091E+00
    -17.083  0.4585E+00  0.5439E+00
    -17.007  0.4103E+00  0.5751E+00
    -16.931  0.3873E+00  0.6045E+00
    -16.855  0.4028E+00  0.6352E+00
    -16.779  0.3962E+00  0.6653E+00
    -16.703  0.3346E+00  0.6907E+00
    -16.627  0.3946E+00  0.7207E+00
    -16.551  0.8478E+00  0.7851E+00
    -16.475  0.1605E+01  0.9071E+00
    -16.399  0.2129E+01  0.1069E+01
    -16.323  0.2076E+01  0.1227E+01
    -16.247  0.1708E+01  0.1357E+01
    -16.171  0.1442E+01  0.1466E+01
    -16.095  0.1396E+01  0.1572E+01
    -16.019  0.1597E+01  0.1694E+01
    -15.943  0.2133E+01  0.1856E+01
    -15.867  0.2925E+01  0.2078E+01
    -15.791  0.3777E+01  0.2365E+01
    -15.715  0.4606E+01  0.2715E+01
    -15.639  0.5199E+01  0.3110E+01
    -15.563  0.5049E+01  0.3494E+01
    -15.487  0.3913E+01  0.3791E+01
    -15.411  0.2246E+01  0.3962E+01
    -15.335  0.8084E+00  0.4024E+01
    -15.259  0.3430E-01  0.4026E+01
    -15.183 -0.1660E+00  0.4014E+01
    -15.107 -0.1174E+00  0.4005E+01
    -15.031 -0.4628E-01  0.4001E+01
    -14.955 -0.1223E-01  0.4000E+01
    -14.879 -0.2282E-02  0.4000E+01
    -14.803 -0.3078E-03  0.4000E+01
    -14.727 -0.3035E-04  0.4000E+01
    -14.651 -0.2202E-05  0.4000E+01
    -14.575 -0.1182E-06  0.4000E+01
    -14.499 -0.4702E-08  0.4000E+01
    -14.423 -0.1391E-09  0.4000E+01
    -14.347 -0.3062E-11  0.4000E+01
    -14.271 -0.5025E-13  0.4000E+01
    -14.195 -0.5843E-15  0.4000E+01
    -14.119  0.0000E+00  0.4000E+01
    -14.043  0.0000E+00  0.4000E+01
    -13.967  0.0000E+00  0.4000E+01
    -13.891  0.0000E+00  0.4000E+01
    -13.815  0.0000E+00  0.4000E+01
    -13.739  0.0000E+00  0.4000E+01
    -13.663  0.0000E+00  0.4000E+01
    -13.587  0.0000E+00  0.4000E+01
    -13.511  0.0000E+00  0.4000E+01
    -13.435  0.0000E+00  0.4000E+01
    -13.359  0.0000E+00  0.4000E+01
    -13.283  0.0000E+00  0.4000E+01
    -13.207  0.0000E+00  0.4000E+01
    -13.131  0.0000E+00  0.4000E+01
    -13.055  0.0000E+00  0.4000E+01
    -12.979  0.0000E+00  0.4000E+01
    -12.903  0.0000E+00  0.4000E+01
    -12.827  0.0000E+00  0.4000E+01
    -12.751  0.0000E+00  0.4000E+01
    -12.675  0.0000E+00  0.4000E+01
    -12.599  0.0000E+00  0.4000E+01
    -12.523  0.0000E+00  0.4000E+01
    -12.447  0.0000E+00  0.4000E+01
    -12.371  0.0000E+00  0.4000E+01
    -12.295  0.0000E+00  0.4000E+01
    -12.219  0.0000E+00  0.4000E+01
    -12.143  0.0000E+00  0.4000E+01
    -12.067  0.0000E+00  0.4000E+01
    -11.991  0.0000E+00  0.4000E+01
    -11.915  0.0000E+00  0.4000E+01
    -11.839  0.0000E+00  0.4000E+01
    -11.763  0.0000E+00  0.4000E+01
    -11.687  0.0000E+00  0.4000E+01
    -11.611  0.0000E+00  0.4000E+01
    -11.535  0.0000E+00  0.4000E+01
    -11.459  0.0000E+00  0.4000E+01
    -11.383  0.0000E+00  0.4000E+01
    -11.307  0.0000E+00  0.4000E+01
    -11.231  0.0000E+00  0.4000E+01
    -11.155  0.0000E+00  0.4000E+01
    -11.079  0.0000E+00  0.4000E+01
    -11.003 -0.1182E-28  0.4000E+01
    -10.927 -0.5203E-26  0.4000E+01
    -10.851 -0.1714E-23  0.4000E+01
    -10.775 -0.4219E-21  0.4000E+01
    -10.699 -0.7762E-19  0.4000E+01
    -10.623 -0.1067E-16  0.4000E+01
    -10.547 -0.1096E-14  0.4000E+01
    -10.471 -0.8141E-13  0.4000E+01
    -10.395 -0.4631E-11  0.4000E+01
    -10.319 -0.1963E-09  0.4000E+01
    -10.243 -0.6185E-08  0.4000E+01
    -10.167 -0.1447E-06  0.4000E+01
    -10.091 -0.2505E-05  0.4000E+01
    -10.015 -0.3199E-04  0.4000E+01
     -9.939 -0.2994E-03  0.4000E+01
     -9.863 -0.2036E-02  0.4000E+01
     -9.787 -0.9889E-02  0.3999E+01
     -9.711 -0.3318E-01  0.3997E+01
     -9.635 -0.7036E-01  0.3991E+01
     -9.559 -0.6201E-01  0.3986E+01
     -9.483  0.1326E+00  0.3997E+01
     -9.407  0.6205E+00  0.4044E+01
     -9.331  0.1296E+01  0.4142E+01
     -9.255  0.1888E+01  0.4286E+01
     -9.179  0.2239E+01  0.4456E+01
     -9.103  0.2428E+01  0.4640E+01
     -9.027  0.2594E+01  0.4838E+01
     -8.951  0.2726E+01  0.5045E+01
     -8.875  0.2725E+01  0.5252E+01
     -8.799  0.2673E+01  0.5455E+01
     -8.723  0.2779E+01  0.5666E+01
     -8.647  0.3029E+01  0.5896E+01
     -8.571  0.3162E+01  0.6137E+01
     -8.495  0.3014E+01  0.6366E+01
     -8.419  0.2625E+01  0.6565E+01
     -8.343  0.2122E+01  0.6727E+01
     -8.267  0.1684E+01  0.6855E+01
     -8.191  0.1411E+01  0.6962E+01
     -8.115  0.1151E+01  0.7049E+01
     -8.039  0.7114E+00  0.7103E+01
     -7.963  0.2123E+00  0.7120E+01
     -7.887  0.4275E-01  0.7123E+01
     -7.811  0.5544E+00  0.7165E+01
     -7.735  0.1765E+01  0.7299E+01
     -7.659  0.3168E+01  0.7540E+01
     -7.583  0.3986E+01  0.7843E+01
     -7.507  0.3849E+01  0.8135E+01
     -7.431  0.3112E+01  0.8372E+01
     -7.355  0.2391E+01  0.8554E+01
     -7.279  0.2008E+01  0.8706E+01
     -7.203  0.1888E+01  0.8850E+01
     -7.127  0.1831E+01  0.8989E+01
     -7.051  0.1801E+01  0.9126E+01
     -6.975  0.1969E+01  0.9275E+01
     -6.899  0.2472E+01  0.9463E+01
     -6.823  0.3224E+01  0.9708E+01
     -6.747  0.3934E+01  0.1001E+02
     -6.671  0.4289E+01  0.1033E+02
     -6.595  0.4096E+01  0.1064E+02
     -6.519  0.3359E+01  0.1090E+02
     -6.443  0.2427E+01  0.1108E+02
     -6.367  0.1941E+01  0.1123E+02
     -6.291  0.2229E+01  0.1140E+02
     -6.215  0.2846E+01  0.1162E+02
     -6.139  0.3019E+01  0.1185E+02
     -6.063  0.2498E+01  0.1204E+02
     -5.987  0.1727E+01  0.1217E+02
     -5.911  0.1365E+01  0.1227E+02
     -5.835  0.1746E+01  0.1240E+02
     -5.759  0.2617E+01  0.1260E+02
     -5.683  0.3441E+01  0.1286E+02
     -5.607  0.3964E+01  0.1317E+02
     -5.531  0.4214E+01  0.1349E+02
     -5.455  0.4113E+01  0.1380E+02
     -5.379  0.3590E+01  0.1407E+02
     -5.303  0.2913E+01  0.1429E+02
     -5.227  0.2477E+01  0.1448E+02
     -5.151  0.2350E+01  0.1466E+02
     -5.075  0.2253E+01  0.1483E+02
     -4.999  0.1992E+01  0.1498E+02
     -4.923  0.1723E+01  0.1511E+02
     -4.847  0.1738E+01  0.1525E+02
     -4.771  0.2114E+01  0.1541E+02
     -4.695  0.2623E+01  0.1561E+02
     -4.619  0.2889E+01  0.1583E+02
     -4.543  0.2687E+01  0.1603E+02
     -4.467  0.2194E+01  0.1620E+02
     -4.391  0.1830E+01  0.1634E+02
     -4.315  0.1766E+01  0.1647E+02
     -4.239  0.1815E+01  0.1661E+02
     -4.163  0.1805E+01  0.1674E+02
     -4.087  0.1751E+01  0.1688E+02
     -4.011  0.1708E+01  0.1701E+02
     -3.935  0.1752E+01  0.1714E+02
     -3.859  0.2037E+01  0.1730E+02
     -3.783  0.2537E+01  0.1749E+02
     -3.707  0.2813E+01  0.1770E+02
     -3.631  0.2387E+01  0.1788E+02
     -3.555  0.1379E+01  0.1799E+02
     -3.479  0.4221E+00  0.1802E+02
     -3.403 -0.5081E-01  0.1802E+02
     -3.327 -0.1245E+00  0.1801E+02
     -3.251 -0.6708E-01  0.1800E+02
     -3.175 -0.2147E-01  0.1800E+02
     -3.099 -0.4648E-02  0.1800E+02
     -3.023 -0.7119E-03  0.1800E+02
     -2.947 -0.7878E-04  0.1800E+02
     -2.871 -0.6414E-05  0.1800E+02
     -2.795 -0.1221E-05  0.1800E+02
     -2.719 -0.1181E-04  0.1800E+02
     -2.643 -0.1211E-03  0.1800E+02
     -2.567 -0.9023E-03  0.1800E+02
     -2.491 -0.4804E-02  0.1800E+02
     -2.415 -0.1770E-01  0.1800E+02
     -2.339 -0.4177E-01  0.1800E+02
     -2.263 -0.4572E-01  0.1799E+02
     -2.186  0.6068E-01  0.1800E+02
     -2.110  0.3575E+00  0.1802E+02
     -2.034  0.7661E+00  0.1808E+02
     -1.958  0.1060E+01  0.1816E+02
     -1.882  0.1110E+01  0.1825E+02
     -1.806  0.1053E+01  0.1833E+02
     -1.730  0.1204E+01  0.1842E+02
     -1.654  0.1886E+01  0.1856E+02
     -1.578  0.3077E+01  0.1880E+02
     -1.502  0.4064E+01  0.1910E+02
     -1.426  0.4016E+01  0.1941E+02
     -1.350  0.3144E+01  0.1965E+02
     -1.274  0.2569E+01  0.1984E+02
     -1.198  0.2888E+01  0.2006E+02
     -1.122  0.3676E+01  0.2034E+02
     -1.046  0.4400E+01  0.2068E+02
     -0.970  0.4951E+01  0.2105E+02
     -0.894  0.5265E+01  0.2145E+02
     -0.818  0.5227E+01  0.2185E+02
     -0.742  0.4996E+01  0.2223E+02
     -0.666  0.4761E+01  0.2259E+02
     -0.590  0.4312E+01  0.2292E+02
     -0.514  0.3444E+01  0.2318E+02
     -0.438  0.2506E+01  0.2337E+02
     -0.362  0.2009E+01  0.2352E+02
     -0.286  0.1956E+01  0.2367E+02
     -0.210  0.1962E+01  0.2382E+02
     -0.134  0.1780E+01  0.2396E+02
     -0.058  0.1447E+01  0.2407E+02
      0.018  0.1162E+01  0.2416E+02
      0.094  0.1172E+01  0.2425E+02
      0.170  0.1539E+01  0.2436E+02
      0.246  0.1948E+01  0.2451E+02
      0.322  0.2054E+01  0.2467E+02
      0.398  0.1956E+01  0.2482E+02
      0.474  0.1993E+01  0.2497E+02
      0.550  0.2133E+01  0.2513E+02
      0.626  0.2009E+01  0.2528E+02
      0.702  0.1541E+01  0.2540E+02
      0.778  0.1064E+01  0.2548E+02
      0.854  0.8668E+00  0.2555E+02
      0.930  0.9605E+00  0.2562E+02
      1.006  0.1215E+01  0.2571E+02
      1.082  0.1417E+01  0.2582E+02
      1.158  0.1312E+01  0.2592E+02
      1.234  0.8590E+00  0.2598E+02
      1.310  0.3326E+00  0.2601E+02
      1.386  0.1624E-01  0.2601E+02
      1.462 -0.6492E-01  0.2600E+02
      1.538 -0.4339E-01  0.2600E+02
      1.614 -0.1579E-01  0.2600E+02
      1.690 -0.3805E-02  0.2600E+02
      1.766 -0.6441E-03  0.2600E+02
      1.842 -0.7851E-04  0.2600E+02
      1.918 -0.6982E-05  0.2600E+02
      1.994 -0.4565E-06  0.2600E+02
      2.070 -0.2206E-07  0.2600E+02
      2.146 -0.7899E-09  0.2600E+02
      2.222 -0.2102E-10  0.2600E+02
      2.298 -0.4164E-12  0.2600E+02
      2.374 -0.6233E-14  0.2600E+02
      2.450  0.0000E+00  0.2600E+02
      2.526  0.0000E+00  0.2600E+02
      2.602  0.0000E+00  0.2600E+02
      2.678  0.0000E+00  0.2600E+02
      2.754  0.0000E+00  0.2600E+02
      2.830  0.0000E+00  0.2600E+02
      2.906  0.0000E+00  0.2600E+02
      2.982  0.0000E+00  0.2600E+02
      3.058  0.0000E+00  0.2600E+02
      3.134  0.0000E+00  0.2600E+02
