    3    3    1    1
  0.8743401E+02  0.3190316E-09  0.3190315E-09  0.2975800E-08  0.5000000E-15
  1.000000000000000E-004
  CAR 
 monolayer MoS2                          
     18     30     13
 
  0.0000000E+00  0.0000000E+00  0.0000000E+00  0.3333333E-01
    1      -17.667057   1.000000
    2      -16.464485   1.000000
    3       -9.190125   1.000000
    4       -6.251591   1.000000
    5       -6.251558   1.000000
    6       -5.387855   1.000000
    7       -5.141687   1.000000
    8       -5.141661   1.000000
    9       -3.676331   0.955497
   10       -0.897258  -0.000000
   11       -0.897160  -0.000000
   12       -0.683620  -0.000000
   13       -0.683597  -0.000000
 
  0.5555556E-01  0.0000000E+00  0.0000000E+00  0.3333333E-01
    1      -17.623932   1.000000
    2      -16.443844   1.000000
    3       -9.138573   1.000000
    4       -6.353102   1.000000
    5       -6.203986   1.000000
    6       -5.677073   1.000000
    7       -5.215950   1.000000
    8       -4.918539   1.000000
    9       -3.697441   0.988294
   10       -0.969116  -0.000000
   11       -0.818184  -0.000000
   12       -0.816575  -0.000000
   13       -0.735769  -0.000000
 
  0.1111111E+00  0.0000000E+00  0.0000000E+00  0.3333333E-01
    1      -17.497287   1.000000
    2      -16.383351   1.000000
    3       -8.993785   1.000000
    4       -6.623672   1.000000
    5       -6.088144   1.000000
    6       -6.064885   1.000000
    7       -5.414097   1.000000
    8       -4.729180   1.000000
    9       -3.778814   1.035361
   10       -1.110069  -0.000000
   11       -1.091917  -0.000000
   12       -0.875053  -0.000000
   13       -0.609097  -0.000000
 
  0.1666667E+00  0.0000000E+00  0.0000000E+00  0.3333333E-01
    1      -17.295519   1.000000
    2      -16.287374   1.000000
    3       -8.791015   1.000000
    4       -6.980437   1.000000
    5       -6.518210   1.000000
    6       -5.848039   1.000000
    7       -5.682893   1.000000
    8       -4.714506   1.000000
    9       -3.958975   1.005693
   10       -1.379658  -0.000000
   11       -1.099238  -0.000000
   12       -1.062311  -0.000000
   13       -0.333775  -0.000000
 
  0.2222222E+00  0.0000000E+00  0.0000000E+00  0.3333333E-01
    1      -17.033300   1.000000
    2      -16.163533   1.000000
    3       -8.615561   1.000000
    4       -7.310044   1.000000
    5       -6.954994   1.000000
    6       -5.971548   1.000000
    7       -5.576109   1.000000
    8       -4.856114   1.000000
    9       -4.233470   1.000005
   10       -1.507148  -0.000000
   11       -1.251737  -0.000000
   12       -0.924270  -0.000000
   13       -0.054204  -0.000000
 
  0.2777778E+00  0.0000000E+00  0.0000000E+00  0.3333333E-01
    1      -16.732687   1.000000
    2      -16.023396   1.000000
    3       -8.617679   1.000000
    4       -7.482064   1.000000
    5       -7.385415   1.000000
    6       -6.242760   1.000000
    7       -5.282462   1.000000
    8       -5.064051   1.000000
    9       -4.499770   1.000000
   10       -1.484478  -0.000000
   11       -1.404023  -0.000000
   12       -0.621550  -0.000000
   13        0.185663  -0.000000
 
  0.3333333E+00  0.0000000E+00  0.0000000E+00  0.3333333E-01
    1      -16.424641   1.000000
    2      -15.882408   1.000000
    3       -8.825309   1.000000
    4       -7.782043   1.000000
    5       -7.519187   1.000000
    6       -6.472356   1.000000
    7       -5.257048   1.000000
    8       -5.007645   1.000000
    9       -4.613215   1.000000
   10       -1.494828  -0.000000
   11       -1.364191  -0.000000
   12       -0.286616  -0.000000
   13        0.367921  -0.000000
 
  0.3888889E+00  0.0000000E+00  0.0000000E+00  0.3333333E-01
    1      -16.149989   1.000000
    2      -15.759602   1.000000
    3       -9.084124   1.000000
    4       -8.107490   1.000000
    5       -7.573515   1.000000
    6       -6.645027   1.000000
    7       -5.398943   1.000000
    8       -4.789884   1.000000
    9       -4.527053   1.000000
   10       -1.522110  -0.000000
   11       -1.202733  -0.000000
   12       -0.003638  -0.000000
   13        0.490121  -0.000000
 
  0.4444444E+00  0.0000000E+00  0.0000000E+00  0.3333333E-01
    1      -15.956303   1.000000
    2      -15.675053   1.000000
    3       -9.279849   1.000000
    4       -8.322515   1.000000
    5       -7.650586   1.000000
    6       -6.752071   1.000000
    7       -5.482099   1.000000
    8       -4.654224   1.000000
    9       -4.358803   1.000000
   10       -1.511619  -0.000000
   11       -1.055608  -0.000000
   12        0.174849  -0.000000
   13        0.558596  -0.000000
 
  0.5000000E+00  0.0000000E+00  0.0000000E+00  0.3333333E-01
    1      -15.885879   1.000000
    2      -15.644823   1.000000
    3       -9.352233   1.000000
    4       -8.397906   1.000000
    5       -7.685897   1.000000
    6       -6.788291   1.000000
    7       -5.509429   1.000000
    8       -4.608599   1.000000
    9       -4.277482   1.000001
   10       -1.501638  -0.000000
   11       -0.992129  -0.000000
   12        0.233326  -0.000000
   13        0.580286  -0.000000
 
  0.5000000E+00  0.0000000E+00  0.0000000E+00  0.3333333E-01
    1      -15.885879   1.000000
    2      -15.644823   1.000000
    3       -9.352233   1.000000
    4       -8.397906   1.000000
    5       -7.685897   1.000000
    6       -6.788291   1.000000
    7       -5.509429   1.000000
    8       -4.608599   1.000000
    9       -4.277482   1.000001
   10       -1.501638  -0.000000
   11       -0.992129  -0.000000
   12        0.233326  -0.000000
   13        0.580288  -0.000000
 
  0.4814815E+00  0.3703704E-01  0.0000000E+00  0.3333333E-01
    1      -15.879572   1.000000
    2      -15.640483   1.000000
    3       -9.332321   1.000000
    4       -8.413117   1.000000
    5       -7.678931   1.000000
    6       -6.792366   1.000000
    7       -5.505336   1.000000
    8       -4.742057   1.000000
    9       -4.213603   1.000010
   10       -1.493742  -0.000000
   11       -0.984888  -0.000000
   12        0.257421  -0.000000
   13        0.522017  -0.000000
 
  0.4629630E+00  0.7407407E-01  0.0000000E+00  0.3333333E-01
    1      -15.861140   1.000000
    2      -15.627802   1.000000
    3       -9.273075   1.000000
    4       -8.457998   1.000000
    5       -7.659015   1.000000
    6       -6.799958   1.000000
    7       -5.497654   1.000000
    8       -5.024268   1.000000
    9       -4.126244   1.000132
   10       -1.482140  -0.000000
   11       -0.955185  -0.000000
   12        0.287115  -0.000000
   13        0.408963  -0.000000
 
  0.4444444E+00  0.1111111E+00  0.0000000E+00  0.3333333E-01
    1      -15.832081   1.000000
    2      -15.607936   1.000000
    3       -9.176053   1.000000
    4       -8.529872   1.000000
    5       -7.628501   1.000000
    6       -6.799681   1.000000
    7       -5.496308   1.000000
    8       -5.378852   1.000000
    9       -4.059207   1.000725
   10       -1.495545  -0.000000
   11       -0.886160  -0.000000
   12        0.118734  -0.000000
   13        0.484282  -0.000000
 
  0.4259259E+00  0.1481481E+00  0.0000000E+00  0.3333333E-01
    1      -15.794865   1.000000
    2      -15.582726   1.000000
    3       -9.043843   1.000000
    4       -8.622199   1.000000
    5       -7.591025   1.000000
    6       -6.781490   1.000000
    7       -5.774147   1.000000
    8       -5.511651   1.000000
    9       -4.001924   1.002535
   10       -1.551979  -0.000000
   11       -0.772771  -0.000000
   12       -0.097272  -0.000000
   13        0.627718  -0.000000
 
  0.4074074E+00  0.1851852E+00  0.0000000E+00  0.3333333E-01
    1      -15.752936   1.000000
    2      -15.554693   1.000000
    3       -8.880252   1.000000
    4       -8.724845   1.000000
    5       -7.552453   1.000000
    6       -6.741099   1.000000
    7       -6.184564   1.000000
    8       -5.550653   1.000000
    9       -3.939956   1.007846
   10       -1.647701  -0.000000
   11       -0.629613  -0.000000
   12       -0.292831  -0.000000
   13        0.782373  -0.000000
 
  0.3888889E+00  0.2222222E+00  0.0000000E+00  0.3333333E-01
    1      -15.710681   1.000000
    2      -15.526959   1.000000
    3       -8.825082   1.000000
    4       -8.690887   1.000000
    5       -7.521382   1.000000
    6       -6.680584   1.000000
    7       -6.582611   1.000000
    8       -5.613266   1.000000
    9       -3.866061   1.021395
   10       -1.767846  -0.000000
   11       -0.477768  -0.000000
   12       -0.446920  -0.000000
   13        0.925776  -0.000000
 
  0.3703704E+00  0.2592593E+00  0.0000000E+00  0.3333333E-01
    1      -15.673232   1.000000
    2      -15.502956   1.000000
    3       -8.909799   1.000000
    4       -8.484818   1.000000
    5       -7.518454   1.000000
    6       -6.928079   1.000000
    7       -6.608839   1.000000
    8       -5.691187   1.000000
    9       -3.783908   1.035458
   10       -1.891627  -0.000000
   11       -0.551891  -0.000000
   12       -0.339488  -0.000000
   13        1.039459  -0.000000
 
  0.3518519E+00  0.2962963E+00  0.0000000E+00  0.3333333E-01
    1      -15.646349   1.000000
    2      -15.486223   1.000000
    3       -8.967217   1.000000
    4       -8.284700   1.000000
    5       -7.591355   1.000000
    6       -7.141859   1.000000
    7       -6.543742   1.000000
    8       -5.763591   1.000000
    9       -3.711756   1.004819
   10       -1.990569  -0.000000
   11       -0.608703  -0.000000
   12       -0.238382  -0.000000
   13        1.110449  -0.000000
 
  0.3333333E+00  0.3333333E+00  0.0000000E+00  0.3333333E-01
    1      -15.636080   1.000000
    2      -15.480040   1.000000
    3       -8.988009   1.000000
    4       -8.177384   1.000000
    5       -7.678460   1.000000
    6       -7.192458   1.000000
    7       -6.515143   1.000000
    8       -5.796246   1.000000
    9       -3.680299   0.962469
   10       -2.029994  -0.000000
   11       -0.625748  -0.000000
   12       -0.199423  -0.000000
   13        1.133671  -0.000000
 
  0.3333333E+00  0.3333333E+00  0.0000000E+00  0.3333333E-01
    1      -15.636080   1.000000
    2      -15.480040   1.000000
    3       -8.988009   1.000000
    4       -8.177384   1.000000
    5       -7.678460   1.000000
    6       -7.192458   1.000000
    7       -6.515143   1.000000
    8       -5.796246   1.000000
    9       -3.680299   0.962469
   10       -2.029994  -0.000000
   11       -0.625748  -0.000000
   12       -0.199423  -0.000000
   13        1.133671  -0.000000
 
  0.2962963E+00  0.2962963E+00  0.0000000E+00  0.3333333E-01
    1      -15.687207   1.000000
    2      -15.508591   1.000000
    3       -8.895072   1.000000
    4       -8.451022   1.000000
    5       -7.391949   1.000000
    6       -7.080850   1.000000
    7       -6.627027   1.000000
    8       -5.657316   1.000000
    9       -3.817500   1.032006
   10       -1.872201  -0.000000
   11       -0.589606  -0.000000
   12       -0.374107  -0.000000
   13        1.058675  -0.000000
 
  0.2592593E+00  0.2592593E+00  0.0000000E+00  0.3333333E-01
    1      -15.855452   1.000000
    2      -15.596539   1.000000
    3       -8.682746   1.000000
    4       -8.608351   1.000000
    5       -7.233414   1.000000
    6       -6.817334   1.000000
    7       -6.660114   1.000000
    8       -5.363122   1.000000
    9       -4.102624   1.000248
   10       -1.584125  -0.000000
   11       -0.807155  -0.000000
   12       -0.575911  -0.000000
   13        0.909003  -0.000000
 
  0.2222222E+00  0.2222222E+00  0.0000000E+00  0.3333333E-01
    1      -16.134065   1.000000
    2      -15.734369   1.000000
    3       -8.703922   1.000000
    4       -8.145433   1.000000
    5       -7.262723   1.000000
    6       -6.931509   1.000000
    7       -6.142595   1.000000
    8       -5.051191   1.000000
    9       -4.342794   1.000000
   10       -1.534853  -0.000000
   11       -1.144432  -0.000000
   12       -0.687578  -0.000000
   13        0.766221  -0.000000
 
  0.1851852E+00  0.1851852E+00  0.0000000E+00  0.3333333E-01
    1      -16.482609   1.000000
    2      -15.901581   1.000000
    3       -8.582482   1.000000
    4       -7.564675   1.000000
    5       -7.385057   1.000000
    6       -6.897205   1.000000
    7       -5.717175   1.000000
    8       -4.789914   1.000000
    9       -4.460030   1.000000
   10       -1.722174  -0.000000
   11       -1.210667  -0.000000
   12       -0.899828  -0.000000
   13        0.583975  -0.000000
 
  0.1481481E+00  0.1481481E+00  0.0000000E+00  0.3333333E-01
    1      -16.847421   1.000000
    2      -16.074604   1.000000
    3       -8.520109   1.000000
    4       -7.403918   1.000000
    5       -7.012086   1.000000
    6       -6.618113   1.000000
    7       -5.584181   1.000000
    8       -4.620338   1.000000
    9       -4.360909   1.000000
   10       -1.697080  -0.000000
   11       -1.244263  -0.000000
   12       -1.104250  -0.000000
   13        0.287569  -0.000000
 
  0.1111111E+00  0.1111111E+00  0.0000000E+00  0.3333333E-01
    1      -17.179734   1.000000
    2      -16.232170   1.000000
    3       -8.685557   1.000000
    4       -7.132918   1.000000
    5       -6.611370   1.000000
    6       -6.072010   1.000000
    7       -5.763251   1.000000
    8       -4.568165   1.000000
    9       -4.067716   1.000592
   10       -1.497259  -0.000000
   11       -1.205989  -0.000000
   12       -1.154986  -0.000000
   13       -0.103762  -0.000000
 
  0.7407407E-01  0.7407407E-01  0.0000000E+00  0.3333333E-01
    1      -17.442298   1.000000
    2      -16.357106   1.000000
    3       -8.933512   1.000000
    4       -6.726908   1.000000
    5       -6.193194   1.000000
    6       -6.009775   1.000000
    7       -5.563550   1.000000
    8       -4.650218   1.000000
    9       -3.821328   1.031300
   10       -1.200483  -0.000000
   11       -1.153457  -0.000000
   12       -0.940697  -0.000000
   13       -0.498928  -0.000000
 
  0.3703704E-01  0.3703704E-01  0.0000000E+00  0.3333333E-01
    1      -17.609656   1.000000
    2      -16.437011   1.000000
    3       -9.121647   1.000000
    4       -6.385379   1.000000
    5       -6.188437   1.000000
    6       -5.736523   1.000000
    7       -5.245204   1.000000
    8       -4.876106   1.000000
    9       -3.705071   0.997645
   10       -0.991767  -0.000000
   11       -0.855375  -0.000000
   12       -0.790575  -0.000000
   13       -0.753431  -0.000000
 
  0.0000000E+00  0.0000000E+00  0.0000000E+00  0.3333333E-01
    1      -17.667057   1.000000
    2      -16.464485   1.000000
    3       -9.190125   1.000000
    4       -6.251591   1.000000
    5       -6.251558   1.000000
    6       -5.387855   1.000000
    7       -5.141687   1.000000
    8       -5.141661   1.000000
    9       -3.676331   0.955497
   10       -0.897236  -0.000000
   11       -0.897160  -0.000000
   12       -0.683627  -0.000000
   13       -0.683586  -0.000000
