<?xml version="1.0" encoding="ISO-8859-1"?>
<modeling>
 <generator>
  <i name="program" type="string">vasp </i>
  <i name="version" type="string">5.4.4.18Apr17-6-g9f103f2a35  </i>
  <i name="subversion" type="string">(build May 20 2018 16:52:39) complex            parallel </i>
  <i name="platform" type="string">LinuxIFC </i>
  <i name="date" type="string">2022 11 14 </i>
  <i name="time" type="string">12:17:19 </i>
 </generator>
 <incar>
  <i type="string" name="SYSTEM"> monolayer MoS2</i>
  <i type="string" name="PREC">normal</i>
  <i type="int" name="ICHARG">    11</i>
  <i name="EDIFF">      0.00000100</i>
  <i type="logical" name="LWAVE"> F  </i>
  <i type="logical" name="LCHARG"> F  </i>
  <v type="int" name="KPOINT_BSE">    -1     0     0     0</v>
 </incar>
 <structure name="primitive_cell" >
  <crystal>
   <varray name="basis" >
    <v>       3.19031600       0.00000000       0.00000000 </v>
    <v>      -1.59515800       2.76289400       0.00000000 </v>
    <v>       0.00000000       0.00000000      29.75800000 </v>
   </varray>
   <i name="volume">    262.30203784 </i>
   <varray name="rec_basis" >
    <v>       0.31344857       0.18096966       0.00000000 </v>
    <v>       0.00000000       0.36193933       0.00000000 </v>
    <v>       0.00000000       0.00000000       0.03360441 </v>
   </varray>
  </crystal>
  <varray name="positions" >
   <v>       0.33333300      -0.33333300       0.12500000 </v>
   <v>      -0.33333300       0.33333300       0.17758700 </v>
   <v>      -0.33333300       0.33333300       0.07241300 </v>
  </varray>
 </structure>
 <varray name="primitive_index" >
  <v type="int" >        1 </v>
  <v type="int" >        2 </v>
  <v type="int" >        3 </v>
 </varray>
 <kpoints>
  <generation param="listgenerated">
   <i name="divisions" type="int">      10 </i>
   <v>       0.00000000       0.00000000       0.00000000 </v>
   <v>       0.50000000       0.00000000       0.00000000 </v>
   <v>       0.33333333       0.33333333       0.00000000 </v>
   <v>       0.00000000       0.00000000       0.00000000 </v>
  </generation>
  <varray name="kpointlist" >
   <v>       0.00000000       0.00000000       0.00000000 </v>
   <v>       0.05555556       0.00000000       0.00000000 </v>
   <v>       0.11111111       0.00000000       0.00000000 </v>
   <v>       0.16666667       0.00000000       0.00000000 </v>
   <v>       0.22222222       0.00000000       0.00000000 </v>
   <v>       0.27777778       0.00000000       0.00000000 </v>
   <v>       0.33333333       0.00000000       0.00000000 </v>
   <v>       0.38888889       0.00000000       0.00000000 </v>
   <v>       0.44444444       0.00000000       0.00000000 </v>
   <v>       0.50000000       0.00000000       0.00000000 </v>
   <v>       0.50000000       0.00000000       0.00000000 </v>
   <v>       0.48148148       0.03703704       0.00000000 </v>
   <v>       0.46296296       0.07407407       0.00000000 </v>
   <v>       0.44444444       0.11111111       0.00000000 </v>
   <v>       0.42592593       0.14814815       0.00000000 </v>
   <v>       0.40740741       0.18518519       0.00000000 </v>
   <v>       0.38888889       0.22222222       0.00000000 </v>
   <v>       0.37037037       0.25925926       0.00000000 </v>
   <v>       0.35185185       0.29629630       0.00000000 </v>
   <v>       0.33333333       0.33333333       0.00000000 </v>
   <v>       0.33333333       0.33333333       0.00000000 </v>
   <v>       0.29629630       0.29629630       0.00000000 </v>
   <v>       0.25925926       0.25925926       0.00000000 </v>
   <v>       0.22222222       0.22222222       0.00000000 </v>
   <v>       0.18518519       0.18518519       0.00000000 </v>
   <v>       0.14814815       0.14814815       0.00000000 </v>
   <v>       0.11111111       0.11111111       0.00000000 </v>
   <v>       0.07407407       0.07407407       0.00000000 </v>
   <v>       0.03703704       0.03703704       0.00000000 </v>
   <v>       0.00000000       0.00000000       0.00000000 </v>
  </varray>
  <varray name="weights" >
   <v>       0.03333333 </v>
   <v>       0.03333333 </v>
   <v>       0.03333333 </v>
   <v>       0.03333333 </v>
   <v>       0.03333333 </v>
   <v>       0.03333333 </v>
   <v>       0.03333333 </v>
   <v>       0.03333333 </v>
   <v>       0.03333333 </v>
   <v>       0.03333333 </v>
   <v>       0.03333333 </v>
   <v>       0.03333333 </v>
   <v>       0.03333333 </v>
   <v>       0.03333333 </v>
   <v>       0.03333333 </v>
   <v>       0.03333333 </v>
   <v>       0.03333333 </v>
   <v>       0.03333333 </v>
   <v>       0.03333333 </v>
   <v>       0.03333333 </v>
   <v>       0.03333333 </v>
   <v>       0.03333333 </v>
   <v>       0.03333333 </v>
   <v>       0.03333333 </v>
   <v>       0.03333333 </v>
   <v>       0.03333333 </v>
   <v>       0.03333333 </v>
   <v>       0.03333333 </v>
   <v>       0.03333333 </v>
   <v>       0.03333333 </v>
  </varray>
 </kpoints>
 <parameters>
  <separator name="general" >
   <i type="string" name="SYSTEM">monolayer MoS2</i>
   <i type="logical" name="LCOMPAT"> F  </i>
  </separator>
  <separator name="electronic" >
   <i type="string" name="PREC">normal</i>
   <i name="ENMAX">    280.00000000</i>
   <i name="ENAUG">    345.27800000</i>
   <i name="EDIFF">      0.00000100</i>
   <i type="int" name="IALGO">    38</i>
   <i type="int" name="IWAVPR">    10</i>
   <i type="int" name="NBANDS">    13</i>
   <i name="NELECT">     18.00000000</i>
   <i type="int" name="TURBO">     0</i>
   <i type="int" name="IRESTART">     0</i>
   <i type="int" name="NREBOOT">     0</i>
   <i type="int" name="NMIN">     0</i>
   <i name="EREF">      0.00000000</i>
   <separator name="electronic smearing" >
    <i type="int" name="ISMEAR">     1</i>
    <i name="SIGMA">      0.20000000</i>
    <i name="KSPACING">      0.50000000</i>
    <i type="logical" name="KGAMMA"> T  </i>
   </separator>
   <separator name="electronic projectors" >
    <i type="logical" name="LREAL"> F  </i>
    <v name="ROPT">      0.00000000      0.00000000</v>
    <i type="int" name="LMAXPAW">  -100</i>
    <i type="int" name="LMAXMIX">     2</i>
    <i type="logical" name="NLSPLINE"> F  </i>
   </separator>
   <separator name="electronic startup" >
    <i type="int" name="ISTART">     0</i>
    <i type="int" name="ICHARG">    11</i>
    <i type="int" name="INIWAV">     1</i>
   </separator>
   <separator name="electronic spin" >
    <i type="int" name="ISPIN">     1</i>
    <i type="logical" name="LNONCOLLINEAR"> F  </i>
    <v name="MAGMOM">      1.00000000      1.00000000      1.00000000</v>
    <i name="NUPDOWN">     -1.00000000</i>
    <i type="logical" name="LSORBIT"> F  </i>
    <v name="SAXIS">      0.00000000      0.00000000      1.00000000</v>
    <i type="logical" name="LSPIRAL"> F  </i>
    <v name="QSPIRAL">      0.00000000      0.00000000      0.00000000</v>
    <i type="logical" name="LZEROZ"> F  </i>
   </separator>
   <separator name="electronic exchange-correlation" >
    <i type="logical" name="LASPH"> F  </i>
    <i type="logical" name="LMETAGGA"> F  </i>
   </separator>
   <separator name="electronic convergence" >
    <i type="int" name="NELM">    60</i>
    <i type="int" name="NELMDL">    -5</i>
    <i type="int" name="NELMIN">     2</i>
    <i name="ENINI">    280.00000000</i>
    <separator name="electronic convergence detail" >
     <i type="logical" name="LDIAG"> T  </i>
     <i type="logical" name="LSUBROT"> F  </i>
     <i name="WEIMIN">      0.00000000</i>
     <i name="EBREAK">      0.00000002</i>
     <i name="DEPER">      0.30000000</i>
     <i type="int" name="NRMM">     4</i>
     <i name="TIME">      0.40000000</i>
    </separator>
   </separator>
   <separator name="electronic mixer" >
    <i name="AMIX">      0.40000000</i>
    <i name="BMIX">      1.00000000</i>
    <i name="AMIN">      0.10000000</i>
    <i name="AMIX_MAG">      1.60000000</i>
    <i name="BMIX_MAG">      1.00000000</i>
    <separator name="electronic mixer details" >
     <i type="int" name="IMIX">     4</i>
     <i type="logical" name="MIXFIRST"> F  </i>
     <i type="int" name="MAXMIX">   -45</i>
     <i name="WC">    100.00000000</i>
     <i type="int" name="INIMIX">     1</i>
     <i type="int" name="MIXPRE">     1</i>
     <i type="int" name="MREMOVE">     5</i>
    </separator>
   </separator>
   <separator name="electronic dipolcorrection" >
    <i type="logical" name="LDIPOL"> F  </i>
    <i type="logical" name="LMONO"> F  </i>
    <i type="int" name="IDIPOL">     0</i>
    <i name="EPSILON">      1.00000000</i>
    <v name="DIPOL">   -100.00000000   -100.00000000   -100.00000000</v>
    <i name="EFIELD">      0.00000000</i>
   </separator>
  </separator>
  <separator name="grids" >
   <i type="int" name="NGX">    14</i>
   <i type="int" name="NGY">    14</i>
   <i type="int" name="NGZ">   126</i>
   <i type="int" name="NGXF">    28</i>
   <i type="int" name="NGYF">    28</i>
   <i type="int" name="NGZF">   252</i>
   <i type="logical" name="ADDGRID"> F  </i>
  </separator>
  <separator name="ionic" >
   <i type="int" name="NSW">     0</i>
   <i type="int" name="IBRION">    -1</i>
   <i type="int" name="MDALGO">     0</i>
   <i type="int" name="ISIF">     2</i>
   <i name="PSTRESS">      0.00000000</i>
   <i name="EDIFFG">      0.00001000</i>
   <i type="int" name="NFREE">     0</i>
   <i name="POTIM">      0.50000000</i>
   <i name="SMASS">     -3.00000000</i>
   <i name="SCALEE">      1.00000000</i>
  </separator>
  <separator name="ionic md" >
   <i name="TEBEG">      0.00010000</i>
   <i name="TEEND">      0.00010000</i>
   <i type="int" name="NBLOCK">     1</i>
   <i type="int" name="KBLOCK">     1</i>
   <i type="int" name="NPACO">   256</i>
   <i name="APACO">     16.00000000</i>
  </separator>
  <separator name="symmetry" >
   <i type="int" name="ISYM">     2</i>
   <i name="SYMPREC">      0.00001000</i>
  </separator>
  <separator name="dos" >
   <i type="int" name="LORBIT">     0</i>
   <v name="RWIGS">     -1.00000000     -1.00000000</v>
   <i type="int" name="NEDOS">   301</i>
   <i name="EMIN">     10.00000000</i>
   <i name="EMAX">    -10.00000000</i>
   <i name="EFERMI">      0.00000000</i>
  </separator>
  <separator name="writing" >
   <i type="int" name="NWRITE">     2</i>
   <i type="logical" name="LWAVE"> F  </i>
   <i type="logical" name="LDOWNSAMPLE"> F  </i>
   <i type="logical" name="LCHARG"> F  </i>
   <i type="logical" name="LPARD"> F  </i>
   <i type="logical" name="LVTOT"> F  </i>
   <i type="logical" name="LVHAR"> F  </i>
   <i type="logical" name="LELF"> F  </i>
   <i type="logical" name="LOPTICS"> F  </i>
   <v name="STM">      0.00000000      0.00000000      0.00000000      0.00000000      0.00000000      0.00000000      0.00000000</v>
  </separator>
  <separator name="performance" >
   <i type="int" name="NPAR">     1</i>
   <i type="int" name="NSIM">     4</i>
   <i type="int" name="NBLK">    -1</i>
   <i type="logical" name="LPLANE"> T  </i>
   <i type="logical" name="LSCALAPACK"> T  </i>
   <i type="logical" name="LSCAAWARE"> F  </i>
   <i type="logical" name="LSCALU"> F  </i>
   <i type="logical" name="LASYNC"> F  </i>
   <i type="logical" name="LORBITALREAL"> F  </i>
  </separator>
  <separator name="miscellaneous" >
   <i type="int" name="IDIOT">     3</i>
   <i type="int" name="ISPECIAL">     0</i>
   <i type="logical" name="LMUSIC"> F  </i>
   <v name="POMASS">     95.94000000     32.06600000</v>
   <v name="DARWINR">      0.00000000      0.00000000</v>
   <v name="DARWINV">      1.00000000      1.00000000</v>
   <i type="logical" name="LCORR"> T  </i>
  </separator>
  <i type="logical" name="GGA_COMPAT"> T  </i>
  <i type="logical" name="LBERRY"> F  </i>
  <i type="int" name="ICORELEVEL">     0</i>
  <i type="logical" name="LDAU"> F  </i>
  <i type="int" name="I_CONSTRAINED_M">     0</i>
  <separator name="electronic exchange-correlation" >
   <i type="string" name="GGA">--</i>
   <i type="int" name="VOSKOWN">     0</i>
   <i type="logical" name="LHFCALC"> F  </i>
   <i type="string" name="PRECFOCK"></i>
   <i type="logical" name="LSYMGRAD"> F  </i>
   <i type="logical" name="LHFONE"> F  </i>
   <i type="logical" name="LRHFCALC"> F  </i>
   <i type="logical" name="LTHOMAS"> F  </i>
   <i type="logical" name="LMODELHF"> F  </i>
   <i name="ENCUT4O">     -1.00000000</i>
   <i type="int" name="EXXOEP">     0</i>
   <i type="int" name="FOURORBIT">     0</i>
   <i name="AEXX">      0.00000000</i>
   <i name="HFALPHA">      0.00000000</i>
   <i name="MCALPHA">      0.00000000</i>
   <i name="ALDAX">      1.00000000</i>
   <i name="AGGAX">      1.00000000</i>
   <i name="ALDAC">      1.00000000</i>
   <i name="AGGAC">      1.00000000</i>
   <i type="int" name="NKREDX">     1</i>
   <i type="int" name="NKREDY">     1</i>
   <i type="int" name="NKREDZ">     1</i>
   <i type="logical" name="SHIFTRED"> F  </i>
   <i type="logical" name="ODDONLY"> F  </i>
   <i type="logical" name="EVENONLY"> F  </i>
   <i type="int" name="LMAXFOCK">     0</i>
   <i type="int" name="NMAXFOCKAE">     0</i>
   <i type="logical" name="LFOCKAEDFT"> F  </i>
   <i name="HFSCREEN">      0.00000000</i>
   <i name="HFSCREENC">      0.00000000</i>
   <i type="int" name="NBANDSGWLOW">     0</i>
  </separator>
  <separator name="vdW DFT" >
   <i type="logical" name="LUSE_VDW"> F  </i>
   <i name="Zab_VDW">     -0.84910000</i>
   <i name="PARAM1">      0.12340000</i>
   <i name="PARAM2">      1.00000000</i>
   <i name="PARAM3">      0.00000000</i>
  </separator>
  <separator name="model GW" >
   <i type="int" name="MODEL_GW">     0</i>
   <i name="MODEL_EPS0">     52.46040757</i>
   <i name="MODEL_ALPHA">      1.00000000</i>
  </separator>
  <separator name="linear response parameters" >
   <i type="logical" name="LEPSILON"> F  </i>
   <i type="logical" name="LRPA"> F  </i>
   <i type="logical" name="LNABLA"> F  </i>
   <i type="logical" name="LVEL"> F  </i>
   <i type="int" name="KINTER">     0</i>
   <i name="CSHIFT">      0.10000000</i>
   <i name="OMEGAMAX">     -1.00000000</i>
   <i name="DEG_THRESHOLD">      0.00200000</i>
   <i name="RTIME">     -0.10000000</i>
   <i name="WPLASMAI">      0.00000000</i>
   <v name="DFIELD">      0.00000000      0.00000000      0.00000000</v>
   <v name="WPLASMA">      0.00000000      0.00000000      0.00000000      0.00000000      0.00000000      0.00000000      0.00000000      0.00000000      0.00000000</v>
  </separator>
  <separator name="orbital magnetization" >
   <i type="logical" name="NUCIND"> F  </i>
   <v name="MAGPOS">      0.00000000      0.00000000      0.00000000</v>
   <i type="logical" name="LNICSALL"> T  </i>
   <i type="logical" name="ORBITALMAG"> F  </i>
   <i type="logical" name="LMAGBLOCH"> F  </i>
   <i type="logical" name="LCHIMAG"> F  </i>
   <i type="logical" name="LGAUGE"> T  </i>
   <i type="int" name="MAGATOM">     0</i>
   <v name="MAGDIPOL">      0.00000000      0.00000000      0.00000000</v>
   <v name="AVECCONST">      0.00000000      0.00000000      0.00000000</v>
  </separator>
  <separator name="response functions" >
   <i type="logical" name="LADDER"> F  </i>
   <i type="logical" name="LRPAFORCE"> F  </i>
   <i type="logical" name="LFXC"> F  </i>
   <i type="logical" name="LHARTREE"> T  </i>
   <i type="int" name="IBSE">     0</i>
   <v type="int" name="KPOINT">    -1     0     0     0</v>
   <i type="logical" name="LTCTE"> F  </i>
   <i type="logical" name="LTETE"> F  </i>
   <i type="logical" name="LTRIPLET"> F  </i>
   <i type="logical" name="LFXCEPS"> F  </i>
   <i type="logical" name="LFXHEG"> F  </i>
   <i type="int" name="NATURALO">     2</i>
   <i type="logical" name="L2ORDER"> F  </i>
   <i type="logical" name="LMP2LT"> F  </i>
   <i type="logical" name="LUSEW"> F  </i>
   <i name="ENCUTGW">     -2.00000000</i>
   <i name="ENCUTGWSOFT">     -2.00000000</i>
   <i name="ENCUTLF">     -1.00000000</i>
   <i type="int" name="LMAXMP2">    -1</i>
   <i name="SCISSOR">      0.00000000</i>
   <i type="int" name="NOMEGA">     0</i>
   <i type="int" name="NOMEGAR">     0</i>
   <i type="int" name="NBANDSGW">    -1</i>
   <i type="int" name="NBANDSO">    -1</i>
   <i type="int" name="NBANDSV">    -1</i>
   <i type="int" name="NELM">     1</i>
   <i type="int" name="NELMHF">     1</i>
   <i type="int" name="DIM">     3</i>
   <i type="int" name="ANTIRES">     0</i>
   <i name="OMEGAMAX">    -30.00000000</i>
   <i name="OMEGAMIN">    -30.00000000</i>
   <i name="OMEGATL">   -200.00000000</i>
   <i type="int" name="OMEGAGRID">   140</i>
   <i name="CSHIFT">     -0.10000000</i>
   <i type="logical" name="SELFENERGY"> F  </i>
   <i type="logical" name="LSPECTRAL"> F  </i>
   <i type="logical" name="LSPECTRALGW"> F  </i>
   <i type="logical" name="LSINGLES"> F  </i>
   <i type="logical" name="LFERMIGW"> F  </i>
   <i type="logical" name="ODDONLYGW"> F  </i>
   <i type="logical" name="EVENONLYGW"> F  </i>
   <i type="int" name="NKREDLFX">     1</i>
   <i type="int" name="NKREDLFY">     1</i>
   <i type="int" name="NKREDLFZ">     1</i>
   <i type="int" name="MAXMEM">  2800</i>
   <i type="int" name="TELESCOPE">     0</i>
   <i type="int" name="TAUPAR">     1</i>
   <i type="int" name="OMEGAPAR">    -1</i>
   <i name="LAMBDA">      1.00000000</i>
  </separator>
  <separator name="External order field" >
   <i name="OFIELD_KAPPA">      0.00000000</i>
   <v name="OFIELD_K">      0.00000000      0.00000000      0.00000000</v>
   <i name="OFIELD_Q6_NEAR">      0.00000000</i>
   <i name="OFIELD_Q6_FAR">      0.00000000</i>
   <i name="OFIELD_A">      0.00000000</i>
  </separator>
 </parameters>
 <atominfo>
  <atoms>       3 </atoms>
  <types>       2 </types>
  <array name="atoms" >
   <dimension dim="1">ion</dimension>
   <field type="string">element</field>
   <field type="int">atomtype</field>
   <set>
    <rc><c>Mo</c><c>   1</c></rc>
    <rc><c>S </c><c>   2</c></rc>
    <rc><c>S </c><c>   2</c></rc>
   </set>
  </array>
  <array name="atomtypes" >
   <dimension dim="1">type</dimension>
   <field type="int">atomspertype</field>
   <field type="string">element</field>
   <field>mass</field>
   <field>valence</field>
   <field type="string">pseudopotential</field>
   <set>
    <rc><c>   1</c><c>Mo</c><c>     95.94000000</c><c>      6.00000000</c><c> PAW_GGA Mo 08Jan2002                   </c></rc>
    <rc><c>   2</c><c>S </c><c>     32.06600000</c><c>      6.00000000</c><c> PAW_GGA S 21Jan2003                    </c></rc>
   </set>
  </array>
 </atominfo>
 <structure name="initialpos" >
  <crystal>
   <varray name="basis" >
    <v>       3.19031600       0.00000000       0.00000000 </v>
    <v>      -1.59515800       2.76289400       0.00000000 </v>
    <v>       0.00000000       0.00000000      29.75800000 </v>
   </varray>
   <i name="volume">    262.30203784 </i>
   <varray name="rec_basis" >
    <v>       0.31344857       0.18096966       0.00000000 </v>
    <v>       0.00000000       0.36193933       0.00000000 </v>
    <v>       0.00000000       0.00000000       0.03360441 </v>
   </varray>
  </crystal>
  <varray name="positions" >
   <v>       0.33333300       0.66666700       0.12500000 </v>
   <v>       0.66666700       0.33333300       0.17758700 </v>
   <v>       0.66666700       0.33333300       0.07241300 </v>
  </varray>
 </structure>
 <calculation>
  <scstep>
   <time name="dav">    1.64    1.65</time>
   <time name="total">    1.78    1.80</time>
   <energy>
    <i name="alphaZ">     10.00292264 </i>
    <i name="ewald">   5064.60431233 </i>
    <i name="hartreedc">  -5753.49340551 </i>
    <i name="XCdc">    -35.90682317 </i>
    <i name="pawpsdc">    477.53355177 </i>
    <i name="pawaedc">   -401.45553920 </i>
    <i name="eentropy">     -0.00526782 </i>
    <i name="bandstr">    -18.86818905 </i>
    <i name="atom">    772.51394549 </i>
    <i name="e_fr_energy">    114.92550749 </i>
    <i name="e_wo_entrp">    114.93077531 </i>
    <i name="e_0_energy">    114.92726343 </i>
   </energy>
  </scstep>
  <scstep>
   <time name="dav">    2.50    2.51</time>
   <time name="total">    2.50    2.51</time>
   <energy>
    <i name="e_fr_energy">     -7.57506460 </i>
    <i name="e_wo_entrp">     -7.57614696 </i>
    <i name="e_0_energy">     -7.57542538 </i>
   </energy>
  </scstep>
  <scstep>
   <time name="dav">    1.97    1.98</time>
   <time name="total">    1.97    1.99</time>
   <energy>
    <i name="e_fr_energy">    -21.14265640 </i>
    <i name="e_wo_entrp">    -21.14791072 </i>
    <i name="e_0_energy">    -21.14440784 </i>
   </energy>
  </scstep>
  <scstep>
   <time name="dav">    2.10    2.13</time>
   <time name="total">    2.10    2.13</time>
   <energy>
    <i name="e_fr_energy">    -21.41478828 </i>
    <i name="e_wo_entrp">    -21.42007319 </i>
    <i name="e_0_energy">    -21.41654992 </i>
   </energy>
  </scstep>
  <scstep>
   <time name="dav">    1.91    1.91</time>
   <time name="total">    1.91    1.91</time>
   <energy>
    <i name="e_fr_energy">    -21.42054905 </i>
    <i name="e_wo_entrp">    -21.42583449 </i>
    <i name="e_0_energy">    -21.42231086 </i>
   </energy>
  </scstep>
  <scstep>
   <time name="dav">    1.97    1.97</time>
   <time name="total">    1.97    1.98</time>
   <energy>
    <i name="e_fr_energy">    -21.42075845 </i>
    <i name="e_wo_entrp">    -21.42604392 </i>
    <i name="e_0_energy">    -21.42252027 </i>
   </energy>
  </scstep>
  <scstep>
   <time name="dav">    2.02    2.02</time>
   <time name="total">    2.02    2.03</time>
   <energy>
    <i name="e_fr_energy">    -21.42076701 </i>
    <i name="e_wo_entrp">    -21.42605249 </i>
    <i name="e_0_energy">    -21.42252884 </i>
   </energy>
  </scstep>
  <scstep>
   <time name="dav">    1.88    1.89</time>
   <time name="total">    1.88    1.89</time>
   <energy>
    <i name="alphaZ">     10.00292264 </i>
    <i name="ewald">   5064.60431233 </i>
    <i name="hartreedc">  -5753.49340551 </i>
    <i name="XCdc">    -35.90682317 </i>
    <i name="pawpsdc">    477.53355177 </i>
    <i name="pawaedc">   -401.45553920 </i>
    <i name="eentropy">      0.00528548 </i>
    <i name="bandstr">   -155.22501722 </i>
    <i name="atom">    772.51394549 </i>
    <i name="e_fr_energy">    -21.42076739 </i>
    <i name="e_wo_entrp">    -21.42605286 </i>
    <i name="e_0_energy">    -21.42252921 </i>
   </energy>
  </scstep>
  <structure>
   <crystal>
    <varray name="basis" >
     <v>       3.19031600       0.00000000       0.00000000 </v>
     <v>      -1.59515800       2.76289400       0.00000000 </v>
     <v>       0.00000000       0.00000000      29.75800000 </v>
    </varray>
    <i name="volume">    262.30203784 </i>
    <varray name="rec_basis" >
     <v>       0.31344857       0.18096966       0.00000000 </v>
     <v>       0.00000000       0.36193933       0.00000000 </v>
     <v>       0.00000000       0.00000000       0.03360441 </v>
    </varray>
   </crystal>
   <varray name="positions" >
    <v>       0.33333300       0.66666700       0.12500000 </v>
    <v>       0.66666700       0.33333300       0.17758700 </v>
    <v>       0.66666700       0.33333300       0.07241300 </v>
   </varray>
  </structure>
  <varray name="forces" >
   <v>       0.00000000      -0.00000000       0.00000000 </v>
   <v>      -0.00000000       0.00000000       0.11008341 </v>
   <v>      -0.00000000       0.00000000      -0.11008341 </v>
  </varray>
  <varray name="stress" >
   <v>      -3.53648026       0.00000000       0.00000000 </v>
   <v>       0.00000000      -3.53647846       0.00000000 </v>
   <v>       0.00000000       0.00000000       3.54128606 </v>
  </varray>
  <energy>
   <i name="e_fr_energy">    -21.42076739 </i>
   <i name="e_wo_entrp">    -21.42252921 </i>
   <i name="e_0_energy">      0.00528548 </i>
  </energy>
  <time name="totalsc">   17.85   17.95</time>
  <eigenvalues>
   <array>
    <dimension dim="1">band</dimension>
    <dimension dim="2">kpoint</dimension>
    <dimension dim="3">spin</dimension>
    <field>eigene</field>
    <field>occ</field>
    <set>
     <set comment="spin 1">
      <set comment="kpoint 1">
       <r>  -17.6671    1.0000 </r>
       <r>  -16.4645    1.0000 </r>
       <r>   -9.1901    1.0000 </r>
       <r>   -6.2516    1.0000 </r>
       <r>   -6.2516    1.0000 </r>
       <r>   -5.3879    1.0000 </r>
       <r>   -5.1417    1.0000 </r>
       <r>   -5.1417    1.0000 </r>
       <r>   -3.6763    0.9555 </r>
       <r>   -0.8973   -0.0000 </r>
       <r>   -0.8972   -0.0000 </r>
       <r>   -0.6836   -0.0000 </r>
       <r>   -0.6836   -0.0000 </r>
      </set>
      <set comment="kpoint 2">
       <r>  -17.6239    1.0000 </r>
       <r>  -16.4438    1.0000 </r>
       <r>   -9.1386    1.0000 </r>
       <r>   -6.3531    1.0000 </r>
       <r>   -6.2040    1.0000 </r>
       <r>   -5.6771    1.0000 </r>
       <r>   -5.2159    1.0000 </r>
       <r>   -4.9185    1.0000 </r>
       <r>   -3.6974    0.9883 </r>
       <r>   -0.9691   -0.0000 </r>
       <r>   -0.8182   -0.0000 </r>
       <r>   -0.8166   -0.0000 </r>
       <r>   -0.7358   -0.0000 </r>
      </set>
      <set comment="kpoint 3">
       <r>  -17.4973    1.0000 </r>
       <r>  -16.3834    1.0000 </r>
       <r>   -8.9938    1.0000 </r>
       <r>   -6.6237    1.0000 </r>
       <r>   -6.0881    1.0000 </r>
       <r>   -6.0649    1.0000 </r>
       <r>   -5.4141    1.0000 </r>
       <r>   -4.7292    1.0000 </r>
       <r>   -3.7788    1.0354 </r>
       <r>   -1.1101   -0.0000 </r>
       <r>   -1.0919   -0.0000 </r>
       <r>   -0.8751   -0.0000 </r>
       <r>   -0.6091   -0.0000 </r>
      </set>
      <set comment="kpoint 4">
       <r>  -17.2955    1.0000 </r>
       <r>  -16.2874    1.0000 </r>
       <r>   -8.7910    1.0000 </r>
       <r>   -6.9804    1.0000 </r>
       <r>   -6.5182    1.0000 </r>
       <r>   -5.8480    1.0000 </r>
       <r>   -5.6829    1.0000 </r>
       <r>   -4.7145    1.0000 </r>
       <r>   -3.9590    1.0057 </r>
       <r>   -1.3797   -0.0000 </r>
       <r>   -1.0992   -0.0000 </r>
       <r>   -1.0623   -0.0000 </r>
       <r>   -0.3338   -0.0000 </r>
      </set>
      <set comment="kpoint 5">
       <r>  -17.0333    1.0000 </r>
       <r>  -16.1635    1.0000 </r>
       <r>   -8.6156    1.0000 </r>
       <r>   -7.3100    1.0000 </r>
       <r>   -6.9550    1.0000 </r>
       <r>   -5.9715    1.0000 </r>
       <r>   -5.5761    1.0000 </r>
       <r>   -4.8561    1.0000 </r>
       <r>   -4.2335    1.0000 </r>
       <r>   -1.5071   -0.0000 </r>
       <r>   -1.2517   -0.0000 </r>
       <r>   -0.9243   -0.0000 </r>
       <r>   -0.0542   -0.0000 </r>
      </set>
      <set comment="kpoint 6">
       <r>  -16.7327    1.0000 </r>
       <r>  -16.0234    1.0000 </r>
       <r>   -8.6177    1.0000 </r>
       <r>   -7.4821    1.0000 </r>
       <r>   -7.3854    1.0000 </r>
       <r>   -6.2428    1.0000 </r>
       <r>   -5.2825    1.0000 </r>
       <r>   -5.0641    1.0000 </r>
       <r>   -4.4998    1.0000 </r>
       <r>   -1.4845   -0.0000 </r>
       <r>   -1.4040   -0.0000 </r>
       <r>   -0.6216   -0.0000 </r>
       <r>    0.1857   -0.0000 </r>
      </set>
      <set comment="kpoint 7">
       <r>  -16.4246    1.0000 </r>
       <r>  -15.8824    1.0000 </r>
       <r>   -8.8253    1.0000 </r>
       <r>   -7.7820    1.0000 </r>
       <r>   -7.5192    1.0000 </r>
       <r>   -6.4724    1.0000 </r>
       <r>   -5.2570    1.0000 </r>
       <r>   -5.0076    1.0000 </r>
       <r>   -4.6132    1.0000 </r>
       <r>   -1.4948   -0.0000 </r>
       <r>   -1.3642   -0.0000 </r>
       <r>   -0.2866   -0.0000 </r>
       <r>    0.3679   -0.0000 </r>
      </set>
      <set comment="kpoint 8">
       <r>  -16.1500    1.0000 </r>
       <r>  -15.7596    1.0000 </r>
       <r>   -9.0841    1.0000 </r>
       <r>   -8.1075    1.0000 </r>
       <r>   -7.5735    1.0000 </r>
       <r>   -6.6450    1.0000 </r>
       <r>   -5.3989    1.0000 </r>
       <r>   -4.7899    1.0000 </r>
       <r>   -4.5271    1.0000 </r>
       <r>   -1.5221   -0.0000 </r>
       <r>   -1.2027   -0.0000 </r>
       <r>   -0.0036   -0.0000 </r>
       <r>    0.4901   -0.0000 </r>
      </set>
      <set comment="kpoint 9">
       <r>  -15.9563    1.0000 </r>
       <r>  -15.6751    1.0000 </r>
       <r>   -9.2798    1.0000 </r>
       <r>   -8.3225    1.0000 </r>
       <r>   -7.6506    1.0000 </r>
       <r>   -6.7521    1.0000 </r>
       <r>   -5.4821    1.0000 </r>
       <r>   -4.6542    1.0000 </r>
       <r>   -4.3588    1.0000 </r>
       <r>   -1.5116   -0.0000 </r>
       <r>   -1.0556   -0.0000 </r>
       <r>    0.1748   -0.0000 </r>
       <r>    0.5586   -0.0000 </r>
      </set>
      <set comment="kpoint 10">
       <r>  -15.8859    1.0000 </r>
       <r>  -15.6448    1.0000 </r>
       <r>   -9.3522    1.0000 </r>
       <r>   -8.3979    1.0000 </r>
       <r>   -7.6859    1.0000 </r>
       <r>   -6.7883    1.0000 </r>
       <r>   -5.5094    1.0000 </r>
       <r>   -4.6086    1.0000 </r>
       <r>   -4.2775    1.0000 </r>
       <r>   -1.5016   -0.0000 </r>
       <r>   -0.9921   -0.0000 </r>
       <r>    0.2333   -0.0000 </r>
       <r>    0.5803   -0.0000 </r>
      </set>
      <set comment="kpoint 11">
       <r>  -15.8859    1.0000 </r>
       <r>  -15.6448    1.0000 </r>
       <r>   -9.3522    1.0000 </r>
       <r>   -8.3979    1.0000 </r>
       <r>   -7.6859    1.0000 </r>
       <r>   -6.7883    1.0000 </r>
       <r>   -5.5094    1.0000 </r>
       <r>   -4.6086    1.0000 </r>
       <r>   -4.2775    1.0000 </r>
       <r>   -1.5016   -0.0000 </r>
       <r>   -0.9921   -0.0000 </r>
       <r>    0.2333   -0.0000 </r>
       <r>    0.5803   -0.0000 </r>
      </set>
      <set comment="kpoint 12">
       <r>  -15.8796    1.0000 </r>
       <r>  -15.6405    1.0000 </r>
       <r>   -9.3323    1.0000 </r>
       <r>   -8.4131    1.0000 </r>
       <r>   -7.6789    1.0000 </r>
       <r>   -6.7924    1.0000 </r>
       <r>   -5.5053    1.0000 </r>
       <r>   -4.7421    1.0000 </r>
       <r>   -4.2136    1.0000 </r>
       <r>   -1.4937   -0.0000 </r>
       <r>   -0.9849   -0.0000 </r>
       <r>    0.2574   -0.0000 </r>
       <r>    0.5220   -0.0000 </r>
      </set>
      <set comment="kpoint 13">
       <r>  -15.8611    1.0000 </r>
       <r>  -15.6278    1.0000 </r>
       <r>   -9.2731    1.0000 </r>
       <r>   -8.4580    1.0000 </r>
       <r>   -7.6590    1.0000 </r>
       <r>   -6.8000    1.0000 </r>
       <r>   -5.4977    1.0000 </r>
       <r>   -5.0243    1.0000 </r>
       <r>   -4.1262    1.0001 </r>
       <r>   -1.4821   -0.0000 </r>
       <r>   -0.9552   -0.0000 </r>
       <r>    0.2871   -0.0000 </r>
       <r>    0.4090   -0.0000 </r>
      </set>
      <set comment="kpoint 14">
       <r>  -15.8321    1.0000 </r>
       <r>  -15.6079    1.0000 </r>
       <r>   -9.1761    1.0000 </r>
       <r>   -8.5299    1.0000 </r>
       <r>   -7.6285    1.0000 </r>
       <r>   -6.7997    1.0000 </r>
       <r>   -5.4963    1.0000 </r>
       <r>   -5.3789    1.0000 </r>
       <r>   -4.0592    1.0007 </r>
       <r>   -1.4955   -0.0000 </r>
       <r>   -0.8862   -0.0000 </r>
       <r>    0.1187   -0.0000 </r>
       <r>    0.4843   -0.0000 </r>
      </set>
      <set comment="kpoint 15">
       <r>  -15.7949    1.0000 </r>
       <r>  -15.5827    1.0000 </r>
       <r>   -9.0438    1.0000 </r>
       <r>   -8.6222    1.0000 </r>
       <r>   -7.5910    1.0000 </r>
       <r>   -6.7815    1.0000 </r>
       <r>   -5.7741    1.0000 </r>
       <r>   -5.5117    1.0000 </r>
       <r>   -4.0019    1.0025 </r>
       <r>   -1.5520   -0.0000 </r>
       <r>   -0.7728   -0.0000 </r>
       <r>   -0.0973   -0.0000 </r>
       <r>    0.6277   -0.0000 </r>
      </set>
      <set comment="kpoint 16">
       <r>  -15.7529    1.0000 </r>
       <r>  -15.5547    1.0000 </r>
       <r>   -8.8803    1.0000 </r>
       <r>   -8.7248    1.0000 </r>
       <r>   -7.5525    1.0000 </r>
       <r>   -6.7411    1.0000 </r>
       <r>   -6.1846    1.0000 </r>
       <r>   -5.5507    1.0000 </r>
       <r>   -3.9400    1.0078 </r>
       <r>   -1.6477   -0.0000 </r>
       <r>   -0.6296   -0.0000 </r>
       <r>   -0.2928   -0.0000 </r>
       <r>    0.7824   -0.0000 </r>
      </set>
      <set comment="kpoint 17">
       <r>  -15.7107    1.0000 </r>
       <r>  -15.5270    1.0000 </r>
       <r>   -8.8251    1.0000 </r>
       <r>   -8.6909    1.0000 </r>
       <r>   -7.5214    1.0000 </r>
       <r>   -6.6806    1.0000 </r>
       <r>   -6.5826    1.0000 </r>
       <r>   -5.6133    1.0000 </r>
       <r>   -3.8661    1.0214 </r>
       <r>   -1.7678   -0.0000 </r>
       <r>   -0.4778   -0.0000 </r>
       <r>   -0.4469   -0.0000 </r>
       <r>    0.9258   -0.0000 </r>
      </set>
      <set comment="kpoint 18">
       <r>  -15.6732    1.0000 </r>
       <r>  -15.5030    1.0000 </r>
       <r>   -8.9098    1.0000 </r>
       <r>   -8.4848    1.0000 </r>
       <r>   -7.5185    1.0000 </r>
       <r>   -6.9281    1.0000 </r>
       <r>   -6.6088    1.0000 </r>
       <r>   -5.6912    1.0000 </r>
       <r>   -3.7839    1.0355 </r>
       <r>   -1.8916   -0.0000 </r>
       <r>   -0.5519   -0.0000 </r>
       <r>   -0.3395   -0.0000 </r>
       <r>    1.0395   -0.0000 </r>
      </set>
      <set comment="kpoint 19">
       <r>  -15.6463    1.0000 </r>
       <r>  -15.4862    1.0000 </r>
       <r>   -8.9672    1.0000 </r>
       <r>   -8.2847    1.0000 </r>
       <r>   -7.5914    1.0000 </r>
       <r>   -7.1419    1.0000 </r>
       <r>   -6.5437    1.0000 </r>
       <r>   -5.7636    1.0000 </r>
       <r>   -3.7118    1.0048 </r>
       <r>   -1.9906   -0.0000 </r>
       <r>   -0.6087   -0.0000 </r>
       <r>   -0.2384   -0.0000 </r>
       <r>    1.1104   -0.0000 </r>
      </set>
      <set comment="kpoint 20">
       <r>  -15.6361    1.0000 </r>
       <r>  -15.4800    1.0000 </r>
       <r>   -8.9880    1.0000 </r>
       <r>   -8.1774    1.0000 </r>
       <r>   -7.6785    1.0000 </r>
       <r>   -7.1925    1.0000 </r>
       <r>   -6.5151    1.0000 </r>
       <r>   -5.7962    1.0000 </r>
       <r>   -3.6803    0.9625 </r>
       <r>   -2.0300   -0.0000 </r>
       <r>   -0.6257   -0.0000 </r>
       <r>   -0.1994   -0.0000 </r>
       <r>    1.1337   -0.0000 </r>
      </set>
      <set comment="kpoint 21">
       <r>  -15.6361    1.0000 </r>
       <r>  -15.4800    1.0000 </r>
       <r>   -8.9880    1.0000 </r>
       <r>   -8.1774    1.0000 </r>
       <r>   -7.6785    1.0000 </r>
       <r>   -7.1925    1.0000 </r>
       <r>   -6.5151    1.0000 </r>
       <r>   -5.7962    1.0000 </r>
       <r>   -3.6803    0.9625 </r>
       <r>   -2.0300   -0.0000 </r>
       <r>   -0.6257   -0.0000 </r>
       <r>   -0.1994   -0.0000 </r>
       <r>    1.1337   -0.0000 </r>
      </set>
      <set comment="kpoint 22">
       <r>  -15.6872    1.0000 </r>
       <r>  -15.5086    1.0000 </r>
       <r>   -8.8951    1.0000 </r>
       <r>   -8.4510    1.0000 </r>
       <r>   -7.3919    1.0000 </r>
       <r>   -7.0809    1.0000 </r>
       <r>   -6.6270    1.0000 </r>
       <r>   -5.6573    1.0000 </r>
       <r>   -3.8175    1.0320 </r>
       <r>   -1.8722   -0.0000 </r>
       <r>   -0.5896   -0.0000 </r>
       <r>   -0.3741   -0.0000 </r>
       <r>    1.0587   -0.0000 </r>
      </set>
      <set comment="kpoint 23">
       <r>  -15.8555    1.0000 </r>
       <r>  -15.5965    1.0000 </r>
       <r>   -8.6827    1.0000 </r>
       <r>   -8.6084    1.0000 </r>
       <r>   -7.2334    1.0000 </r>
       <r>   -6.8173    1.0000 </r>
       <r>   -6.6601    1.0000 </r>
       <r>   -5.3631    1.0000 </r>
       <r>   -4.1026    1.0002 </r>
       <r>   -1.5841   -0.0000 </r>
       <r>   -0.8072   -0.0000 </r>
       <r>   -0.5759   -0.0000 </r>
       <r>    0.9090   -0.0000 </r>
      </set>
      <set comment="kpoint 24">
       <r>  -16.1341    1.0000 </r>
       <r>  -15.7344    1.0000 </r>
       <r>   -8.7039    1.0000 </r>
       <r>   -8.1454    1.0000 </r>
       <r>   -7.2627    1.0000 </r>
       <r>   -6.9315    1.0000 </r>
       <r>   -6.1426    1.0000 </r>
       <r>   -5.0512    1.0000 </r>
       <r>   -4.3428    1.0000 </r>
       <r>   -1.5349   -0.0000 </r>
       <r>   -1.1444   -0.0000 </r>
       <r>   -0.6876   -0.0000 </r>
       <r>    0.7662   -0.0000 </r>
      </set>
      <set comment="kpoint 25">
       <r>  -16.4826    1.0000 </r>
       <r>  -15.9016    1.0000 </r>
       <r>   -8.5825    1.0000 </r>
       <r>   -7.5647    1.0000 </r>
       <r>   -7.3851    1.0000 </r>
       <r>   -6.8972    1.0000 </r>
       <r>   -5.7172    1.0000 </r>
       <r>   -4.7899    1.0000 </r>
       <r>   -4.4600    1.0000 </r>
       <r>   -1.7222   -0.0000 </r>
       <r>   -1.2107   -0.0000 </r>
       <r>   -0.8998   -0.0000 </r>
       <r>    0.5840   -0.0000 </r>
      </set>
      <set comment="kpoint 26">
       <r>  -16.8474    1.0000 </r>
       <r>  -16.0746    1.0000 </r>
       <r>   -8.5201    1.0000 </r>
       <r>   -7.4039    1.0000 </r>
       <r>   -7.0121    1.0000 </r>
       <r>   -6.6181    1.0000 </r>
       <r>   -5.5842    1.0000 </r>
       <r>   -4.6203    1.0000 </r>
       <r>   -4.3609    1.0000 </r>
       <r>   -1.6971   -0.0000 </r>
       <r>   -1.2443   -0.0000 </r>
       <r>   -1.1042   -0.0000 </r>
       <r>    0.2876   -0.0000 </r>
      </set>
      <set comment="kpoint 27">
       <r>  -17.1797    1.0000 </r>
       <r>  -16.2322    1.0000 </r>
       <r>   -8.6856    1.0000 </r>
       <r>   -7.1329    1.0000 </r>
       <r>   -6.6114    1.0000 </r>
       <r>   -6.0720    1.0000 </r>
       <r>   -5.7633    1.0000 </r>
       <r>   -4.5682    1.0000 </r>
       <r>   -4.0677    1.0006 </r>
       <r>   -1.4973   -0.0000 </r>
       <r>   -1.2060   -0.0000 </r>
       <r>   -1.1550   -0.0000 </r>
       <r>   -0.1038   -0.0000 </r>
      </set>
      <set comment="kpoint 28">
       <r>  -17.4423    1.0000 </r>
       <r>  -16.3571    1.0000 </r>
       <r>   -8.9335    1.0000 </r>
       <r>   -6.7269    1.0000 </r>
       <r>   -6.1932    1.0000 </r>
       <r>   -6.0098    1.0000 </r>
       <r>   -5.5636    1.0000 </r>
       <r>   -4.6502    1.0000 </r>
       <r>   -3.8213    1.0313 </r>
       <r>   -1.2005   -0.0000 </r>
       <r>   -1.1535   -0.0000 </r>
       <r>   -0.9407   -0.0000 </r>
       <r>   -0.4989   -0.0000 </r>
      </set>
      <set comment="kpoint 29">
       <r>  -17.6097    1.0000 </r>
       <r>  -16.4370    1.0000 </r>
       <r>   -9.1216    1.0000 </r>
       <r>   -6.3854    1.0000 </r>
       <r>   -6.1884    1.0000 </r>
       <r>   -5.7365    1.0000 </r>
       <r>   -5.2452    1.0000 </r>
       <r>   -4.8761    1.0000 </r>
       <r>   -3.7051    0.9976 </r>
       <r>   -0.9918   -0.0000 </r>
       <r>   -0.8554   -0.0000 </r>
       <r>   -0.7906   -0.0000 </r>
       <r>   -0.7534   -0.0000 </r>
      </set>
      <set comment="kpoint 30">
       <r>  -17.6671    1.0000 </r>
       <r>  -16.4645    1.0000 </r>
       <r>   -9.1901    1.0000 </r>
       <r>   -6.2516    1.0000 </r>
       <r>   -6.2516    1.0000 </r>
       <r>   -5.3879    1.0000 </r>
       <r>   -5.1417    1.0000 </r>
       <r>   -5.1417    1.0000 </r>
       <r>   -3.6763    0.9555 </r>
       <r>   -0.8972   -0.0000 </r>
       <r>   -0.8972   -0.0000 </r>
       <r>   -0.6836   -0.0000 </r>
       <r>   -0.6836   -0.0000 </r>
      </set>
     </set>
    </set>
   </array>
  </eigenvalues>
  <separator name="orbital magnetization" >
   <v name="MAGDIPOLOUT">      0.00000000      0.00000000      0.00000000</v>
  </separator>
  <dos>
   <i name="efermi">     -3.53879575 </i>
   <total>
    <array>
     <dimension dim="1">gridpoints</dimension>
     <dimension dim="2">spin</dimension>
     <field>energy</field>
     <field>total</field>
     <field>integrated</field>
     <set>
      <set comment="spin 1">
       <r>   -19.6671     0.0000     0.0000 </r>
       <r>   -19.5911     0.0000     0.0000 </r>
       <r>   -19.5151     0.0000     0.0000 </r>
       <r>   -19.4390     0.0000     0.0000 </r>
       <r>   -19.3630     0.0000     0.0000 </r>
       <r>   -19.2870    -0.0000    -0.0000 </r>
       <r>   -19.2110    -0.0000    -0.0000 </r>
       <r>   -19.1350    -0.0000    -0.0000 </r>
       <r>   -19.0590    -0.0000    -0.0000 </r>
       <r>   -18.9830    -0.0000    -0.0000 </r>
       <r>   -18.9070    -0.0000    -0.0000 </r>
       <r>   -18.8310    -0.0000    -0.0000 </r>
       <r>   -18.7550    -0.0000    -0.0000 </r>
       <r>   -18.6790    -0.0000    -0.0000 </r>
       <r>   -18.6030    -0.0000    -0.0000 </r>
       <r>   -18.5270    -0.0000    -0.0000 </r>
       <r>   -18.4510    -0.0000    -0.0000 </r>
       <r>   -18.3750    -0.0000    -0.0000 </r>
       <r>   -18.2990    -0.0001    -0.0000 </r>
       <r>   -18.2230    -0.0006    -0.0001 </r>
       <r>   -18.1470    -0.0035    -0.0003 </r>
       <r>   -18.0710    -0.0145    -0.0014 </r>
       <r>   -17.9950    -0.0396    -0.0044 </r>
       <r>   -17.9190    -0.0578    -0.0088 </r>
       <r>   -17.8430     0.0210    -0.0072 </r>
       <r>   -17.7670     0.3150     0.0167 </r>
       <r>   -17.6910     0.7898     0.0767 </r>
       <r>   -17.6150     1.1768     0.1662 </r>
       <r>   -17.5390     1.2307     0.2597 </r>
       <r>   -17.4630     1.0013     0.3358 </r>
       <r>   -17.3870     0.7244     0.3909 </r>
       <r>   -17.3110     0.5583     0.4333 </r>
       <r>   -17.2350     0.5057     0.4717 </r>
       <r>   -17.1590     0.4913     0.5091 </r>
       <r>   -17.0830     0.4585     0.5439 </r>
       <r>   -17.0070     0.4103     0.5751 </r>
       <r>   -16.9310     0.3873     0.6045 </r>
       <r>   -16.8550     0.4028     0.6352 </r>
       <r>   -16.7790     0.3962     0.6653 </r>
       <r>   -16.7030     0.3346     0.6907 </r>
       <r>   -16.6270     0.3946     0.7207 </r>
       <r>   -16.5510     0.8478     0.7851 </r>
       <r>   -16.4750     1.6046     0.9071 </r>
       <r>   -16.3990     2.1294     1.0689 </r>
       <r>   -16.3230     2.0762     1.2267 </r>
       <r>   -16.2469     1.7080     1.3565 </r>
       <r>   -16.1709     1.4417     1.4661 </r>
       <r>   -16.0949     1.3964     1.5722 </r>
       <r>   -16.0189     1.5970     1.6936 </r>
       <r>   -15.9429     2.1327     1.8557 </r>
       <r>   -15.8669     2.9254     2.0780 </r>
       <r>   -15.7909     3.7769     2.3651 </r>
       <r>   -15.7149     4.6060     2.7152 </r>
       <r>   -15.6389     5.1992     3.1103 </r>
       <r>   -15.5629     5.0485     3.4940 </r>
       <r>   -15.4869     3.9133     3.7914 </r>
       <r>   -15.4109     2.2461     3.9621 </r>
       <r>   -15.3349     0.8084     4.0236 </r>
       <r>   -15.2589     0.0343     4.0262 </r>
       <r>   -15.1829    -0.1660     4.0136 </r>
       <r>   -15.1069    -0.1174     4.0046 </r>
       <r>   -15.0309    -0.0463     4.0011 </r>
       <r>   -14.9549    -0.0122     4.0002 </r>
       <r>   -14.8789    -0.0023     4.0000 </r>
       <r>   -14.8029    -0.0003     4.0000 </r>
       <r>   -14.7269    -0.0000     4.0000 </r>
       <r>   -14.6509    -0.0000     4.0000 </r>
       <r>   -14.5749    -0.0000     4.0000 </r>
       <r>   -14.4989    -0.0000     4.0000 </r>
       <r>   -14.4229    -0.0000     4.0000 </r>
       <r>   -14.3469    -0.0000     4.0000 </r>
       <r>   -14.2709    -0.0000     4.0000 </r>
       <r>   -14.1949    -0.0000     4.0000 </r>
       <r>   -14.1189     0.0000     4.0000 </r>
       <r>   -14.0429     0.0000     4.0000 </r>
       <r>   -13.9669     0.0000     4.0000 </r>
       <r>   -13.8909     0.0000     4.0000 </r>
       <r>   -13.8149     0.0000     4.0000 </r>
       <r>   -13.7389     0.0000     4.0000 </r>
       <r>   -13.6629     0.0000     4.0000 </r>
       <r>   -13.5869     0.0000     4.0000 </r>
       <r>   -13.5109     0.0000     4.0000 </r>
       <r>   -13.4349     0.0000     4.0000 </r>
       <r>   -13.3589     0.0000     4.0000 </r>
       <r>   -13.2829     0.0000     4.0000 </r>
       <r>   -13.2069     0.0000     4.0000 </r>
       <r>   -13.1308     0.0000     4.0000 </r>
       <r>   -13.0548     0.0000     4.0000 </r>
       <r>   -12.9788     0.0000     4.0000 </r>
       <r>   -12.9028     0.0000     4.0000 </r>
       <r>   -12.8268     0.0000     4.0000 </r>
       <r>   -12.7508     0.0000     4.0000 </r>
       <r>   -12.6748     0.0000     4.0000 </r>
       <r>   -12.5988     0.0000     4.0000 </r>
       <r>   -12.5228     0.0000     4.0000 </r>
       <r>   -12.4468     0.0000     4.0000 </r>
       <r>   -12.3708     0.0000     4.0000 </r>
       <r>   -12.2948     0.0000     4.0000 </r>
       <r>   -12.2188     0.0000     4.0000 </r>
       <r>   -12.1428     0.0000     4.0000 </r>
       <r>   -12.0668     0.0000     4.0000 </r>
       <r>   -11.9908     0.0000     4.0000 </r>
       <r>   -11.9148     0.0000     4.0000 </r>
       <r>   -11.8388     0.0000     4.0000 </r>
       <r>   -11.7628     0.0000     4.0000 </r>
       <r>   -11.6868     0.0000     4.0000 </r>
       <r>   -11.6108     0.0000     4.0000 </r>
       <r>   -11.5348     0.0000     4.0000 </r>
       <r>   -11.4588     0.0000     4.0000 </r>
       <r>   -11.3828     0.0000     4.0000 </r>
       <r>   -11.3068     0.0000     4.0000 </r>
       <r>   -11.2308     0.0000     4.0000 </r>
       <r>   -11.1548     0.0000     4.0000 </r>
       <r>   -11.0788     0.0000     4.0000 </r>
       <r>   -11.0028    -0.0000     4.0000 </r>
       <r>   -10.9268    -0.0000     4.0000 </r>
       <r>   -10.8508    -0.0000     4.0000 </r>
       <r>   -10.7748    -0.0000     4.0000 </r>
       <r>   -10.6988    -0.0000     4.0000 </r>
       <r>   -10.6228    -0.0000     4.0000 </r>
       <r>   -10.5468    -0.0000     4.0000 </r>
       <r>   -10.4708    -0.0000     4.0000 </r>
       <r>   -10.3948    -0.0000     4.0000 </r>
       <r>   -10.3188    -0.0000     4.0000 </r>
       <r>   -10.2428    -0.0000     4.0000 </r>
       <r>   -10.1668    -0.0000     4.0000 </r>
       <r>   -10.0908    -0.0000     4.0000 </r>
       <r>   -10.0147    -0.0000     4.0000 </r>
       <r>    -9.9387    -0.0003     4.0000 </r>
       <r>    -9.8627    -0.0020     3.9998 </r>
       <r>    -9.7867    -0.0099     3.9991 </r>
       <r>    -9.7107    -0.0332     3.9965 </r>
       <r>    -9.6347    -0.0704     3.9912 </r>
       <r>    -9.5587    -0.0620     3.9865 </r>
       <r>    -9.4827     0.1326     3.9966 </r>
       <r>    -9.4067     0.6205     4.0437 </r>
       <r>    -9.3307     1.2959     4.1422 </r>
       <r>    -9.2547     1.8878     4.2857 </r>
       <r>    -9.1787     2.2387     4.4558 </r>
       <r>    -9.1027     2.4277     4.6404 </r>
       <r>    -9.0267     2.5942     4.8375 </r>
       <r>    -8.9507     2.7257     5.0447 </r>
       <r>    -8.8747     2.7255     5.2518 </r>
       <r>    -8.7987     2.6732     5.4550 </r>
       <r>    -8.7227     2.7792     5.6662 </r>
       <r>    -8.6467     3.0291     5.8964 </r>
       <r>    -8.5707     3.1620     6.1368 </r>
       <r>    -8.4947     3.0138     6.3658 </r>
       <r>    -8.4187     2.6250     6.5653 </r>
       <r>    -8.3427     2.1223     6.7266 </r>
       <r>    -8.2667     1.6845     6.8546 </r>
       <r>    -8.1907     1.4110     6.9619 </r>
       <r>    -8.1147     1.1506     7.0493 </r>
       <r>    -8.0387     0.7114     7.1034 </r>
       <r>    -7.9627     0.2123     7.1195 </r>
       <r>    -7.8867     0.0428     7.1228 </r>
       <r>    -7.8107     0.5544     7.1649 </r>
       <r>    -7.7347     1.7648     7.2990 </r>
       <r>    -7.6587     3.1681     7.5398 </r>
       <r>    -7.5827     3.9856     7.8427 </r>
       <r>    -7.5067     3.8494     8.1353 </r>
       <r>    -7.4307     3.1119     8.3718 </r>
       <r>    -7.3547     2.3914     8.5536 </r>
       <r>    -7.2787     2.0082     8.7062 </r>
       <r>    -7.2027     1.8884     8.8497 </r>
       <r>    -7.1267     1.8306     8.9889 </r>
       <r>    -7.0507     1.8013     9.1258 </r>
       <r>    -6.9747     1.9686     9.2754 </r>
       <r>    -6.8986     2.4715     9.4632 </r>
       <r>    -6.8226     3.2235     9.7082 </r>
       <r>    -6.7466     3.9339    10.0072 </r>
       <r>    -6.6706     4.2888    10.3332 </r>
       <r>    -6.5946     4.0964    10.6445 </r>
       <r>    -6.5186     3.3588    10.8998 </r>
       <r>    -6.4426     2.4271    11.0842 </r>
       <r>    -6.3666     1.9405    11.2317 </r>
       <r>    -6.2906     2.2293    11.4012 </r>
       <r>    -6.2146     2.8458    11.6175 </r>
       <r>    -6.1386     3.0187    11.8469 </r>
       <r>    -6.0626     2.4977    12.0367 </r>
       <r>    -5.9866     1.7270    12.1680 </r>
       <r>    -5.9106     1.3650    12.2717 </r>
       <r>    -5.8346     1.7461    12.4044 </r>
       <r>    -5.7586     2.6173    12.6033 </r>
       <r>    -5.6826     3.4405    12.8648 </r>
       <r>    -5.6066     3.9642    13.1661 </r>
       <r>    -5.5306     4.2142    13.4864 </r>
       <r>    -5.4546     4.1127    13.7990 </r>
       <r>    -5.3786     3.5903    14.0719 </r>
       <r>    -5.3026     2.9126    14.2932 </r>
       <r>    -5.2266     2.4768    14.4815 </r>
       <r>    -5.1506     2.3503    14.6601 </r>
       <r>    -5.0746     2.2533    14.8314 </r>
       <r>    -4.9986     1.9916    14.9827 </r>
       <r>    -4.9226     1.7226    15.1136 </r>
       <r>    -4.8466     1.7384    15.2458 </r>
       <r>    -4.7706     2.1143    15.4065 </r>
       <r>    -4.6946     2.6226    15.6058 </r>
       <r>    -4.6186     2.8891    15.8254 </r>
       <r>    -4.5426     2.6867    16.0296 </r>
       <r>    -4.4666     2.1937    16.1963 </r>
       <r>    -4.3906     1.8297    16.3353 </r>
       <r>    -4.3146     1.7655    16.4695 </r>
       <r>    -4.2386     1.8152    16.6075 </r>
       <r>    -4.1626     1.8053    16.7447 </r>
       <r>    -4.0866     1.7512    16.8778 </r>
       <r>    -4.0106     1.7075    17.0076 </r>
       <r>    -3.9346     1.7522    17.1407 </r>
       <r>    -3.8586     2.0372    17.2956 </r>
       <r>    -3.7825     2.5369    17.4884 </r>
       <r>    -3.7065     2.8130    17.7022 </r>
       <r>    -3.6305     2.3873    17.8836 </r>
       <r>    -3.5545     1.3785    17.9884 </r>
       <r>    -3.4785     0.4221    18.0205 </r>
       <r>    -3.4025    -0.0508    18.0166 </r>
       <r>    -3.3265    -0.1245    18.0071 </r>
       <r>    -3.2505    -0.0671    18.0020 </r>
       <r>    -3.1745    -0.0215    18.0004 </r>
       <r>    -3.0985    -0.0046    18.0001 </r>
       <r>    -3.0225    -0.0007    18.0000 </r>
       <r>    -2.9465    -0.0001    18.0000 </r>
       <r>    -2.8705    -0.0000    18.0000 </r>
       <r>    -2.7945    -0.0000    18.0000 </r>
       <r>    -2.7185    -0.0000    18.0000 </r>
       <r>    -2.6425    -0.0001    18.0000 </r>
       <r>    -2.5665    -0.0009    17.9999 </r>
       <r>    -2.4905    -0.0048    17.9996 </r>
       <r>    -2.4145    -0.0177    17.9982 </r>
       <r>    -2.3385    -0.0418    17.9950 </r>
       <r>    -2.2625    -0.0457    17.9916 </r>
       <r>    -2.1865     0.0607    17.9962 </r>
       <r>    -2.1105     0.3575    18.0233 </r>
       <r>    -2.0345     0.7661    18.0816 </r>
       <r>    -1.9585     1.0597    18.1621 </r>
       <r>    -1.8825     1.1104    18.2465 </r>
       <r>    -1.8065     1.0530    18.3265 </r>
       <r>    -1.7305     1.2039    18.4180 </r>
       <r>    -1.6545     1.8864    18.5614 </r>
       <r>    -1.5785     3.0770    18.7953 </r>
       <r>    -1.5025     4.0644    19.1042 </r>
       <r>    -1.4265     4.0161    19.4094 </r>
       <r>    -1.3505     3.1438    19.6483 </r>
       <r>    -1.2745     2.5691    19.8436 </r>
       <r>    -1.1985     2.8882    20.0631 </r>
       <r>    -1.1225     3.6765    20.3425 </r>
       <r>    -1.0465     4.3998    20.6769 </r>
       <r>    -0.9705     4.9506    21.0532 </r>
       <r>    -0.8945     5.2652    21.4534 </r>
       <r>    -0.8185     5.2274    21.8507 </r>
       <r>    -0.7425     4.9956    22.2303 </r>
       <r>    -0.6665     4.7609    22.5922 </r>
       <r>    -0.5904     4.3124    22.9199 </r>
       <r>    -0.5144     3.4439    23.1817 </r>
       <r>    -0.4384     2.5063    23.3722 </r>
       <r>    -0.3624     2.0091    23.5248 </r>
       <r>    -0.2864     1.9556    23.6735 </r>
       <r>    -0.2104     1.9618    23.8226 </r>
       <r>    -0.1344     1.7797    23.9578 </r>
       <r>    -0.0584     1.4472    24.0678 </r>
       <r>     0.0176     1.1622    24.1562 </r>
       <r>     0.0936     1.1724    24.2453 </r>
       <r>     0.1696     1.5388    24.3622 </r>
       <r>     0.2456     1.9483    24.5103 </r>
       <r>     0.3216     2.0536    24.6664 </r>
       <r>     0.3976     1.9558    24.8150 </r>
       <r>     0.4736     1.9931    24.9665 </r>
       <r>     0.5496     2.1326    25.1286 </r>
       <r>     0.6256     2.0095    25.2813 </r>
       <r>     0.7016     1.5415    25.3985 </r>
       <r>     0.7776     1.0639    25.4793 </r>
       <r>     0.8536     0.8668    25.5452 </r>
       <r>     0.9296     0.9605    25.6182 </r>
       <r>     1.0056     1.2151    25.7106 </r>
       <r>     1.0816     1.4171    25.8183 </r>
       <r>     1.1576     1.3121    25.9180 </r>
       <r>     1.2336     0.8590    25.9833 </r>
       <r>     1.3096     0.3326    26.0085 </r>
       <r>     1.3856     0.0162    26.0098 </r>
       <r>     1.4616    -0.0649    26.0048 </r>
       <r>     1.5376    -0.0434    26.0015 </r>
       <r>     1.6136    -0.0158    26.0003 </r>
       <r>     1.6896    -0.0038    26.0001 </r>
       <r>     1.7656    -0.0006    26.0000 </r>
       <r>     1.8416    -0.0001    26.0000 </r>
       <r>     1.9176    -0.0000    26.0000 </r>
       <r>     1.9936    -0.0000    26.0000 </r>
       <r>     2.0696    -0.0000    26.0000 </r>
       <r>     2.1456    -0.0000    26.0000 </r>
       <r>     2.2216    -0.0000    26.0000 </r>
       <r>     2.2976    -0.0000    26.0000 </r>
       <r>     2.3736    -0.0000    26.0000 </r>
       <r>     2.4496     0.0000    26.0000 </r>
       <r>     2.5257     0.0000    26.0000 </r>
       <r>     2.6017     0.0000    26.0000 </r>
       <r>     2.6777     0.0000    26.0000 </r>
       <r>     2.7537     0.0000    26.0000 </r>
       <r>     2.8297     0.0000    26.0000 </r>
       <r>     2.9057     0.0000    26.0000 </r>
       <r>     2.9817     0.0000    26.0000 </r>
       <r>     3.0577     0.0000    26.0000 </r>
       <r>     3.1337     0.0000    26.0000 </r>
      </set>
     </set>
    </array>
   </total>
  </dos>
 </calculation>
 <structure name="finalpos" >
  <crystal>
   <varray name="basis" >
    <v>       3.19031600       0.00000000       0.00000000 </v>
    <v>      -1.59515800       2.76289400       0.00000000 </v>
    <v>       0.00000000       0.00000000      29.75800000 </v>
   </varray>
   <i name="volume">    262.30203784 </i>
   <varray name="rec_basis" >
    <v>       0.31344857       0.18096966       0.00000000 </v>
    <v>       0.00000000       0.36193933       0.00000000 </v>
    <v>       0.00000000       0.00000000       0.03360441 </v>
   </varray>
  </crystal>
  <varray name="positions" >
   <v>       0.33333300       0.66666700       0.12500000 </v>
   <v>       0.66666700       0.33333300       0.17758700 </v>
   <v>       0.66666700       0.33333300       0.07241300 </v>
  </varray>
 </structure>
</modeling>
