 running on    1 total cores
 distrk:  each k-point on    1 cores,    1 groups
 distr:  one band on    1 cores,    1 groups
 using from now: INCAR     
 vasp.5.4.4.18Apr17-6-g9f103f2a35 (build May 20 2018 16:52:39) complex          
  
 POSCAR found type information on POSCAR  Mo S 
 POSCAR found :  2 types and       3 ions
 scaLAPACK will be used
 LDA part: xc-table for Ceperly-Alder, standard interpolation
 WARNING: stress and forces are not correct
 POSCAR, INCAR and KPOINTS ok, starting setup
 FFT: planning ...
 WAVECAR not read
 reading imaginary part of occupancies ...
 charge-density read from file: monolayer                               
 entering main loop
       N       E                     dE             d eps       ncg     rms          rms(c)
DAV:   1     0.114925507486E+03    0.11493E+03   -0.42740E+03   780   0.590E+02
DAV:   2    -0.757506459579E+01   -0.12250E+03   -0.11365E+03  1385   0.152E+02
DAV:   3    -0.211426563965E+02   -0.13568E+02   -0.13454E+02  1020   0.682E+01
DAV:   4    -0.214147882840E+02   -0.27213E+00   -0.26968E+00  1079   0.116E+01
DAV:   5    -0.214205490489E+02   -0.57608E-02   -0.57480E-02   977   0.166E+00
DAV:   6    -0.214207584462E+02   -0.20940E-03   -0.20938E-03  1044   0.314E-01
DAV:   7    -0.214207670136E+02   -0.85674E-05   -0.85675E-05  1061   0.569E-02
DAV:   8    -0.214207673857E+02   -0.37213E-06   -0.37207E-06   887   0.112E-02
   1 F= -.21420767E+02 E0= -.21422529E+02  d E =0.528548E-02
