monolayer MoS2                          
           1
     3.190316    0.000000    0.000000
    -1.595158    2.762894    0.000000
     0.000000    0.000000   29.758000
   Mo   S 
   1   2
Direct configuration=     1
   0.33333300  0.66666700  0.12500000
   0.66666700  0.33333300  0.17758700
   0.66666700  0.33333300  0.07241300
