graphite                                
   2.45000000000000     
     1.000000    0.000000    0.000000
    -0.500000    0.866025    0.000000
     0.000000    0.000000    2.734694
   C 
     4
Direct
  0.000000  0.000000  0.000000
  0.333333  0.666667  0.000000
  0.666667  0.333333  0.500000
  0.000000  0.000000  0.500000
 
   24   24   72
  50.851      54.387      61.992      67.501      67.000      61.259      53.562      46.296      40.204      35.619    
  32.481      30.669      30.082      30.669      32.481      35.619      40.204      46.295      53.562      61.259    
  67.000      67.501      61.992      54.387      54.387      54.411      58.916      63.552      63.785      58.655    
  50.618      42.542      35.635      30.298      26.543      24.200      23.103      23.109      24.202      26.526    
  30.283      35.645      42.561      50.627      58.661      63.791      63.537      58.875      61.992      60.931    
  61.992      63.536      62.370      56.963      48.667      40.019      32.508      26.555      22.271      19.462    
  17.913      17.427      17.913      19.462      22.271      26.554      32.508      40.019      48.667      56.964    
  62.371      63.537      67.501      68.776      68.762      67.479      63.784      56.972      47.979      38.761    
  30.703      24.219      19.470      16.257      14.308      13.396      13.391      14.304      16.267      19.483    
  24.220      30.697      38.755      47.972      56.964      63.791      67.000      72.343      74.151      72.343    
  67.000      58.661      48.667      38.755      30.118      23.125      17.925      14.312      11.979      10.680    
  10.265      10.680      11.979      14.312      17.925      23.125      30.118      38.755      48.667      58.661    
  61.259      69.965      74.872      74.869      69.956      61.246      50.619      40.020      30.703      23.131    
  17.440      13.403      10.683      9.0134      8.2233      8.2246      9.0144      10.680      13.398      17.435    
  23.125      30.697      40.019      50.627      53.562      63.927      71.460      74.228      71.461      63.928    
  53.563      42.562      32.508      24.220      17.925      13.398      10.269      8.2247      7.0647      6.6880    
  7.0645      8.2244      10.269      13.398      17.925      24.220      32.508      42.561      46.295      57.228    
  66.470      71.840      71.855      66.504      57.257      46.304      35.635      26.537      19.470      14.309    
  10.683      8.2260      6.6885      5.9445      5.9465      6.6910      8.2244      10.680      14.312      19.483    
  26.554      35.645      40.204      51.204      61.594      69.152      71.931      69.152      61.594      51.204    
  40.204      30.283      22.271      16.267      11.979      9.0144      7.0645      5.9465      5.5805      5.9465    
  7.0645      9.0144      11.979      16.267      22.271      30.283      35.619      46.283      57.230      66.472    
  71.820      71.805      66.438      57.201      46.274      35.629      26.543      19.476      14.308      10.677    
  8.2230      6.6905      5.9465      5.9445      6.6880      8.2246      10.680      14.304      19.462      26.526    
  32.481      42.524      53.514      63.868      71.393      74.157      71.392      63.867      53.513      42.523    
  32.481      24.202      17.913      13.391      10.265      8.2230      7.0645      6.6885      7.0647      8.2233    
  10.265      13.391      17.913      24.202      30.669      39.971      50.552      61.163      69.862      74.770    
  74.773      69.871      61.176      50.561      39.970      30.663      23.103      17.422      13.391      10.677    
  9.0144      8.2260      8.2247      9.0134      10.680      13.396      17.427      23.109      30.082      38.700    
  48.590      58.564      66.893      72.235      74.044      72.235      66.893      58.564      48.590      38.700    
  30.082      23.103      17.913      14.308      11.979      10.683      10.269      10.683      11.979      14.308    
  17.913      23.103      30.669      38.706      47.899      56.869      63.676      67.383      68.682      68.696    
  67.406      63.682      56.861      47.891      38.700      30.663      24.202      19.476      16.267      14.309    
  13.398      13.403      14.312      16.257      19.462      24.200      32.481      39.970      48.590      56.860    
  62.262      63.456      61.953      60.912      61.954      63.456      62.263      56.861      48.590      39.970    
  32.481      26.543      22.271      19.470      17.925      17.440      17.925      19.470      22.271      26.543    
  35.619      42.504      50.552      58.558      63.676      63.472      58.897      54.443      54.419      58.856    
  63.456      63.682      58.564      50.561      42.523      35.629      30.283      26.537      24.220      23.131    
  23.125      24.219      26.555      30.298      40.204      46.274      53.513      61.177      66.893      67.406    
  61.953      54.419      50.915      54.419      61.954      67.406      66.893      61.176      53.513      46.274    
  40.204      35.635      32.508      30.703      30.118      30.703      32.508      35.635      46.296      51.230    
  57.229      63.868      69.862      72.236      68.683      60.873      54.419      54.443      60.912      68.696    
  72.235      69.871      63.867      57.201      51.204      46.304      42.562      40.020      38.755      38.761    
  40.019      42.542      53.562      57.256      61.594      66.438      71.393      74.773      74.045      68.683    
  61.953      58.897      61.953      68.682      74.044      74.773      71.392      66.438      61.594      57.257    
  53.563      50.619      48.667      47.979      48.667      50.618      61.259      63.928      66.470      69.125    
  71.820      74.184      74.773      72.236      67.406      63.472      63.456      67.383      72.235      74.770    
  74.157      71.805      69.152      66.504      63.928      61.246      58.661      56.972      56.963      58.655    
  67.000      69.956      71.460      71.854      71.931      71.820      71.393      69.862      66.893      63.676    
  62.262      63.676      66.893      69.862      71.393      71.820      71.931      71.855      71.461      69.956    
  67.000      63.784      62.370      63.785      67.501      72.343      74.872      74.254      71.854      69.125    
  66.438      63.868      61.177      58.558      56.860      56.869      58.564      61.163      63.868      66.472    
  69.152      71.840      74.228      74.869      72.343      67.479      63.536      63.552      61.992      68.763    
  74.151      74.872      71.460      66.470      61.594      57.229      53.513      50.552      48.590      47.899    
  48.590      50.552      53.514      57.230      61.594      66.470      71.460      74.872      74.151      68.762    
  61.992      58.916      54.387      60.892      68.763      72.343      69.956      63.928      57.256      51.230    
  46.274      42.504      39.970      38.706      38.700      39.971      42.524      46.283      51.204      57.228    
  63.927      69.965      72.343      68.776      60.931      54.411      51.649      54.835      61.624      66.347    
  65.447      59.707      52.202      45.136      39.230      34.800      31.771      30.021      29.452      30.021    
  31.771      34.800      39.230      45.135      52.201      59.706      65.446      66.347      61.625      54.835    
  54.835      54.857      58.824      62.744      62.493      57.267      49.394      41.536      34.814      29.635    
  25.994      23.718      22.650      22.656      23.720      25.978      29.621      34.823      41.554      49.402    
  57.272      62.499      62.729      58.785      61.625      60.759      61.624      62.729      61.189      55.683    
  47.532      39.113      31.795      26.004      21.840      19.106      17.592      17.115      17.592      19.106    
  21.840      26.004      31.795      39.113      47.533      55.683      61.190      62.729      66.347      67.764    
  67.751      66.326      62.493      55.691      46.876      37.901      30.050      23.735      19.112      15.980    
  14.074      13.179      13.174      14.070      15.990      19.125      23.736      30.045      37.896      46.869    
  55.683      62.499      65.446      70.722      72.517      70.722      65.447      57.272      47.532      37.895    
  29.483      22.669      17.602      14.078      11.795      10.522      10.114      10.522      11.795      14.078    
  17.603      22.670      29.484      37.896      47.533      57.272      59.706      68.150      72.914      72.912    
  68.142      59.694      49.394      39.114      30.050      22.675      17.127      13.185      10.524      8.8865    
  8.1097      8.1109      8.8874      10.521      13.180      17.123      22.670      30.045      39.113      49.402    
  52.201      62.214      69.484      72.155      69.485      62.215      52.202      41.555      31.795      23.736    
  17.603      13.180      10.117      8.1109      6.9709      6.6004      6.9707      8.1107      10.117      13.180    
  17.603      23.736      31.795      41.554      45.135      55.703      64.620      69.796      69.810      64.652    
  55.730      45.143      34.814      25.988      19.112      14.075      10.524      8.1121      6.6008      5.8690    
  5.8709      6.6032      8.1107      10.521      14.078      19.125      26.004      34.823      39.230      49.862    
  59.893      67.183      69.863      67.183      59.893      49.862      39.230      29.621      21.840      15.990    
  11.795      8.8874      6.9707      5.8709      5.5109      5.8709      6.9707      8.8874      11.795      15.990    
  21.840      29.621      34.800      45.125      55.707      64.625      69.781      69.767      64.594      55.680    
  45.116      34.809      25.994      19.118      14.074      10.519      8.1094      6.6027      5.8709      5.8690    
  6.6004      8.1109      10.522      14.070      19.106      25.978      31.771      41.522      52.161      62.165    
  69.429      72.097      69.429      62.164      52.160      41.522      31.771      23.720      17.592      13.174    
  10.114      8.1094      6.9707      6.6008      6.9709      8.1097      10.114      13.174      17.592      23.720    
  30.021      39.072      49.338      59.627      68.068      72.834      72.837      68.076      59.639      49.347    
  39.071      30.015      22.650      17.111      13.174      10.519      8.8874      8.1121      8.1109      8.8865    
  10.522      13.179      17.115      22.656      29.452      37.849      47.468      57.195      65.366      70.646    
  72.443      70.646      65.366      57.195      47.468      37.849      29.452      22.650      17.592      14.074    
  11.795      10.524      10.117      10.524      11.795      14.074      17.592      22.650      30.021      37.854    
  46.809      55.610      62.415      66.269      67.715      67.728      66.291      62.421      55.602      46.802    
  37.849      30.015      23.720      19.118      15.990      14.075      13.180      13.185      14.078      15.980    
  19.106      23.718      31.771      39.071      47.468      55.602      61.115      62.692      61.636      60.794    
  61.637      62.693      61.116      55.602      47.468      39.071      31.771      25.994      21.840      19.112    
  17.603      17.127      17.602      19.112      21.840      25.994      34.800      41.503      49.338      57.190    
  62.415      62.708      58.858      54.948      54.926      58.820      62.693      62.421      57.195      49.347    
  41.522      34.809      29.621      25.988      23.736      22.675      22.669      23.735      26.004      29.635    
  39.230      45.117      52.160      59.639      65.366      66.291      61.636      54.926      51.775      54.926    
  61.637      66.291      65.366      59.639      52.160      45.116      39.230      34.814      31.795      30.050    
  29.483      30.050      31.795      34.814      45.136      49.886      55.707      62.165      68.067      70.646    
  67.716      60.757      54.926      54.948      60.794      67.728      70.646      68.076      62.164      55.680    
  49.862      45.143      41.555      39.114      37.895      37.901      39.113      41.536      52.202      55.730    
  59.892      64.594      69.429      72.837      72.444      67.716      61.636      58.858      61.636      67.715    
  72.443      72.837      69.429      64.594      59.893      55.730      52.202      49.394      47.532      46.876    
  47.532      49.394      59.707      62.215      64.620      67.158      69.780      72.122      72.837      70.646    
  66.291      62.708      62.692      66.269      70.646      72.834      72.097      69.767      67.183      64.652    
  62.215      59.694      57.272      55.691      55.683      57.267      65.447      68.142      69.484      69.809    
  69.863      69.780      69.429      68.067      65.366      62.415      61.115      62.415      65.366      68.068    
  69.429      69.781      69.863      69.810      69.485      68.142      65.447      62.493      61.189      62.493    
  66.347      70.723      72.914      72.180      69.809      67.158      64.594      62.165      59.639      57.190    
  55.602      55.610      57.195      59.627      62.165      64.625      67.183      69.796      72.155      72.912    
  70.722      66.326      62.729      62.744      61.624      67.752      72.517      72.914      69.484      64.620    
  59.892      55.707      52.160      49.338      47.468      46.809      47.468      49.338      52.161      55.707    
  59.893      64.620      69.484      72.914      72.517      67.751      61.624      58.824      54.835      60.723    
  67.752      70.723      68.142      62.215      55.730      49.886      45.117      41.503      39.071      37.854    
  37.849      39.072      41.522      45.125      49.862      55.703      62.214      68.150      70.722      67.764    
  60.759      54.857      53.052      55.349      60.076      62.839      60.991      55.329      48.377      41.870    
  36.488      32.486      29.754      28.169      27.652      28.170      29.754      32.486      36.488      41.870    
  48.377      55.329      60.991      62.839      60.076      55.349      55.349      55.368      57.978      60.118    
  58.705      53.316      45.936      38.690      32.494      27.760      24.434      22.346      21.356      21.361    
  22.347      24.421      27.749      32.502      38.704      45.943      53.321      58.710      60.105      57.946    
  60.076      59.696      60.076      60.105      57.687      52.012      44.315      36.541      29.769      24.441    
  20.613      18.086      16.674      16.224      16.674      18.087      20.613      24.441      29.769      36.541    
  44.315      52.012      57.688      60.105      62.839      64.579      64.568      62.821      58.705      52.019    
  43.742      35.457      28.188      22.356      18.091      15.187      13.402      12.556      12.553      13.399    
  15.194      18.101      22.358      28.183      35.453      43.736      52.012      58.710      60.991      66.032    
  67.769      66.032      60.991      53.321      44.315      35.452      27.672      21.368      16.681      13.405    
  11.268      10.065      9.6774      10.065      11.268      13.405      16.681      21.369      27.672      35.453    
  44.315      53.321      55.329      63.030      67.384      67.382      63.023      55.319      45.936      36.542    
  28.188      21.373      16.232      12.561      10.067      8.5215      7.7837      7.7846      8.5220      10.065    
  12.557      16.229      21.369      28.183      36.541      45.943      48.377      57.414      63.957      66.357    
  63.957      57.415      48.377      38.705      29.769      22.358      16.681      12.557      9.6796      7.7845    
  6.7029      6.3505      6.7027      7.7843      9.6795      12.557      16.681      22.358      29.769      38.704    
  41.870      51.427      59.450      64.091      64.102      59.477      51.449      41.876      32.494      24.428    
  18.091      13.402      10.067      7.7854      6.3508      5.6553      5.6570      6.3530      7.7843      10.065    
  13.405      18.101      24.441      32.502      36.488      46.101      55.132      61.681      64.086      61.681    
  55.132      46.101      36.488      27.749      20.613      15.194      11.268      8.5220      6.7027      5.6570    
  5.3146      5.6570      6.7027      8.5220      11.268      15.194      20.613      27.749      32.486      41.865    
  51.436      59.462      64.087      64.075      59.436      51.414      41.859      32.493      24.434      18.097    
  13.402      10.063      7.7834      6.3527      5.6570      5.6553      6.3505      7.7846      10.065      13.399    
  18.087      24.421      29.754      38.686      48.355      57.390      63.931      66.330      63.930      57.389    
  48.354      38.685      29.754      22.347      16.674      12.553      9.6772      7.7834      6.7027      6.3508    
  6.7029      7.7837      9.6774      12.553      16.674      22.347      28.170      36.517      45.907      55.289    
  62.995      67.357      67.359      63.002      55.298      45.914      36.517      28.165      21.356      16.221    
  12.553      10.063      8.5220      7.7854      7.7845      8.5215      10.065      12.556      16.224      21.361    
  27.652      35.425      44.283      53.291      60.972      66.028      67.773      66.028      60.972      53.291    
  44.283      35.426      27.652      21.356      16.674      13.402      11.268      10.067      9.6796      10.067    
  11.268      13.402      16.674      21.356      28.169      35.430      43.710      51.991      58.700      62.855    
  64.631      64.642      62.872      58.705      51.984      43.703      35.426      28.165      22.347      18.097    
  15.194      13.402      12.557      12.561      13.405      15.187      18.086      22.346      29.754      36.517    
  44.283      51.984      57.690      60.168      60.202      59.850      60.203      60.168      57.690      51.984    
  44.283      36.517      29.754      24.434      20.613      18.091      16.681      16.232      16.681      18.091    
  20.613      24.434      32.486      38.670      45.907      53.286      58.701      60.181      58.132      55.589    
  55.571      58.100      60.168      58.705      53.291      45.914      38.685      32.493      27.749      24.428    
  22.358      21.373      21.368      22.356      24.441      27.760      36.488      41.859      48.354      55.299    
  60.972      62.872      60.203      55.570      53.314      55.571      60.203      62.872      60.972      55.298    
  48.354      41.859      36.488      32.494      29.769      28.188      27.672      28.188      29.769      32.494    
  41.870      46.121      51.436      57.389      62.995      66.029      64.632      59.820      55.570      55.589    
  59.850      64.642      66.028      63.002      57.389      51.414      46.101      41.876      38.705      36.542    
  35.452      35.457      36.541      38.690      48.377      51.449      55.132      59.436      63.931      67.359    
  67.773      64.632      60.203      58.132      60.202      64.631      67.773      67.359      63.930      59.436    
  55.132      51.449      48.377      45.936      44.315      43.742      44.315      45.936      55.329      57.415    
  59.450      61.660      64.087      66.351      67.359      66.029      62.872      60.181      60.168      62.855    
  66.028      67.357      66.330      64.075      61.681      59.477      57.415      55.319      53.321      52.019    
  52.012      53.316      60.991      63.023      63.957      64.102      64.085      64.087      63.931      62.995    
  60.972      58.701      57.690      58.700      60.972      62.995      63.931      64.087      64.086      64.102    
  63.957      63.023      60.991      58.705      57.687      58.705      62.839      66.032      67.385      66.378    
  64.102      61.660      59.436      57.389      55.299      53.286      51.984      51.991      53.291      55.289    
  57.390      59.462      61.681      64.091      66.357      67.382      66.032      62.821      60.105      60.118    
  60.076      64.569      67.770      67.385      63.957      59.450      55.132      51.436      48.354      45.907    
  44.283      43.710      44.283      45.907      48.355      51.436      55.132      59.450      63.957      67.384    
  67.769      64.568      60.076      57.978      55.349      59.666      64.569      66.032      63.023      57.415    
  51.449      46.121      41.859      38.670      36.517      35.430      35.425      36.517      38.686      41.865    
  46.101      51.427      57.414      63.030      66.032      64.579      59.696      55.368      52.926      54.168    
  56.474      57.013      54.226      48.872      42.756      37.074      32.461      29.060      26.737      25.378    
  24.931      25.378      26.737      29.060      32.461      37.074      42.756      48.872      54.226      57.013    
  56.474      54.169      54.169      54.182      55.219      55.350      52.745      47.395      40.814      34.456    
  29.063      24.977      22.102      20.278      19.401      19.404      20.279      22.093      24.969      29.068    
  34.466      40.819      47.399      52.748      55.341      55.196      56.474      56.633      56.474      55.341    
  52.073      46.440      39.515      32.690      26.741      22.104      18.767      16.543      15.278      14.870    
  15.278      16.543      18.767      22.104      26.741      32.690      39.515      46.440      52.073      55.341    
  57.013      59.030      59.023      57.000      52.745      46.445      39.054      31.785      25.383      20.282    
  16.544      13.975      12.372      11.602      11.599      12.371      13.980      16.551      20.283      25.380    
  31.782      39.049      46.440      52.748      54.226      58.812      60.417      58.812      54.226      47.399    
  39.515      31.782      24.935      19.405      15.280      12.374      10.454      9.3597      9.0036      9.3597    
  10.454      12.374      15.280      19.405      24.936      31.782      39.515      47.399      48.872      55.475    
  59.216      59.214      55.470      48.865      40.814      32.690      25.383      19.408      14.872      11.603    
  9.3604      7.9559      7.2792      7.2797      7.9561      9.3587      11.601      14.870      19.405      25.380    
  32.690      40.819      42.756      50.413      55.923      57.939      55.923      50.414      42.756      34.467    
  26.741      20.283      15.280      11.601      9.0045      7.2796      6.2893      5.9657      6.2892      7.2794    
  9.0043      11.601      15.280      20.283      26.741      34.466      37.074      45.181      51.944      55.834    
  55.843      51.963      45.196      37.078      29.063      22.095      16.544      12.372      9.3604      7.2800    
  5.9659      5.3280      5.3294      5.9677      7.2794      9.3587      12.374      16.551      22.104      29.068    
  32.461      40.616      48.222      53.714      55.726      53.714      48.222      40.616      32.461      24.969    
  18.767      13.980      10.454      7.9561      6.2892      5.3294      5.0153      5.3294      6.2892      7.9561    
  10.454      13.980      18.767      24.969      29.060      37.076      45.195      51.963      55.843      55.835    
  51.944      45.179      37.072      29.066      22.102      16.550      12.372      9.3580      7.2790      5.9676    
  5.3294      5.3280      5.9657      7.2797      9.3597      12.371      16.543      22.093      26.737      34.464    
  42.755      50.416      55.929      57.947      55.929      50.416      42.755      34.463      26.737      20.279    
  15.278      11.599      9.0034      7.2790      6.2892      5.9659      6.2893      7.2792      9.0036      11.599    
  15.278      20.279      25.378      32.687      40.815      48.875      55.491      59.242      59.244      55.495    
  48.882      40.820      32.686      25.375      19.401      14.867      11.599      9.3580      7.9561      7.2800    
  7.2796      7.9559      9.3597      11.602      14.870      19.404      24.931      31.779      39.519      47.419    
  54.271      58.881      60.496      58.881      54.271      47.419      39.519      31.779      24.931      19.401    
  15.278      12.372      10.454      9.3604      9.0045      9.3604      10.454      12.372      15.278      19.401    
  25.378      31.782      39.059      46.473      52.814      57.120      59.178      59.186      57.132      52.817    
  46.468      39.055      31.779      25.375      20.279      16.550      13.980      12.372      11.601      11.603    
  12.374      13.975      16.543      20.278      26.737      32.686      39.519      46.467      52.152      55.496    
  56.702      56.892      56.702      55.496      52.152      46.468      39.519      32.686      26.737      22.102    
  18.767      16.544      15.280      14.872      15.280      16.544      18.767      22.102      29.060      34.453    
  40.815      47.415      52.814      55.505      55.478      54.514      54.500      55.455      55.496      52.817    
  47.419      40.820      34.463      29.066      24.969      22.095      20.283      19.408      19.405      20.282    
  22.104      24.977      32.461      37.072      42.755      48.882      54.271      57.132      56.702      54.500    
  53.301      54.500      56.702      57.132      54.271      48.882      42.755      37.072      32.461      29.063    
  26.741      25.383      24.935      25.383      26.741      29.063      37.074      40.630      45.195      50.416    
  55.491      58.881      59.178      56.870      54.500      54.514      56.892      59.186      58.881      55.495    
  50.416      45.179      40.616      37.078      34.467      32.690      31.782      31.785      32.690      34.456    
  42.756      45.196      48.222      51.944      55.929      59.244      60.496      59.178      56.702      55.478    
  56.702      59.178      60.496      59.244      55.929      51.944      48.222      45.196      42.756      40.814    
  39.515      39.054      39.515      40.814      48.872      50.413      51.944      53.699      55.843      57.962    
  59.244      58.881      57.132      55.505      55.496      57.120      58.881      59.242      57.947      55.835    
  53.714      51.963      50.414      48.865      47.399      46.445      46.440      47.395      54.226      55.470    
  55.923      55.843      55.725      55.843      55.929      55.491      54.271      52.814      52.152      52.814    
  54.271      55.491      55.929      55.843      55.726      55.843      55.923      55.470      54.226      52.745    
  52.073      52.745      57.013      58.812      59.216      57.954      55.843      53.699      51.944      50.416    
  48.882      47.415      46.467      46.473      47.419      48.875      50.416      51.963      53.714      55.834    
  57.939      59.214      58.812      57.000      55.341      55.350      56.474      59.023      60.417      59.216    
  55.923      51.944      48.222      45.195      42.755      40.815      39.519      39.059      39.519      40.815    
  42.755      45.195      48.222      51.944      55.923      59.216      60.417      59.023      56.474      55.219    
  54.168      56.611      59.023      58.812      55.470      50.413      45.196      40.630      37.072      34.453    
  32.686      31.782      31.779      32.687      34.464      37.076      40.616      45.181      50.413      55.475    
  58.812      59.030      56.633      54.182      49.693      50.066      50.423      49.304      46.051      41.305    
  36.182      31.500      27.771      25.029      23.141      22.020      21.646      22.020      23.141      25.029    
  27.770      31.500      36.182      41.304      46.051      49.304      50.423      50.066      50.066      50.075    
  49.880      48.533      45.257      40.325      34.760      29.451      25.025      21.683      19.313      17.783    
  17.033      17.035      17.784      19.307      21.679      25.029      29.457      34.762      40.327      45.259    
  48.527      49.865      50.423      50.965      50.423      48.527      44.884      39.689      33.792      28.068    
  23.135      19.311      16.538      14.659      13.567      13.209      13.567      14.659      16.538      19.311    
  23.135      28.068      33.792      39.689      44.884      48.527      49.304      51.371      51.366      49.296    
  45.257      39.692      33.444      27.355      22.012      17.780      14.658      12.478      11.092      10.413    
  10.412      11.091      12.481      14.662      17.781      22.010      27.353      33.441      39.689      45.259    
  46.051      49.964      51.352      49.964      46.051      40.327      33.792      27.353      21.637      17.029    
  13.565      11.091      9.4307      8.4686      8.1524      8.4685      9.4306      11.091      13.565      17.029    
  21.637      27.353      33.792      40.327      41.304      46.639      49.660      49.659      46.636      41.300    
  34.760      28.068      22.012      17.031      13.207      10.412      8.4683      7.2356      6.6357      6.6359    
  7.2355      8.4673      10.411      13.205      17.029      22.010      28.068      34.762      36.182      42.323    