graphite                                
   2.45000000000000     
     1.000000    0.000000    0.000000
    -0.500000    0.866025    0.000000
     0.000000    0.000000    2.734694
   C 
     4
Direct
  0.000000  0.000000  0.000000
  0.333333  0.666667  0.000000
  0.666667  0.333333  0.500000
  0.000000  0.000000  0.500000
 
   24   24   72
 0.50851191888E+02 0.54386967868E+02 0.61992288747E+02 0.67501266378E+02 0.66999887038E+02
 0.61259174802E+02 0.53562254137E+02 0.46295735752E+02 0.40204280355E+02 0.35619026965E+02
 0.32480855989E+02 0.30669367486E+02 0.30081511429E+02 0.30669492034E+02 0.32480977294E+02
 0.35618969248E+02 0.40203931441E+02 0.46295124864E+02 0.53561549469E+02 0.61258597908E+02
 0.66999596515E+02 0.67501276301E+02 0.61992468828E+02 0.54387126395E+02 0.54387126392E+02
 0.54410741611E+02 0.58916355357E+02 0.63552391375E+02 0.63784583295E+02 0.58655381242E+02
 0.50618292323E+02 0.42541683349E+02 0.35634990552E+02 0.30297992678E+02 0.26543267609E+02
 0.24200026743E+02 0.23103046292E+02 0.23109128435E+02 0.24201687071E+02 0.26525780418E+02
 0.30283104052E+02 0.35644682425E+02 0.42561077611E+02 0.50627325970E+02 0.58661179249E+02
 0.63790644326E+02 0.63536516635E+02 0.58875447866E+02 0.61992468823E+02 0.60931189469E+02
 0.61991929009E+02 0.63535641609E+02 0.62369641464E+02 0.56963275224E+02 0.48667030302E+02
 0.40019218552E+02 0.32508073559E+02 0.26554567151E+02 0.22270651941E+02 0.19462259568E+02
 0.17912932251E+02 0.17426644568E+02 0.17913024366E+02 0.19462358930E+02 0.22270654687E+02
 0.26554439166E+02 0.32507901057E+02 0.40019181239E+02 0.48667305525E+02 0.56963922793E+02
 0.62370539911E+02 0.63536516633E+02 0.67501276297E+02 0.68775822270E+02 0.68762264878E+02
 0.67478552530E+02 0.63784430170E+02 0.56972408277E+02 0.47979428314E+02 0.38760765131E+02
 0.30703299554E+02 0.24218550158E+02 0.19469834391E+02 0.16257263234E+02 0.14307501474E+02
 0.13395535933E+02 0.13390547404E+02 0.14303951951E+02 0.16267454505E+02 0.19483200945E+02
 0.24220188017E+02 0.30697033174E+02 0.38755170033E+02 0.47971589901E+02 0.56963922793E+02
 0.63790644326E+02 0.66999596516E+02 0.72342505050E+02 0.74150647549E+02 0.72342614108E+02
 0.66999727437E+02 0.58661208436E+02 0.48667147605E+02 0.38754830731E+02 0.30117665112E+02
 0.23124996400E+02 0.17924757885E+02 0.14312276931E+02 0.11978579308E+02 0.10680285309E+02
 0.10265362230E+02 0.10680207998E+02 0.11978503657E+02 0.14312311435E+02 0.17924970739E+02
 0.23125367557E+02 0.30118089411E+02 0.38755170033E+02 0.48667305527E+02 0.58661179251E+02
 0.61258597913E+02 0.69965001592E+02 0.74871902730E+02 0.74869308782E+02 0.69956303446E+02
 0.61245801552E+02 0.50618520264E+02 0.40019935533E+02 0.30703426000E+02 0.23131043340E+02
 0.17439806332E+02 0.13402592327E+02 0.10683089431E+02 0.90134166046E+01 0.82232547270E+01
 0.82245971135E+01 0.90143788881E+01 0.10680142320E+02 0.13397623442E+02 0.17435253661E+02
 0.23125367557E+02 0.30697033174E+02 0.40019181240E+02 0.50627325972E+02 0.53561549471E+02
 0.63926652167E+02 0.71460117605E+02 0.74227984259E+02 0.71460739417E+02 0.63927652719E+02
 0.53562563827E+02 0.42561793504E+02 0.32508198062E+02 0.24220163994E+02 0.17924851865E+02
 0.13397618895E+02 0.10269090400E+02 0.82246699577E+01 0.70647069212E+01 0.66880361131E+01
 0.70645011170E+01 0.82243899738E+01 0.10268908450E+02 0.13397623442E+02 0.17924970739E+02
 0.24220188017E+02 0.32507901057E+02 0.42561077611E+02 0.46295124864E+02 0.57227532187E+02
 0.66469841627E+02 0.71839680600E+02 0.71854856675E+02 0.66503730256E+02 0.57256572734E+02
 0.46304162263E+02 0.35634936385E+02 0.26537081852E+02 0.19469935990E+02 0.14308745156E+02
 0.10683011672E+02 0.82260092898E+01 0.66885199405E+01 0.59444718785E+01 0.59464565202E+01
 0.66909578089E+01 0.82243899738E+01 0.10680142320E+02 0.14312311435E+02 0.19483200945E+02
 0.26554439166E+02 0.35644682425E+02 0.40203931441E+02 0.51203930472E+02 0.61593809167E+02
 0.69151983351E+02 0.71931314048E+02 0.69151985249E+02 0.61593812365E+02 0.51203934023E+02
 0.40203934425E+02 0.30283105905E+02 0.22270655339E+02 0.16267454279E+02 0.11978503038E+02
 0.90143782790E+01 0.70645007129E+01 0.59464563388E+01 0.55805018648E+01 0.59464565202E+01
 0.70645011170E+01 0.90143788881E+01 0.11978503657E+02 0.16267454505E+02 0.22270654687E+02
 0.30283104052E+02 0.35618969248E+02 0.46282828887E+02 0.57229743579E+02 0.66472086395E+02
 0.71820314632E+02 0.71805151574E+02 0.66438217444E+02 0.57200697736E+02 0.46273759883E+02
 0.35628687592E+02 0.26543137694E+02 0.19475644041E+02 0.14307535511E+02 0.10677342338E+02
 0.82229744074E+01 0.66904718540E+01 0.59464563388E+01 0.59444718785E+01 0.66880361131E+01
 0.82245971135E+01 0.10680207998E+02 0.14303951951E+02 0.19462358930E+02 0.26525780418E+02
 0.32480977294E+02 0.42524170896E+02 0.53513544853E+02 0.63867763676E+02 0.71393050836E+02
 0.74157486327E+02 0.71392426540E+02 0.63866759188E+02 0.53512526659E+02 0.42523452589E+02
 0.32480679829E+02 0.24201712170E+02 0.17913144858E+02 0.13390553140E+02 0.10265180599E+02
 0.82229744074E+01 0.70645007129E+01 0.66885199405E+01 0.70647069212E+01 0.82232547270E+01
 0.10265362230E+02 0.13390547404E+02 0.17913024366E+02 0.24201687071E+02 0.30669492034E+02
 0.39970990484E+02 0.50552279188E+02 0.61163226852E+02 0.69862388269E+02 0.74770217385E+02
 0.74772801057E+02 0.69871072128E+02 0.61176038844E+02 0.50561142312E+02 0.39970299420E+02
 0.30663116242E+02 0.23103417078E+02 0.17422049141E+02 0.13390553140E+02 0.10677342338E+02
 0.90143782790E+01 0.82260092898E+01 0.82246699577E+01 0.90134166046E+01 0.10680285309E+02
 0.13395535933E+02 0.17426644568E+02 0.23109128435E+02 0.30081511429E+02 0.38700067457E+02
 0.48590079887E+02 0.58564249180E+02 0.66892663224E+02 0.72234969404E+02 0.74044359464E+02
 0.72234857820E+02 0.66892528087E+02 0.58564215368E+02 0.48590233960E+02 0.38700404310E+02
 0.30081934601E+02 0.23103417078E+02 0.17913144858E+02 0.14307535511E+02 0.11978503038E+02
 0.10683011672E+02 0.10269090400E+02 0.10683089431E+02 0.11978579308E+02 0.14307501474E+02
 0.17912932251E+02 0.23103046292E+02 0.30669367486E+02 0.38706050079E+02 0.47898722225E+02
 0.56869217155E+02 0.63675715223E+02 0.67382997211E+02 0.68682392898E+02 0.68695907022E+02
 0.67405648798E+02 0.63681898573E+02 0.56860711572E+02 0.47890826571E+02 0.38700404310E+02
 0.30663116242E+02 0.24201712170E+02 0.19475644041E+02 0.16267454279E+02 0.14308745156E+02
 0.13397618895E+02 0.13402592327E+02 0.14312276931E+02 0.16257263234E+02 0.19462259568E+02
 0.24200026743E+02 0.32480855989E+02 0.39970339673E+02 0.48589958235E+02 0.56860058728E+02
 0.62262077830E+02 0.63455582189E+02 0.61952988494E+02 0.60911922003E+02 0.61953534334E+02
 0.63456466652E+02 0.62262985246E+02 0.56860711571E+02 0.48590233958E+02 0.39970299420E+02
 0.32480679829E+02 0.26543137694E+02 0.22270655339E+02 0.19469935990E+02 0.17924851865E+02
 0.17439806332E+02 0.17924757885E+02 0.19469834391E+02 0.22270651941E+02 0.26543267609E+02
 0.35619026965E+02 0.42504053551E+02 0.50552045075E+02 0.58558389951E+02 0.63675866268E+02
 0.63472291740E+02 0.58897113214E+02 0.54442537975E+02 0.54419024705E+02 0.58856374564E+02
 0.63456466654E+02 0.63681898573E+02 0.58564215365E+02 0.50561142310E+02 0.42523452589E+02
 0.35628687592E+02 0.30283105905E+02 0.26537081852E+02 0.24220163994E+02 0.23131043340E+02
 0.23124996400E+02 0.24218550158E+02 0.26554567151E+02 0.30297992678E+02 0.40204280355E+02
 0.46274368918E+02 0.53513230673E+02 0.61176615959E+02 0.66892819227E+02 0.67405639488E+02
 0.61953354662E+02 0.54418866362E+02 0.50915413431E+02 0.54419024707E+02 0.61953534339E+02
 0.67405648802E+02 0.66892528085E+02 0.61176038840E+02 0.53512526657E+02 0.46273759883E+02
 0.40203934425E+02 0.35634936385E+02 0.32508198062E+02 0.30703426000E+02 0.30117665112E+02
 0.30703299554E+02 0.32508073559E+02 0.35634990552E+02 0.46295735752E+02 0.51229500841E+02
 0.57229420724E+02 0.63867758928E+02 0.69862347319E+02 0.72235519969E+02 0.68683002779E+02
 0.60873147880E+02 0.54418866360E+02 0.54442537975E+02 0.60911922008E+02 0.68695907028E+02
 0.72234857821E+02 0.69871072124E+02 0.63866759185E+02 0.57200697736E+02 0.51203934023E+02
 0.46304162263E+02 0.42561793504E+02 0.40019935534E+02 0.38754830733E+02 0.38760765133E+02
 0.40019218553E+02 0.42541683349E+02 0.53562254138E+02 0.57256250363E+02 0.61593582649E+02
 0.66438193621E+02 0.71392680624E+02 0.74773316494E+02 0.74045017808E+02 0.68683002777E+02
 0.61953354656E+02 0.58897113209E+02 0.61952988494E+02 0.68682392902E+02 0.74044359465E+02
 0.74772801054E+02 0.71392426535E+02 0.66438217443E+02 0.61593812365E+02 0.57256572733E+02
 0.53562563827E+02 0.50618520265E+02 0.48667147608E+02 0.47979428319E+02 0.48667030306E+02
 0.50618292327E+02 0.61259174806E+02 0.63927608476E+02 0.66469821821E+02 0.69124665605E+02
 0.71819640228E+02 0.74183979095E+02 0.74773316495E+02 0.72235519969E+02 0.67405639484E+02
 0.63472291734E+02 0.63455582185E+02 0.67382997211E+02 0.72234969404E+02 0.74770217383E+02
 0.74157486323E+02 0.71805151573E+02 0.69151985249E+02 0.66503730256E+02 0.63927652717E+02
 0.61245801552E+02 0.58661208438E+02 0.56972408280E+02 0.56963275228E+02 0.58655381247E+02
 0.66999887039E+02 0.69956266659E+02 0.71460372809E+02 0.71854184352E+02 0.71930517826E+02
 0.71819640229E+02 0.71392680626E+02 0.69862347321E+02 0.66892819228E+02 0.63675866268E+02
 0.62262077828E+02 0.63675715222E+02 0.66892663224E+02 0.69862388267E+02 0.71393050833E+02
 0.71820314630E+02 0.71931314048E+02 0.71854856674E+02 0.71460739415E+02 0.69956303445E+02
 0.66999727437E+02 0.63784430170E+02 0.62369641463E+02 0.63784583294E+02 0.67501266374E+02
 0.72343199618E+02 0.74872414083E+02 0.74254491511E+02 0.71854184352E+02 0.69124665605E+02
 0.66438193621E+02 0.63867758930E+02 0.61176615963E+02 0.58558389956E+02 0.56860058732E+02
 0.56869217158E+02 0.58564249182E+02 0.61163226852E+02 0.63867763675E+02 0.66472086394E+02
 0.69151983351E+02 0.71839680599E+02 0.74227984255E+02 0.74869308779E+02 0.72342614108E+02
 0.67478552530E+02 0.63535641606E+02 0.63552391369E+02 0.61992288741E+02 0.68762864982E+02
 0.74151297243E+02 0.74872414082E+02 0.71460372807E+02 0.66469821821E+02 0.61593582649E+02
 0.57229420724E+02 0.53513230675E+02 0.50552045079E+02 0.48589958239E+02 0.47898722229E+02
 0.48590079890E+02 0.50552279189E+02 0.53513544853E+02 0.57229743579E+02 0.61593809167E+02
 0.66469841626E+02 0.71460117600E+02 0.74871902727E+02 0.74150647551E+02 0.68762264882E+02
 0.61991929009E+02 0.58916355352E+02 0.54386967866E+02 0.60892244378E+02 0.68762864984E+02
 0.72343199619E+02 0.69956266656E+02 0.63927608473E+02 0.57256250363E+02 0.51229500841E+02
 0.46274368918E+02 0.42504053552E+02 0.39970339675E+02 0.38706050080E+02 0.38700067459E+02
 0.39970990485E+02 0.42524170896E+02 0.46282828887E+02 0.51203930472E+02 0.57227532187E+02
 0.63926652163E+02 0.69965001587E+02 0.72342505051E+02 0.68775822276E+02 0.60931189474E+02
 0.54410741611E+02 0.51648575898E+02 0.54834761155E+02 0.61624498573E+02 0.66347292680E+02
 0.65446666561E+02 0.59706671845E+02 0.52201985389E+02 0.45135504482E+02 0.39229895664E+02
 0.34799821909E+02 0.31770902885E+02 0.30020772281E+02 0.29451999287E+02 0.30020889037E+02
 0.31771017311E+02 0.34799770026E+02 0.39229572681E+02 0.45134937373E+02 0.52201330524E+02
 0.59706135314E+02 0.65446396124E+02 0.66347301606E+02 0.61624665820E+02 0.54834908467E+02
 0.54834908465E+02 0.54857117683E+02 0.58823871953E+02 0.62744245961E+02 0.62492853181E+02
 0.57266910147E+02 0.49393776401E+02 0.41535825250E+02 0.34813776174E+02 0.29634886964E+02
 0.25993947363E+02 0.23718389658E+02 0.22649887360E+02 0.22655576267E+02 0.23719952682E+02
 0.25977633259E+02 0.29621033287E+02 0.34822888795E+02 0.41553946798E+02 0.49402197756E+02
 0.57272373470E+02 0.62498569566E+02 0.62729303556E+02 0.58785389386E+02 0.61624665815E+02
 0.60759366751E+02 0.61624173015E+02 0.62728505296E+02 0.61189388590E+02 0.55682705540E+02
 0.47532255310E+02 0.39113130294E+02 0.31794677017E+02 0.26003918315E+02 0.21839696187E+02
 0.19105536768E+02 0.17591978164E+02 0.17115347985E+02 0.17592069270E+02 0.19105639041E+02
 0.21839710997E+02 0.26003810938E+02 0.31794524320E+02 0.39113096631E+02 0.47532504403E+02
 0.55683294048E+02 0.61190207048E+02 0.62729303554E+02 0.66347301603E+02 0.67764055240E+02
 0.67751317115E+02 0.66325937808E+02 0.62492710285E+02 0.55691280345E+02 0.46875968209E+02
 0.37901033258E+02 0.30050352101E+02 0.23734720276E+02 0.19112255660E+02 0.15980381137E+02
 0.14073657375E+02 0.13178783242E+02 0.13174136965E+02 0.14070362257E+02 0.15989899848E+02
 0.19124728887E+02 0.23736258909E+02 0.30044520719E+02 0.37895786366E+02 0.46868565750E+02
 0.55683294049E+02 0.62498569565E+02 0.65446396126E+02 0.70721938740E+02 0.72516697525E+02
 0.70722039842E+02 0.65446517269E+02 0.57272399766E+02 0.47532356708E+02 0.37895470224E+02
 0.29483484278E+02 0.22669206335E+02 0.17602448231E+02 0.14077895379E+02 0.11795395116E+02
 0.10521688667E+02 0.10113684277E+02 0.10521616037E+02 0.11795323546E+02 0.14077926143E+02
 0.17602645180E+02 0.22669551023E+02 0.29483878981E+02 0.37895786367E+02 0.47532504404E+02
 0.57272373473E+02 0.59706135317E+02 0.68150270152E+02 0.72913998013E+02 0.72911542651E+02
 0.68142094307E+02 0.59694169573E+02 0.49393974980E+02 0.39113779694E+02 0.30050470426E+02
 0.22674860588E+02 0.17126988202E+02 0.13185036544E+02 0.10524174010E+02 0.88865337459E+01
 0.81096866741E+01 0.81109005875E+01 0.88873657244E+01 0.10521397762E+02 0.13180399246E+02
 0.17122724781E+02 0.22669551023E+02 0.30044520719E+02 0.39113096632E+02 0.49402197758E+02
 0.52201330526E+02 0.62213701606E+02 0.69484238166E+02 0.72154656670E+02 0.69484807740E+02
 0.62214617457E+02 0.52202257757E+02 0.41554599684E+02 0.31794794218E+02 0.23736237586E+02
 0.17602541800E+02 0.13180405685E+02 0.10116986708E+02 0.81109385427E+01 0.69709135405E+01
 0.66003719645E+01 0.69707173078E+01 0.81106693256E+01 0.10116806432E+02 0.13180399246E+02
 0.17602645180E+02 0.23736258909E+02 0.31794524320E+02 0.41553946798E+02 0.45134937373E+02
 0.55702944702E+02 0.64620236392E+02 0.69795531026E+02 0.69809809972E+02 0.64652062920E+02
 0.55730109012E+02 0.45143297015E+02 0.34813727654E+02 0.25987606398E+02 0.19112361131E+02
 0.14074618872E+02 0.10524101352E+02 0.81121494126E+01 0.66007991529E+01 0.58689953248E+01
 0.58709077632E+01 0.66031750941E+01 0.81106693256E+01 0.10521397762E+02 0.14077926143E+02
 0.19124728887E+02 0.26003810938E+02 0.34822888795E+02 0.39229572681E+02 0.49862450463E+02
 0.59892501540E+02 0.67183239263E+02 0.69863258214E+02 0.67183240833E+02 0.59892504315E+02
 0.49862453826E+02 0.39229575948E+02 0.29621035896E+02 0.21839712633E+02 0.15989900486E+02
 0.11795323401E+02 0.88873651473E+01 0.69707166703E+01 0.58709073629E+01 0.55108826475E+01
 0.58709077632E+01 0.69707173078E+01 0.88873657244E+01 0.11795323546E+02 0.15989899848E+02
 0.21839710997E+02 0.29621033287E+02 0.34799770026E+02 0.45124869062E+02 0.55707215777E+02
 0.64625348527E+02 0.69780822874E+02 0.69766556199E+02 0.64593540425E+02 0.55680045963E+02
 0.45116478791E+02 0.34808904692E+02 0.25993838780E+02 0.19118027965E+02 0.14073687695E+02
 0.10518916422E+02 0.81094167433E+01 0.66027452590E+01 0.58709073629E+01 0.58689953248E+01
 0.66003719645E+01 0.81109005875E+01 0.10521616037E+02 0.14070362257E+02 0.19105639041E+02
 0.25977633259E+02 0.31771017311E+02 0.41522173585E+02 0.52160747913E+02 0.62164761902E+02
 0.69429155952E+02 0.72096961495E+02 0.69428583770E+02 0.62163841923E+02 0.52159816669E+02
 0.41521518186E+02 0.31770746907E+02 0.23719975025E+02 0.17592174115E+02 0.13174131424E+02
 0.10113503929E+02 0.81094167433E+01 0.69707166703E+01 0.66007991529E+01 0.69709135405E+01
 0.81096866741E+01 0.10113684277E+02 0.13174136965E+02 0.17592069270E+02 0.23719952682E+02
 0.30020889037E+02 0.39071792501E+02 0.49338458589E+02 0.59626810555E+02 0.68067506281E+02
 0.72834245455E+02 0.72836691305E+02 0.68075668876E+02 0.59638791364E+02 0.49346736773E+02
 0.39071170791E+02 0.30014955249E+02 0.22650230222E+02 0.17111040857E+02 0.13174131424E+02
 0.10518916422E+02 0.88873651473E+01 0.81121494126E+01 0.81109385427E+01 0.88865337459E+01
 0.10521688667E+02 0.13178783242E+02 0.17115347985E+02 0.22655576267E+02 0.29451999287E+02
 0.37848660295E+02 0.47468351351E+02 0.57195070938E+02 0.65365738004E+02 0.70645632641E+02
 0.72443474639E+02 0.70645529539E+02 0.65365613300E+02 0.57195040262E+02 0.47468494637E+02
 0.37848972641E+02 0.29452391156E+02 0.22650230222E+02 0.17592174115E+02 0.14073687695E+02
 0.11795323401E+02 0.10524101352E+02 0.10116986708E+02 0.10524174010E+02 0.11795395116E+02
 0.14073657375E+02 0.17591978164E+02 0.22649887360E+02 0.30020772281E+02 0.37854270254E+02
 0.46809187835E+02 0.55610286161E+02 0.62415315997E+02 0.66269474258E+02 0.67714972505E+02
 0.67727668282E+02 0.66290767764E+02 0.62421145941E+02 0.55602280554E+02 0.46801728601E+02
 0.37848972641E+02 0.30014955249E+02 0.23719975025E+02 0.19118027965E+02 0.15989900486E+02
 0.14074618872E+02 0.13180405685E+02 0.13185036544E+02 0.14077895379E+02 0.15980381137E+02
 0.19105536768E+02 0.23718389658E+02 0.31770902885E+02 0.39071207241E+02 0.47468244882E+02
 0.55601686425E+02 0.61114982361E+02 0.62691968986E+02 0.61636055349E+02 0.60793532928E+02
 0.61636554551E+02 0.62692777268E+02 0.61115810337E+02 0.55602280554E+02 0.47468494636E+02
 0.39071170791E+02 0.31770746907E+02 0.25993838780E+02 0.21839712633E+02 0.19112361131E+02
 0.17602541800E+02 0.17126988202E+02 0.17602448231E+02 0.19112255660E+02 0.21839696187E+02
 0.25993947363E+02 0.34799821909E+02 0.41503391461E+02 0.49338252684E+02 0.57189549457E+02
 0.62415456923E+02 0.62707670346E+02 0.58858050325E+02 0.54947785620E+02 0.54925676421E+02
 0.58819733596E+02 0.62692777270E+02 0.62421145942E+02 0.57195040259E+02 0.49346736771E+02
 0.41521518185E+02 0.34808904692E+02 0.29621035896E+02 0.25987606398E+02 0.23736237586E+02
 0.22674860588E+02 0.22669206335E+02 0.23734720276E+02 0.26003918315E+02 0.29634886964E+02
 0.39229895664E+02 0.45117043291E+02 0.52160469897E+02 0.59639327253E+02 0.65365883881E+02
 0.66290759418E+02 0.61636387946E+02 0.54925529511E+02 0.51774500912E+02 0.54925676423E+02
 0.61636554556E+02 0.66290767767E+02 0.65365613299E+02 0.59638791360E+02 0.52159816668E+02
 0.45116478791E+02 0.39229575948E+02 0.34813727654E+02 0.31794794218E+02 0.30050470426E+02
 0.29483484278E+02 0.30050352101E+02 0.31794677017E+02 0.34813776174E+02 0.45135504482E+02
 0.49886474628E+02 0.55706928443E+02 0.62164702365E+02 0.68067469200E+02 0.70646166411E+02
 0.67715526036E+02 0.60757068728E+02 0.54925529509E+02 0.54947785620E+02 0.60793532933E+02
 0.67727668287E+02 0.70645529540E+02 0.68075668872E+02 0.62163841920E+02 0.55680045963E+02
 0.49862453826E+02 0.45143297015E+02 0.41554599684E+02 0.39113779694E+02 0.37895470225E+02
 0.37901033259E+02 0.39113130295E+02 0.41535825250E+02 0.52201985391E+02 0.55729822987E+02
 0.59892298821E+02 0.64593518713E+02 0.69428812609E+02 0.72837157286E+02 0.72444071221E+02
 0.67715526034E+02 0.61636387941E+02 0.58858050320E+02 0.61636055349E+02 0.67714972508E+02
 0.72443474640E+02 0.72836691301E+02 0.69428583766E+02 0.64593540424E+02 0.59892504315E+02
 0.55730109012E+02 0.52202257757E+02 0.49393974981E+02 0.47532356710E+02 0.46875968213E+02
 0.47532255314E+02 0.49393776404E+02 0.59706671849E+02 0.62214520486E+02 0.64620218488E+02
 0.67157628137E+02 0.69780196584E+02 0.72121846063E+02 0.72837157287E+02 0.70646166410E+02
 0.66290759415E+02 0.62707670341E+02 0.62691968983E+02 0.66269474258E+02 0.70645632641E+02
 0.72834245453E+02 0.72096961491E+02 0.69766556198E+02 0.67183240833E+02 0.64652062919E+02
 0.62214617456E+02 0.59694169573E+02 0.57272399768E+02 0.55691280348E+02 0.55682705543E+02
 0.57266910151E+02 0.65446666563E+02 0.68142061167E+02 0.69484467810E+02 0.69809185653E+02
 0.69862518624E+02 0.69780196585E+02 0.69428812610E+02 0.68067469202E+02 0.65365883882E+02
 0.62415456922E+02 0.61114982360E+02 0.62415315997E+02 0.65365738004E+02 0.68067506280E+02
 0.69429155950E+02 0.69780822873E+02 0.69863258214E+02 0.69809809971E+02 0.69484807737E+02
 0.68142094305E+02 0.65446517269E+02 0.62492710284E+02 0.61189388589E+02 0.62492853180E+02
 0.66347292676E+02 0.70722606952E+02 0.72914459272E+02 0.72179554307E+02 0.69809185653E+02
 0.67157628137E+02 0.64593518714E+02 0.62164702367E+02 0.59639327257E+02 0.57189549461E+02
 0.55601686428E+02 0.55610286163E+02 0.57195070939E+02 0.59626810555E+02 0.62164761901E+02
 0.64625348527E+02 0.67183239263E+02 0.69795531025E+02 0.72154656666E+02 0.72911542648E+02
 0.70722039843E+02 0.66325937808E+02 0.62728505292E+02 0.62744245955E+02 0.61624498568E+02
 0.67751859907E+02 0.72517284519E+02 0.72914459272E+02 0.69484467809E+02 0.64620218487E+02
 0.59892298821E+02 0.55706928443E+02 0.52160469899E+02 0.49338252687E+02 0.47468244886E+02
 0.46809187839E+02 0.47468351354E+02 0.49338458590E+02 0.52160747913E+02 0.55707215777E+02
 0.59892501540E+02 0.64620236391E+02 0.69484238162E+02 0.72913998009E+02 0.72516697526E+02
 0.67751317119E+02 0.61624173015E+02 0.58823871949E+02 0.54834761153E+02 0.60722734066E+02
 0.67751859909E+02 0.70722606953E+02 0.68142061164E+02 0.62214520484E+02 0.55729822987E+02
 0.49886474628E+02 0.45117043291E+02 0.41503391461E+02 0.39071207241E+02 0.37854270255E+02
 0.37848660296E+02 0.39071792501E+02 0.41522173585E+02 0.45124869062E+02 0.49862450463E+02
 0.55702944702E+02 0.62213701603E+02 0.68150270148E+02 0.70721938740E+02 0.67764055246E+02
 0.60759366756E+02 0.54857117683E+02 0.53051558345E+02 0.55349160424E+02 0.60076173200E+02
 0.62838819830E+02 0.60990753980E+02 0.55329423012E+02 0.48377152624E+02 0.41870114894E+02
 0.36488283942E+02 0.32485657492E+02 0.29753827310E+02 0.28169438164E+02 0.27652088486E+02
 0.28169533897E+02 0.29753923014E+02 0.32485620858E+02 0.36488030096E+02 0.41869664808E+02
 0.48376630974E+02 0.55328994536E+02 0.60990537367E+02 0.62838826147E+02 0.60076306130E+02
 0.55349277737E+02 0.55349277735E+02 0.55367714270E+02 0.57978306113E+02 0.60117853522E+02
 0.58704860262E+02 0.53316360477E+02 0.45936101297E+02 0.38689522751E+02 0.32494403613E+02
 0.27759756510E+02 0.24434463982E+02 0.22345748633E+02 0.21356003190E+02 0.21360642604E+02
 0.22347046788E+02 0.24421264413E+02 0.27748645888E+02 0.32501965715E+02 0.38704260418E+02
 0.45942899062E+02 0.53320923385E+02 0.58709647367E+02 0.60105415304E+02 0.57946332650E+02
 0.60076306126E+02 0.59696033311E+02 0.60075936237E+02 0.60104817645E+02 0.57686926877E+02
 0.52011859811E+02 0.44315141895E+02 0.36541251318E+02 0.29768690837E+02 0.24440958984E+02
 0.20612922289E+02 0.18086498064E+02 0.16673570112E+02 0.16224394121E+02 0.16673657135E+02
 0.18086605526E+02 0.20612966065E+02 0.24440903533E+02 0.29768588966E+02 0.36541227147E+02
 0.44315323142E+02 0.52012294494E+02 0.57687536598E+02 0.60105415303E+02 0.62838826144E+02
 0.64578886349E+02 0.64568343387E+02 0.62821109829E+02 0.58704744794E+02 0.52018940441E+02
 0.43742449027E+02 0.35456824432E+02 0.28187788925E+02 0.22356358197E+02 0.18090976927E+02
 0.15186714285E+02 0.13402107350E+02 0.12556366455E+02 0.12552627727E+02 0.13399484596E+02
 0.15194443425E+02 0.18101073967E+02 0.22357627323E+02 0.28183107576E+02 0.35452508323E+02
 0.43736224352E+02 0.52012294495E+02 0.58709647367E+02 0.60990537368E+02 0.66031732994E+02
 0.67769400922E+02 0.66031812815E+02 0.60990632475E+02 0.53320942190E+02 0.44315203186E+02
 0.35452254619E+02 0.27671544223E+02 0.21368476397E+02 0.16680508585E+02 0.13404954339E+02
 0.11268101138E+02 0.10065211846E+02 0.96774171605E+01 0.10065151961E+02 0.11268040807E+02
 0.13404975359E+02 0.16680663017E+02 0.21368750047E+02 0.27671859352E+02 0.35452508323E+02
 0.44315323143E+02 0.53320923387E+02 0.55328994539E+02 0.63030020614E+02 0.67384416637E+02
 0.67382337603E+02 0.63023245119E+02 0.55319239050E+02 0.45936225586E+02 0.36541727762E+02
 0.28187885467E+02 0.21373082974E+02 0.16232078293E+02 0.12560551289E+02 0.10066887353E+02
 0.85215436814E+01 0.77836825254E+01 0.77845669779E+01 0.85220498681E+01 0.10064573544E+02
 0.12556795518E+02 0.16228587966E+02 0.21368750047E+02 0.28183107576E+02 0.36541227147E+02
 0.45942899063E+02 0.48376630975E+02 0.57414158966E+02 0.63956799544E+02 0.66357127210E+02
 0.63957231916E+02 0.57414852620E+02 0.48377329918E+02 0.38704748629E+02 0.29768788282E+02
 0.22357612992E+02 0.16680599077E+02 0.12556828277E+02 0.96796414704E+01 0.77845275799E+01
 0.67029043461E+01 0.63504995606E+01 0.67027351012E+01 0.77842897287E+01 0.96794688784E+01
 0.12556795518E+02 0.16680663017E+02 0.22357627323E+02 0.29768588966E+02 0.38704260418E+02
 0.41869664808E+02 0.51427227927E+02 0.59450285760E+02 0.64090552325E+02 0.64102421078E+02
 0.59476588306E+02 0.51449394032E+02 0.41876239197E+02 0.32494369731E+02 0.24427761826E+02
 0.18091089262E+02 0.13402351482E+02 0.10066828270E+02 0.77854090705E+01 0.63507879324E+01
 0.56552539286E+01 0.56569555534E+01 0.63529677604E+01 0.77842897287E+01 0.10064573544E+02
 0.13404975359E+02 0.18101073967E+02 0.24440903533E+02 0.32501965715E+02 0.36488030096E+02
 0.46101083344E+02 0.55132434152E+02 0.61681142311E+02 0.64085635003E+02 0.61681143120E+02
 0.55132435892E+02 0.46101086098E+02 0.36488033692E+02 0.27748649801E+02 0.20612969531E+02
 0.15194445727E+02 0.11268041609E+02 0.85220493958E+01 0.67027340477E+01 0.56569547492E+01
 0.53145932842E+01 0.56569555534E+01 0.67027351012E+01 0.85220498681E+01 0.11268040807E+02
 0.15194443425E+02 0.20612966065E+02 0.27748645888E+02 0.32485620858E+02 0.41865244148E+02
 0.51436421167E+02 0.59462122815E+02 0.64087133956E+02 0.64075275556E+02 0.59435835534E+02
 0.51414249208E+02 0.41858641798E+02 0.32493193267E+02 0.24434408848E+02 0.18096612781E+02
 0.13402128008E+02 0.10062901736E+02 0.77834432645E+01 0.63526758032E+01 0.56569547492E+01
 0.56552539286E+01 0.63504995606E+01 0.77845669779E+01 0.10065151961E+02 0.13399484596E+02
 0.18086605526E+02 0.24421264413E+02 0.29753923014E+02 0.38685566835E+02 0.48354549728E+02
 0.57389595783E+02 0.63930787264E+02 0.66330392662E+02 0.63930352226E+02 0.57388897928E+02
 0.48353846724E+02 0.38685076088E+02 0.29753723144E+02 0.22347061953E+02 0.16673722132E+02
 0.12552595227E+02 0.96772437322E+01 0.77834432645E+01 0.67027340477E+01 0.63507879324E+01
 0.67029043461E+01 0.77836825254E+01 0.96774171605E+01 0.12552627727E+02 0.16673657135E+02
 0.22347046788E+02 0.28169533897E+02 0.36517343259E+02 0.45907180324E+02 0.55288700409E+02
 0.62994814069E+02 0.67356747253E+02 0.67358818829E+02 0.63001579216E+02 0.55298469706E+02
 0.45913903935E+02 0.36516898989E+02 0.28164769574E+02 0.21356272263E+02 0.16220859055E+02
 0.12552595227E+02 0.10062901736E+02 0.85220493958E+01 0.77854090705E+01 0.77845275799E+01
 0.85215436814E+01 0.10065211846E+02 0.12556366455E+02 0.16224394121E+02 0.21360642604E+02
 0.27652088486E+02 0.35425470799E+02 0.44283200749E+02 0.53290640152E+02 0.60971788696E+02
 0.66028248861E+02 0.67773006489E+02 0.66028168231E+02 0.60971691602E+02 0.53290617760E+02
 0.44283315502E+02 0.35425718313E+02 0.27652397612E+02 0.21356272263E+02 0.16673722132E+02
 0.13402128008E+02 0.11268041609E+02 0.10066828270E+02 0.96796414704E+01 0.10066887353E+02
 0.11268101138E+02 0.13402107350E+02 0.16673570112E+02 0.21356003190E+02 0.28169438164E+02
 0.35430083804E+02 0.43709696859E+02 0.51990831185E+02 0.58700480824E+02 0.62854568657E+02
 0.64631309075E+02 0.64641812404E+02 0.62872219863E+02 0.58705357543E+02 0.51984167968E+02
 0.43703417790E+02 0.35425718313E+02 0.28164769574E+02 0.22347061953E+02 0.18096612781E+02
 0.15194445727E+02 0.13402351481E+02 0.12556828277E+02 0.12560551289E+02 0.13404954339E+02
 0.15186714285E+02 0.18086498064E+02 0.22345748633E+02 0.29753827310E+02 0.36516925440E+02
 0.44283133325E+02 0.51983727382E+02 0.57689687573E+02 0.60167627696E+02 0.60202273515E+02
 0.59849943934E+02 0.60202650100E+02 0.60168235813E+02 0.57690307209E+02 0.51984167967E+02
 0.44283315501E+02 0.36516898989E+02 0.29753723144E+02 0.24434408848E+02 0.20612969531E+02
 0.18091089262E+02 0.16680599077E+02 0.16232078293E+02 0.16680508585E+02 0.18090976927E+02
 0.20612922289E+02 0.24434463982E+02 0.32485657492E+02 0.38670332691E+02 0.45907046960E+02
 0.53286028194E+02 0.58700594679E+02 0.60180626902E+02 0.58132213810E+02 0.55588938589E+02
 0.55570595566E+02 0.58100395718E+02 0.60168235815E+02 0.58705357542E+02 0.53290617758E+02
 0.45913903933E+02 0.38685076088E+02 0.32493193267E+02 0.27748649801E+02 0.24427761826E+02
 0.22357612992E+02 0.21373082974E+02 0.21368476397E+02 0.22356358197E+02 0.24440958984E+02
 0.27759756510E+02 0.36488283942E+02 0.41859087970E+02 0.48354364908E+02 0.55298895877E+02
 0.60971907411E+02 0.62872214021E+02 0.60202518227E+02 0.55570479058E+02 0.53313535614E+02
 0.55570595568E+02 0.60202650104E+02 0.62872219865E+02 0.60971691600E+02 0.55298469703E+02
 0.48353846724E+02 0.41858641798E+02 0.36488033692E+02 0.32494369731E+02 0.29768788282E+02
 0.28187885467E+02 0.27671544223E+02 0.28187788925E+02 0.29768690837E+02 0.32494403613E+02
 0.41870114894E+02 0.46120964460E+02 0.51436225434E+02 0.57389404651E+02 0.62994787175E+02
 0.66028732828E+02 0.64631715178E+02 0.59819676998E+02 0.55570479057E+02 0.55588938589E+02
 0.59849943937E+02 0.64641812408E+02 0.66028168231E+02 0.63001579212E+02 0.57388897926E+02
 0.51414249208E+02 0.46101086098E+02 0.41876239197E+02 0.38704748629E+02 0.36541727762E+02
 0.35452254620E+02 0.35456824433E+02 0.36541251319E+02 0.38689522751E+02 0.48377152625E+02
 0.51449201151E+02 0.55132292916E+02 0.59435819429E+02 0.63930515583E+02 0.67359156025E+02
 0.67773441794E+02 0.64631715177E+02 0.60202518224E+02 0.58132213807E+02 0.60202273515E+02
 0.64631309078E+02 0.67773006489E+02 0.67358818826E+02 0.63930352223E+02 0.59435835534E+02
 0.55132435892E+02 0.51449394032E+02 0.48377329918E+02 0.45936225586E+02 0.44315203187E+02
 0.43742449030E+02 0.44315141898E+02 0.45936101299E+02 0.55329423015E+02 0.57414629033E+02
 0.59450272770E+02 0.61660091876E+02 0.64086636021E+02 0.66350968429E+02 0.67359156025E+02
 0.66028732828E+02 0.62872214018E+02 0.60180626899E+02 0.60167627694E+02 0.62854568657E+02
 0.66028248861E+02 0.67356747251E+02 0.66330392659E+02 0.64075275556E+02 0.61681143120E+02