   4   4   1   0
  0.8707182E+01  0.2450000E-09  0.2450000E-09  0.6700000E-09  0.5000000E-15
  1.000000000000000E-004
  CAR 
 graphite                                
     18.56304686    -16.88838260  301      4.51541794      1.00000000
    -16.888  0.0000E+00  0.0000E+00
    -16.770  0.0000E+00  0.0000E+00
    -16.652  0.0000E+00  0.0000E+00
    -16.534  0.0000E+00  0.0000E+00
    -16.416  0.0000E+00  0.0000E+00
    -16.298  0.0000E+00  0.0000E+00
    -16.179  0.0000E+00  0.0000E+00
    -16.061  0.0000E+00  0.0000E+00
    -15.943  0.0000E+00  0.0000E+00
    -15.825  0.0000E+00  0.0000E+00
    -15.707  0.0000E+00  0.0000E+00
    -15.588  0.0000E+00  0.0000E+00
    -15.470  0.0000E+00  0.0000E+00
    -15.352  0.0000E+00  0.0000E+00
    -15.234  0.0000E+00  0.0000E+00
    -15.116  0.0000E+00  0.0000E+00
    -14.998  0.0000E+00  0.0000E+00
    -14.879  0.3504E-02  0.1041E-04
    -14.761  0.2351E+00  0.1595E-01
    -14.643  0.3868E+00  0.5215E-01
    -14.525  0.6176E+00  0.1111E+00
    -14.407  0.6046E+00  0.1828E+00
    -14.289  0.6210E+00  0.2557E+00
    -14.170  0.6116E+00  0.3283E+00
    -14.052  0.6166E+00  0.4010E+00
    -13.934  0.6109E+00  0.4738E+00
    -13.816  0.6151E+00  0.5460E+00
    -13.698  0.6230E+00  0.6193E+00
    -13.580  0.6218E+00  0.6928E+00
    -13.461  0.6168E+00  0.7661E+00
    -13.343  0.6139E+00  0.8386E+00
    -13.225  0.6215E+00  0.9115E+00
    -13.107  0.6285E+00  0.9855E+00
    -12.989  0.6283E+00  0.1060E+01
    -12.871  0.6244E+00  0.1134E+01
    -12.752  0.6200E+00  0.1207E+01
    -12.634  0.6228E+00  0.1281E+01
    -12.516  0.6285E+00  0.1355E+01
    -12.398  0.6352E+00  0.1429E+01
    -12.280  0.6355E+00  0.1504E+01
    -12.162  0.6343E+00  0.1579E+01
    -12.043  0.6293E+00  0.1654E+01
    -11.925  0.6307E+00  0.1728E+01
    -11.807  0.6338E+00  0.1803E+01
    -11.689  0.6387E+00  0.1878E+01
    -11.571  0.6439E+00  0.1954E+01
    -11.452  0.6470E+00  0.2030E+01
    -11.334  0.6469E+00  0.2107E+01
    -11.216  0.6447E+00  0.2183E+01
    -11.098  0.6457E+00  0.2259E+01
    -10.980  0.6488E+00  0.2336E+01
    -10.862  0.6528E+00  0.2413E+01
    -10.743  0.6581E+00  0.2490E+01
    -10.625  0.6645E+00  0.2568E+01
    -10.507  0.6709E+00  0.2647E+01
    -10.389  0.6749E+00  0.2727E+01
    -10.271  0.6814E+00  0.2807E+01
    -10.153  0.6936E+00  0.2888E+01
    -10.034  0.7141E+00  0.2971E+01
     -9.916  0.7426E+00  0.3057E+01
     -9.798  0.7742E+00  0.3147E+01
     -9.680  0.9640E+00  0.3252E+01
     -9.562  0.1036E+01  0.3372E+01
     -9.444  0.7716E+00  0.3478E+01
     -9.325  0.5921E+00  0.3557E+01
     -9.207  0.7432E+00  0.3643E+01
     -9.089  0.4074E+00  0.3729E+01
     -8.971  0.3653E+00  0.3774E+01
     -8.853  0.3268E+00  0.3815E+01
     -8.735  0.2883E+00  0.3851E+01
     -8.616  0.2498E+00  0.3883E+01
     -8.498  0.2488E+00  0.3912E+01
     -8.380  0.5232E+00  0.3954E+01
     -8.262  0.6282E+00  0.4023E+01
     -8.144  0.6967E+00  0.4109E+01
     -8.026  0.6134E+00  0.4187E+01
     -7.907  0.5172E+00  0.4248E+01
     -7.789  0.5599E+00  0.4312E+01
     -7.671  0.8941E+00  0.4400E+01
     -7.553  0.7870E+00  0.4515E+01
     -7.435  0.8885E+00  0.4614E+01
     -7.316  0.1087E+01  0.4728E+01
     -7.198  0.7705E+00  0.4841E+01
     -7.080  0.7513E+00  0.4931E+01
     -6.962  0.7331E+00  0.5018E+01
     -6.844  0.7149E+00  0.5104E+01
     -6.726  0.6461E+00  0.5185E+01
     -6.607  0.6079E+00  0.5258E+01
     -6.489  0.6043E+00  0.5329E+01
     -6.371  0.6007E+00  0.5401E+01
     -6.253  0.5914E+00  0.5471E+01
     -6.135  0.5746E+00  0.5540E+01
     -6.017  0.5573E+00  0.5607E+01
     -5.898  0.5400E+00  0.5672E+01
     -5.780  0.6596E+00  0.5754E+01
     -5.662  0.6711E+00  0.5832E+01
     -5.544  0.6940E+00  0.5913E+01
     -5.426  0.7176E+00  0.5997E+01
     -5.308  0.7411E+00  0.6083E+01
     -5.189  0.7647E+00  0.6172E+01
     -5.071  0.7772E+00  0.6263E+01
     -4.953  0.7631E+00  0.6354E+01
     -4.835  0.7601E+00  0.6444E+01
     -4.717  0.7636E+00  0.6534E+01
     -4.599  0.7670E+00  0.6625E+01
     -4.480  0.7704E+00  0.6715E+01
     -4.362  0.7738E+00  0.6807E+01
     -4.244  0.7847E+00  0.6899E+01
     -4.126  0.7949E+00  0.6992E+01
     -4.008  0.8027E+00  0.7086E+01
     -3.890  0.8906E+00  0.7185E+01
     -3.771  0.9355E+00  0.7294E+01
     -3.653  0.9873E+00  0.7407E+01
     -3.535  0.1023E+01  0.7526E+01
     -3.417  0.1054E+01  0.7649E+01
     -3.299  0.1093E+01  0.7776E+01
     -3.180  0.1153E+01  0.7908E+01
     -3.062  0.1193E+01  0.8047E+01
     -2.944  0.1227E+01  0.8190E+01
     -2.826  0.1294E+01  0.8338E+01
     -2.708  0.1558E+01  0.8505E+01
     -2.590  0.1552E+01  0.8691E+01
     -2.471  0.1391E+01  0.8864E+01
     -2.353  0.1363E+01  0.9026E+01
     -2.235  0.1369E+01  0.9187E+01
     -2.117  0.1406E+01  0.9350E+01
     -1.999  0.1668E+01  0.9526E+01
     -1.881  0.2132E+01  0.9754E+01
     -1.762  0.2642E+01  0.1004E+02
     -1.644  0.2127E+01  0.1033E+02
     -1.526  0.1904E+01  0.1056E+02
     -1.408  0.1745E+01  0.1078E+02
     -1.290  0.1524E+01  0.1097E+02
     -1.172  0.1270E+01  0.1114E+02
     -1.053  0.1243E+01  0.1128E+02
     -0.935  0.1331E+01  0.1143E+02
     -0.817  0.1354E+01  0.1159E+02
     -0.699  0.1348E+01  0.1175E+02
     -0.581  0.1281E+01  0.1191E+02
     -0.463  0.1250E+01  0.1206E+02
     -0.344  0.1313E+01  0.1221E+02
     -0.226  0.1513E+01  0.1239E+02
     -0.108  0.1384E+01  0.1256E+02
      0.010  0.1282E+01  0.1272E+02
      0.128  0.1214E+01  0.1286E+02
      0.246  0.1177E+01  0.1300E+02
      0.365  0.1161E+01  0.1314E+02
      0.483  0.1190E+01  0.1328E+02
      0.601  0.1169E+01  0.1342E+02
      0.719  0.1149E+01  0.1356E+02
      0.837  0.1123E+01  0.1369E+02
      0.956  0.1100E+01  0.1382E+02
      1.074  0.1139E+01  0.1395E+02
      1.192  0.1130E+01  0.1409E+02
      1.310  0.1101E+01  0.1422E+02
      1.428  0.1127E+01  0.1436E+02
      1.546  0.1170E+01  0.1449E+02
      1.665  0.8581E+00  0.1461E+02
      1.783  0.8613E+00  0.1471E+02
      1.901  0.8454E+00  0.1481E+02
      2.019  0.8340E+00  0.1491E+02
      2.137  0.8268E+00  0.1500E+02
      2.255  0.8315E+00  0.1510E+02
      2.374  0.8821E+00  0.1520E+02
      2.492  0.8952E+00  0.1531E+02
      2.610  0.8820E+00  0.1541E+02
      2.728  0.6864E+00  0.1550E+02
      2.846  0.5570E+00  0.1557E+02
      2.964  0.4792E+00  0.1563E+02
      3.083  0.4353E+00  0.1569E+02
      3.201  0.3874E+00  0.1574E+02
      3.319  0.3413E+00  0.1578E+02
      3.437  0.3307E+00  0.1582E+02
      3.555  0.3587E+00  0.1586E+02
      3.673  0.2548E+00  0.1589E+02
      3.792  0.2014E+00  0.1592E+02
      3.910  0.1589E+00  0.1594E+02
      4.028  0.1331E+00  0.1596E+02
      4.146  0.1080E+00  0.1597E+02
      4.264  0.8263E-01  0.1599E+02
      4.382  0.5967E-01  0.1599E+02
      4.501  0.0000E+00  0.1600E+02
      4.619  0.0000E+00  0.1600E+02
      4.737  0.0000E+00  0.1600E+02
      4.855  0.0000E+00  0.1600E+02
      4.973  0.0000E+00  0.1600E+02
      5.092  0.5911E-01  0.1600E+02
      5.210  0.8624E-01  0.1601E+02
      5.328  0.1183E+00  0.1603E+02
      5.446  0.1558E+00  0.1604E+02
      5.564  0.2010E+00  0.1606E+02
      5.682  0.2716E+00  0.1609E+02
      5.801  0.3274E+00  0.1613E+02
      5.919  0.3822E+00  0.1617E+02
      6.037  0.4662E+00  0.1622E+02
      6.155  0.6894E+00  0.1629E+02
      6.273  0.9984E+00  0.1641E+02
      6.391  0.9215E+00  0.1652E+02
      6.510  0.8825E+00  0.1663E+02
      6.628  0.8434E+00  0.1674E+02
      6.746  0.8057E+00  0.1683E+02
      6.864  0.8137E+00  0.1693E+02
      6.982  0.8096E+00  0.1702E+02
      7.100  0.6882E+00  0.1711E+02
      7.219  0.6417E+00  0.1719E+02
      7.337  0.6025E+00  0.1726E+02
      7.455  0.5734E+00  0.1733E+02
      7.573  0.5504E+00  0.1740E+02
      7.691  0.5312E+00  0.1746E+02
      7.809  0.5134E+00  0.1752E+02
      7.928  0.5003E+00  0.1758E+02
      8.046  0.4888E+00  0.1764E+02
      8.164  0.4778E+00  0.1770E+02
      8.282  0.4675E+00  0.1776E+02
      8.400  0.4573E+00  0.1781E+02
      8.518  0.4451E+00  0.1786E+02
      8.637  0.4555E+00  0.1792E+02
      8.755  0.4717E+00  0.1797E+02
      8.873  0.4918E+00  0.1803E+02
      8.991  0.4969E+00  0.1809E+02
      9.109  0.4993E+00  0.1815E+02
      9.228  0.5041E+00  0.1821E+02
      9.346  0.5113E+00  0.1827E+02
      9.464  0.5171E+00  0.1833E+02
      9.582  0.5215E+00  0.1839E+02
      9.700  0.5274E+00  0.1845E+02
      9.818  0.5378E+00  0.1851E+02
      9.937  0.5506E+00  0.1858E+02
     10.055  0.5626E+00  0.1864E+02
     10.173  0.5754E+00  0.1871E+02
     10.291  0.5932E+00  0.1878E+02
     10.409  0.6228E+00  0.1885E+02
     10.527  0.6404E+00  0.1893E+02
     10.646  0.6420E+00  0.1900E+02
     10.764  0.5611E+00  0.1907E+02
     10.882  0.5099E+00  0.1914E+02
     11.000  0.4800E+00  0.1919E+02
     11.118  0.4683E+00  0.1925E+02
     11.236  0.4366E+00  0.1930E+02
     11.355  0.3912E+00  0.1935E+02
     11.473  0.4166E+00  0.1940E+02
     11.591  0.4721E+00  0.1945E+02
     11.709  0.5828E+00  0.1951E+02
     11.827  0.7506E+00  0.1959E+02
     11.945  0.6492E+00  0.1968E+02
     12.064  0.6492E+00  0.1975E+02
     12.182  0.6995E+00  0.1983E+02
     12.300  0.9783E+00  0.1993E+02
     12.418  0.1210E+01  0.2006E+02
     12.536  0.1413E+01  0.2021E+02
     12.654  0.1869E+01  0.2041E+02
     12.773  0.1908E+01  0.2064E+02
     12.891  0.1950E+01  0.2086E+02
     13.009  0.1744E+01  0.2108E+02
     13.127  0.1822E+01  0.2130E+02
     13.245  0.2640E+01  0.2158E+02
     13.364  0.2378E+01  0.2190E+02
     13.482  0.1827E+01  0.2214E+02
     13.600  0.1123E+01  0.2231E+02
     13.718  0.1030E+01  0.2244E+02
     13.836  0.9971E+00  0.2256E+02
     13.954  0.9496E+00  0.2267E+02
     14.073  0.9444E+00  0.2278E+02
     14.191  0.7523E+00  0.2289E+02
     14.309  0.6883E+00  0.2297E+02
     14.427  0.6323E+00  0.2305E+02
     14.545  0.5952E+00  0.2312E+02
     14.663  0.6608E+00  0.2320E+02
     14.782  0.8193E+00  0.2328E+02
     14.900  0.1106E+01  0.2339E+02
     15.018  0.1058E+01  0.2352E+02
     15.136  0.9286E+00  0.2364E+02
     15.254  0.7607E+00  0.2374E+02
     15.372  0.5312E+00  0.2382E+02
     15.491  0.4326E+00  0.2388E+02
     15.609  0.2853E+00  0.2392E+02
     15.727  0.1949E+00  0.2395E+02
     15.845  0.1398E+00  0.2397E+02
     15.963  0.1020E+00  0.2398E+02
     16.081  0.6912E-01  0.2399E+02
     16.200  0.3659E-01  0.2400E+02
     16.318  0.1361E-01  0.2400E+02
     16.436  0.2845E-02  0.2400E+02
     16.554  0.1400E-04  0.2400E+02
     16.672  0.0000E+00  0.2400E+02
     16.790  0.0000E+00  0.2400E+02
     16.909  0.0000E+00  0.2400E+02
     17.027  0.0000E+00  0.2400E+02
     17.145  0.0000E+00  0.2400E+02
     17.263  0.0000E+00  0.2400E+02
     17.381  0.0000E+00  0.2400E+02
     17.500  0.0000E+00  0.2400E+02
     17.618  0.0000E+00  0.2400E+02
     17.736  0.0000E+00  0.2400E+02
     17.854  0.0000E+00  0.2400E+02
     17.972  0.0000E+00  0.2400E+02
     18.090  0.0000E+00  0.2400E+02
     18.209  0.0000E+00  0.2400E+02
     18.327  0.0000E+00  0.2400E+02
     18.445  0.0000E+00  0.2400E+02
     18.563  0.0000E+00  0.2400E+02
     18.56304686    -16.88838260  301      4.51541794      1.00000000
    -16.888  0.0000E+00  0.0000E+00  0.0000E+00
    -16.770  0.0000E+00  0.0000E+00  0.0000E+00
    -16.652  0.0000E+00  0.0000E+00  0.0000E+00
    -16.534  0.0000E+00  0.0000E+00  0.0000E+00
    -16.416  0.0000E+00  0.0000E+00  0.0000E+00
    -16.298  0.0000E+00  0.0000E+00  0.0000E+00
    -16.179  0.0000E+00  0.0000E+00  0.0000E+00
    -16.061  0.0000E+00  0.0000E+00  0.0000E+00
    -15.943  0.0000E+00  0.0000E+00  0.0000E+00
    -15.825  0.0000E+00  0.0000E+00  0.0000E+00
    -15.707  0.0000E+00  0.0000E+00  0.0000E+00
    -15.588  0.0000E+00  0.0000E+00  0.0000E+00
    -15.470  0.0000E+00  0.0000E+00  0.0000E+00
    -15.352  0.0000E+00  0.0000E+00  0.0000E+00
    -15.234  0.0000E+00  0.0000E+00  0.0000E+00
    -15.116  0.0000E+00  0.0000E+00  0.0000E+00
    -14.998  0.0000E+00  0.0000E+00  0.0000E+00
    -14.879  0.5702E-03  0.2114E-05  0.8236E-05
    -14.761  0.3863E-01  0.2954E-03  0.5624E-03
    -14.643  0.6090E-01  0.7867E-03  0.8953E-03
    -14.525  0.1010E+00  0.1585E-02  0.1520E-02
    -14.407  0.9883E-01  0.2474E-02  0.1476E-02
    -14.289  0.1006E+00  0.3340E-02  0.1494E-02
    -14.170  0.9840E-01  0.4235E-02  0.1450E-02
    -14.052  0.9943E-01  0.5166E-02  0.1461E-02
    -13.934  0.9752E-01  0.6041E-02  0.1425E-02
    -13.816  0.9724E-01  0.6870E-02  0.1415E-02
    -13.698  0.9794E-01  0.7718E-02  0.1423E-02
    -13.580  0.9685E-01  0.8590E-02  0.1407E-02
    -13.461  0.9537E-01  0.9536E-02  0.1384E-02
    -13.343  0.9425E-01  0.1043E-01  0.1368E-02
    -13.225  0.9488E-01  0.1123E-01  0.1378E-02
    -13.107  0.9547E-01  0.1205E-01  0.1390E-02
    -12.989  0.9486E-01  0.1301E-01  0.1388E-02
    -12.871  0.9354E-01  0.1390E-01  0.1376E-02
    -12.752  0.9196E-01  0.1479E-01  0.1361E-02
    -12.634  0.9179E-01  0.1562E-01  0.1367E-02
    -12.516  0.9212E-01  0.1641E-01  0.1380E-02
    -12.398  0.9264E-01  0.1719E-01  0.1397E-02
    -12.280  0.9204E-01  0.1808E-01  0.1403E-02
    -12.162  0.9108E-01  0.1900E-01  0.1407E-02
    -12.043  0.8960E-01  0.1999E-01  0.1406E-02
    -11.925  0.8927E-01  0.2086E-01  0.1420E-02
    -11.807  0.8930E-01  0.2168E-01  0.1439E-02
    -11.689  0.8961E-01  0.2246E-01  0.1462E-02
    -11.571  0.8995E-01  0.2324E-01  0.1486E-02
    -11.452  0.8996E-01  0.2408E-01  0.1510E-02
    -11.334  0.8912E-01  0.2495E-01  0.1529E-02
    -11.216  0.8829E-01  0.2598E-01  0.1555E-02
    -11.098  0.8800E-01  0.2688E-01  0.1586E-02
    -10.980  0.8797E-01  0.2768E-01  0.1619E-02
    -10.862  0.8814E-01  0.2844E-01  0.1657E-02
    -10.743  0.8851E-01  0.2916E-01  0.1700E-02
    -10.625  0.8920E-01  0.2985E-01  0.1749E-02
    -10.507  0.8987E-01  0.3056E-01  0.1801E-02
    -10.389  0.9035E-01  0.3158E-01  0.1870E-02
    -10.271  0.9065E-01  0.3248E-01  0.1948E-02
    -10.153  0.9225E-01  0.3355E-01  0.2059E-02
    -10.034  0.9527E-01  0.3466E-01  0.2201E-02
     -9.916  0.9952E-01  0.3600E-01  0.2381E-02
     -9.798  0.1043E+00  0.3742E-01  0.2579E-02
     -9.680  0.1329E+00  0.4596E-01  0.3428E-02
     -9.562  0.1405E+00  0.4956E-01  0.3787E-02
     -9.444  0.1038E+00  0.3798E-01  0.2778E-02
     -9.325  0.7937E-01  0.3012E-01  0.2089E-02
     -9.207  0.9900E-01  0.3802E-01  0.2684E-02
     -9.089  0.5297E-01  0.2292E-01  0.1455E-02
     -8.971  0.4749E-01  0.2067E-01  0.1313E-02
     -8.853  0.4245E-01  0.1861E-01  0.1184E-02
     -8.735  0.3741E-01  0.1655E-01  0.1052E-02
     -8.616  0.3234E-01  0.1448E-01  0.9174E-03
     -8.498  0.3036E-01  0.1615E-01  0.8343E-03
     -8.380  0.6124E-01  0.3616E-01  0.1643E-02
     -8.262  0.6523E-01  0.5648E-01  0.1710E-02
     -8.144  0.5470E-01  0.7087E-01  0.1193E-02
     -8.026  0.4794E-01  0.6304E-01  0.1155E-02
     -7.907  0.4134E-01  0.5276E-01  0.1047E-02
     -7.789  0.4510E-01  0.5704E-01  0.1192E-02
     -7.671  0.7598E-01  0.9043E-01  0.2065E-02
     -7.553  0.6848E-01  0.7733E-01  0.2085E-02
     -7.435  0.8036E-01  0.8552E-01  0.2565E-02
     -7.316  0.1037E+00  0.1010E+00  0.3485E-02
     -7.198  0.6909E-01  0.7526E-01  0.2401E-02
     -7.080  0.6740E-01  0.7369E-01  0.2428E-02
     -6.962  0.6567E-01  0.7231E-01  0.2451E-02
     -6.844  0.6387E-01  0.7098E-01  0.2470E-02
     -6.726  0.5643E-01  0.6528E-01  0.2293E-02
     -6.607  0.5233E-01  0.6266E-01  0.2232E-02
     -6.489  0.5185E-01  0.6275E-01  0.2286E-02
     -6.371  0.5135E-01  0.6286E-01  0.2339E-02
     -6.253  0.5026E-01  0.6256E-01  0.2370E-02
     -6.135  0.4828E-01  0.6154E-01  0.2363E-02
     -6.017  0.4624E-01  0.6047E-01  0.2353E-02
     -5.898  0.4420E-01  0.5940E-01  0.2342E-02
     -5.780  0.4372E-01  0.8114E-01  0.2454E-02
     -5.662  0.4237E-01  0.8463E-01  0.2496E-02
     -5.544  0.4220E-01  0.8916E-01  0.2584E-02
     -5.426  0.4212E-01  0.9374E-01  0.2676E-02
     -5.308  0.4206E-01  0.9832E-01  0.2772E-02
     -5.189  0.4201E-01  0.1029E+00  0.2870E-02
     -5.071  0.4185E-01  0.1057E+00  0.2967E-02
     -4.953  0.4086E-01  0.1048E+00  0.3061E-02
     -4.835  0.3777E-01  0.1074E+00  0.3111E-02
     -4.717  0.3733E-01  0.1088E+00  0.3183E-02
     -4.599  0.3691E-01  0.1102E+00  0.3255E-02
     -4.480  0.3649E-01  0.1115E+00  0.3327E-02
     -4.362  0.3608E-01  0.1129E+00  0.3399E-02
     -4.244  0.3573E-01  0.1156E+00  0.3501E-02
     -4.126  0.3493E-01  0.1185E+00  0.3596E-02
     -4.008  0.3390E-01  0.1212E+00  0.3679E-02
     -3.890  0.3288E-01  0.1328E+00  0.3808E-02
     -3.771  0.3183E-01  0.1409E+00  0.3973E-02
     -3.653  0.3093E-01  0.1489E+00  0.4115E-02
     -3.535  0.3055E-01  0.1544E+00  0.4245E-02
     -3.417  0.3015E-01  0.1598E+00  0.4378E-02
     -3.299  0.2966E-01  0.1660E+00  0.4508E-02
     -3.180  0.2936E-01  0.1767E+00  0.4802E-02
     -3.062  0.2877E-01  0.1842E+00  0.5002E-02
     -2.944  0.2811E-01  0.1893E+00  0.5156E-02
     -2.826  0.2784E-01  0.1995E+00  0.5430E-02
     -2.708  0.3082E-01  0.2382E+00  0.6539E-02
     -2.590  0.2623E-01  0.2392E+00  0.6281E-02
     -2.471  0.2194E-01  0.2239E+00  0.5741E-02
     -2.353  0.2011E-01  0.2243E+00  0.5706E-02
     -2.235  0.1879E-01  0.2296E+00  0.5839E-02
     -2.117  0.1785E-01  0.2387E+00  0.6076E-02
     -1.999  0.1708E-01  0.2894E+00  0.6878E-02
     -1.881  0.1700E-01  0.3768E+00  0.8471E-02
     -1.762  0.2261E-01  0.4603E+00  0.1125E-01
     -1.644  0.1955E-01  0.3640E+00  0.9874E-02
     -1.526  0.1778E-01  0.3261E+00  0.9373E-02
     -1.408  0.1506E-01  0.2990E+00  0.8995E-02
     -1.290  0.1194E-01  0.2619E+00  0.8282E-02
     -1.172  0.9389E-02  0.2226E+00  0.7505E-02
     -1.053  0.9265E-02  0.2149E+00  0.7552E-02
     -0.935  0.9511E-02  0.2226E+00  0.8020E-02
     -0.817  0.9296E-02  0.2237E+00  0.8293E-02
     -0.699  0.9369E-02  0.2196E+00  0.8349E-02
     -0.581  0.9084E-02  0.2078E+00  0.8208E-02
     -0.463  0.8422E-02  0.2048E+00  0.8416E-02
     -0.344  0.6601E-02  0.2184E+00  0.9253E-02
     -0.226  0.6277E-02  0.2579E+00  0.1106E-01
     -0.108  0.5760E-02  0.2320E+00  0.1006E-01
      0.010  0.5332E-02  0.2123E+00  0.9357E-02
      0.128  0.4971E-02  0.1992E+00  0.8940E-02
      0.246  0.4653E-02  0.1919E+00  0.8736E-02
      0.365  0.4256E-02  0.1886E+00  0.8774E-02
      0.483  0.3608E-02  0.1955E+00  0.9493E-02
      0.601  0.3114E-02  0.1914E+00  0.9382E-02
      0.719  0.2662E-02  0.1874E+00  0.9253E-02
      0.837  0.2387E-02  0.1820E+00  0.9026E-02
      0.956  0.2119E-02  0.1769E+00  0.8796E-02
      1.074  0.1800E-02  0.1855E+00  0.9505E-02
      1.192  0.1540E-02  0.1837E+00  0.9453E-02
      1.310  0.1306E-02  0.1771E+00  0.9032E-02
      1.428  0.8651E-03  0.1826E+00  0.9424E-02
      1.546  0.5038E-03  0.1913E+00  0.1001E-01
      1.665  0.2377E-03  0.1222E+00  0.5171E-02
      1.783  0.1837E-03  0.1141E+00  0.3900E-02
      1.901  0.1918E-03  0.1124E+00  0.3950E-02
      2.019  0.1959E-03  0.1112E+00  0.4022E-02
      2.137  0.1959E-03  0.1098E+00  0.4109E-02
      2.255  0.1950E-03  0.1094E+00  0.4262E-02
      2.374  0.1886E-03  0.1156E+00  0.4624E-02
      2.492  0.1743E-03  0.1159E+00  0.4994E-02
      2.610  0.1439E-03  0.1118E+00  0.5171E-02
      2.728  0.1145E-03  0.8792E-01  0.4085E-02
      2.846  0.9489E-04  0.7201E-01  0.3311E-02
      2.964  0.8206E-04  0.6201E-01  0.2857E-02
      3.083  0.7142E-04  0.5616E-01  0.2650E-02
      3.201  0.6090E-04  0.4996E-01  0.2413E-02
      3.319  0.5220E-04  0.4411E-01  0.2172E-02
      3.437  0.4625E-04  0.4266E-01  0.2147E-02
      3.555  0.4169E-04  0.4772E-01  0.2272E-02
      3.673  0.3543E-04  0.3151E-01  0.1784E-02
      3.792  0.2907E-04  0.2389E-01  0.1464E-02
      3.910  0.2292E-04  0.1799E-01  0.1214E-02
      4.028  0.1605E-04  0.1508E-01  0.1107E-02
      4.146  0.8363E-05  0.1305E-01  0.1025E-02
      4.264  0.5918E-05  0.8618E-02  0.7840E-03
      4.382  0.3269E-05  0.5254E-02  0.5796E-03
      4.501  0.0000E+00  0.0000E+00  0.0000E+00
      4.619  0.0000E+00  0.0000E+00  0.0000E+00
      4.737  0.0000E+00  0.0000E+00  0.0000E+00
      4.855  0.0000E+00  0.0000E+00  0.0000E+00
      4.973  0.0000E+00  0.0000E+00  0.0000E+00
      5.092  0.1547E-05  0.5391E-02  0.6040E-03
      5.210  0.5468E-05  0.7394E-02  0.7732E-03
      5.328  0.7879E-05  0.1276E-01  0.1101E-02
      5.446  0.1074E-04  0.1994E-01  0.1473E-02
      5.564  0.1543E-04  0.2770E-01  0.1722E-02
      5.682  0.1798E-04  0.4138E-01  0.2078E-02
      5.801  0.1770E-04  0.4725E-01  0.2694E-02
      5.919  0.2089E-04  0.5209E-01  0.3335E-02
      6.037  0.2481E-04  0.6356E-01  0.4091E-02
      6.155  0.4415E-04  0.9635E-01  0.5746E-02
      6.273  0.5756E-04  0.1450E+00  0.9491E-02
      6.391  0.4899E-04  0.1287E+00  0.9037E-02
      6.510  0.4042E-04  0.1183E+00  0.8930E-02
      6.628  0.3294E-04  0.1085E+00  0.8923E-02
      6.746  0.2777E-04  0.1016E+00  0.8739E-02
      6.864  0.2434E-04  0.1011E+00  0.8981E-02
      6.982  0.2115E-04  0.9964E-01  0.9038E-02
      7.100  0.1834E-04  0.8756E-01  0.7469E-02
      7.219  0.1598E-04  0.8261E-01  0.6931E-02
      7.337  0.1385E-04  0.7832E-01  0.6469E-02
      7.455  0.1204E-04  0.7500E-01  0.6119E-02
      7.573  0.1046E-04  0.7248E-01  0.5862E-02
      7.691  0.9058E-05  0.7032E-01  0.5658E-02
      7.809  0.7903E-05  0.6811E-01  0.5473E-02
      7.928  0.7073E-05  0.6663E-01  0.5322E-02
      8.046  0.6337E-05  0.6540E-01  0.5184E-02
      8.164  0.5684E-05  0.6424E-01  0.5054E-02
      8.282  0.5125E-05  0.6310E-01  0.4931E-02
      8.400  0.4646E-05  0.6195E-01  0.4813E-02
      8.518  0.4202E-05  0.6057E-01  0.4676E-02
      8.637  0.4419E-03  0.5939E-01  0.4780E-02
      8.755  0.9515E-03  0.5838E-01  0.4944E-02
      8.873  0.1520E-02  0.5748E-01  0.5154E-02
      8.991  0.1737E-02  0.5666E-01  0.5201E-02
      9.109  0.1897E-02  0.5580E-01  0.5219E-02
      9.228  0.2031E-02  0.5544E-01  0.5255E-02
      9.346  0.2198E-02  0.5514E-01  0.5316E-02
      9.464  0.2338E-02  0.5482E-01  0.5363E-02
      9.582  0.2447E-02  0.5450E-01  0.5396E-02
      9.700  0.2577E-02  0.5413E-01  0.5444E-02
      9.818  0.2789E-02  0.5361E-01  0.5538E-02
      9.937  0.2993E-02  0.5333E-01  0.5658E-02
     10.055  0.3158E-02  0.5317E-01  0.5772E-02
     10.173  0.3297E-02  0.5308E-01  0.5881E-02
     10.291  0.3455E-02  0.5340E-01  0.6035E-02
     10.409  0.3635E-02  0.5539E-01  0.6308E-02
     10.527  0.3727E-02  0.5649E-01  0.6460E-02
     10.646  0.3708E-02  0.5631E-01  0.6446E-02
     10.764  0.3144E-02  0.4974E-01  0.5582E-02
     10.882  0.2684E-02  0.4658E-01  0.5022E-02
     11.000  0.2357E-02  0.4508E-01  0.4673E-02
     11.118  0.2201E-02  0.4442E-01  0.4504E-02
     11.236  0.1927E-02  0.4237E-01  0.4145E-02
     11.355  0.1704E-02  0.3853E-01  0.3727E-02
     11.473  0.1814E-02  0.4052E-01  0.4053E-02
     11.591  0.2120E-02  0.4514E-01  0.4702E-02
     11.709  0.2880E-02  0.5401E-01  0.5929E-02
     11.827  0.4009E-02  0.6904E-01  0.7714E-02
     11.945  0.4012E-02  0.5696E-01  0.7076E-02
     12.064  0.4557E-02  0.5664E-01  0.7564E-02
     12.182  0.7772E-02  0.5845E-01  0.9433E-02
     12.300  0.2995E-01  0.6639E-01  0.1983E-01
     12.418  0.5040E-01  0.7259E-01  0.2928E-01
     12.536  0.6895E-01  0.7942E-01  0.3758E-01
     12.654  0.1040E+00  0.9814E-01  0.5286E-01
     12.773  0.1001E+00  0.1071E+00  0.5300E-01
     12.891  0.9389E-01  0.1218E+00  0.5325E-01
     13.009  0.6541E-01  0.1298E+00  0.4562E-01
     13.127  0.6104E-01  0.1486E+00  0.5109E-01
     13.245  0.6691E-01  0.2501E+00  0.8569E-01
     13.364  0.6712E-01  0.2166E+00  0.7694E-01
     13.482  0.5721E-01  0.1576E+00  0.5519E-01
     13.600  0.4330E-01  0.8074E-01  0.3019E-01
     13.718  0.3963E-01  0.7348E-01  0.2791E-01
     13.836  0.3710E-01  0.7171E-01  0.2679E-01
     13.954  0.3301E-01  0.7066E-01  0.2516E-01
     14.073  0.2872E-01  0.7784E-01  0.2411E-01
     14.191  0.2338E-01  0.5496E-01  0.1901E-01
     14.309  0.2183E-01  0.4797E-01  0.1717E-01
     14.427  0.2040E-01  0.4192E-01  0.1552E-01
     14.545  0.1915E-01  0.3737E-01  0.1416E-01
     14.663  0.1808E-01  0.3637E-01  0.1435E-01
     14.782  0.1737E-01  0.4116E-01  0.1620E-01
     14.900  0.1816E-01  0.5319E-01  0.1934E-01
     15.018  0.2095E-01  0.5407E-01  0.2089E-01
     15.136  0.1725E-01  0.4724E-01  0.1857E-01
     15.254  0.1359E-01  0.4082E-01  0.1599E-01
     15.372  0.7932E-02  0.2540E-01  0.1057E-01
     15.491  0.5614E-02  0.1938E-01  0.8423E-02
     15.609  0.3443E-02  0.1224E-01  0.5839E-02
     15.727  0.2389E-02  0.8719E-02  0.4055E-02
     15.845  0.1648E-02  0.6343E-02  0.2949E-02
     15.963  0.1156E-02  0.4712E-02  0.2176E-02
     16.081  0.7587E-03  0.3341E-02  0.1493E-02
     16.200  0.4023E-03  0.1956E-02  0.8033E-03
     16.318  0.1513E-03  0.7886E-03  0.3026E-03
     16.436  0.3215E-04  0.1846E-03  0.6448E-04
     16.554  0.1582E-06  0.9084E-06  0.3173E-06
     16.672  0.0000E+00  0.0000E+00  0.0000E+00
     16.790  0.0000E+00  0.0000E+00  0.0000E+00
     16.909  0.0000E+00  0.0000E+00  0.0000E+00
     17.027  0.0000E+00  0.0000E+00  0.0000E+00
     17.145  0.0000E+00  0.0000E+00  0.0000E+00
     17.263  0.0000E+00  0.0000E+00  0.0000E+00
     17.381  0.0000E+00  0.0000E+00  0.0000E+00
     17.500  0.0000E+00  0.0000E+00  0.0000E+00
     17.618  0.0000E+00  0.0000E+00  0.0000E+00
     17.736  0.0000E+00  0.0000E+00  0.0000E+00
     17.854  0.0000E+00  0.0000E+00  0.0000E+00
     17.972  0.0000E+00  0.0000E+00  0.0000E+00
     18.090  0.0000E+00  0.0000E+00  0.0000E+00
     18.209  0.0000E+00  0.0000E+00  0.0000E+00
     18.327  0.0000E+00  0.0000E+00  0.0000E+00
     18.445  0.0000E+00  0.0000E+00  0.0000E+00
     18.563  0.0000E+00  0.0000E+00  0.0000E+00
     18.56304686    -16.88838260  301      4.51541794      1.00000000
    -16.888  0.0000E+00  0.0000E+00  0.0000E+00
    -16.770  0.0000E+00  0.0000E+00  0.0000E+00
    -16.652  0.0000E+00  0.0000E+00  0.0000E+00
    -16.534  0.0000E+00  0.0000E+00  0.0000E+00
    -16.416  0.0000E+00  0.0000E+00  0.0000E+00
    -16.298  0.0000E+00  0.0000E+00  0.0000E+00
    -16.179  0.0000E+00  0.0000E+00  0.0000E+00
    -16.061  0.0000E+00  0.0000E+00  0.0000E+00
    -15.943  0.0000E+00  0.0000E+00  0.0000E+00
    -15.825  0.0000E+00  0.0000E+00  0.0000E+00
    -15.707  0.0000E+00  0.0000E+00  0.0000E+00
    -15.588  0.0000E+00  0.0000E+00  0.0000E+00
    -15.470  0.0000E+00  0.0000E+00  0.0000E+00
    -15.352  0.0000E+00  0.0000E+00  0.0000E+00
    -15.234  0.0000E+00  0.0000E+00  0.0000E+00
    -15.116  0.0000E+00  0.0000E+00  0.0000E+00
    -14.998  0.0000E+00  0.0000E+00  0.0000E+00
    -14.879  0.5694E-03  0.2117E-05  0.8277E-05
    -14.761  0.3858E-01  0.2957E-03  0.5649E-03
    -14.643  0.6083E-01  0.7873E-03  0.8986E-03
    -14.525  0.1009E+00  0.1586E-02  0.1524E-02
    -14.407  0.9871E-01  0.2475E-02  0.1480E-02
    -14.289  0.1005E+00  0.3342E-02  0.1497E-02
    -14.170  0.9829E-01  0.4237E-02  0.1454E-02
    -14.052  0.9931E-01  0.5169E-02  0.1464E-02
    -13.934  0.9740E-01  0.6045E-02  0.1429E-02
    -13.816  0.9711E-01  0.6873E-02  0.1418E-02
    -13.698  0.9781E-01  0.7723E-02  0.1426E-02
    -13.580  0.9672E-01  0.8595E-02  0.1410E-02
    -13.461  0.9524E-01  0.9542E-02  0.1388E-02
    -13.343  0.9412E-01  0.1043E-01  0.1371E-02
    -13.225  0.9475E-01  0.1123E-01  0.1382E-02
    -13.107  0.9533E-01  0.1206E-01  0.1393E-02
    -12.989  0.9472E-01  0.1302E-01  0.1391E-02
    -12.871  0.9340E-01  0.1392E-01  0.1380E-02
    -12.752  0.9182E-01  0.1480E-01  0.1364E-02
    -12.634  0.9165E-01  0.1563E-01  0.1370E-02
    -12.516  0.9197E-01  0.1642E-01  0.1384E-02
    -12.398  0.9249E-01  0.1721E-01  0.1401E-02
    -12.280  0.9188E-01  0.1810E-01  0.1407E-02
    -12.162  0.9091E-01  0.1902E-01  0.1411E-02
    -12.043  0.8943E-01  0.2002E-01  0.1410E-02
    -11.925  0.8910E-01  0.2088E-01  0.1424E-02
    -11.807  0.8912E-01  0.2171E-01  0.1443E-02
    -11.689  0.8942E-01  0.2249E-01  0.1466E-02
    -11.571  0.8976E-01  0.2327E-01  0.1491E-02
    -11.452  0.8976E-01  0.2411E-01  0.1515E-02
    -11.334  0.8890E-01  0.2499E-01  0.1533E-02
    -11.216  0.8806E-01  0.2603E-01  0.1559E-02
    -11.098  0.8776E-01  0.2694E-01  0.1591E-02
    -10.980  0.8773E-01  0.2774E-01  0.1624E-02
    -10.862  0.8788E-01  0.2851E-01  0.1662E-02
    -10.743  0.8822E-01  0.2924E-01  0.1705E-02
    -10.625  0.8890E-01  0.2994E-01  0.1755E-02
    -10.507  0.8956E-01  0.3065E-01  0.1806E-02
    -10.389  0.8996E-01  0.3172E-01  0.1876E-02
    -10.271  0.9013E-01  0.3269E-01  0.1955E-02
    -10.153  0.9166E-01  0.3379E-01  0.2066E-02
    -10.034  0.9449E-01  0.3502E-01  0.2210E-02
     -9.916  0.9869E-01  0.3638E-01  0.2391E-02
     -9.798  0.1035E+00  0.3775E-01  0.2590E-02
     -9.680  0.1309E+00  0.4701E-01  0.3444E-02
     -9.562  0.1421E+00  0.4843E-01  0.3794E-02
     -9.444  0.1054E+00  0.3689E-01  0.2782E-02
     -9.325  0.7910E-01  0.3016E-01  0.2104E-02
     -9.207  0.9716E-01  0.3894E-01  0.2716E-02
     -9.089  0.5309E-01  0.2279E-01  0.1457E-02
     -8.971  0.4757E-01  0.2057E-01  0.1315E-02
     -8.853  0.4257E-01  0.1850E-01  0.1185E-02
     -8.735  0.3753E-01  0.1643E-01  0.1052E-02
     -8.616  0.3247E-01  0.1437E-01  0.9176E-03
     -8.498  0.2999E-01  0.1634E-01  0.8336E-03
     -8.380  0.5810E-01  0.3782E-01  0.1696E-02
     -8.262  0.6552E-01  0.5640E-01  0.1662E-02
     -8.144  0.5431E-01  0.7100E-01  0.1197E-02
     -8.026  0.4954E-01  0.6196E-01  0.1157E-02
     -7.907  0.4118E-01  0.5278E-01  0.1050E-02
     -7.789  0.4499E-01  0.5702E-01  0.1196E-02
     -7.671  0.7436E-01  0.9118E-01  0.2103E-02
     -7.553  0.6879E-01  0.7701E-01  0.2091E-02
     -7.435  0.8076E-01  0.8512E-01  0.2569E-02
     -7.316  0.1058E+00  0.9960E-01  0.3470E-02
     -7.198  0.6953E-01  0.7487E-01  0.2401E-02
     -7.080  0.6781E-01  0.7333E-01  0.2428E-02
     -6.962  0.6609E-01  0.7194E-01  0.2451E-02
     -6.844  0.6429E-01  0.7061E-01  0.2470E-02
     -6.726  0.5654E-01  0.6510E-01  0.2297E-02
     -6.607  0.5249E-01  0.6246E-01  0.2236E-02
     -6.489  0.5200E-01  0.6255E-01  0.2291E-02
     -6.371  0.5149E-01  0.6266E-01  0.2344E-02