    4    4    1    1
  0.8707182E+01  0.2450000E-09  0.2450000E-09  0.6700000E-09  0.5000000E-15
  1.000000000000000E-004
  CAR 
 graphite                                
     16    120     12
 
  0.0000000E+00  0.0000000E+00  0.0000000E+00  0.6510417E-03
    1      -14.888383
    2      -14.566637
    3       -4.017822
    4       -1.954003
    5        1.692076
    6        1.692879
    7        1.710696
    8        1.711508
    9        8.525991
   10       13.123776
   11       13.150897
   12       13.184448
 
  0.6250000E-01  0.6938894E-17  0.0000000E+00  0.3906250E-02
    1      -14.794623
    2      -14.474779
    3       -3.902420
    4       -1.845817
    5        1.321452
    6        1.350902
    7        1.491106
    8        1.515977
    9        8.639555
   10       13.155476
   11       13.240083
   12       13.547893
 
  0.1250000E+00  0.1387779E-16  0.0000000E+00  0.3906250E-02
    1      -14.513925
    2      -14.199729
    3       -3.557640
    4       -1.524958
    5        0.317934
    6        0.366922
    7        0.970083
    8        1.004258
    9        8.981156
   10       13.172504
   11       13.301378
   12       14.664877
 
  0.1875000E+00  0.6938894E-16  0.0000000E+00  0.3906250E-02
    1      -14.048038
    2      -13.743162
    3       -2.987558
    4       -1.089251
    5       -1.014403
    6       -0.996598
    7        0.303592
    8        0.345690
    9        9.551657
   10       13.049223
   11       13.265362
   12       13.478176
 
  0.2500000E+00  0.2775558E-16  0.0000000E+00  0.3906250E-02
    1      -13.400105
    2      -13.108065
    3       -2.695342
    4       -2.593712
    5       -2.201122
    6       -0.366190
    7       -0.318581
    8       -0.275703
    9       10.347264
   10       11.723184
   11       12.391488
   12       12.823321
 
  0.3125000E+00  0.5551115E-16  0.0000000E+00  0.3906250E-02
    1      -12.575284
    2      -12.299259
    3       -4.363746
    4       -4.232718
    5       -1.213708
    6       -0.947492
    7       -0.897328
    8        0.607871
    9        9.845861
   10       10.729483
   11       11.354130
   12       12.578857
 
  0.3750000E+00  0.1387779E-15  0.0000000E+00  0.3906250E-02
    1      -11.582249
    2      -11.325635
    3       -6.001316
    4       -5.844396
    5       -1.389340
    6       -1.336930
    7       -0.066570
    8        1.578952
    9        8.042094
   10        9.088045
   11       12.298364
   12       12.534742
 
  0.4375000E+00  0.5551115E-16  0.0000000E+00  0.3906250E-02
    1      -10.442431
    2      -10.211240
    3       -7.539998
    4       -7.361940
    5       -1.665574
    6       -1.610375
    7        1.132830
    8        2.395458
    9        6.624500
   10        7.631244
   11       12.202704
   12       12.610293
 
  0.5000000E+00  0.5551115E-16  0.0000000E+00  0.1953125E-02
    1       -9.438727
    2       -9.321217
    3       -8.578228
    4       -8.489560
    5       -1.758851
    6       -1.702950
    7        1.879425
    8        2.586738
    9        6.146249
   10        6.878708
   11       12.156153
   12       12.580051
 
  0.6250000E-01  0.6250000E-01  0.0000000E+00  0.3906250E-02
    1      -14.607394
    2      -14.291326
    3       -3.672182
    4       -1.631330
    5        0.682636
    6        0.711437
    7        1.091939
    8        1.114879
    9        8.867495
   10       13.292356
   11       13.389669
   12       14.188410
 
  0.1250000E+00  0.6250000E-01  0.0000000E+00  0.7812500E-02
    1      -14.234104
    2      -13.925528
    3       -3.214798
    4       -1.206739
    5       -0.447302
    6       -0.396016
    7        0.419176
    8        0.455195
    9        9.324705
   10       13.400358
   11       13.560616
   12       14.074195
 
  0.1875000E+00  0.6250000E-01  0.0000000E+00  0.7812500E-02
    1      -13.677229
    2      -13.379717
    3       -2.536165
    4       -1.904061
    5       -1.822018
    6       -0.580981
    7       -0.305224
    8       -0.256001
    9       10.010057
   10       12.509326
   11       13.028908
   12       13.301479
 
  0.2500000E+00  0.6250000E-01  0.0000000E+00  0.7812500E-02
    1      -12.940853
    2      -12.657768
    3       -3.513014
    4       -3.400466
    5       -1.647075
    6       -0.960110
    7       -0.903716
    8        0.225865
    9       10.724063
   10       10.917122
   11       11.459064
   12       13.089424
 
  0.3125000E+00  0.6250000E-01  0.0000000E+00  0.7812500E-02
    1      -12.031732
    2      -11.766296
    3       -5.152938
    4       -5.011151
    5       -1.486905
    6       -1.426115
    7       -0.574043
    8        1.167409
    9        8.891492
   10        9.822536
   11       12.025790
   12       12.865910
 
  0.3750000E+00  0.6250000E-01  0.0000000E+00  0.7812500E-02
    1      -10.962702
    2      -10.718881
    3       -6.737783
    4       -6.570668
    5       -1.853022
    6       -1.790690
    7        0.621675
    8        2.112968
    9        7.243750
   10        8.268254
   11       12.653230
   12       13.023776
 
  0.4375000E+00  0.6250000E-01  0.0000000E+00  0.7812500E-02
    1       -9.786183
    2       -9.582131
    3       -8.162227
    4       -7.990327
    5       -2.040349
    6       -1.976226
    7        1.725622
    8        2.657313
    9        6.248598
   10        7.055695
   11       12.567217
   12       13.001347
 
  0.1250000E+00  0.1250000E+00  0.0000000E+00  0.3906250E-02
    1      -13.769848
    2      -13.470517
    3       -2.648238
    4       -1.455104
    5       -1.411109
    6       -0.683427
    7       -0.456413
    8       -0.424043
    9        9.898708
   10       12.839705
   11       13.248719
   12       13.936794
 
  0.1875000E+00  0.1250000E+00  0.0000000E+00  0.7812500E-02
    1      -13.124569
    2      -12.837910
    3       -2.760551
    4       -2.684599
    5       -1.865561
    6       -1.323600
    7       -1.271182
    8        0.031730
    9       10.698363
   10       11.321243
   11       11.842944
   12       14.150812
 
  0.2500000E+00  0.1250000E+00  0.0000000E+00  0.7812500E-02
    1      -12.303867
    2      -12.033206
    3       -4.271576
    4       -4.155940
    5       -2.004099
    6       -1.932986
    7       -0.884278
    8        0.909551
    9        9.630013
   10       10.332341
   11       11.715596
   12       14.023886
 
  0.3125000E+00  0.1250000E+00  0.0000000E+00  0.7812500E-02
    1      -11.317371
    2      -11.066101
    3       -5.829355
    4       -5.681862
    5       -2.487622
    6       -2.407767
    7        0.257767
    8        1.879075
    9        7.943197
   10        8.816423
   11       12.930796
   12       13.835350
 
  0.3750000E+00  0.1250000E+00  0.0000000E+00  0.7812500E-02
    1      -10.188097
    2       -9.962489
    3       -7.322405
    4       -7.151673
    5       -2.778015
    6       -2.693952
    7        1.459750
    8        2.719196
    9        6.581137
   10        7.435132
   11       13.672209
   12       14.122305
 
  0.4375000E+00  0.1250000E+00  0.0000000E+00  0.3906250E-02
    1       -9.202991
    2       -9.088181
    3       -8.334596
    4       -8.250001
    5       -2.874804
    6       -2.790602
    7        2.223033
    8        2.923325
    9        6.143417
   10        6.664186
   11       13.628940
   12       14.130231
 
  0.1875000E+00  0.1875000E+00  0.0000000E+00  0.3906250E-02
    1      -12.394970
    2      -12.122601
    3       -3.717600
    4       -3.656054
    5       -2.420610
    6       -2.374494
    7       -0.989913
    8        0.821784
    9        9.960105
   10       10.491773
   11       11.607329
   12       15.144392
 
  0.2500000E+00  0.1875000E+00  0.0000000E+00  0.7812500E-02
    1      -11.496467
    2      -11.241643
    3       -4.962196
    4       -4.857877
    5       -3.246004
    6       -3.170120
    7        0.070466
    8        1.750039
    9        8.473606
   10        9.106675
   11       12.722964
   12       15.354390
 
  0.3125000E+00  0.1875000E+00  0.0000000E+00  0.7812500E-02
    1      -10.444381
    2      -10.211434
    3       -6.372990
    4       -6.226460
    5       -3.727600
    6       -3.629895
    7        1.259640
    8        2.714629
    9        7.020308
   10        7.757763
   11       14.019716
   12       15.210213
 
  0.3750000E+00  0.1875000E+00  0.0000000E+00  0.7812500E-02
    1       -9.296778
    2       -9.103904
    3       -7.711045
    4       -7.554279
    5       -3.950822
    6       -3.845517
    7        2.388318
    8        3.322745
    9        6.098943
   10        6.597058
   11       15.090041
   12       15.473024
 
  0.2500000E+00  0.2500000E+00  0.0000000E+00  0.3906250E-02
    1      -10.531395
    2      -10.296287
    3       -5.719270
    4       -5.640490
    5       -4.343745
    6       -4.284651
    7        1.188074
    8        2.703195
    9        7.242211
   10        7.867091
   11       13.911343
   12       16.563047
 
  0.3125000E+00  0.2500000E+00  0.0000000E+00  0.7812500E-02
    1       -9.437474
    2       -9.228770
    3       -6.807634
    4       -6.680356
    5       -4.970298
    6       -4.872737
    7        2.391231
    8        3.621584
    9        6.054684
   10        6.696625
   11       15.224816
   12       16.158880
 
  0.3750000E+00  0.2500000E+00  0.0000000E+00  0.3906250E-02
    1       -8.498393
    2       -8.391564
    3       -7.695171
    4       -7.641195
    5       -5.144850
    6       -5.031080
    7        3.232438
    8        3.900843
    9        5.691346
   10        5.859637
   11       15.942801
   12       16.424993
 
  0.3125000E+00  0.3125000E+00  0.0000000E+00  0.3906250E-02
    1       -8.366331
    2       -8.198246
    3       -7.326781
    4       -7.231963
    5       -5.830056
    6       -5.781010
    7        3.555251
    8        4.479312
    9        5.025554
   10        5.748063
   11       15.596476
   12       15.633025
 
  0.0000000E+00  0.0000000E+00  0.1666667E+00  0.1302083E-02
    1      -14.868210
    2      -14.589744
    3       -3.902375
    4       -2.124908
    5        1.694125
    6        1.694923
    7        1.711677
    8        1.712470
    9        8.873419
   10       13.128058
   11       13.131197
   12       13.183322
 
  0.6250000E-01  0.6938894E-17  0.1666667E+00  0.7812500E-02
    1      -14.774561
    2      -14.497745
    3       -3.787385
    4       -2.016397
    5        1.323419
    6        1.347798
    7        1.491397
    8        1.513753
    9        8.985346
   10       13.156111
   11       13.230039
   12       13.533005
 
  0.1250000E+00  0.1387779E-16  0.1666667E+00  0.7812500E-02
    1      -14.494192
    2      -14.222263
    3       -3.443655
    4       -1.692689
    5        0.321399
    6        0.363739
    7        0.972079
    8        1.003425
    9        9.322411
   10       13.171972
   11       13.294291
   12       14.661552
 
  0.1875000E+00  0.6938894E-16  0.1666667E+00  0.7812500E-02
    1      -14.028852
    2      -13.764938
    3       -2.875211
    4       -1.161262
    5       -1.083515
    6       -1.019503
    7        0.306177
    8        0.344191
    9        9.883544
   10       13.046835
   11       13.243521
   12       13.520552
 
  0.2500000E+00  0.2775558E-16  0.1666667E+00  0.7812500E-02
    1      -13.381667
    2      -13.128851
    3       -2.689161
    4       -2.600461
    5       -2.091742
    6       -0.432460
    7       -0.362524
    8       -0.321490
    9       10.653865
   10       11.781825
   11       12.325103
   12       12.842028
 
  0.3125000E+00  0.5551115E-16  0.1666667E+00  0.7812500E-02
    1      -12.557784
    2      -12.318875
    3       -4.354279
    4       -4.241665
    5       -1.110627
    6       -0.943704
    7       -0.900125
    8        0.460477
    9        9.882459
   10       10.659011
   11       11.671666
   12       12.600553
 
  0.3750000E+00  0.1387779E-15  0.1666667E+00  0.7812500E-02
    1      -11.565921
    2      -11.343746
    3       -5.991208
    4       -5.855208
    5       -1.386398
    6       -1.340469
    7        0.029675
    8        1.449807
    9        8.088427
   10        8.996421
   11       12.349759
   12       12.606677
 
  0.4375000E+00  0.5551115E-16  0.1666667E+00  0.7812500E-02
    1      -10.427579
    2      -10.227474
    3       -7.528552
    4       -7.374321
    5       -1.661299
    6       -1.613880
    7        1.214524
    8        2.313076
    9        6.653442
   10        7.532049
   11       12.229225
   12       12.583220
 
  0.5000000E+00  0.5551115E-16  0.1666667E+00  0.3906250E-02
    1       -9.429141
    2       -9.326868
    3       -8.575696
    4       -8.498355
    5       -1.755043
    6       -1.706539
    7        1.941514
    8        2.563192
    9        6.134587
   10        6.778452
   11       12.182811
   12       12.550548
 
  0.6250000E-01  0.6250000E-01  0.1666667E+00  0.7812500E-02
    1      -14.587556
    2      -14.314005
    3       -3.558064
    4       -1.800345
    5        0.684716
    6        0.709824
    7        1.093048
    8        1.112549
    9        9.210186
   10       13.284858
   11       13.382106
   12       14.178908
 
  0.1250000E+00  0.6250000E-01  0.1666667E+00  0.1562500E-01
    1      -14.214698
    2      -13.947607
    3       -3.101852
    4       -1.372242
    5       -0.443473
    6       -0.399049
    7        0.421619
    8        0.452130
    9        9.661091
   10       13.393874
   11       13.546946
   12       14.102365
 
  0.1875000E+00  0.6250000E-01  0.1666667E+00  0.1562500E-01
    1      -13.658472
    2      -13.400925
    3       -2.425460
    4       -1.898490
    5       -1.827290
    6       -0.740990
    7       -0.301713
    8       -0.259979
    9       10.333638
   10       12.543366
   11       12.974894
   12       13.316297
 
  0.2500000E+00  0.6250000E-01  0.1666667E+00  0.1562500E-01
    1      -12.922945
    2      -12.677917
    3       -3.506434
    4       -3.408349
    5       -1.541215
    6       -0.956905
    7       -0.908619
    8        0.073061
    9       10.730761
   10       11.263549
   11       11.397090
   12       13.105895
 
  0.3125000E+00  0.6250000E-01  0.1666667E+00  0.1562500E-01
    1      -12.014879
    2      -11.785111
    3       -5.143188
    4       -5.021014
    5       -1.483385
    6       -1.431170
    7       -0.474303
    8        1.027558
    9        8.936166
   10        9.748947
   11       12.312899
   12       12.890932
 
  0.3750000E+00  0.6250000E-01  0.1666667E+00  0.1562500E-01
    1      -10.947175
    2      -10.736096
    3       -6.727098
    4       -6.582342
    5       -1.848955
    6       -1.794275
    7        0.711429
    8        2.002336
    9        7.285291
   10        8.177405
   11       12.682953
   12       13.013547
 
  0.4375000E+00  0.6250000E-01  0.1666667E+00  0.1562500E-01
    1       -9.772852
    2       -9.596089
    3       -8.151631
    4       -8.002703
    5       -2.035482
    6       -1.979889
    7        1.796043
    8        2.611358
    9        6.252461
   10        6.960391
   11       12.594270
   12       12.970639
 
  0.1250000E+00  0.1250000E+00  0.1666667E+00  0.7812500E-02
    1      -13.750982
    2      -13.491862
    3       -2.537462
    4       -1.451028
    5       -1.413402
    6       -0.844629
    7       -0.454585
    8       -0.426628
    9       10.226404
   10       12.859638
   11       13.212868
   12       13.937860
 
  0.1875000E+00  0.1250000E+00  0.1666667E+00  0.1562500E-01
    1      -13.106462
    2      -12.858336
    3       -2.756186
    4       -2.689947
    5       -1.758566
    6       -1.320532
    7       -1.275023
    8       -0.123584
    9       11.001338
   10       11.362029
   11       11.801569
   12       14.157845
 
  0.2500000E+00  0.1250000E+00  0.1666667E+00  0.1562500E-01
    1      -12.286697
    2      -12.052396
    3       -4.264029
    4       -4.163810
    5       -1.999188
    6       -1.937886
    7       -0.782360
    8        0.764869
    9        9.669165
   10       10.282713
   11       12.014085
   12       14.041214
 
  0.3125000E+00  0.1250000E+00  0.1666667E+00  0.1562500E-01
    1      -11.301346
    2      -11.083843
    3       -5.819553
    4       -5.691778
    5       -2.482117
    6       -2.412899
    7        0.352375
    8        1.753558
    9        7.990197
   10        8.750082
   11       13.189684
   12       13.859867
 
  0.3750000E+00  0.1250000E+00  0.1666667E+00  0.1562500E-01
    1      -10.173633
    2       -9.978273
    3       -7.311501
    4       -7.163570
    5       -2.772376
    6       -2.699952
    7        1.542350
    8        2.634852
    9        6.608365
   10        7.355367
   11       13.702712
   12       14.099134
 
  0.4375000E+00  0.1250000E+00  0.1666667E+00  0.7812500E-02
    1       -9.193740
    2       -9.093827
    3       -8.332188
    4       -8.258367
    5       -2.869738
    6       -2.795944
    7        2.284761
    8        2.898657
    9        6.122343
   10        6.586945
   11       13.657076
   12       14.091519
 
  0.1875000E+00  0.1875000E+00  0.1666667E+00  0.7812500E-02
    1      -12.377693
    2      -12.141863
    3       -3.712462
    4       -3.659736
    5       -2.417799
    6       -2.378238
    7       -0.885495
    8        0.675218
    9        9.995850
   10       10.458328
   11       11.900923
   12       15.134475
 
  0.2500000E+00  0.1875000E+00  0.1666667E+00  0.1562500E-01
    1      -11.480238
    2      -11.259664
    3       -4.955134
    4       -4.864776
    5       -3.241346
    6       -3.175503
    7        0.167435
    8        1.618060
    9        8.514539
   10        9.063939
   11       12.977500
   12       15.352912
 
  0.3125000E+00  0.1875000E+00  0.1666667E+00  0.1562500E-01
    1      -10.429495
    2      -10.227821
    3       -6.363360
    4       -6.236469
    5       -3.721501
    6       -3.636678
    7        1.346438
    8        2.606059
    9        7.058911
   10        7.702442
   11       14.198089
   12       15.213104
 
  0.3750000E+00  0.1875000E+00  0.1666667E+00  0.1562500E-01
    1       -9.284093
    2       -9.117014
    3       -7.701468
    4       -7.565512
    5       -3.944109
    6       -3.852902
    7        2.458396
    8        3.274133
    9        6.096138
   10        6.538424
   11       15.106707
   12       15.409791
 
  0.2500000E+00  0.2500000E+00  0.1666667E+00  0.7812500E-02
    1      -10.516335
    2      -10.312801
    3       -5.713812
    4       -5.645271
    5       -4.341071
    6       -4.289552
    7        1.276312
    8        2.588002
    9        7.284810
   10        7.822924
   11       14.072820
   12       15.922826
 
  0.3125000E+00  0.2500000E+00  0.1666667E+00  0.1562500E-01
    1       -9.423998
    2       -9.243282
    3       -6.798957
    4       -6.688840
    5       -4.964640
    6       -4.879768
    7        2.469172
    8        3.537044
    9        6.090223
   10        6.645478
   11       15.077621
   12       15.659441
 
  0.3750000E+00  0.2500000E+00  0.1666667E+00  0.7812500E-02
    1       -8.489718
    2       -8.396824
    3       -7.694368
    4       -7.647069
    5       -5.138106
    6       -5.039330
    7        3.294409
    8        3.883668
    9        5.678387
   10        5.806002
   11       15.387783
   12       15.531622
 
  0.3125000E+00  0.3125000E+00  0.1666667E+00  0.7812500E-02
    1       -8.355353
    2       -8.209680
    3       -7.320173
    4       -7.238296
    5       -5.827762
    6       -5.785592
    7        3.625746
    8        4.434169
    9        5.062647
   10        5.676951
   11       15.184504
   12       15.264984
 
  0.0000000E+00  0.0000000E+00  0.3333333E+00  0.1302083E-02
    1      -14.812178
    2      -14.651597
    3       -3.574161
    4       -2.558533
    5        1.697477
    6        1.698275
    7        1.707637
    8        1.708432
    9        9.829962
   10       13.137647
   11       13.142002
   12       13.173222
 
  0.6250000E-01  0.6938894E-17  0.3333333E+00  0.7812500E-02
    1      -14.718849
    2      -14.559211
    3       -3.460139
    4       -2.448320
    5        1.328225
    6        1.342994
    7        1.496036
    8        1.509497
    9        9.937409
   10       12.841027
   11       13.211072
   12       13.219180
 
  0.1250000E+00  0.1387779E-16  0.3333333E+00  0.7812500E-02
    1      -14.439400
    2      -14.282551
    3       -3.119232
    4       -2.119300
    5        0.330595
    6        0.355146
    7        0.978592
    8        0.995890
    9       10.260814
   10       12.992907
   11       13.269407
   12       13.378967
 
  0.1875000E+00  0.6938894E-16  0.3333333E+00  0.7812500E-02
    1      -13.975595
    2      -13.823366
    3       -2.557369
    4       -1.578312
    5       -1.069841
    6       -1.032479
    7        0.314416
    8        0.335470
    9       10.794076
   10       13.006458
   11       13.193250
   12       13.535333
 
  0.2500000E+00  0.2775558E-16  0.3333333E+00  0.7812500E-02
    1      -13.330530
    2      -13.184683
    3       -2.670043
    4       -2.619551
    5       -1.782591
    6       -0.834766
    7       -0.354418
    8       -0.328940
    9       11.426043
   10       11.988092
   11       12.174266
   12       12.872321
 
  0.3125000E+00  0.5551115E-16  0.3333333E+00  0.7812500E-02
    1      -12.509314
    2      -12.371502
    3       -4.330935
    4       -4.266101
    5       -0.935101
    6       -0.908086
    7       -0.815797
    8        0.083790
    9       10.009869
   10       10.468195
   11       12.413359
   12       12.657800
 
  0.3750000E+00  0.1387779E-15  0.3333333E+00  0.7812500E-02
    1      -11.520733
    2      -11.392572
    3       -5.963229
    4       -5.884688
    5       -1.376381
    6       -1.348865
    7        0.301058
    8        1.117474
    9        8.239134
   10        8.768706
   11       12.431086
   12       12.600249
 
  0.4375000E+00  0.5551115E-16  0.3333333E+00  0.7812500E-02
    1      -10.386635
    2      -10.271070
    3       -7.497054
    4       -7.407974
    5       -1.650522
    6       -1.622768
    7        1.442291
    8        2.079374
    9        6.767328
   10        7.280399
   11       12.302976
   12       12.507021
 
  0.5000000E+00  0.5551115E-16  0.3333333E+00  0.3906250E-02
    1       -9.404052
    2       -9.344226
    3       -8.565898
    4       -8.520458
    5       -1.743320
    6       -1.715370
    7        2.104464
    8        2.472288
    9        6.159149
   10        6.539355
   11       12.257470
   12       12.469521
 
  0.6250000E-01  0.6250000E-01  0.3333333E+00  0.7812500E-02
    1      -14.532461
    2      -14.374690
    3       -3.232874
    4       -2.228697
    5        0.690030
    6        0.704471
    7        1.096859
    8        1.108173
    9       10.153399
   10       12.975945
   11       13.365937
   12       13.400787
 
  0.1250000E+00  0.6250000E-01  0.3333333E+00  0.1562500E-01
    1      -14.160837
    2      -14.006768
    3       -2.781079
    4       -1.793148
    5       -0.433127
    6       -0.408192
    7        0.427891
    8        0.446230
    9       10.585601
   10       13.217916
   11       13.511961
   12       13.659840
 
  0.1875000E+00  0.6250000E-01  0.3333333E+00  0.1562500E-01
    1      -13.606430
    2      -13.457864
    3       -2.112755
    4       -1.884172
    5       -1.841825
    6       -1.150030
    7       -0.293088
    8       -0.269453
    9       11.215622
   10       12.638430
   11       12.834368
   12       13.311214
 
  0.2500000E+00  0.6250000E-01  0.3333333E+00  0.1562500E-01
    1      -12.873306
    2      -12.731952
    3       -3.486041
    4       -3.429584
    5       -1.239256
    6       -0.946447
    7       -0.918597
    8       -0.316116
    9       10.846657
   10       11.238661
   11       12.119962
   12       13.140912
 
  0.3125000E+00  0.6250000E-01  0.3333333E+00  0.1562500E-01
    1      -11.968221
    2      -11.835672
    3       -5.118226
    4       -5.047585
    5       -1.472657
    6       -1.442475
    7       -0.190254
    8        0.670307
    9        9.075243
   10        9.549898
   11       12.869492
   12       12.982168
 
  0.3750000E+00  0.6250000E-01  0.3333333E+00  0.1562500E-01
    1      -10.904126
    2      -10.782299
    3       -6.697133
    4       -6.613727
    5       -1.837279
    6       -1.805899
    7        0.965376
    8        1.708510
    9        7.423998
   10        7.946270
   11       12.758196
   12       12.953636
 
  0.4375000E+00  0.6250000E-01  0.3333333E+00  0.1562500E-01
    1       -9.736157
    2       -9.634015
    3       -8.121858
    4       -8.035856
    5       -2.023559
    6       -1.991594
    7        1.985610
    8        2.464600
    9        6.306239
   10        6.726229
   11       12.669805
   12       12.887128
 
  0.1250000E+00  0.1250000E+00  0.3333333E+00  0.7812500E-02
    1      -13.698644
    2      -13.549165
    3       -2.222661
    4       -1.443943
    5       -1.421110
    6       -1.254527
    7       -0.449500
    8       -0.433655
    9       11.126067
   10       12.924982
   11       13.123795
   12       13.700346
 
  0.1875000E+00  0.1250000E+00  0.3333333E+00  0.1562500E-01
    1      -13.056221
    2      -12.913066
    3       -2.741990
    4       -2.703651
    5       -1.453173
    6       -1.310905
    7       -1.285392
    8       -0.518750
    9       11.421321
   10       11.691412
   11       11.902388
   12       14.079449
 
  0.2500000E+00  0.1250000E+00  0.3333333E+00  0.1562500E-01
    1      -12.239160
    2      -12.103974
    3       -4.243216
    4       -4.185447
    5       -1.986230
    6       -1.951756
    7       -0.491813
    8        0.393366
    9        9.783598
   10       10.142147
   11       12.812307
   12       14.072647
 
  0.3125000E+00  0.1250000E+00  0.3333333E+00  0.1562500E-01
    1      -11.257065
    2      -11.131529
    3       -5.792992
    4       -5.719402
    5       -2.467773
    6       -2.428339
    7        0.621255
    8        1.425007
    9        8.125445
   10        8.570607
   11       13.789665
   12       13.934002
 
  0.3750000E+00  0.1250000E+00  0.3333333E+00  0.1562500E-01
    1      -10.133621
    2      -10.020856
    3       -7.281231
    4       -7.195829
    5       -2.757419
    6       -2.715934
    7        1.766427
    8        2.400914
    9        6.709680
   10        7.150916
   11       13.782142
   12       14.012201
 
  0.4375000E+00  0.1250000E+00  0.3333333E+00  0.7812500E-02
    1       -9.169219
    2       -9.110980
    3       -8.322836
    4       -8.279684
    5       -2.854554
    6       -2.812137
    7        2.445224
    8        2.810796
    9        6.120524
   10        6.403278
   11       13.736093
   12       13.985981
 
  0.1875000E+00  0.1875000E+00  0.3333333E+00  0.7812500E-02
    1      -12.329844
    2      -12.193806
    3       -3.700950
    4       -3.670544
    5       -2.410893
    6       -2.387691
    7       -0.593690
    8        0.299330
    9       10.090789
   10       10.357238
   11       12.694712
   12       14.837443
 
  0.2500000E+00  0.1875000E+00  0.3333333E+00  0.1562500E-01
    1      -11.435351
    2      -11.308086
    3       -4.935861
    4       -4.883846
    5       -3.228365
    6       -3.190161
    7        0.442419
    8        1.272919
    9        8.626298
   10        8.945244
   11       13.650342
   12       15.211265
 
  0.3125000E+00  0.1875000E+00  0.3333333E+00  0.1562500E-01
    1      -10.388309
    2      -10.271876
    3       -6.337118
    4       -6.263826
    5       -3.704482
    6       -3.655090
    7        1.593140
    8        2.318235
    9        7.175781
   10        7.551810
   11       14.616748
   12       15.195845
 
  0.3750000E+00  0.1875000E+00  0.3333333E+00  0.1562500E-01
    1       -9.249337
    2       -9.152866
    3       -7.674218
    4       -7.595848
    5       -3.926040
    6       -3.872590
    7        2.645905
    8        3.127375
    9        6.123031
   10        6.393256
   11       15.110092
   12       15.215362
 
  0.2500000E+00  0.2500000E+00  0.3333333E+00  0.7812500E-02
    1      -10.474691
    2      -10.357245
    3       -5.698635
    4       -5.658954
    5       -4.331937
    6       -4.302061
    7        1.529334
    8        2.281459
    9        7.397111
   10        7.707306
   11       14.456403
   12       15.402790
 
  0.3125000E+00  0.2500000E+00  0.3333333E+00  0.1562500E-01
    1       -9.386880
    2       -9.282590
    3       -6.775965
    4       -6.712391
    5       -4.948170
    6       -4.898966
    7        2.685633
    8        3.303935
    9        6.193014
   10        6.513756
   11       14.890441
   12       15.194829
 
  0.3750000E+00  0.2500000E+00  0.3333333E+00  0.7812500E-02
    1       -8.466914
    2       -8.412785
    3       -7.689535
    4       -7.661795
    5       -5.118456
    6       -5.061028
    7        3.458154
    8        3.813920
    9        5.649518
   10        5.700199
   11       14.948838
   12       15.074263
 
  0.3125000E+00  0.3125000E+00  0.3333333E+00  0.7812500E-02
    1       -8.324666
    2       -8.240599
    3       -7.302383
    4       -7.255254
    5       -5.821613
    6       -5.797172
    7        3.813522
    8        4.292362
    9        5.164113
   10        5.505841
   11       14.737293
   12       14.812072
 
  0.0000000E+00  0.0000000E+00  0.5000000E+00  0.6510417E-03
    1      -14.733308
    2      -14.733308
    3       -3.089866
    4       -3.089866
    5        1.702791
    6        1.702791
    7        1.703586
    8        1.703586
    9       11.205331
   10       11.237882
   11       13.160213
   12       13.160719
 