 vasp.5.3.5 31Mar14 (build Dec 14 2018 19:18:10) complex                        
  
 executed on             LinuxIFC date 2022.11.14  15:50:23
 serial version


--------------------------------------------------------------------------------------------------------


 INCAR:
 POTCAR:    PAW C                                 
 POTCAR:    PAW C                                 
   VRHFIN =C: s2p2                                                              
   LEXCH  = CA                                                                  
   EATOM  =   146.6877 eV,   10.7812 Ry                                         
                                                                                
   TITEL  = PAW C                                                               
   LULTRA =        F    use ultrasoft PP ?                                      
   IUNSCR =        0    unscreen: 0-lin 1-nonlin 2-no                           
   RPACOR =     .000    partial core radius                                     
   POMASS =   12.011; ZVAL   =    4.000    mass and valenz                      
   RCORE  =    1.500    outmost cutoff radius                                   
   RWIGS  =    1.630; RWIGS  =     .863    wigner-seitz radius (au A)           
   ENMAX  =  400.000; ENMIN  =  300.000 eV                                      
   ICORE  =        2    local potential                                         
   LCOR   =        T    correct aug charges                                     
   LPAW   =        T    paw PP                                                  
   EAUG   =  644.873                                                            
   DEXC   =     .000                                                            
   RMAX   =    2.266    core radius for proj-oper                               
   RAUG   =    1.300    factor for augmentation sphere                          
   RDEP   =    1.501    radius for radial grids                                 
   RDEPT  =    1.300    core radius for aug-charge                              
   QCUT   =   -5.516; QGAM   =   11.032    optimization parameters              
                                                                                
   Description                                                                  
     l     E      TYP  RCUT    TYP  RCUT                                        
     0   .000     23  1.200                                                     
     0   .000     23  1.200                                                     
     1   .000     23  1.500                                                     
     1  2.500     23  1.500                                                     
     2   .000      7  1.500                                                     
  local pseudopotential read in
  atomic valenz-charges read in
  non local Contribution for L=           0  read in
    real space projection operators read in
  non local Contribution for L=           0  read in
    real space projection operators read in
  non local Contribution for L=           1  read in
    real space projection operators read in
  non local Contribution for L=           1  read in
    real space projection operators read in
    PAW grid and wavefunctions read in
 
   number of l-projection  operators is LMAX  =           4
   number of lm-projection operators is LMMAX =           8
 
  PAW C                                 :
 energy of atom  1       EATOM= -146.6877
 kinetic energy error for atom=    0.0289 (will be added to EATOM!!)
 
 
 POSCAR: graphite                                
  positions in direct lattice
  velocities in cartesian coordinates
 exchange correlation table for  LEXCH =        2
   RHO(1)=    0.500       N(1)  =     2000
   RHO(2)=  100.500       N(2)  =     4000
 


--------------------------------------------------------------------------------------------------------


 ion  position               nearest neighbor table
   1  0.000  0.000  0.000-   2 1.41   2 1.41   2 1.41
   2  0.333  0.667  0.000-   1 1.41   1 1.41   1 1.41
   3  0.667  0.333  0.500-   4 1.41   4 1.41   4 1.41
   4  0.000  0.000  0.500-   3 1.41   3 1.41   3 1.41
 
  LATTYP: Found a hexagonal cell.
 ALAT       =     2.4499999983
 C/A-ratio  =     2.7346938799
  
  Lattice vectors:
  
 A1 = (   2.4500000000,   0.0000000000,   0.0000000000)
 A2 = (  -1.2250000000,   2.1217622374,   0.0000000000)
 A3 = (   0.0000000000,   0.0000000000,   6.7000000011)


Analysis of symmetry for initial positions (statically):
=====================================================================
 Subroutine PRICEL returns:
 Original cell was already a primitive cell.
 

 Routine SETGRP: Setting up the symmetry group for a 
 hexagonal supercell.


 Subroutine GETGRP returns: Found 24 space group operations
 (whereof 12 operations were pure point group operations)
 out of a pool of 24 trial point group operations.


The static configuration has the point symmetry D_3h.
 The point group associated with its full space group is D_6h.


Analysis of symmetry for dynamics (positions and initial velocities):
=====================================================================
 Subroutine PRICEL returns:
 Original cell was already a primitive cell.
 

 Routine SETGRP: Setting up the symmetry group for a 
 hexagonal supercell.


 Subroutine GETGRP returns: Found 24 space group operations
 (whereof 12 operations were pure point group operations)
 out of a pool of 24 trial point group operations.


The dynamic configuration has the point symmetry D_3h.
 The point group associated with its full space group is D_6h.
 
 
 KPOINTS: 16X16x6                                 

Automatic generation of k-mesh.
Space group operators:
 irot       det(A)        alpha          n_x          n_y          n_z        tau_x        tau_y        tau_z
    1     1.000000     0.000001     1.000000     0.000000     0.000000     0.000000     0.000000     0.000000
    2    -1.000000    60.000000     0.000000     0.000000    -1.000000     0.000000     0.000000     0.000000
    3     1.000000   120.000000     0.000000     0.000000    -1.000000     0.000000     0.000000     0.000000
    4    -1.000000   180.000000     0.000000     0.000000     1.000000     0.000000     0.000000     0.000000
    5     1.000000   120.000000     0.000000     0.000000     1.000000     0.000000     0.000000     0.000000
    6    -1.000000    60.000000     0.000000     0.000000     1.000000     0.000000     0.000000     0.000000
    7    -1.000000   180.000000     1.000000     0.000000     0.000000     0.000000     0.000000     0.000000
    8     1.000000   180.000000     0.866025    -0.500000     0.000000     0.000000     0.000000     0.000000
    9    -1.000000   180.000000     0.500000    -0.866025     0.000000     0.000000     0.000000     0.000000
   10     1.000000   179.999999     0.000000     1.000000     0.000000     0.000000     0.000000     0.000000
   11    -1.000000   180.000000    -0.500000    -0.866025     0.000000     0.000000     0.000000     0.000000
   12     1.000000   180.000000     0.866025     0.500000     0.000000     0.000000     0.000000     0.000000
   13    -1.000000     0.000001     1.000000     0.000000     0.000000     0.000000     0.000000     0.500000
   14     1.000000    60.000000     0.000000     0.000000    -1.000000     0.000000     0.000000     0.500000
   15    -1.000000   120.000000     0.000000     0.000000    -1.000000     0.000000     0.000000     0.500000
   16     1.000000   180.000000     0.000000     0.000000     1.000000     0.000000     0.000000     0.500000
   17    -1.000000   120.000000     0.000000     0.000000     1.000000     0.000000     0.000000     0.500000
   18     1.000000    60.000000     0.000000     0.000000     1.000000     0.000000     0.000000     0.500000
   19     1.000000   180.000000     1.000000     0.000000     0.000000     0.000000     0.000000     0.500000
   20    -1.000000   180.000000     0.866025    -0.500000     0.000000     0.000000     0.000000     0.500000
   21     1.000000   180.000000     0.500000    -0.866025     0.000000     0.000000     0.000000     0.500000
   22    -1.000000   179.999999     0.000000     1.000000     0.000000     0.000000     0.000000     0.500000
   23     1.000000   180.000000    -0.500000    -0.866025     0.000000     0.000000     0.000000     0.500000
   24    -1.000000   180.000000     0.866025     0.500000     0.000000     0.000000     0.000000     0.500000
 
 Subroutine IBZKPT returns following result:
 ===========================================
 
 Found    120 irreducible k-points:
 
 Following reciprocal coordinates:
            Coordinates               Weight
  0.000000  0.000000  0.000000      1.000000
  0.062500  0.000000  0.000000      6.000000
  0.125000  0.000000  0.000000      6.000000
  0.187500  0.000000  0.000000      6.000000
  0.250000  0.000000  0.000000      6.000000
  0.312500  0.000000  0.000000      6.000000
  0.375000  0.000000  0.000000      6.000000
  0.437500  0.000000  0.000000      6.000000
  0.500000  0.000000  0.000000      3.000000
  0.062500  0.062500  0.000000      6.000000
  0.125000  0.062500  0.000000     12.000000
  0.187500  0.062500  0.000000     12.000000
  0.250000  0.062500  0.000000     12.000000
  0.312500  0.062500  0.000000     12.000000
  0.375000  0.062500  0.000000     12.000000
  0.437500  0.062500  0.000000     12.000000
  0.125000  0.125000  0.000000      6.000000
  0.187500  0.125000  0.000000     12.000000
  0.250000  0.125000  0.000000     12.000000
  0.312500  0.125000  0.000000     12.000000
  0.375000  0.125000  0.000000     12.000000
  0.437500  0.125000  0.000000      6.000000
  0.187500  0.187500  0.000000      6.000000
  0.250000  0.187500  0.000000     12.000000
  0.312500  0.187500  0.000000     12.000000
  0.375000  0.187500  0.000000     12.000000
  0.250000  0.250000  0.000000      6.000000
  0.312500  0.250000  0.000000     12.000000
  0.375000  0.250000  0.000000      6.000000
  0.312500  0.312500  0.000000      6.000000
  0.000000  0.000000  0.166667      2.000000
  0.062500  0.000000  0.166667     12.000000
  0.125000  0.000000  0.166667     12.000000
  0.187500  0.000000  0.166667     12.000000
  0.250000  0.000000  0.166667     12.000000
  0.312500  0.000000  0.166667     12.000000
  0.375000  0.000000  0.166667     12.000000
  0.437500  0.000000  0.166667     12.000000
  0.500000  0.000000  0.166667      6.000000
  0.062500  0.062500  0.166667     12.000000
  0.125000  0.062500  0.166667     24.000000
  0.187500  0.062500  0.166667     24.000000
  0.250000  0.062500  0.166667     24.000000
  0.312500  0.062500  0.166667     24.000000
  0.375000  0.062500  0.166667     24.000000
  0.437500  0.062500  0.166667     24.000000
  0.125000  0.125000  0.166667     12.000000
  0.187500  0.125000  0.166667     24.000000
  0.250000  0.125000  0.166667     24.000000
  0.312500  0.125000  0.166667     24.000000
  0.375000  0.125000  0.166667     24.000000
  0.437500  0.125000  0.166667     12.000000
  0.187500  0.187500  0.166667     12.000000
  0.250000  0.187500  0.166667     24.000000
  0.312500  0.187500  0.166667     24.000000
  0.375000  0.187500  0.166667     24.000000
  0.250000  0.250000  0.166667     12.000000
  0.312500  0.250000  0.166667     24.000000
  0.375000  0.250000  0.166667     12.000000
  0.312500  0.312500  0.166667     12.000000
  0.000000  0.000000  0.333333      2.000000
  0.062500  0.000000  0.333333     12.000000
  0.125000  0.000000  0.333333     12.000000
  0.187500  0.000000  0.333333     12.000000
  0.250000  0.000000  0.333333     12.000000
  0.312500  0.000000  0.333333     12.000000
  0.375000  0.000000  0.333333     12.000000
  0.437500  0.000000  0.333333     12.000000
  0.500000  0.000000  0.333333      6.000000
  0.062500  0.062500  0.333333     12.000000
  0.125000  0.062500  0.333333     24.000000
  0.187500  0.062500  0.333333     24.000000
  0.250000  0.062500  0.333333     24.000000
  0.312500  0.062500  0.333333     24.000000
  0.375000  0.062500  0.333333     24.000000
  0.437500  0.062500  0.333333     24.000000
  0.125000  0.125000  0.333333     12.000000
  0.187500  0.125000  0.333333     24.000000
  0.250000  0.125000  0.333333     24.000000
  0.312500  0.125000  0.333333     24.000000
  0.375000  0.125000  0.333333     24.000000
  0.437500  0.125000  0.333333     12.000000
  0.187500  0.187500  0.333333     12.000000
  0.250000  0.187500  0.333333     24.000000
  0.312500  0.187500  0.333333     24.000000
  0.375000  0.187500  0.333333     24.000000
  0.250000  0.250000  0.333333     12.000000
  0.312500  0.250000  0.333333     24.000000
  0.375000  0.250000  0.333333     12.000000
  0.312500  0.312500  0.333333     12.000000
  0.000000  0.000000  0.500000      1.000000
  0.062500  0.000000  0.500000      6.000000
  0.125000  0.000000  0.500000      6.000000
  0.187500  0.000000  0.500000      6.000000
  0.250000  0.000000  0.500000      6.000000
  0.312500  0.000000  0.500000      6.000000
  0.375000  0.000000  0.500000      6.000000
  0.437500  0.000000  0.500000      6.000000
  0.500000  0.000000  0.500000      3.000000
  0.062500  0.062500  0.500000      6.000000
  0.125000  0.062500  0.500000     12.000000
  0.187500  0.062500  0.500000     12.000000
  0.250000  0.062500  0.500000     12.000000
  0.312500  0.062500  0.500000     12.000000
  0.375000  0.062500  0.500000     12.000000
  0.437500  0.062500  0.500000     12.000000
  0.125000  0.125000  0.500000      6.000000
  0.187500  0.125000  0.500000     12.000000
  0.250000  0.125000  0.500000     12.000000
  0.312500  0.125000  0.500000     12.000000
  0.375000  0.125000  0.500000     12.000000
  0.437500  0.125000  0.500000      6.000000
  0.187500  0.187500  0.500000      6.000000
  0.250000  0.187500  0.500000     12.000000
  0.312500  0.187500  0.500000     12.000000
  0.375000  0.187500  0.500000     12.000000
  0.250000  0.250000  0.500000      6.000000
  0.312500  0.250000  0.500000     12.000000
  0.375000  0.250000  0.500000      6.000000
  0.312500  0.312500  0.500000      6.000000
 
 Following cartesian coordinates:
            Coordinates               Weight
  0.000000  0.000000  0.000000      1.000000
  0.062500  0.036084  0.000000      6.000000
  0.125000  0.072169  0.000000      6.000000
  0.187500  0.108253  0.000000      6.000000
  0.250000  0.144338  0.000000      6.000000
  0.312500  0.180422  0.000000      6.000000
  0.375000  0.216506  0.000000      6.000000
  0.437500  0.252591  0.000000      6.000000
  0.500000  0.288675  0.000000      3.000000
  0.062500  0.108253  0.000000      6.000000
  0.125000  0.144338  0.000000     12.000000
  0.187500  0.180422  0.000000     12.000000
  0.250000  0.216506  0.000000     12.000000
  0.312500  0.252591  0.000000     12.000000
  0.375000  0.288675  0.000000     12.000000
  0.437500  0.324760  0.000000     12.000000
  0.125000  0.216506  0.000000      6.000000
  0.187500  0.252591  0.000000     12.000000
  0.250000  0.288675  0.000000     12.000000
  0.312500  0.324760  0.000000     12.000000
  0.375000  0.360844  0.000000     12.000000
  0.437500  0.396928  0.000000      6.000000
  0.187500  0.324760  0.000000      6.000000
  0.250000  0.360844  0.000000     12.000000
  0.312500  0.396928  0.000000     12.000000
  0.375000  0.433013  0.000000     12.000000
  0.250000  0.433013  0.000000      6.000000
  0.312500  0.469097  0.000000     12.000000
  0.375000  0.505181  0.000000      6.000000
  0.312500  0.541266  0.000000      6.000000
  0.000000  0.000000  0.060945      2.000000
  0.062500  0.036084  0.060945     12.000000
  0.125000  0.072169  0.060945     12.000000
  0.187500  0.108253  0.060945     12.000000
  0.250000  0.144338  0.060945     12.000000
  0.312500  0.180422  0.060945     12.000000
  0.375000  0.216506  0.060945     12.000000
  0.437500  0.252591  0.060945     12.000000
  0.500000  0.288675  0.060945      6.000000
  0.062500  0.108253  0.060945     12.000000
  0.125000  0.144338  0.060945     24.000000
  0.187500  0.180422  0.060945     24.000000
  0.250000  0.216506  0.060945     24.000000
  0.312500  0.252591  0.060945     24.000000
  0.375000  0.288675  0.060945     24.000000
  0.437500  0.324760  0.060945     24.000000
  0.125000  0.216506  0.060945     12.000000
  0.187500  0.252591  0.060945     24.000000
  0.250000  0.288675  0.060945     24.000000
  0.312500  0.324760  0.060945     24.000000
  0.375000  0.360844  0.060945     24.000000
  0.437500  0.396928  0.060945     12.000000
  0.187500  0.324760  0.060945     12.000000
  0.250000  0.360844  0.060945     24.000000
  0.312500  0.396928  0.060945     24.000000
  0.375000  0.433013  0.060945     24.000000
  0.250000  0.433013  0.060945     12.000000
  0.312500  0.469097  0.060945     24.000000
  0.375000  0.505181  0.060945     12.000000
  0.312500  0.541266  0.060945     12.000000
  0.000000  0.000000  0.121891      2.000000
  0.062500  0.036084  0.121891     12.000000
  0.125000  0.072169  0.121891     12.000000
  0.187500  0.108253  0.121891     12.000000
  0.250000  0.144338  0.121891     12.000000
  0.312500  0.180422  0.121891     12.000000
  0.375000  0.216506  0.121891     12.000000
  0.437500  0.252591  0.121891     12.000000
  0.500000  0.288675  0.121891      6.000000
  0.062500  0.108253  0.121891     12.000000
  0.125000  0.144338  0.121891     24.000000
  0.187500  0.180422  0.121891     24.000000
  0.250000  0.216506  0.121891     24.000000
  0.312500  0.252591  0.121891     24.000000
  0.375000  0.288675  0.121891     24.000000
  0.437500  0.324760  0.121891     24.000000
  0.125000  0.216506  0.121891     12.000000
  0.187500  0.252591  0.121891     24.000000
  0.250000  0.288675  0.121891     24.000000
  0.312500  0.324760  0.121891     24.000000
  0.375000  0.360844  0.121891     24.000000
  0.437500  0.396928  0.121891     12.000000
  0.187500  0.324760  0.121891     12.000000
  0.250000  0.360844  0.121891     24.000000
  0.312500  0.396928  0.121891     24.000000
  0.375000  0.433013  0.121891     24.000000
  0.250000  0.433013  0.121891     12.000000
  0.312500  0.469097  0.121891     24.000000
  0.375000  0.505181  0.121891     12.000000
  0.312500  0.541266  0.121891     12.000000
  0.000000  0.000000  0.182836      1.000000
  0.062500  0.036084  0.182836      6.000000
  0.125000  0.072169  0.182836      6.000000
  0.187500  0.108253  0.182836      6.000000
  0.250000  0.144338  0.182836      6.000000
  0.312500  0.180422  0.182836      6.000000
  0.375000  0.216506  0.182836      6.000000
  0.437500  0.252591  0.182836      6.000000
  0.500000  0.288675  0.182836      3.000000
  0.062500  0.108253  0.182836      6.000000
  0.125000  0.144338  0.182836     12.000000
  0.187500  0.180422  0.182836     12.000000
  0.250000  0.216506  0.182836     12.000000
  0.312500  0.252591  0.182836     12.000000
  0.375000  0.288675  0.182836     12.000000
  0.437500  0.324760  0.182836     12.000000
  0.125000  0.216506  0.182836      6.000000
  0.187500  0.252591  0.182836     12.000000
  0.250000  0.288675  0.182836     12.000000
  0.312500  0.324760  0.182836     12.000000
  0.375000  0.360844  0.182836     12.000000
  0.437500  0.396928  0.182836      6.000000
  0.187500  0.324760  0.182836      6.000000
  0.250000  0.360844  0.182836     12.000000
  0.312500  0.396928  0.182836     12.000000
  0.375000  0.433013  0.182836     12.000000
  0.250000  0.433013  0.182836      6.000000
  0.312500  0.469097  0.182836     12.000000
  0.375000  0.505181  0.182836      6.000000
  0.312500  0.541266  0.182836      6.000000
 
 TETIRR: Found   1584 inequivalent tetrahedra from     9216


--------------------------------------------------------------------------------------------------------




 Dimension of arrays:
   k-points           NKPTS =    120   k-points in BZ     NKDIM =    120   number of bands    NBANDS=     12
   number of dos      NEDOS =    301   number of ions     NIONS =      4
   non local maximal  LDIM  =      4   non local SUM 2l+1 LMDIM =      8
   total plane-waves  NPLWV =   5184
   max r-space proj   IRMAX =      1   max aug-charges    IRDMAX=   1956
   dimension x,y,z NGX =    12 NGY =   12 NGZ =   36
   dimension x,y,z NGXF=    24 NGYF=   24 NGZF=   72
   support grid    NGXF=    24 NGYF=   24 NGZF=   72
   ions per type =               4
 NGX,Y,Z   is equivalent  to a cutoff of   8.14,  8.14,  8.93 a.u.
 NGXF,Y,Z  is equivalent  to a cutoff of  16.29, 16.29, 17.87 a.u.


 I would recommend the setting:
   dimension x,y,z NGX =    12 NGY =   12 NGZ =   33
 SYSTEM =  graphite                                
 POSCAR =  graphite                                

 Startparameter for this run:
   NWRITE =      2    write-flag & timer
   PREC   = normal    normal or accurate (medium, high low for compatibility)
   ISTART =      0    job   : 0-new  1-cont  2-samecut
   ICHARG =      2    charge: 1-file 2-atom 10-const
   ISPIN  =      1    spin polarized calculation?
   LNONCOLLINEAR =      F non collinear calculations
   LSORBIT =      F    spin-orbit coupling
   INIWAV =      1    electr: 0-lowe 1-rand  2-diag
   LASPH  =      F    aspherical Exc in radial PAW
   METAGGA=      F    non-selfconsistent MetaGGA calc.

 Electronic Relaxation 1
   ENCUT  =  400.0 eV  29.40 Ry    5.42 a.u.   4.00  4.00 10.93*2*pi/ulx,y,z
   ENINI  =  400.0     initial cutoff
   ENAUG  =  644.9 eV  augmentation charge cutoff
   NELM   =     60;   NELMIN=  2; NELMDL= -5     # of ELM steps 
   EDIFF  = 0.1E-03   stopping-criterion for ELM
   LREAL  =      F    real-space projection
   NLSPLINE    = F    spline interpolate recip. space projectors
   LCOMPAT=      F    compatible to vasp.4.4
   GGA_COMPAT  = T    GGA compatible to vasp.4.4-vasp.4.6
   LMAXPAW     = -100 max onsite density
   LMAXMIX     =    2 max onsite mixed and CHGCAR
   VOSKOWN=      0    Vosko Wilk Nusair interpolation
   ROPT   =    0.00000
 Ionic relaxation
   EDIFFG = 0.1E-02   stopping-criterion for IOM
   NSW    =      0    number of steps for IOM
   NBLOCK =      1;   KBLOCK =      1    inner block; outer block 
   IBRION =     -1    ionic relax: 0-MD 1-quasi-New 2-CG
   NFREE  =      0    steps in history (QN), initial steepest desc. (CG)
   ISIF   =      2    stress and relaxation
   IWAVPR =      0    prediction:  0-non 1-charg 2-wave 3-comb
   ISYM   =      2    0-nonsym 1-usesym 2-fastsym
   LCORR  =      T    Harris-Foulkes like correction to forces

   POTIM  = 0.5000    time-step for ionic-motion
   TEIN   =    0.0    initial temperature
   TEBEG  =    0.0;   TEEND  =   0.0 temperature during run
   SMASS  =  -3.00    Nose mass-parameter (am)
   estimated Nose-frequenzy (Omega)   =  0.10E-29 period in steps =****** mass=  -0.137E-27a.u.
   SCALEE = 1.0000    scale energy and forces
   NPACO  =    256;   APACO  = 16.0  distance and # of slots for P.C.
   PSTRESS=    0.0 pullay stress

  Mass of Ions in am
   POMASS =  12.01
  Ionic Valenz
   ZVAL   =   4.00
  Atomic Wigner-Seitz radii
   RWIGS  =   0.86
  virtual crystal weights 
   VCA    =   1.00
   NELECT =      16.0000    total number of electrons
   NUPDOWN=      -1.0000    fix difference up-down

 DOS related values:
   EMIN   =  10.00;   EMAX   =-10.00  energy-range for DOS
   EFERMI =   0.00
   ISMEAR =    -4;   SIGMA  =   0.20  broadening in eV -4-tet -1-fermi 0-gaus

 Electronic relaxation 2 (details)
   IALGO  =     38    algorithm
   LDIAG  =      T    sub-space diagonalisation (order eigenvalues)
   LSUBROT=      F    optimize rotation matrix (better conditioning)
   TURBO    =      0    0=normal 1=particle mesh
   IRESTART =      0    0=no restart 2=restart with 2 vectors
   NREBOOT  =      0    no. of reboots
   NMIN     =      0    reboot dimension
   EREF     =   0.00    reference energy to select bands
   IMIX   =      4    mixing-type and parameters
     AMIX     =   0.40;   BMIX     =  1.00
     AMIX_MAG =   1.60;   BMIX_MAG =  1.00
     AMIN     =   0.10
     WC   =   100.;   INIMIX=   1;  MIXPRE=   1;  MAXMIX= -45

 Intra band minimization:
   WEIMIN = 0.0000     energy-eigenvalue tresh-hold
   EBREAK =  0.21E-05  absolut break condition
   DEPER  =   0.30     relativ break condition  

   TIME   =   0.40     timestep for ELM

  volume/ion in A,a.u.               =       8.71        58.76
  Fermi-wavevector in a.u.,A,eV,Ry     =   1.263191  2.387085 21.710150  1.595651
  Thomas-Fermi vector in A             =   2.396560
 
 Write flags
   LWAVE  =      T    write WAVECAR
   LCHARG =      T    write CHGCAR
   LVTOT  =      F    write LOCPOT, total local potential
   LVHAR  =      F    write LOCPOT, Hartree potential only
   LELF   =      F    write electronic localiz. function (ELF)
   LORBIT =      0    0 simple, 1 ext, 2 COOP (PROOUT)


 Dipole corrections
   LMONO  =      F    monopole corrections only (constant potential shift)
   LDIPOL =      F    correct potential (dipole corrections)
   IDIPOL =      0    1-x, 2-y, 3-z, 4-all directions 
   EPSILON=  1.0000000 bulk dielectric constant

 Exchange correlation treatment:
   GGA     =    --    GGA type
   LEXCH   =     2    internal setting for exchange type
   VOSKOWN=      0    Vosko Wilk Nusair interpolation
   LHFCALC =     F    Hartree Fock is set to
   LHFONE  =     F    Hartree Fock one center treatment
   AEXX    =    0.0000 exact exchange contribution

 Linear response parameters
   LEPSILON=     F    determine dielectric tensor
   LRPA    =     F    only Hartree local field effects (RPA)
   LNABLA  =     F    use nabla operator in PAW spheres
   LVEL    =     F    velocity operator in full k-point grid
   LINTERFAST=   F  fast interpolation
   KINTER  =     0    interpolate to denser k-point grid
   CSHIFT  =0.1000    complex shift for real part using Kramers Kronig
   OMEGAMAX=  -1.0    maximum frequency
   DEG_THRESHOLD= 0.2000000E-02 threshold for treating states as degnerate
   RTIME   =    0.100 relaxation time in fs

 Orbital magnetization related:
   ORBITALMAG=     F  switch on orbital magnetization
   LCHIMAG   =     F  perturbation theory with respect to B field
   DQ        =  0.001000  dq finite difference perturbation B field



--------------------------------------------------------------------------------------------------------


 Static calculation
 charge density and potential will be updated during run
 non-spin polarized calculation
 Variant of blocked Davidson
 Davidson routine will perform the subspace rotation
 perform sub-space diagonalisation
    after iterative eigenvector-optimisation
 modified Broyden-mixing scheme, WC =      100.0
 initial mixing is a Kerker type mixing with AMIX =  0.4000 and BMIX =      1.0000
 Hartree-type preconditioning will be used
 using additional bands            4
 reciprocal scheme for non local part
 calculate Harris-corrections to forces 
   (improved forces if not selfconsistent)
 use of overlap-Matrix (Vanderbilt PP)
 Fermi weights with tetrahedron method witout Bloechl corrections


--------------------------------------------------------------------------------------------------------


  energy-cutoff  :      400.00
  volume of cell :       34.83
      direct lattice vectors                 reciprocal lattice vectors
     2.450000000  0.000000000  0.000000000     0.408163265  0.235653171  0.000000000
    -1.225000000  2.121762237  0.000000000     0.000000000  0.471306343  0.000000000
     0.000000000  0.000000000  6.700000001     0.000000000  0.000000000  0.149253731

  length of vectors
     2.450000000  2.449999998  6.700000001     0.471306342  0.471306343  0.149253731


 
 k-points in units of 2pi/SCALE and weight: 16X16x6                                 
   0.00000000  0.00000000  0.00000000       0.001
   0.06250000  0.03608439  0.00000000       0.004
   0.12500000  0.07216878  0.00000000       0.004
   0.18750000  0.10825318  0.00000000       0.004
   0.25000000  0.14433757  0.00000000       0.004
   0.31250000  0.18042196  0.00000000       0.004
   0.37500000  0.21650635  0.00000000       0.004
   0.43750000  0.25259074  0.00000000       0.004
   0.50000000  0.28867513  0.00000000       0.002
   0.06250000  0.10825318  0.00000000       0.004
   0.12500000  0.14433757  0.00000000       0.008
   0.18750000  0.18042196  0.00000000       0.008
   0.25000000  0.21650635  0.00000000       0.008
   0.31250000  0.25259074  0.00000000       0.008
   0.37500000  0.28867513  0.00000000       0.008
   0.43750000  0.32475953  0.00000000       0.008
   0.12500000  0.21650635  0.00000000       0.004
   0.18750000  0.25259074  0.00000000       0.008
   0.25000000  0.28867513  0.00000000       0.008
   0.31250000  0.32475953  0.00000000       0.008
   0.37500000  0.36084392  0.00000000       0.008
   0.43750000  0.39692831  0.00000000       0.004
   0.18750000  0.32475953  0.00000000       0.004
   0.25000000  0.36084392  0.00000000       0.008
   0.31250000  0.39692831  0.00000000       0.008
   0.37500000  0.43301270  0.00000000       0.008
   0.25000000  0.43301270  0.00000000       0.004
   0.31250000  0.46909709  0.00000000       0.008
   0.37500000  0.50518149  0.00000000       0.004
   0.31250000  0.54126588  0.00000000       0.004
   0.00000000  0.00000000  0.06094527       0.001
   0.06250000  0.03608439  0.06094527       0.008
   0.12500000  0.07216878  0.06094527       0.008
   0.18750000  0.10825318  0.06094527       0.008
   0.25000000  0.14433757  0.06094527       0.008
   0.31250000  0.18042196  0.06094527       0.008
   0.37500000  0.21650635  0.06094527       0.008
   0.43750000  0.25259074  0.06094527       0.008
   0.50000000  0.28867513  0.06094527       0.004
   0.06250000  0.10825318  0.06094527       0.008
   0.12500000  0.14433757  0.06094527       0.016
   0.18750000  0.18042196  0.06094527       0.016
   0.25000000  0.21650635  0.06094527       0.016
   0.31250000  0.25259074  0.06094527       0.016
   0.37500000  0.28867513  0.06094527       0.016
   0.43750000  0.32475953  0.06094527       0.016
   0.12500000  0.21650635  0.06094527       0.008
   0.18750000  0.25259074  0.06094527       0.016
   0.25000000  0.28867513  0.06094527       0.016
   0.31250000  0.32475953  0.06094527       0.016
   0.37500000  0.36084392  0.06094527       0.016
   0.43750000  0.39692831  0.06094527       0.008
   0.18750000  0.32475953  0.06094527       0.008
   0.25000000  0.36084392  0.06094527       0.016
   0.31250000  0.39692831  0.06094527       0.016
   0.37500000  0.43301270  0.06094527       0.016
   0.25000000  0.43301270  0.06094527       0.008
   0.31250000  0.46909709  0.06094527       0.016
   0.37500000  0.50518149  0.06094527       0.008
   0.31250000  0.54126588  0.06094527       0.008
   0.00000000  0.00000000  0.12189055       0.001
   0.06250000  0.03608439  0.12189055       0.008
   0.12500000  0.07216878  0.12189055       0.008
   0.18750000  0.10825318  0.12189055       0.008
   0.25000000  0.14433757  0.12189055       0.008
   0.31250000  0.18042196  0.12189055       0.008
   0.37500000  0.21650635  0.12189055       0.008
   0.43750000  0.25259074  0.12189055       0.008
   0.50000000  0.28867513  0.12189055       0.004
   0.06250000  0.10825318  0.12189055       0.008
   0.12500000  0.14433757  0.12189055       0.016
   0.18750000  0.18042196  0.12189055       0.016
   0.25000000  0.21650635  0.12189055       0.016
   0.31250000  0.25259074  0.12189055       0.016
   0.37500000  0.28867513  0.12189055       0.016
   0.43750000  0.32475953  0.12189055       0.016
   0.12500000  0.21650635  0.12189055       0.008
   0.18750000  0.25259074  0.12189055       0.016
   0.25000000  0.28867513  0.12189055       0.016
   0.31250000  0.32475953  0.12189055       0.016
   0.37500000  0.36084392  0.12189055       0.016
   0.43750000  0.39692831  0.12189055       0.008
   0.18750000  0.32475953  0.12189055       0.008
   0.25000000  0.36084392  0.12189055       0.016
   0.31250000  0.39692831  0.12189055       0.016
   0.37500000  0.43301270  0.12189055       0.016
   0.25000000  0.43301270  0.12189055       0.008
   0.31250000  0.46909709  0.12189055       0.016
   0.37500000  0.50518149  0.12189055       0.008
   0.31250000  0.54126588  0.12189055       0.008
   0.00000000  0.00000000  0.18283582       0.001
   0.06250000  0.03608439  0.18283582       0.004
   0.12500000  0.07216878  0.18283582       0.004
   0.18750000  0.10825318  0.18283582       0.004
   0.25000000  0.14433757  0.18283582       0.004
   0.31250000  0.18042196  0.18283582       0.004
   0.37500000  0.21650635  0.18283582       0.004
   0.43750000  0.25259074  0.18283582       0.004
   0.50000000  0.28867513  0.18283582       0.002
   0.06250000  0.10825318  0.18283582       0.004
   0.12500000  0.14433757  0.18283582       0.008
   0.18750000  0.18042196  0.18283582       0.008
   0.25000000  0.21650635  0.18283582       0.008
   0.31250000  0.25259074  0.18283582       0.008
   0.37500000  0.28867513  0.18283582       0.008
   0.43750000  0.32475953  0.18283582       0.008
   0.12500000  0.21650635  0.18283582       0.004
   0.18750000  0.25259074  0.18283582       0.008
   0.25000000  0.28867513  0.18283582       0.008
   0.31250000  0.32475953  0.18283582       0.008
   0.37500000  0.36084392  0.18283582       0.008
   0.43750000  0.39692831  0.18283582       0.004
   0.18750000  0.32475953  0.18283582       0.004
   0.25000000  0.36084392  0.18283582       0.008
   0.31250000  0.39692831  0.18283582       0.008
   0.37500000  0.43301270  0.18283582       0.008
   0.25000000  0.43301270  0.18283582       0.004
   0.31250000  0.46909709  0.18283582       0.008
   0.37500000  0.50518149  0.18283582       0.004
   0.31250000  0.54126588  0.18283582       0.004
 
 k-points in reciprocal lattice and weights: 16X16x6                                 
   0.00000000  0.00000000  0.00000000       0.001
   0.06250000  0.00000000  0.00000000       0.004
   0.12500000  0.00000000  0.00000000       0.004
   0.18750000  0.00000000  0.00000000       0.004
   0.25000000  0.00000000  0.00000000       0.004
   0.31250000  0.00000000  0.00000000       0.004
   0.37500000  0.00000000  0.00000000       0.004
   0.43750000  0.00000000  0.00000000       0.004
   0.50000000  0.00000000  0.00000000       0.002
   0.06250000  0.06250000  0.00000000       0.004
   0.12500000  0.06250000  0.00000000       0.008
   0.18750000  0.06250000  0.00000000       0.008
   0.25000000  0.06250000  0.00000000       0.008
   0.31250000  0.06250000  0.00000000       0.008
   0.37500000  0.06250000  0.00000000       0.008
   0.43750000  0.06250000  0.00000000       0.008
   0.12500000  0.12500000  0.00000000       0.004
   0.18750000  0.12500000  0.00000000       0.008
   0.25000000  0.12500000  0.00000000       0.008
   0.31250000  0.12500000  0.00000000       0.008
   0.37500000  0.12500000  0.00000000       0.008
   0.43750000  0.12500000  0.00000000       0.004
   0.18750000  0.18750000  0.00000000       0.004
   0.25000000  0.18750000  0.00000000       0.008
   0.31250000  0.18750000  0.00000000       0.008
   0.37500000  0.18750000  0.00000000       0.008
   0.25000000  0.25000000  0.00000000       0.004
   0.31250000  0.25000000  0.00000000       0.008
   0.37500000  0.25000000  0.00000000       0.004
   0.31250000  0.31250000  0.00000000       0.004
   0.00000000  0.00000000  0.16666667       0.001
   0.06250000  0.00000000  0.16666667       0.008
   0.12500000  0.00000000  0.16666667       0.008
   0.18750000  0.00000000  0.16666667       0.008
   0.25000000  0.00000000  0.16666667       0.008
   0.31250000  0.00000000  0.16666667       0.008
   0.37500000  0.00000000  0.16666667       0.008
   0.43750000  0.00000000  0.16666667       0.008
   0.50000000  0.00000000  0.16666667       0.004
   0.06250000  0.06250000  0.16666667       0.008
   0.12500000  0.06250000  0.16666667       0.016
   0.18750000  0.06250000  0.16666667       0.016
   0.25000000  0.06250000  0.16666667       0.016
   0.31250000  0.06250000  0.16666667       0.016
   0.37500000  0.06250000  0.16666667       0.016
   0.43750000  0.06250000  0.16666667       0.016
   0.12500000  0.12500000  0.16666667       0.008
   0.18750000  0.12500000  0.16666667       0.016
   0.25000000  0.12500000  0.16666667       0.016
   0.31250000  0.12500000  0.16666667       0.016
   0.37500000  0.12500000  0.16666667       0.016
   0.43750000  0.12500000  0.16666667       0.008
   0.18750000  0.18750000  0.16666667       0.008
   0.25000000  0.18750000  0.16666667       0.016
   0.31250000  0.18750000  0.16666667       0.016
   0.37500000  0.18750000  0.16666667       0.016
   0.25000000  0.25000000  0.16666667       0.008
   0.31250000  0.25000000  0.16666667       0.016
   0.37500000  0.25000000  0.16666667       0.008
   0.31250000  0.31250000  0.16666667       0.008
   0.00000000  0.00000000  0.33333333       0.001
   0.06250000  0.00000000  0.33333333       0.008
   0.12500000  0.00000000  0.33333333       0.008
   0.18750000  0.00000000  0.33333333       0.008
   0.25000000  0.00000000  0.33333333       0.008
   0.31250000  0.00000000  0.33333333       0.008
   0.37500000  0.00000000  0.33333333       0.008
   0.43750000  0.00000000  0.33333333       0.008
   0.50000000  0.00000000  0.33333333       0.004
   0.06250000  0.06250000  0.33333333       0.008
   0.12500000  0.06250000  0.33333333       0.016
   0.18750000  0.06250000  0.33333333       0.016
   0.25000000  0.06250000  0.33333333       0.016
   0.31250000  0.06250000  0.33333333       0.016
   0.37500000  0.06250000  0.33333333       0.016
   0.43750000  0.06250000  0.33333333       0.016
   0.12500000  0.12500000  0.33333333       0.008
   0.18750000  0.12500000  0.33333333       0.016
   0.25000000  0.12500000  0.33333333       0.016
   0.31250000  0.12500000  0.33333333       0.016
   0.37500000  0.12500000  0.33333333       0.016
   0.43750000  0.12500000  0.33333333       0.008
   0.18750000  0.18750000  0.33333333       0.008
   0.25000000  0.18750000  0.33333333       0.016
   0.31250000  0.18750000  0.33333333       0.016
   0.37500000  0.18750000  0.33333333       0.016
   0.25000000  0.25000000  0.33333333       0.008
   0.31250000  0.25000000  0.33333333       0.016
   0.37500000  0.25000000  0.33333333       0.008
   0.31250000  0.31250000  0.33333333       0.008
   0.00000000  0.00000000  0.50000000       0.001
   0.06250000  0.00000000  0.50000000       0.004
   0.12500000  0.00000000  0.50000000       0.004
   0.18750000  0.00000000  0.50000000       0.004
   0.25000000  0.00000000  0.50000000       0.004
   0.31250000  0.00000000  0.50000000       0.004
   0.37500000  0.00000000  0.50000000       0.004
   0.43750000  0.00000000  0.50000000       0.004
   0.50000000  0.00000000  0.50000000       0.002
   0.06250000  0.06250000  0.50000000       0.004
   0.12500000  0.06250000  0.50000000       0.008
   0.18750000  0.06250000  0.50000000       0.008
   0.25000000  0.06250000  0.50000000       0.008
   0.31250000  0.06250000  0.50000000       0.008
   0.37500000  0.06250000  0.50000000       0.008
   0.43750000  0.06250000  0.50000000       0.008
   0.12500000  0.12500000  0.50000000       0.004
   0.18750000  0.12500000  0.50000000       0.008
   0.25000000  0.12500000  0.50000000       0.008
   0.31250000  0.12500000  0.50000000       0.008
   0.37500000  0.12500000  0.50000000       0.008
   0.43750000  0.12500000  0.50000000       0.004
   0.18750000  0.18750000  0.50000000       0.004
   0.25000000  0.18750000  0.50000000       0.008
   0.31250000  0.18750000  0.50000000       0.008
   0.37500000  0.18750000  0.50000000       0.008
   0.25000000  0.25000000  0.50000000       0.004
   0.31250000  0.25000000  0.50000000       0.008
   0.37500000  0.25000000  0.50000000       0.004
   0.31250000  0.31250000  0.50000000       0.004
 
 position of ions in fractional coordinates (direct lattice) 
   0.00000000  0.00000000  0.00000000
   0.33333333  0.66666667  0.00000000
   0.66666667  0.33333333  0.50000000
   0.00000000  0.00000000  0.50000000
 
 position of ions in cartesian coordinates  (Angst):
   0.00000000  0.00000000  0.00000000
   0.00000000  1.41450816  0.00000000
   1.22500000  0.70725408  3.35000000
   0.00000000  0.00000000  3.35000000
 


--------------------------------------------------------------------------------------------------------


 k-point  1 :   0.0000 0.0000 0.0000  plane waves:     609
 k-point  2 :   0.0625 0.0000 0.0000  plane waves:     605
 k-point  3 :   0.1250 0.0000 0.0000  plane waves:     613
 k-point  4 :   0.1875 0.0000 0.0000  plane waves:     619
 k-point  5 :   0.2500 0.0000 0.0000  plane waves:     631
 k-point  6 :   0.3125 0.0000 0.0000  plane waves:     639
 k-point  7 :   0.3750 0.0000 0.0000  plane waves:     633
 k-point  8 :   0.4375 0.0000 0.0000  plane waves:     641
 k-point  9 :   0.5000 0.0000 0.0000  plane waves:     638
 k-point 10 :   0.0625 0.0625 0.0000  plane waves:     608
 k-point 11 :   0.1250 0.0625 0.0000  plane waves:     620
 k-point 12 :   0.1875 0.0625 0.0000  plane waves:     631
 k-point 13 :   0.2500 0.0625 0.0000  plane waves:     626
 k-point 14 :   0.3125 0.0625 0.0000  plane waves:     630
 k-point 15 :   0.3750 0.0625 0.0000  plane waves:     638
 k-point 16 :   0.4375 0.0625 0.0000  plane waves:     640
 k-point 17 :   0.1250 0.1250 0.0000  plane waves:     630
 k-point 18 :   0.1875 0.1250 0.0000  plane waves:     630
 k-point 19 :   0.2500 0.1250 0.0000  plane waves:     632
 k-point 20 :   0.3125 0.1250 0.0000  plane waves:     645
 k-point 21 :   0.3750 0.1250 0.0000  plane waves:     637
 k-point 22 :   0.4375 0.1250 0.0000  plane waves:     634
 k-point 23 :   0.1875 0.1875 0.0000  plane waves:     642
 k-point 24 :   0.2500 0.1875 0.0000  plane waves:     640
 k-point 25 :   0.3125 0.1875 0.0000  plane waves:     636
 k-point 26 :   0.3750 0.1875 0.0000  plane waves:     632
 k-point 27 :   0.2500 0.2500 0.0000  plane waves:     642
 k-point 28 :   0.3125 0.2500 0.0000  plane waves:     634
 k-point 29 :   0.3750 0.2500 0.0000  plane waves:     630
 k-point 30 :   0.3125 0.3125 0.0000  plane waves:     628
 k-point 31 :   0.0000 0.0000 0.1667  plane waves:     604
 k-point 32 :   0.0625 0.0000 0.1667  plane waves:     612
 k-point 33 :   0.1250 0.0000 0.1667  plane waves:     609
 k-point 34 :   0.1875 0.0000 0.1667  plane waves:     620
 k-point 35 :   0.2500 0.0000 0.1667  plane waves:     626
 k-point 36 :   0.3125 0.0000 0.1667  plane waves:     634
 k-point 37 :   0.3750 0.0000 0.1667  plane waves:     635
 k-point 38 :   0.4375 0.0000 0.1667  plane waves:     635
 k-point 39 :   0.5000 0.0000 0.1667  plane waves:     636
 k-point 40 :   0.0625 0.0625 0.1667  plane waves:     613
 k-point 41 :   0.1250 0.0625 0.1667  plane waves:     619
 k-point 42 :   0.1875 0.0625 0.1667  plane waves:     627
 k-point 43 :   0.2500 0.0625 0.1667  plane waves:     633
 k-point 44 :   0.3125 0.0625 0.1667  plane waves:     634
 k-point 45 :   0.3750 0.0625 0.1667  plane waves:     641
 k-point 46 :   0.4375 0.0625 0.1667  plane waves:     636
 k-point 47 :   0.1250 0.1250 0.1667  plane waves:     628
 k-point 48 :   0.1875 0.1250 0.1667  plane waves:     638
 k-point 49 :   0.2500 0.1250 0.1667  plane waves:     633
 k-point 50 :   0.3125 0.1250 0.1667  plane waves:     639
 k-point 51 :   0.3750 0.1250 0.1667  plane waves:     638
 k-point 52 :   0.4375 0.1250 0.1667  plane waves:     638
 k-point 53 :   0.1875 0.1875 0.1667  plane waves:     636
 k-point 54 :   0.2500 0.1875 0.1667  plane waves:     637
 k-point 55 :   0.3125 0.1875 0.1667  plane waves:     639
 k-point 56 :   0.3750 0.1875 0.1667  plane waves:     635
 k-point 57 :   0.2500 0.2500 0.1667  plane waves:     642
 k-point 58 :   0.3125 0.2500 0.1667  plane waves:     634
 k-point 59 :   0.3750 0.2500 0.1667  plane waves:     635
 k-point 60 :   0.3125 0.3125 0.1667  plane waves:     633
 k-point 61 :   0.0000 0.0000 0.3333  plane waves:     604
 k-point 62 :   0.0625 0.0000 0.3333  plane waves:     610
 k-point 63 :   0.1250 0.0000 0.3333  plane waves:     610
 k-point 64 :   0.1875 0.0000 0.3333  plane waves:     617
 k-point 65 :   0.2500 0.0000 0.3333  plane waves:     625
 k-point 66 :   0.3125 0.0000 0.3333  plane waves:     631
 k-point 67 :   0.3750 0.0000 0.3333  plane waves:     632
 k-point 68 :   0.4375 0.0000 0.3333  plane waves:     631
 k-point 69 :   0.5000 0.0000 0.3333  plane waves:     628
 k-point 70 :   0.0625 0.0625 0.3333  plane waves:     616
 k-point 71 :   0.1250 0.0625 0.3333  plane waves:     614
 k-point 72 :   0.1875 0.0625 0.3333  plane waves:     629
 k-point 73 :   0.2500 0.0625 0.3333  plane waves:     631
 k-point 74 :   0.3125 0.0625 0.3333  plane waves:     638
 k-point 75 :   0.3750 0.0625 0.3333  plane waves:     636
 k-point 76 :   0.4375 0.0625 0.3333  plane waves:     634
 k-point 77 :   0.1250 0.1250 0.3333  plane waves:     626
 k-point 78 :   0.1875 0.1250 0.3333  plane waves:     633
 k-point 79 :   0.2500 0.1250 0.3333  plane waves:     638
 k-point 80 :   0.3125 0.1250 0.3333  plane waves:     639
 k-point 81 :   0.3750 0.1250 0.3333  plane waves:     640
 k-point 82 :   0.4375 0.1250 0.3333  plane waves:     639
 k-point 83 :   0.1875 0.1875 0.3333  plane waves:     643
 k-point 84 :   0.2500 0.1875 0.3333  plane waves:     641
 k-point 85 :   0.3125 0.1875 0.3333  plane waves:     641
 k-point 86 :   0.3750 0.1875 0.3333  plane waves:     642
 k-point 87 :   0.2500 0.2500 0.3333  plane waves:     641
 k-point 88 :   0.3125 0.2500 0.3333  plane waves:     642
 k-point 89 :   0.3750 0.2500 0.3333  plane waves:     642
 k-point 90 :   0.3125 0.3125 0.3333  plane waves:     634
 k-point 91 :   0.0000 0.0000 0.5000  plane waves:     586
 k-point 92 :   0.0625 0.0000 0.5000  plane waves:     606
 k-point 93 :   0.1250 0.0000 0.5000  plane waves:     614
 k-point 94 :   0.1875 0.0000 0.5000  plane waves:     618
 k-point 95 :   0.2500 0.0000 0.5000  plane waves:     632
 k-point 96 :   0.3125 0.0000 0.5000  plane waves:     632
 k-point 97 :   0.3750 0.0000 0.5000  plane waves:     634
 k-point 98 :   0.4375 0.0000 0.5000  plane waves:     628
 k-point 99 :   0.5000 0.0000 0.5000  plane waves:     620
 k-point ** :   0.0625 0.0625 0.5000  plane waves:     614
 k-point ** :   0.1250 0.0625 0.5000  plane waves:     618
 k-point ** :   0.1875 0.0625 0.5000  plane waves:     624
 k-point ** :   0.2500 0.0625 0.5000  plane waves:     632
 k-point ** :   0.3125 0.0625 0.5000  plane waves:     640
 k-point ** :   0.3750 0.0625 0.5000  plane waves:     632
 k-point ** :   0.4375 0.0625 0.5000  plane waves:     634
 k-point ** :   0.1250 0.1250 0.5000  plane waves:     624
 k-point ** :   0.1875 0.1250 0.5000  plane waves:     634
 k-point ** :   0.2500 0.1250 0.5000  plane waves:     644
 k-point ** :   0.3125 0.1250 0.5000  plane waves:     642
 k-point ** :   0.3750 0.1250 0.5000  plane waves:     638
 k-point ** :   0.4375 0.1250 0.5000  plane waves:     644
 k-point ** :   0.1875 0.1875 0.5000  plane waves:     634
 k-point ** :   0.2500 0.1875 0.5000  plane waves:     642
 k-point ** :   0.3125 0.1875 0.5000  plane waves:     644
 k-point ** :   0.3750 0.1875 0.5000  plane waves:     646
 k-point ** :   0.2500 0.2500 0.5000  plane waves:     638
 k-point ** :   0.3125 0.2500 0.5000  plane waves:     644
 k-point ** :   0.3750 0.2500 0.5000  plane waves:     642
 k-point ** :   0.3125 0.3125 0.5000  plane waves:     634

 maximum number of plane-waves:       646
 maximum index in each direction: 
   IXMAX=    3   IYMAX=    3   IZMAX=   10
   IXMIN=   -4   IYMIN=   -4   IZMIN=  -11

 WARNING: aliasing errors must be expected set NGX to  16 to avoid them
 WARNING: aliasing errors must be expected set NGY to  16 to avoid them
 WARNING: aliasing errors must be expected set NGZ to  44 to avoid them
 aliasing errors are usually negligible using standard VASP settings
 and one can safely disregard these warnings

 total amount of memory used by VASP on root node    54118. kBytes
========================================================================

   base      :      30000. kBytes
   nonl-proj :       5002. kBytes
   grid      :       3483. kBytes
   one-center:         12. kBytes
   wavefun   :      15621. kBytes
 
     INWAV:  cpu time    0.00: real time    0.00
 Broyden mixing: mesh for mixing (old mesh)
   NGX =  7   NGY =  7   NGZ = 21
  (NGX  = 24   NGY  = 24   NGZ  = 72)
  gives a total of   1029 points

 initial charge density was supplied:
 charge density of overlapping atoms calculated
 number of electron      16.0000000 magnetization 
 keeping initial charge density in first step


--------------------------------------------------------------------------------------------------------


 Maximum index for augmentation-charges         1701 (set IRDMAX)


--------------------------------------------------------------------------------------------------------


 First call to EWALD:  gamma=   0.543
 Maximum number of real-space cells 4x 4x 2
 Maximum number of reciprocal cells 2x 2x 5

    FEWALD:  cpu time    0.00: real time    0.00


----------------------------------------- Iteration    1(   1)  ---------------------------------------


    POTLOK:  cpu time    0.01: real time    0.01
    SETDIJ:  cpu time    0.00: real time    0.00
     EDDAV:  cpu time    1.21: real time    1.23
 BZINTS: Fermi energy: 12.013330; 16.000000 electrons
         Band energy: -34.542759;  BLOECHL correction:  0.000000
       DOS:  cpu time    0.04: real time    0.04
    --------------------------------------------
      LOOP:  cpu time    1.26: real time    1.28

 eigenvalue-minimisations  :  2888
 total energy-change (2. order) : 0.2936704E+02  (-0.7151636E+03)
 number of electron      16.0000000 magnetization 
 augmentation part       16.0000000 magnetization 

 Free energy of the ion-electron system (eV)
  ---------------------------------------------------
  alpha Z        PSCENC =        34.80960609
  Ewald energy   TEWEN  =      -460.60487080
  -Hartree energ DENC   =      -148.26890906
  -exchange      EXHF   =         0.00000000
  -V(xc)+E(xc)   XCENC  =        55.77249105
  PAW double counting   =       153.18495299     -157.61868755
  entropy T*S    EENTRO =         0.00000000
  eigenvalues    EBANDS =       -34.54275874
  atomic energy  EATOM  =       586.63521236
  ---------------------------------------------------
  free energy    TOTEN  =        29.36703634 eV

  energy without entropy =       29.36703634  energy(sigma->0) =       29.36703634


--------------------------------------------------------------------------------------------------------




----------------------------------------- Iteration    1(   2)  ---------------------------------------


     EDDAV:  cpu time    1.55: real time    1.55
 BZINTS: Fermi energy:  3.203176; 16.000000 electrons
         Band energy:-104.288619;  BLOECHL correction:  0.000000
       DOS:  cpu time    0.01: real time    0.01
    --------------------------------------------
      LOOP:  cpu time    1.56: real time    1.56

 eigenvalue-minimisations  :  3964
 total energy-change (2. order) :-0.6974586E+02  (-0.6469840E+02)
 number of electron      16.0000000 magnetization 
 augmentation part       16.0000000 magnetization 

 Free energy of the ion-electron system (eV)
  ---------------------------------------------------
  alpha Z        PSCENC =        34.80960609
  Ewald energy   TEWEN  =      -460.60487080
  -Hartree energ DENC   =      -148.26890906
  -exchange      EXHF   =         0.00000000
  -V(xc)+E(xc)   XCENC  =        55.77249105
  PAW double counting   =       153.18495299     -157.61868755
  entropy T*S    EENTRO =         0.00000000
  eigenvalues    EBANDS =      -104.28861916
  atomic energy  EATOM  =       586.63521236
  ---------------------------------------------------
  free energy    TOTEN  =       -40.37882408 eV

  energy without entropy =      -40.37882408  energy(sigma->0) =      -40.37882408


--------------------------------------------------------------------------------------------------------




----------------------------------------- Iteration    1(   3)  ---------------------------------------


     EDDAV:  cpu time    1.43: real time    1.43
 BZINTS: Fermi energy:  2.923132; 16.000000 electrons
         Band energy:-107.217446;  BLOECHL correction:  0.000000
       DOS:  cpu time    0.01: real time    0.01
    --------------------------------------------
      LOOP:  cpu time    1.44: real time    1.44

 eigenvalue-minimisations  :  3624
 total energy-change (2. order) :-0.2928827E+01  (-0.2908672E+01)
 number of electron      16.0000000 magnetization 
 augmentation part       16.0000000 magnetization 

 Free energy of the ion-electron system (eV)
  ---------------------------------------------------
  alpha Z        PSCENC =        34.80960609
  Ewald energy   TEWEN  =      -460.60487080
  -Hartree energ DENC   =      -148.26890906
  -exchange      EXHF   =         0.00000000
  -V(xc)+E(xc)   XCENC  =        55.77249105
  PAW double counting   =       153.18495299     -157.61868755
  entropy T*S    EENTRO =         0.00000000
  eigenvalues    EBANDS =      -107.21744624
  atomic energy  EATOM  =       586.63521236
  ---------------------------------------------------
  free energy    TOTEN  =       -43.30765117 eV

  energy without entropy =      -43.30765117  energy(sigma->0) =      -43.30765117


--------------------------------------------------------------------------------------------------------




----------------------------------------- Iteration    1(   4)  ---------------------------------------


     EDDAV:  cpu time    1.41: real time    1.41
 BZINTS: Fermi energy:  2.909313; 16.000000 electrons
         Band energy:-107.253077;  BLOECHL correction:  0.000000
       DOS:  cpu time    0.01: real time    0.01
    --------------------------------------------
      LOOP:  cpu time    1.42: real time    1.42

 eigenvalue-minimisations  :  3612
 total energy-change (2. order) :-0.3563125E-01  (-0.3560143E-01)
 number of electron      16.0000000 magnetization 
 augmentation part       16.0000000 magnetization 

 Free energy of the ion-electron system (eV)
  ---------------------------------------------------
  alpha Z        PSCENC =        34.80960609
  Ewald energy   TEWEN  =      -460.60487080
  -Hartree energ DENC   =      -148.26890906
  -exchange      EXHF   =         0.00000000
  -V(xc)+E(xc)   XCENC  =        55.77249105
  PAW double counting   =       153.18495299     -157.61868755
  entropy T*S    EENTRO =         0.00000000
  eigenvalues    EBANDS =      -107.25307749
  atomic energy  EATOM  =       586.63521236
  ---------------------------------------------------
  free energy    TOTEN  =       -43.34328241 eV

  energy without entropy =      -43.34328241  energy(sigma->0) =      -43.34328241


--------------------------------------------------------------------------------------------------------




----------------------------------------- Iteration    1(   5)  ---------------------------------------


     EDDAV:  cpu time    1.41: real time    1.41
 BZINTS: Fermi energy:  3.008215; 16.000000 electrons
         Band energy:-107.253841;  BLOECHL correction:  0.000000
       DOS:  cpu time    0.01: real time    0.01
    CHARGE:  cpu time    0.10: real time    0.10
    MIXING:  cpu time    0.00: real time    0.00
    --------------------------------------------
      LOOP:  cpu time    1.52: real time    1.52

 eigenvalue-minimisations  :  3588
 total energy-change (2. order) :-0.7631105E-03  (-0.7624835E-03)
 number of electron      15.9999960 magnetization 
 augmentation part        0.4959717 magnetization 

 Broyden mixing:
  rms(total) = 0.82069E+00    rms(broyden)= 0.82018E+00
  rms(prec ) = 0.13229E+01
  weight for this iteration     100.00

 Free energy of the ion-electron system (eV)
  ---------------------------------------------------
  alpha Z        PSCENC =        34.80960609
  Ewald energy   TEWEN  =      -460.60487080
  -Hartree energ DENC   =      -148.26890906
  -exchange      EXHF   =         0.00000000
  -V(xc)+E(xc)   XCENC  =        55.77249105
  PAW double counting   =       153.18495299     -157.61868755
  entropy T*S    EENTRO =         0.00000000
  eigenvalues    EBANDS =      -107.25384060
  atomic energy  EATOM  =       586.63521236
  ---------------------------------------------------
  free energy    TOTEN  =       -43.34404552 eV

  energy without entropy =      -43.34404552  energy(sigma->0) =      -43.34404552


--------------------------------------------------------------------------------------------------------




----------------------------------------- Iteration    1(   6)  ---------------------------------------


    POTLOK:  cpu time    0.01: real time    0.01
    SETDIJ:  cpu time    0.00: real time    0.00
     EDDAV:  cpu time    1.37: real time    1.37
 BZINTS: Fermi energy:  3.742420; 16.000000 electrons
         Band energy: -88.484871;  BLOECHL correction:  0.000000
       DOS:  cpu time    0.01: real time    0.01
    CHARGE:  cpu time    0.10: real time    0.10
    MIXING:  cpu time    0.00: real time    0.02
    --------------------------------------------
      LOOP:  cpu time    1.49: real time    1.50

 eigenvalue-minimisations  :  3372
 total energy-change (2. order) : 0.2171522E+01  (-0.2222481E+00)
 number of electron      15.9999961 magnetization 
 augmentation part        0.4735529 magnetization 

 Broyden mixing:
  rms(total) = 0.42172E+00    rms(broyden)= 0.42164E+00
  rms(prec ) = 0.66835E+00
  weight for this iteration     100.00

 eigenvalues of (default mixing * dielectric matrix)
  average eigenvalue GAMMA=   1.9931
  1.9931

 Free energy of the ion-electron system (eV)
  ---------------------------------------------------
  alpha Z        PSCENC =        34.80960609
  Ewald energy   TEWEN  =      -460.60487080
  -Hartree energ DENC   =      -165.57076527
  -exchange      EXHF   =         0.00000000
  -V(xc)+E(xc)   XCENC  =        56.94518591
  PAW double counting   =       210.23069696     -215.13271713
  entropy T*S    EENTRO =         0.00000000
  eigenvalues    EBANDS =       -88.48487129
  atomic energy  EATOM  =       586.63521236
  ---------------------------------------------------
  free energy    TOTEN  =       -41.17252317 eV

  energy without entropy =      -41.17252317  energy(sigma->0) =      -41.17252317


--------------------------------------------------------------------------------------------------------




----------------------------------------- Iteration    1(   7)  ---------------------------------------


    POTLOK:  cpu time    0.01: real time    0.01
    SETDIJ:  cpu time    0.00: real time    0.00
     EDDAV:  cpu time    1.35: real time    1.35
 BZINTS: Fermi energy:  4.519335; 16.000000 electrons
         Band energy: -70.391267;  BLOECHL correction:  0.000000
       DOS:  cpu time    0.01: real time    0.01
    CHARGE:  cpu time    0.10: real time    0.10
    MIXING:  cpu time    0.00: real time    0.00
    --------------------------------------------
      LOOP:  cpu time    1.47: real time    1.47

 eigenvalue-minimisations  :  3384
 total energy-change (2. order) : 0.6735087E+00  (-0.2174254E+00)
 number of electron      15.9999963 magnetization 
 augmentation part        0.4503311 magnetization 

 Broyden mixing:
  rms(total) = 0.71009E-01    rms(broyden)= 0.70613E-01
  rms(prec ) = 0.88184E-01
  weight for this iteration     100.00

 eigenvalues of (default mixing * dielectric matrix)
  average eigenvalue GAMMA=   2.1691
  2.1691  2.1691

 Free energy of the ion-electron system (eV)
  ---------------------------------------------------
  alpha Z        PSCENC =        34.80960609
  Ewald energy   TEWEN  =      -460.60487080
  -Hartree energ DENC   =      -183.90553998
  -exchange      EXHF   =         0.00000000
  -V(xc)+E(xc)   XCENC  =        58.23050807
  PAW double counting   =       279.09848850     -284.37115203
  entropy T*S    EENTRO =         0.00000000
  eigenvalues    EBANDS =       -70.39126664
  atomic energy  EATOM  =       586.63521236
  ---------------------------------------------------
  free energy    TOTEN  =       -40.49901443 eV

  energy without entropy =      -40.49901443  energy(sigma->0) =      -40.49901443


--------------------------------------------------------------------------------------------------------




----------------------------------------- Iteration    1(   8)  ---------------------------------------


    POTLOK:  cpu time    0.01: real time    0.01
    SETDIJ:  cpu time    0.00: real time    0.00
     EDDAV:  cpu time    1.33: real time    1.33
 BZINTS: Fermi energy:  4.484869; 16.000000 electrons
         Band energy: -71.171854;  BLOECHL correction:  0.000000
       DOS:  cpu time    0.01: real time    0.01
    CHARGE:  cpu time    0.10: real time    0.10
    MIXING:  cpu time    0.00: real time    0.00
    --------------------------------------------
      LOOP:  cpu time    1.45: real time    1.45

 eigenvalue-minimisations  :  3332
 total energy-change (2. order) :-0.2463256E-02  (-0.6379040E-02)
 number of electron      15.9999963 magnetization 
 augmentation part        0.4492690 magnetization 

 Broyden mixing:
  rms(total) = 0.11663E-01    rms(broyden)= 0.11602E-01
  rms(prec ) = 0.20406E-01
  weight for this iteration     100.00

 eigenvalues of (default mixing * dielectric matrix)
  average eigenvalue GAMMA=   1.7440
  0.8658  2.4141  1.9521

 Free energy of the ion-electron system (eV)
  ---------------------------------------------------
  alpha Z        PSCENC =        34.80960609
  Ewald energy   TEWEN  =      -460.60487080
  -Hartree energ DENC   =      -183.18820974
  -exchange      EXHF   =         0.00000000
  -V(xc)+E(xc)   XCENC  =        58.17924186
  PAW double counting   =       282.89967857     -288.06028189
  entropy T*S    EENTRO =         0.00000000
  eigenvalues    EBANDS =       -71.17185413
  atomic energy  EATOM  =       586.63521236
  ---------------------------------------------------
  free energy    TOTEN  =       -40.50147769 eV

  energy without entropy =      -40.50147769  energy(sigma->0) =      -40.50147769


--------------------------------------------------------------------------------------------------------




----------------------------------------- Iteration    1(   9)  ---------------------------------------


    POTLOK:  cpu time    0.01: real time    0.01
    SETDIJ:  cpu time    0.00: real time    0.00
     EDDAV:  cpu time    1.43: real time    1.43
 BZINTS: Fermi energy:  4.510714; 16.000000 electrons
         Band energy: -70.672929;  BLOECHL correction:  0.000000
       DOS:  cpu time    0.01: real time    0.01
    CHARGE:  cpu time    0.10: real time    0.10
    MIXING:  cpu time    0.00: real time    0.00
    --------------------------------------------
      LOOP:  cpu time    1.55: real time    1.55

 eigenvalue-minimisations  :  3660
 total energy-change (2. order) : 0.5204419E-03  (-0.2069395E-03)
 number of electron      15.9999963 magnetization 
 augmentation part        0.4486277 magnetization 

 Broyden mixing:
  rms(total) = 0.30927E-02    rms(broyden)= 0.30720E-02
  rms(prec ) = 0.49526E-02
  weight for this iteration     100.00

 eigenvalues of (default mixing * dielectric matrix)
  average eigenvalue GAMMA=   1.9296
  1.0123  2.4285  2.4285  1.8492

 Free energy of the ion-electron system (eV)
  ---------------------------------------------------
  alpha Z        PSCENC =        34.80960609
  Ewald energy   TEWEN  =      -460.60487080
  -Hartree energ DENC   =      -183.72096104
  -exchange      EXHF   =         0.00000000
  -V(xc)+E(xc)   XCENC  =        58.21819531
  PAW double counting   =       284.96647243     -290.13168301
  entropy T*S    EENTRO =         0.00000000
  eigenvalues    EBANDS =       -70.67292858
  atomic energy  EATOM  =       586.63521236
  ---------------------------------------------------
  free energy    TOTEN  =       -40.50095724 eV

  energy without entropy =      -40.50095724  energy(sigma->0) =      -40.50095724


--------------------------------------------------------------------------------------------------------




----------------------------------------- Iteration    1(  10)  ---------------------------------------


    POTLOK:  cpu time    0.01: real time    0.01
    SETDIJ:  cpu time    0.00: real time    0.00
     EDDAV:  cpu time    1.18: real time    1.19
 BZINTS: Fermi energy:  4.515418; 16.000000 electrons
         Band energy: -70.587829;  BLOECHL correction:  0.000000
       DOS:  cpu time    0.01: real time    0.01
    --------------------------------------------
      LOOP:  cpu time    1.20: real time    1.21

 eigenvalue-minimisations  :  2736
 total energy-change (2. order) :-0.3714780E-05  (-0.7792309E-05)
 number of electron      15.9999963 magnetization 
 augmentation part        0.4486277 magnetization 

 Free energy of the ion-electron system (eV)
  ---------------------------------------------------
  alpha Z        PSCENC =        34.80960609
  Ewald energy   TEWEN  =      -460.60487080
  -Hartree energ DENC   =      -183.81603759
  -exchange      EXHF   =         0.00000000
  -V(xc)+E(xc)   XCENC  =        58.22587393
  PAW double counting   =       284.98435998     -290.14727579
  entropy T*S    EENTRO =         0.00000000
  eigenvalues    EBANDS =       -70.58782913
  atomic energy  EATOM  =       586.63521236
  ---------------------------------------------------
  free energy    TOTEN  =       -40.50096096 eV

  energy without entropy =      -40.50096096  energy(sigma->0) =      -40.50096096


--------------------------------------------------------------------------------------------------------




 average (electrostatic) potential at core
  the test charge radii are     0.6991
  (the norm of the test charge is              1.0000)
       1 -54.8526       2 -54.8197       3 -54.8197       4 -54.8526
 
 
 
 E-fermi :   4.5154     XC(G=0): -10.7825     alpha+bet :-11.7293


 k-point     1 :       0.0000    0.0000    0.0000
  band No.  band energies     occupation 
      1     -14.8884      2.00000
      2     -14.5666      2.00000
      3      -4.0178      2.00000
      4      -1.9540      2.00000
      5       1.6921      2.00000
      6       1.6929      2.00000
      7       1.7107      2.00000
      8       1.7115      2.00000
      9       8.5260      0.00000
     10      13.1238      0.00000
     11      13.1509      0.00000
     12      13.1844      0.00000

 k-point     2 :       0.0625    0.0000    0.0000
  band No.  band energies     occupation 
      1     -14.7946      2.00000
      2     -14.4748      2.00000
      3      -3.9024      2.00000
      4      -1.8458      2.00000
      5       1.3215      2.00000
      6       1.3509      2.00000
      7       1.4911      2.00000
      8       1.5160      2.00000
      9       8.6396      0.00000
     10      13.1555      0.00000
     11      13.2401      0.00000
     12      13.5479      0.00000

 k-point     3 :       0.1250    0.0000    0.0000
  band No.  band energies     occupation 
      1     -14.5139      2.00000
      2     -14.1997      2.00000
      3      -3.5576      2.00000
      4      -1.5250      2.00000
      5       0.3179      2.00000
      6       0.3669      2.00000
      7       0.9701      2.00000
      8       1.0043      2.00000
      9       8.9812      0.00000
     10      13.1725      0.00000
     11      13.3014      0.00000
     12      14.6649      0.00000

 k-point     4 :       0.1875    0.0000    0.0000
  band No.  band energies     occupation 
      1     -14.0480      2.00000
      2     -13.7432      2.00000
      3      -2.9876      2.00000
      4      -1.0893      2.00000
      5      -1.0144      2.00000
      6      -0.9966      2.00000
      7       0.3036      2.00000
      8       0.3457      2.00000
      9       9.5517      0.00000
     10      13.0492      0.00000
     11      13.2654      0.00000
     12      13.4782      0.00000

 k-point     5 :       0.2500    0.0000    0.0000
  band No.  band energies     occupation 
      1     -13.4001      2.00000
      2     -13.1081      2.00000
      3      -2.6953      2.00000
      4      -2.5937      2.00000
      5      -2.2011      2.00000
      6      -0.3662      2.00000
      7      -0.3186      2.00000
      8      -0.2757      2.00000
      9      10.3473      0.00000
     10      11.7232      0.00000
     11      12.3915      0.00000
     12      12.8233      0.00000

 k-point     6 :       0.3125    0.0000    0.0000
  band No.  band energies     occupation 
      1     -12.5753      2.00000
      2     -12.2993      2.00000
      3      -4.3637      2.00000
      4      -4.2327      2.00000
      5      -1.2137      2.00000
      6      -0.9475      2.00000
      7      -0.8973      2.00000
      8       0.6079      2.00000
      9       9.8459      0.00000
     10      10.7295      0.00000
     11      11.3541      0.00000
     12      12.5789      0.00000

 k-point     7 :       0.3750    0.0000    0.0000
  band No.  band energies     occupation 
      1     -11.5822      2.00000
      2     -11.3256      2.00000
      3      -6.0013      2.00000
      4      -5.8444      2.00000
      5      -1.3893      2.00000
      6      -1.3369      2.00000
      7      -0.0666      2.00000
      8       1.5790      2.00000
      9       8.0421      0.00000
     10       9.0880      0.00000
     11      12.2984      0.00000
     12      12.5347      0.00000

 k-point     8 :       0.4375    0.0000    0.0000
  band No.  band energies     occupation 
      1     -10.4424      2.00000
      2     -10.2112      2.00000
      3      -7.5400      2.00000
      4      -7.3619      2.00000
      5      -1.6656      2.00000
      6      -1.6104      2.00000
      7       1.1328      2.00000
      8       2.3955      2.00000
      9       6.6245      0.00000
     10       7.6312      0.00000
     11      12.2027      0.00000
     12      12.6103      0.00000

 k-point     9 :       0.5000    0.0000    0.0000
  band No.  band energies     occupation 
      1      -9.4387      2.00000
      2      -9.3212      2.00000
      3      -8.5782      2.00000
      4      -8.4896      2.00000
      5      -1.7589      2.00000
      6      -1.7030      2.00000
      7       1.8794      2.00000
      8       2.5867      2.00000
      9       6.1462      0.00000
     10       6.8787      0.00000
     11      12.1562      0.00000
     12      12.5801      0.00000

 k-point    10 :       0.0625    0.0625    0.0000
  band No.  band energies     occupation 
      1     -14.6074      2.00000
      2     -14.2913      2.00000
      3      -3.6722      2.00000
      4      -1.6313      2.00000
      5       0.6826      2.00000
      6       0.7114      2.00000
      7       1.0919      2.00000
      8       1.1149      2.00000
      9       8.8675      0.00000
     10      13.2924      0.00000
     11      13.3897      0.00000
     12      14.1884      0.00000

 k-point    11 :       0.1250    0.0625    0.0000
  band No.  band energies     occupation 
      1     -14.2341      2.00000
      2     -13.9255      2.00000
      3      -3.2148      2.00000
      4      -1.2067      2.00000
      5      -0.4473      2.00000
      6      -0.3960      2.00000
      7       0.4192      2.00000
      8       0.4552      2.00000
      9       9.3247      0.00000
     10      13.4004      0.00000
     11      13.5606      0.00000
     12      14.0742      0.00000

 k-point    12 :       0.1875    0.0625    0.0000
  band No.  band energies     occupation 
      1     -13.6772      2.00000
      2     -13.3797      2.00000
      3      -2.5362      2.00000
      4      -1.9041      2.00000
      5      -1.8220      2.00000
      6      -0.5810      2.00000
      7      -0.3052      2.00000
      8      -0.2560      2.00000
      9      10.0101      0.00000
     10      12.5093      0.00000
     11      13.0289      0.00000
     12      13.3015      0.00000

 k-point    13 :       0.2500    0.0625    0.0000
  band No.  band energies     occupation 
      1     -12.9409      2.00000
      2     -12.6578      2.00000
      3      -3.5130      2.00000
      4      -3.4005      2.00000
      5      -1.6471      2.00000
      6      -0.9601      2.00000
      7      -0.9037      2.00000
      8       0.2259      2.00000
      9      10.7241      0.00000
     10      10.9171      0.00000
     11      11.4591      0.00000
     12      13.0894      0.00000

 k-point    14 :       0.3125    0.0625    0.0000
  band No.  band energies     occupation 
      1     -12.0317      2.00000
      2     -11.7663      2.00000
      3      -5.1529      2.00000
      4      -5.0112      2.00000
      5      -1.4869      2.00000
      6      -1.4261      2.00000
      7      -0.5740      2.00000
      8       1.1674      2.00000
      9       8.8915      0.00000
     10       9.8225      0.00000
     11      12.0258      0.00000
     12      12.8659      0.00000

 k-point    15 :       0.3750    0.0625    0.0000
  band No.  band energies     occupation 
      1     -10.9627      2.00000
      2     -10.7189      2.00000
      3      -6.7378      2.00000
      4      -6.5707      2.00000
      5      -1.8530      2.00000
      6      -1.7907      2.00000
      7       0.6217      2.00000
      8       2.1130      2.00000
      9       7.2438      0.00000
     10       8.2683      0.00000
     11      12.6532      0.00000
     12      13.0238      0.00000

 k-point    16 :       0.4375    0.0625    0.0000
  band No.  band energies     occupation 
      1      -9.7862      2.00000
      2      -9.5821      2.00000
      3      -8.1622      2.00000
      4      -7.9903      2.00000
      5      -2.0403      2.00000
      6      -1.9762      2.00000
      7       1.7256      2.00000
      8       2.6573      2.00000
      9       6.2486      0.00000
     10       7.0557      0.00000
     11      12.5672      0.00000
     12      13.0013      0.00000

 k-point    17 :       0.1250    0.1250    0.0000
  band No.  band energies     occupation 
      1     -13.7698      2.00000
      2     -13.4705      2.00000
      3      -2.6482      2.00000
      4      -1.4551      2.00000
      5      -1.4111      2.00000
      6      -0.6834      2.00000
      7      -0.4564      2.00000
      8      -0.4240      2.00000
      9       9.8987      0.00000
     10      12.8397      0.00000
     11      13.2487      0.00000
     12      13.9368      0.00000

 k-point    18 :       0.1875    0.1250    0.0000
  band No.  band energies     occupation 
      1     -13.1246      2.00000
      2     -12.8379      2.00000
      3      -2.7606      2.00000
      4      -2.6846      2.00000
      5      -1.8656      2.00000
      6      -1.3236      2.00000
      7      -1.2712      2.00000
      8       0.0317      2.00000
      9      10.6984      0.00000
     10      11.3212      0.00000
     11      11.8429      0.00000
     12      14.1508      0.00000

 k-point    19 :       0.2500    0.1250    0.0000
  band No.  band energies     occupation 
      1     -12.3039      2.00000
      2     -12.0332      2.00000
      3      -4.2716      2.00000
      4      -4.1559      2.00000
      5      -2.0041      2.00000
      6      -1.9330      2.00000
      7      -0.8843      2.00000
      8       0.9096      2.00000
      9       9.6300      0.00000
     10      10.3323      0.00000
     11      11.7156      0.00000
     12      14.0239      0.00000

 k-point    20 :       0.3125    0.1250    0.0000
  band No.  band energies     occupation 
      1     -11.3174      2.00000
      2     -11.0661      2.00000
      3      -5.8294      2.00000
      4      -5.6819      2.00000
      5      -2.4876      2.00000
      6      -2.4078      2.00000
      7       0.2578      2.00000
      8       1.8791      2.00000
      9       7.9432      0.00000
     10       8.8164      0.00000
     11      12.9308      0.00000
     12      13.8353      0.00000

 k-point    21 :       0.3750    0.1250    0.0000
  band No.  band energies     occupation 
      1     -10.1881      2.00000
      2      -9.9625      2.00000
      3      -7.3224      2.00000
      4      -7.1517      2.00000
      5      -2.7780      2.00000
      6      -2.6940      2.00000
      7       1.4598      2.00000
      8       2.7192      2.00000
      9       6.5811      0.00000
     10       7.4351      0.00000
     11      13.6722      0.00000
     12      14.1223      0.00000

 k-point    22 :       0.4375    0.1250    0.0000
  band No.  band energies     occupation 
      1      -9.2030      2.00000
      2      -9.0882      2.00000
      3      -8.3346      2.00000
      4      -8.2500      2.00000
      5      -2.8748      2.00000
      6      -2.7906      2.00000
      7       2.2230      2.00000
      8       2.9233      2.00000
      9       6.1434      0.00000
     10       6.6642      0.00000
     11      13.6289      0.00000
     12      14.1302      0.00000

 k-point    23 :       0.1875    0.1875    0.0000
  band No.  band energies     occupation 
      1     -12.3950      2.00000
      2     -12.1226      2.00000
      3      -3.7176      2.00000
      4      -3.6561      2.00000
      5      -2.4206      2.00000
      6      -2.3745      2.00000
      7      -0.9899      2.00000
      8       0.8218      2.00000
      9       9.9601      0.00000
     10      10.4918      0.00000
     11      11.6073      0.00000
     12      15.1444      0.00000

 k-point    24 :       0.2500    0.1875    0.0000
  band No.  band energies     occupation 
      1     -11.4965      2.00000
      2     -11.2416      2.00000
      3      -4.9622      2.00000
      4      -4.8579      2.00000
      5      -3.2460      2.00000
      6      -3.1701      2.00000
      7       0.0705      2.00000
      8       1.7500      2.00000
      9       8.4736      0.00000
     10       9.1067      0.00000
     11      12.7230      0.00000
     12      15.3544      0.00000

 k-point    25 :       0.3125    0.1875    0.0000
  band No.  band energies     occupation 
      1     -10.4444      2.00000
      2     -10.2114      2.00000
      3      -6.3730      2.00000
      4      -6.2265      2.00000
      5      -3.7276      2.00000
      6      -3.6299      2.00000
      7       1.2596      2.00000
      8       2.7146      2.00000
      9       7.0203      0.00000
     10       7.7578      0.00000
     11      14.0197      0.00000
     12      15.2102      0.00000

 k-point    26 :       0.3750    0.1875    0.0000
  band No.  band energies     occupation 
      1      -9.2968      2.00000
      2      -9.1039      2.00000
      3      -7.7110      2.00000
      4      -7.5543      2.00000
      5      -3.9508      2.00000
      6      -3.8455      2.00000
      7       2.3883      2.00000
      8       3.3227      2.00000
      9       6.0989      0.00000
     10       6.5971      0.00000
     11      15.0900      0.00000
     12      15.4730      0.00000

 k-point    27 :       0.2500    0.2500    0.0000
  band No.  band energies     occupation 
      1     -10.5314      2.00000
      2     -10.2963      2.00000
      3      -5.7193      2.00000
      4      -5.6405      2.00000
      5      -4.3437      2.00000
      6      -4.2847      2.00000
      7       1.1881      2.00000
      8       2.7032      2.00000
      9       7.2422      0.00000
     10       7.8671      0.00000
     11      13.9113      0.00000
     12      16.5630      0.00000

 k-point    28 :       0.3125    0.2500    0.0000
  band No.  band energies     occupation 
      1      -9.4375      2.00000
      2      -9.2288      2.00000
      3      -6.8076      2.00000
      4      -6.6804      2.00000
      5      -4.9703      2.00000
      6      -4.8727      2.00000
      7       2.3912      2.00000
      8       3.6216      2.00000
      9       6.0547      0.00000
     10       6.6966      0.00000
     11      15.2248      0.00000
[...]
   30.412495    0.750765    0.750765    0.763314   -0.000000   -0.000000    0.000000
   30.450274    0.751487    0.751487    0.764045   -0.000000   -0.000000    0.000000
   30.488054    0.752206    0.752206    0.764771   -0.000000   -0.000000    0.000000
   30.525833    0.752922    0.752922    0.765495   -0.000000   -0.000000    0.000000
   30.563613    0.753634    0.753634    0.766214   -0.000000   -0.000000    0.000000
   30.601392    0.754342    0.754342    0.766930   -0.000000   -0.000000    0.000000
   30.639172    0.755047    0.755047    0.767642   -0.000000   -0.000000    0.000000
   30.676951    0.755749    0.755749    0.768350   -0.000000   -0.000000    0.000000
   30.714731    0.756447    0.756447    0.769055   -0.000000   -0.000000    0.000000
   30.752510    0.757142    0.757142    0.769757   -0.000000   -0.000000    0.000000
   30.790290    0.757834    0.757834    0.770455   -0.000000   -0.000000    0.000000
   30.828069    0.758522    0.758522    0.771149   -0.000000   -0.000000    0.000000
   30.865849    0.759207    0.759207    0.771840   -0.000000   -0.000000    0.000000
   30.903628    0.759889    0.759889    0.772527   -0.000000   -0.000000    0.000000
   30.941408    0.760568    0.760568    0.773212   -0.000000   -0.000000    0.000000
   30.979187    0.761244    0.761244    0.773892   -0.000000   -0.000000    0.000000
   31.016967    0.761916    0.761916    0.774570   -0.000000   -0.000000    0.000000
   31.054746    0.762585    0.762585    0.775244   -0.000000   -0.000000    0.000000
   31.092526    0.763252    0.763252    0.775914   -0.000000   -0.000000    0.000000
   31.130305    0.763915    0.763915    0.776582   -0.000000   -0.000000    0.000000
   31.168084    0.764575    0.764575    0.777246   -0.000000   -0.000000    0.000000
   31.205864    0.765232    0.765232    0.777907   -0.000000   -0.000000    0.000000
   31.243643    0.765886    0.765886    0.778564   -0.000000   -0.000000    0.000000
   31.281423    0.766537    0.766537    0.779219   -0.000000   -0.000000    0.000000
   31.319202    0.767185    0.767185    0.779870   -0.000000   -0.000000    0.000000
   31.356982    0.767830    0.767830    0.780518   -0.000000   -0.000000    0.000000
   31.394761    0.768472    0.768472    0.781163   -0.000000   -0.000000    0.000000
   31.432541    0.769112    0.769112    0.781805   -0.000000   -0.000000    0.000000
   31.470320    0.769748    0.769748    0.782444   -0.000000   -0.000000    0.000000
   31.508100    0.770382    0.770382    0.783080   -0.000000   -0.000000    0.000000
   31.545879    0.771012    0.771012    0.783713   -0.000000   -0.000000    0.000000
   31.583659    0.771640    0.771640    0.784343   -0.000000   -0.000000    0.000000
   31.621438    0.772265    0.772265    0.784969   -0.000000   -0.000000    0.000000
   31.659218    0.772888    0.772888    0.785593   -0.000000   -0.000000    0.000000
   31.696997    0.773507    0.773507    0.786214   -0.000000   -0.000000    0.000000
   31.734777    0.774124    0.774124    0.786832   -0.000000   -0.000000    0.000000
   31.772556    0.774738    0.774738    0.787447   -0.000000   -0.000000    0.000000
   31.810336    0.775349    0.775349    0.788059   -0.000000   -0.000000    0.000000
   31.848115    0.775958    0.775958    0.788669   -0.000000   -0.000000    0.000000
   31.885895    0.776564    0.776564    0.789275   -0.000000   -0.000000    0.000000
   31.923674    0.777167    0.777167    0.789879   -0.000000   -0.000000    0.000000
   31.961454    0.777768    0.777768    0.790480   -0.000000   -0.000000    0.000000
   31.999233    0.778366    0.778366    0.791078   -0.000000   -0.000000    0.000000
   32.037013    0.778962    0.778962    0.791673   -0.000000   -0.000000    0.000000
   32.074792    0.779555    0.779555    0.792266   -0.000000   -0.000000    0.000000
   32.112572    0.780145    0.780145    0.792856   -0.000000   -0.000000    0.000000
   32.150351    0.780733    0.780733    0.793443   -0.000000   -0.000000    0.000000
   32.188131    0.781318    0.781318    0.794027   -0.000000   -0.000000    0.000000
   32.225910    0.781901    0.781901    0.794609   -0.000000   -0.000000    0.000000
   32.263690    0.782481    0.782481    0.795188   -0.000000   -0.000000    0.000000
   32.301469    0.783059    0.783059    0.795765   -0.000000   -0.000000    0.000000
   32.339249    0.783634    0.783634    0.796338   -0.000000   -0.000000    0.000000
   32.377028    0.784207    0.784207    0.796909   -0.000000   -0.000000    0.000000
   32.414808    0.784777    0.784777    0.797478   -0.000000   -0.000000    0.000000
   32.452587    0.785345    0.785345    0.798044   -0.000000   -0.000000    0.000000
   32.490367    0.785911    0.785911    0.798608   -0.000000   -0.000000    0.000000
   32.528146    0.786474    0.786474    0.799169   -0.000000   -0.000000    0.000000
   32.565926    0.787034    0.787034    0.799727   -0.000000   -0.000000    0.000000
   32.603705    0.787593    0.787593    0.800283   -0.000000   -0.000000    0.000000
   32.641485    0.788149    0.788149    0.800837   -0.000000   -0.000000    0.000000
   32.679264    0.788703    0.788703    0.801388   -0.000000   -0.000000    0.000000
   32.717044    0.789254    0.789254    0.801936   -0.000000   -0.000000    0.000000
   32.754823    0.789803    0.789803    0.802482   -0.000000   -0.000000    0.000000
   32.792603    0.790350    0.790350    0.803026   -0.000000   -0.000000    0.000000
   32.830382    0.790895    0.790895    0.803567   -0.000000   -0.000000    0.000000
   32.868162    0.791437    0.791437    0.804106   -0.000000   -0.000000    0.000000
   32.905941    0.791977    0.791977    0.804643   -0.000000   -0.000000    0.000000
   32.943721    0.792515    0.792515    0.805177   -0.000000   -0.000000    0.000000
   32.981500    0.793050    0.793050    0.805709   -0.000000   -0.000000    0.000000
   33.019280    0.793584    0.793584    0.806239   -0.000000   -0.000000    0.000000
   33.057059    0.794115    0.794115    0.806766   -0.000000   -0.000000    0.000000
   33.094839    0.794644    0.794644    0.807291   -0.000000   -0.000000    0.000000
   33.132618    0.795171    0.795171    0.807813   -0.000000   -0.000000    0.000000
   33.170398    0.795695    0.795695    0.808333   -0.000000   -0.000000    0.000000
   33.208177    0.796218    0.796218    0.808852   -0.000000   -0.000000    0.000000
   33.245957    0.796738    0.796738    0.809367   -0.000000   -0.000000    0.000000
   33.283736    0.797256    0.797256    0.809881   -0.000000   -0.000000    0.000000
   33.321516    0.797773    0.797773    0.810392   -0.000000   -0.000000    0.000000
   33.359295    0.798287    0.798287    0.810902   -0.000000   -0.000000    0.000000
   33.397075    0.798799    0.798799    0.811409   -0.000000   -0.000000    0.000000
   33.434854    0.799309    0.799309    0.811914   -0.000000   -0.000000    0.000000
   33.472634    0.799816    0.799816    0.812416   -0.000000   -0.000000    0.000000
   33.510413    0.800322    0.800322    0.812917   -0.000000   -0.000000    0.000000
   33.548193    0.800826    0.800826    0.813415   -0.000000   -0.000000    0.000000
   33.585972    0.801328    0.801328    0.813911   -0.000000   -0.000000    0.000000
   33.623752    0.801828    0.801828    0.814406   -0.000000   -0.000000    0.000000
   33.661531    0.802325    0.802325    0.814898   -0.000000   -0.000000    0.000000
   33.699311    0.802821    0.802821    0.815388   -0.000000   -0.000000    0.000000
   33.737090    0.803315    0.803315    0.815876   -0.000000   -0.000000    0.000000
   33.774870    0.803807    0.803807    0.816361   -0.000000   -0.000000    0.000000
   33.812649    0.804297    0.804297    0.816845   -0.000000   -0.000000    0.000000
   33.850429    0.804785    0.804785    0.817327   -0.000000   -0.000000    0.000000
   33.888208    0.805271    0.805271    0.817807   -0.000000   -0.000000    0.000000
   33.925988    0.805755    0.805755    0.818285   -0.000000   -0.000000    0.000000
   33.963767    0.806237    0.806237    0.818760   -0.000000   -0.000000    0.000000
   34.001547    0.806717    0.806717    0.819234   -0.000000   -0.000000    0.000000
   34.039326    0.807196    0.807196    0.819706   -0.000000   -0.000000    0.000000
   34.077106    0.807672    0.807672    0.820176   -0.000000   -0.000000    0.000000
   34.114885    0.808147    0.808147    0.820644   -0.000000   -0.000000    0.000000
   34.152665    0.808620    0.808620    0.821110   -0.000000   -0.000000    0.000000
   34.190444    0.809091    0.809091    0.821574   -0.000000   -0.000000    0.000000
   34.228224    0.809560    0.809560    0.822036   -0.000000   -0.000000    0.000000
   34.266003    0.810027    0.810027    0.822496   -0.000000   -0.000000    0.000000
   34.303783    0.810493    0.810493    0.822954   -0.000000   -0.000000    0.000000
   34.341562    0.810957    0.810957    0.823411   -0.000000   -0.000000    0.000000
   34.379342    0.811419    0.811419    0.823865   -0.000000   -0.000000    0.000000
   34.417121    0.811879    0.811879    0.824318   -0.000000   -0.000000    0.000000
   34.454901    0.812337    0.812337    0.824769   -0.000000   -0.000000    0.000000
   34.492680    0.812794    0.812794    0.825218   -0.000000   -0.000000    0.000000
   34.530460    0.813249    0.813249    0.825665   -0.000000   -0.000000    0.000000
   34.568239    0.813702    0.813702    0.826110   -0.000000   -0.000000    0.000000
   34.606019    0.814153    0.814153    0.826554   -0.000000   -0.000000    0.000000
   34.643798    0.814603    0.814603    0.826996   -0.000000   -0.000000    0.000000
   34.681578    0.815051    0.815051    0.827436   -0.000000   -0.000000    0.000000
   34.719357    0.815497    0.815497    0.827874   -0.000000   -0.000000    0.000000
   34.757137    0.815942    0.815942    0.828310   -0.000000   -0.000000    0.000000
   34.794916    0.816384    0.816384    0.828745   -0.000000   -0.000000    0.000000
   34.832696    0.816826    0.816826    0.829178   -0.000000   -0.000000    0.000000
   34.870475    0.817265    0.817265    0.829609   -0.000000   -0.000000    0.000000
   34.908255    0.817703    0.817703    0.830039   -0.000000   -0.000000    0.000000
   34.946034    0.818139    0.818139    0.830466   -0.000000   -0.000000    0.000000
   34.983814    0.818574    0.818574    0.830892   -0.000000   -0.000000    0.000000
   35.021593    0.819007    0.819007    0.831317   -0.000000   -0.000000    0.000000
   35.059373    0.819438    0.819438    0.831739   -0.000000   -0.000000    0.000000
   35.097152    0.819868    0.819868    0.832161   -0.000000   -0.000000    0.000000
   35.134932    0.820296    0.820296    0.832580   -0.000000   -0.000000    0.000000
   35.172711    0.820722    0.820722    0.832998   -0.000000   -0.000000    0.000000
   35.210491    0.821147    0.821147    0.833414   -0.000000   -0.000000    0.000000
   35.248270    0.821570    0.821570    0.833828   -0.000000   -0.000000    0.000000
   35.286050    0.821992    0.821992    0.834241   -0.000000   -0.000000    0.000000
   35.323829    0.822412    0.822412    0.834652   -0.000000   -0.000000    0.000000
   35.361609    0.822831    0.822831    0.835061   -0.000000   -0.000000    0.000000
   35.399388    0.823248    0.823248    0.835469   -0.000000   -0.000000    0.000000
   35.437168    0.823664    0.823664    0.835876   -0.000000   -0.000000    0.000000
   35.474947    0.824077    0.824077    0.836280   -0.000000   -0.000000    0.000000
   35.512727    0.824490    0.824490    0.836684   -0.000000   -0.000000    0.000000
   35.550506    0.824901    0.824901    0.837085   -0.000000   -0.000000    0.000000
   35.588286    0.825310    0.825310    0.837485   -0.000000   -0.000000    0.000000
   35.626065    0.825718    0.825718    0.837884   -0.000000   -0.000000    0.000000
   35.663845    0.826125    0.826125    0.838281   -0.000000   -0.000000    0.000000
   35.701624    0.826530    0.826530    0.838676   -0.000000   -0.000000    0.000000
   35.739404    0.826933    0.826933    0.839070   -0.000000   -0.000000    0.000000
   35.777183    0.827335    0.827335    0.839462   -0.000000   -0.000000    0.000000
   35.814963    0.827735    0.827735    0.839853   -0.000000   -0.000000    0.000000
   35.852742    0.828135    0.828135    0.840242   -0.000000   -0.000000    0.000000
   35.890522    0.828532    0.828532    0.840630   -0.000000   -0.000000    0.000000
   35.928301    0.828928    0.828928    0.841017   -0.000000   -0.000000    0.000000
   35.966081    0.829323    0.829323    0.841402   -0.000000   -0.000000    0.000000
   36.003860    0.829717    0.829717    0.841785   -0.000000   -0.000000    0.000000
   36.041640    0.830108    0.830108    0.842167   -0.000000   -0.000000    0.000000
   36.079419    0.830499    0.830499    0.842547   -0.000000   -0.000000    0.000000
   36.117199    0.830888    0.830888    0.842926   -0.000000   -0.000000    0.000000
   36.154978    0.831276    0.831276    0.843304   -0.000000   -0.000000    0.000000
   36.192758    0.831662    0.831662    0.843680   -0.000000   -0.000000    0.000000
   36.230537    0.832047    0.832047    0.844055   -0.000000   -0.000000    0.000000
   36.268317    0.832430    0.832430    0.844428   -0.000000   -0.000000    0.000000
   36.306096    0.832813    0.832813    0.844800   -0.000000   -0.000000    0.000000
   36.343875    0.833193    0.833193    0.845171   -0.000000   -0.000000    0.000000
   36.381655    0.833573    0.833573    0.845540   -0.000000   -0.000000    0.000000
   36.419434    0.833951    0.833951    0.845908   -0.000000   -0.000000    0.000000
   36.457214    0.834328    0.834328    0.846274   -0.000000   -0.000000    0.000000
   36.494993    0.834703    0.834703    0.846639   -0.000000   -0.000000    0.000000
   36.532773    0.835077    0.835077    0.847003   -0.000000   -0.000000    0.000000
   36.570552    0.835450    0.835450    0.847365   -0.000000   -0.000000    0.000000
   36.608332    0.835822    0.835822    0.847726   -0.000000   -0.000000    0.000000
   36.646111    0.836192    0.836192    0.848086   -0.000000   -0.000000    0.000000
   36.683891    0.836561    0.836561    0.848444   -0.000000   -0.000000    0.000000
   36.721670    0.836928    0.836928    0.848801   -0.000000   -0.000000    0.000000
   36.759450    0.837294    0.837294    0.849157   -0.000000   -0.000000    0.000000
   36.797229    0.837659    0.837659    0.849511   -0.000000   -0.000000    0.000000
   36.835009    0.838023    0.838023    0.849864   -0.000000   -0.000000    0.000000
   36.872788    0.838385    0.838385    0.850216   -0.000000   -0.000000    0.000000
   36.910568    0.838747    0.838747    0.850566   -0.000000   -0.000000    0.000000
   36.948347    0.839107    0.839107    0.850915   -0.000000   -0.000000    0.000000
   36.986127    0.839465    0.839465    0.851263   -0.000000   -0.000000    0.000000
   37.023906    0.839823    0.839823    0.851609   -0.000000   -0.000000    0.000000
   37.061686    0.840179    0.840179    0.851955   -0.000000   -0.000000    0.000000
   37.099465    0.840534    0.840534    0.852299   -0.000000   -0.000000    0.000000
   37.137245    0.840887    0.840887    0.852642   -0.000000   -0.000000    0.000000
   37.175024    0.841240    0.841240    0.852983   -0.000000   -0.000000    0.000000
   37.212804    0.841591    0.841591    0.853323   -0.000000   -0.000000    0.000000
   37.250583    0.841941    0.841941    0.853662   -0.000000   -0.000000    0.000000
   37.288363    0.842290    0.842290    0.854000   -0.000000   -0.000000    0.000000
   37.326142    0.842638    0.842638    0.854337   -0.000000   -0.000000    0.000000
   37.363922    0.842984    0.842984    0.854672   -0.000000   -0.000000    0.000000
   37.401701    0.843329    0.843329    0.855006   -0.000000   -0.000000    0.000000
   37.439481    0.843674    0.843674    0.855339   -0.000000   -0.000000    0.000000
   37.477260    0.844017    0.844017    0.855671   -0.000000   -0.000000    0.000000
   37.515040    0.844358    0.844358    0.856002   -0.000000   -0.000000    0.000000
   37.552819    0.844699    0.844699    0.856331   -0.000000   -0.000000    0.000000
   37.590599    0.845038    0.845038    0.856659   -0.000000   -0.000000    0.000000
   37.628378    0.845377    0.845377    0.856986   -0.000000   -0.000000    0.000000
   37.666158    0.845714    0.845714    0.857312   -0.000000   -0.000000    0.000000
   37.703937    0.846050    0.846050    0.857637   -0.000000   -0.000000    0.000000
   37.741717    0.846384    0.846384    0.857960   -0.000000   -0.000000    0.000000
 
 The outermost node in the dielectric function lies at epsilon=  18.2


--------------------------------------------------------------------------------------------------------


    OPTICS:  cpu time    0.97: real time    1.00
    4ORBIT:  cpu time    0.00: real time    0.00

volume of typ            1:    30.9 %
 
total charge     
 
# of ion     s       p       d       tot
----------------------------------------
  1        0.873   1.911   0.073   2.857
  2        0.872   1.916   0.072   2.859
  3        0.872   1.916   0.072   2.859
  4        0.873   1.911   0.073   2.857
------------------------------------------------
tot         3.49    7.65    0.29   11.43
 
orbital moment (x)
 
# of ion   s             p             d             tot
---------------------------------------------------------------
   1     0.000000E+00  0.451677E-04 -0.461764E-04 -0.100866E-05
   2     0.000000E+00  0.525957E-03 -0.151771E-04  0.510780E-03
   3     0.000000E+00 -0.526740E-03  0.151779E-04 -0.511562E-03
   4     0.000000E+00 -0.462933E-04  0.461410E-04 -0.152251E-06
----------------------------------------------------------------------------
tot      0.000000E+00 -0.190778E-05 -0.346140E-07 -0.194239E-05
 
orbital moment (y)
 
# of ion   s             p             d             tot
---------------------------------------------------------------
   1     0.000000E+00 -0.326497E-03  0.231310E-03 -0.951871E-04
   2     0.000000E+00 -0.667508E-03 -0.446647E-04 -0.712173E-03
   3     0.000000E+00  0.666771E-03  0.446357E-04  0.711407E-03
   4     0.000000E+00  0.326370E-03 -0.231281E-03  0.950892E-04
----------------------------------------------------------------------------
tot      0.000000E+00 -0.863469E-06 -0.433886E-09 -0.863903E-06
 
orbital moment (z)
 
# of ion   s             p             d             tot
---------------------------------------------------------------
   1     0.000000E+00 -0.866487E-01 -0.226657E-01 -0.109314E+00
   2     0.000000E+00  0.866744E-01  0.229165E-01  0.109591E+00
   3     0.000000E+00 -0.866744E-01 -0.229165E-01 -0.109591E+00
   4     0.000000E+00  0.866491E-01  0.226658E-01  0.109315E+00
----------------------------------------------------------------------------
tot      0.000000E+00  0.425926E-06  0.563791E-07  0.482305E-06
 
 BZINTS: Fermi energy:  4.515418; 16.000000 electrons
         Band energy: -70.587829;  BLOECHL correction:  0.000000

 total amount of memory used by VASP on root node    54118. kBytes
========================================================================

   base      :      30000. kBytes
   nonl-proj :       5002. kBytes
   grid      :       3483. kBytes
   one-center:         12. kBytes
   wavefun   :      15621. kBytes
 
  
  
 General timing and accounting informations for this job:
 ========================================================
  
                  Total CPU time used (sec):       18.217
                            User time (sec):       17.410
                          System time (sec):        0.807
                         Elapsed time (sec):       18.689
  
                   Maximum memory used (kb):      108632.
                   Average memory used (kb):           0.
  
                          Minor page faults:        23522
                          Major page faults:           44
                 Voluntary context switches:          513
