<?xml version="1.0" encoding="ISO-8859-1"?>
<modeling>
 <generator>
  <i name="program" type="string">vasp </i>
  <i name="version" type="string">5.3.5  </i>
  <i name="subversion" type="string">31Mar14 (build Dec 14 2018 19:18:10) complex                          serial </i>
  <i name="platform" type="string">LinuxIFC </i>
  <i name="date" type="string">2022 11 14 </i>
  <i name="time" type="string">15:50:23 </i>
 </generator>
 <incar>
  <i type="string" name="SYSTEM"> graphite</i>
  <i type="string" name="PREC">normal</i>
  <v name="RWIGS">      0.86300000</v>
  <i type="int" name="ISMEAR">    -4</i>
  <i type="logical" name="LOPTICS"> T  </i>
  <i type="logical" name="LSCALAPACK"> F  </i>
 </incar>
 <kpoints>
  <generation param="Gamma">
   <v type="int" name="divisions">      16       16        6 </v>
   <v name="usershift">      0.00000000       0.00000000       0.00000000 </v>
   <v name="genvec1">      0.06250000       0.00000000       0.00000000 </v>
   <v name="genvec2">      0.00000000       0.06250000       0.00000000 </v>
   <v name="genvec3">      0.00000000       0.00000000       0.16666667 </v>
   <v name="shift">      0.00000000       0.00000000       0.00000000 </v>
  </generation>
  <varray name="kpointlist" >
   <v>       0.00000000       0.00000000       0.00000000 </v>
   <v>       0.06250000       0.00000000       0.00000000 </v>
   <v>       0.12500000       0.00000000       0.00000000 </v>
   <v>       0.18750000       0.00000000       0.00000000 </v>
   <v>       0.25000000       0.00000000       0.00000000 </v>
   <v>       0.31250000       0.00000000       0.00000000 </v>
   <v>       0.37500000       0.00000000       0.00000000 </v>
   <v>       0.43750000       0.00000000       0.00000000 </v>
   <v>       0.50000000       0.00000000       0.00000000 </v>
   <v>       0.06250000       0.06250000       0.00000000 </v>
   <v>       0.12500000       0.06250000       0.00000000 </v>
   <v>       0.18750000       0.06250000       0.00000000 </v>
   <v>       0.25000000       0.06250000       0.00000000 </v>
   <v>       0.31250000       0.06250000       0.00000000 </v>
   <v>       0.37500000       0.06250000       0.00000000 </v>
   <v>       0.43750000       0.06250000       0.00000000 </v>
   <v>       0.12500000       0.12500000       0.00000000 </v>
   <v>       0.18750000       0.12500000       0.00000000 </v>
   <v>       0.25000000       0.12500000       0.00000000 </v>
   <v>       0.31250000       0.12500000       0.00000000 </v>
   <v>       0.37500000       0.12500000       0.00000000 </v>
   <v>       0.43750000       0.12500000       0.00000000 </v>
   <v>       0.18750000       0.18750000       0.00000000 </v>
   <v>       0.25000000       0.18750000       0.00000000 </v>
   <v>       0.31250000       0.18750000       0.00000000 </v>
   <v>       0.37500000       0.18750000       0.00000000 </v>
   <v>       0.25000000       0.25000000       0.00000000 </v>
   <v>       0.31250000       0.25000000       0.00000000 </v>
   <v>       0.37500000       0.25000000       0.00000000 </v>
   <v>       0.31250000       0.31250000       0.00000000 </v>
   <v>       0.00000000       0.00000000       0.16666667 </v>
   <v>       0.06250000       0.00000000       0.16666667 </v>
   <v>       0.12500000       0.00000000       0.16666667 </v>
   <v>       0.18750000       0.00000000       0.16666667 </v>
   <v>       0.25000000       0.00000000       0.16666667 </v>
   <v>       0.31250000       0.00000000       0.16666667 </v>
   <v>       0.37500000       0.00000000       0.16666667 </v>
   <v>       0.43750000       0.00000000       0.16666667 </v>
   <v>       0.50000000       0.00000000       0.16666667 </v>
   <v>       0.06250000       0.06250000       0.16666667 </v>
   <v>       0.12500000       0.06250000       0.16666667 </v>
   <v>       0.18750000       0.06250000       0.16666667 </v>
   <v>       0.25000000       0.06250000       0.16666667 </v>
   <v>       0.31250000       0.06250000       0.16666667 </v>
   <v>       0.37500000       0.06250000       0.16666667 </v>
   <v>       0.43750000       0.06250000       0.16666667 </v>
   <v>       0.12500000       0.12500000       0.16666667 </v>
   <v>       0.18750000       0.12500000       0.16666667 </v>
   <v>       0.25000000       0.12500000       0.16666667 </v>
   <v>       0.31250000       0.12500000       0.16666667 </v>
   <v>       0.37500000       0.12500000       0.16666667 </v>
   <v>       0.43750000       0.12500000       0.16666667 </v>
   <v>       0.18750000       0.18750000       0.16666667 </v>
   <v>       0.25000000       0.18750000       0.16666667 </v>
   <v>       0.31250000       0.18750000       0.16666667 </v>
   <v>       0.37500000       0.18750000       0.16666667 </v>
   <v>       0.25000000       0.25000000       0.16666667 </v>
   <v>       0.31250000       0.25000000       0.16666667 </v>
   <v>       0.37500000       0.25000000       0.16666667 </v>
   <v>       0.31250000       0.31250000       0.16666667 </v>
   <v>       0.00000000       0.00000000       0.33333333 </v>
   <v>       0.06250000       0.00000000       0.33333333 </v>
   <v>       0.12500000       0.00000000       0.33333333 </v>
   <v>       0.18750000       0.00000000       0.33333333 </v>
   <v>       0.25000000       0.00000000       0.33333333 </v>
   <v>       0.31250000       0.00000000       0.33333333 </v>
   <v>       0.37500000       0.00000000       0.33333333 </v>
   <v>       0.43750000       0.00000000       0.33333333 </v>
   <v>       0.50000000       0.00000000       0.33333333 </v>
   <v>       0.06250000       0.06250000       0.33333333 </v>
   <v>       0.12500000       0.06250000       0.33333333 </v>
   <v>       0.18750000       0.06250000       0.33333333 </v>
   <v>       0.25000000       0.06250000       0.33333333 </v>
   <v>       0.31250000       0.06250000       0.33333333 </v>
   <v>       0.37500000       0.06250000       0.33333333 </v>
   <v>       0.43750000       0.06250000       0.33333333 </v>
   <v>       0.12500000       0.12500000       0.33333333 </v>
   <v>       0.18750000       0.12500000       0.33333333 </v>
   <v>       0.25000000       0.12500000       0.33333333 </v>
   <v>       0.31250000       0.12500000       0.33333333 </v>
   <v>       0.37500000       0.12500000       0.33333333 </v>
   <v>       0.43750000       0.12500000       0.33333333 </v>
   <v>       0.18750000       0.18750000       0.33333333 </v>
   <v>       0.25000000       0.18750000       0.33333333 </v>
   <v>       0.31250000       0.18750000       0.33333333 </v>
   <v>       0.37500000       0.18750000       0.33333333 </v>
   <v>       0.25000000       0.25000000       0.33333333 </v>
   <v>       0.31250000       0.25000000       0.33333333 </v>
   <v>       0.37500000       0.25000000       0.33333333 </v>
   <v>       0.31250000       0.31250000       0.33333333 </v>
   <v>       0.00000000       0.00000000       0.50000000 </v>
   <v>       0.06250000       0.00000000       0.50000000 </v>
   <v>       0.12500000       0.00000000       0.50000000 </v>
   <v>       0.18750000       0.00000000       0.50000000 </v>
   <v>       0.25000000       0.00000000       0.50000000 </v>
   <v>       0.31250000       0.00000000       0.50000000 </v>
   <v>       0.37500000       0.00000000       0.50000000 </v>
   <v>       0.43750000       0.00000000       0.50000000 </v>
   <v>       0.50000000       0.00000000       0.50000000 </v>
   <v>       0.06250000       0.06250000       0.50000000 </v>
   <v>       0.12500000       0.06250000       0.50000000 </v>
   <v>       0.18750000       0.06250000       0.50000000 </v>
   <v>       0.25000000       0.06250000       0.50000000 </v>
   <v>       0.31250000       0.06250000       0.50000000 </v>
   <v>       0.37500000       0.06250000       0.50000000 </v>
   <v>       0.43750000       0.06250000       0.50000000 </v>
   <v>       0.12500000       0.12500000       0.50000000 </v>
   <v>       0.18750000       0.12500000       0.50000000 </v>
   <v>       0.25000000       0.12500000       0.50000000 </v>
   <v>       0.31250000       0.12500000       0.50000000 </v>
   <v>       0.37500000       0.12500000       0.50000000 </v>
   <v>       0.43750000       0.12500000       0.50000000 </v>
   <v>       0.18750000       0.18750000       0.50000000 </v>
   <v>       0.25000000       0.18750000       0.50000000 </v>
   <v>       0.31250000       0.18750000       0.50000000 </v>
   <v>       0.37500000       0.18750000       0.50000000 </v>
   <v>       0.25000000       0.25000000       0.50000000 </v>
   <v>       0.31250000       0.25000000       0.50000000 </v>
   <v>       0.37500000       0.25000000       0.50000000 </v>
   <v>       0.31250000       0.31250000       0.50000000 </v>
  </varray>
  <varray name="weights" >
   <v>       0.00065104 </v>
   <v>       0.00390625 </v>
   <v>       0.00390625 </v>
   <v>       0.00390625 </v>
   <v>       0.00390625 </v>
   <v>       0.00390625 </v>
   <v>       0.00390625 </v>
   <v>       0.00390625 </v>
   <v>       0.00195312 </v>
   <v>       0.00390625 </v>
   <v>       0.00781250 </v>
   <v>       0.00781250 </v>
   <v>       0.00781250 </v>
   <v>       0.00781250 </v>
   <v>       0.00781250 </v>
   <v>       0.00781250 </v>
   <v>       0.00390625 </v>
   <v>       0.00781250 </v>
   <v>       0.00781250 </v>
   <v>       0.00781250 </v>
   <v>       0.00781250 </v>
   <v>       0.00390625 </v>
   <v>       0.00390625 </v>
   <v>       0.00781250 </v>
   <v>       0.00781250 </v>
   <v>       0.00781250 </v>
   <v>       0.00390625 </v>
   <v>       0.00781250 </v>
   <v>       0.00390625 </v>
   <v>       0.00390625 </v>
   <v>       0.00130208 </v>
   <v>       0.00781250 </v>
   <v>       0.00781250 </v>
   <v>       0.00781250 </v>
   <v>       0.00781250 </v>
   <v>       0.00781250 </v>
   <v>       0.00781250 </v>
   <v>       0.00781250 </v>
   <v>       0.00390625 </v>
   <v>       0.00781250 </v>
   <v>       0.01562500 </v>
   <v>       0.01562500 </v>
   <v>       0.01562500 </v>
   <v>       0.01562500 </v>
   <v>       0.01562500 </v>
   <v>       0.01562500 </v>
   <v>       0.00781250 </v>
   <v>       0.01562500 </v>
   <v>       0.01562500 </v>
   <v>       0.01562500 </v>
   <v>       0.01562500 </v>
   <v>       0.00781250 </v>
   <v>       0.00781250 </v>
   <v>       0.01562500 </v>
   <v>       0.01562500 </v>
   <v>       0.01562500 </v>
   <v>       0.00781250 </v>
   <v>       0.01562500 </v>
   <v>       0.00781250 </v>
   <v>       0.00781250 </v>
   <v>       0.00130208 </v>
   <v>       0.00781250 </v>
   <v>       0.00781250 </v>
   <v>       0.00781250 </v>
   <v>       0.00781250 </v>
   <v>       0.00781250 </v>
   <v>       0.00781250 </v>
   <v>       0.00781250 </v>
   <v>       0.00390625 </v>
   <v>       0.00781250 </v>
   <v>       0.01562500 </v>
   <v>       0.01562500 </v>
   <v>       0.01562500 </v>
   <v>       0.01562500 </v>
   <v>       0.01562500 </v>
   <v>       0.01562500 </v>
   <v>       0.00781250 </v>
   <v>       0.01562500 </v>
   <v>       0.01562500 </v>
   <v>       0.01562500 </v>
   <v>       0.01562500 </v>
   <v>       0.00781250 </v>
   <v>       0.00781250 </v>
   <v>       0.01562500 </v>
   <v>       0.01562500 </v>
   <v>       0.01562500 </v>
   <v>       0.00781250 </v>
   <v>       0.01562500 </v>
   <v>       0.00781250 </v>
   <v>       0.00781250 </v>
   <v>       0.00065104 </v>
   <v>       0.00390625 </v>
   <v>       0.00390625 </v>
   <v>       0.00390625 </v>
   <v>       0.00390625 </v>
   <v>       0.00390625 </v>
   <v>       0.00390625 </v>
   <v>       0.00390625 </v>
   <v>       0.00195312 </v>
   <v>       0.00390625 </v>
   <v>       0.00781250 </v>
   <v>       0.00781250 </v>
   <v>       0.00781250 </v>
   <v>       0.00781250 </v>
   <v>       0.00781250 </v>
   <v>       0.00781250 </v>
   <v>       0.00390625 </v>
   <v>       0.00781250 </v>
   <v>       0.00781250 </v>
   <v>       0.00781250 </v>
   <v>       0.00781250 </v>
   <v>       0.00390625 </v>
   <v>       0.00390625 </v>
   <v>       0.00781250 </v>
   <v>       0.00781250 </v>
   <v>       0.00781250 </v>
   <v>       0.00390625 </v>
   <v>       0.00781250 </v>
   <v>       0.00390625 </v>
   <v>       0.00390625 </v>
  </varray>
  <varray name="tetrahedronlist"  type="int" >
   <v type="int" >        8        2        2       10       32 </v>
   <v type="int" >        8        1        2        2       32 </v>
   <v type="int" >        4        1        2       31       32 </v>
   <v type="int" >        4        2       10       32       40 </v>
   <v type="int" >        8        2       32       32       40 </v>
   <v type="int" >        8        2       31       32       32 </v>
   <v type="int" >        8        3       10       11       40 </v>
   <v type="int" >        8        2        3       10       40 </v>
   <v type="int" >        4        2        3       32       40 </v>
   <v type="int" >        4        3       11       40       41 </v>
   <v type="int" >        8        3       33       40       41 </v>
   <v type="int" >        8        3       32       33       40 </v>
   <v type="int" >        8        4       11       12       41 </v>
   <v type="int" >        8        3        4       11       41 </v>
   <v type="int" >        4        3        4       33       41 </v>
   <v type="int" >        4        4       12       41       42 </v>
   <v type="int" >        8        4       34       41       42 </v>
   <v type="int" >        8        4       33       34       41 </v>
   <v type="int" >        8        5       12       13       42 </v>
   <v type="int" >        8        4        5       12       42 </v>
   <v type="int" >        4        4        5       34       42 </v>
   <v type="int" >        4        5       13       42       43 </v>
   <v type="int" >        8        5       35       42       43 </v>
   <v type="int" >        8        5       34       35       42 </v>
   <v type="int" >        8        6       13       14       43 </v>
   <v type="int" >        8        5        6       13       43 </v>
   <v type="int" >        4        5        6       35       43 </v>
   <v type="int" >        4        6       14       43       44 </v>
   <v type="int" >        8        6       36       43       44 </v>
   <v type="int" >        8        6       35       36       43 </v>
   <v type="int" >        8        7       14       15       44 </v>
   <v type="int" >        8        6        7       14       44 </v>
   <v type="int" >        4        6        7       36       44 </v>
   <v type="int" >        4        7       15       44       45 </v>
   <v type="int" >        8        7       37       44       45 </v>
   <v type="int" >        8        7       36       37       44 </v>
   <v type="int" >        8        8       15       16       45 </v>
   <v type="int" >        8        7        8       15       45 </v>
   <v type="int" >        4        7        8       37       45 </v>
   <v type="int" >        4        8       16       45       46 </v>
   <v type="int" >        8        8       38       45       46 </v>
   <v type="int" >        8        8       37       38       45 </v>
   <v type="int" >        8        9       16       16       46 </v>
   <v type="int" >        8        8        9       16       46 </v>
   <v type="int" >        4        8        9       38       46 </v>
   <v type="int" >        4        9       16       46       46 </v>
   <v type="int" >        4        9       39       46       46 </v>
   <v type="int" >        8        9       38       39       46 </v>
   <v type="int" >        8        8       15       16       46 </v>
   <v type="int" >        4        8        9       39       46 </v>
   <v type="int" >        4        8       15       45       46 </v>
   <v type="int" >        8        8       38       39       46 </v>
   <v type="int" >        8        7       14       15       45 </v>
   <v type="int" >        4        7        8       38       45 </v>
   <v type="int" >        4        7       14       44       45 </v>
   <v type="int" >        8        7       37       38       45 </v>
   <v type="int" >        8        6       13       14       44 </v>
   <v type="int" >        4        6        7       37       44 </v>
   <v type="int" >        4        6       13       43       44 </v>
   <v type="int" >        8        6       36       37       44 </v>
   <v type="int" >        8        5       12       13       43 </v>
   <v type="int" >        4        5        6       36       43 </v>
   <v type="int" >        4        5       12       42       43 </v>
   <v type="int" >        8        5       35       36       43 </v>
   <v type="int" >        8        4       11       12       42 </v>
   <v type="int" >        4        4        5       35       42 </v>
   <v type="int" >        4        4       11       41       42 </v>
   <v type="int" >        8        4       34       35       42 </v>
   <v type="int" >        8        3       10       11       41 </v>
   <v type="int" >        4        3        4       34       41 </v>
   <v type="int" >        4        3       10       40       41 </v>
   <v type="int" >        8        3       33       34       41 </v>
   <v type="int" >        4        2        2       10       40 </v>
   <v type="int" >        4        2        3       33       40 </v>
   <v type="int" >        4        2        2       32       40 </v>
   <v type="int" >        8        2       32       33       40 </v>
   <v type="int" >        4        1        2       32       32 </v>
   <v type="int" >        4        1       31       32       32 </v>
   <v type="int" >        8        3       10       11       33 </v>
   <v type="int" >        8        2        3       10       33 </v>
   <v type="int" >        4        2       10       32       33 </v>
   <v type="int" >        4       10       11       33       41 </v>
   <v type="int" >        8       10       33       40       41 </v>
   <v type="int" >        8       10       32       33       40 </v>
   <v type="int" >        8       11       11       17       41 </v>
   <v type="int" >        8       10       11       11       41 </v>
   <v type="int" >        4       10       11       40       41 </v>
   <v type="int" >        4       11       17       41       47 </v>
   <v type="int" >        8       11       41       41       47 </v>
   <v type="int" >        8       11       40       41       41 </v>
   <v type="int" >        8       12       17       18       47 </v>
   <v type="int" >        8       11       12       17       47 </v>
   <v type="int" >        4       11       12       41       47 </v>
   <v type="int" >        4       12       18       47       48 </v>
   <v type="int" >        8       12       42       47       48 </v>
   <v type="int" >        8       12       41       42       47 </v>
   <v type="int" >        8       13       18       19       48 </v>
   <v type="int" >        8       12       13       18       48 </v>
   <v type="int" >        4       12       13       42       48 </v>
   <v type="int" >        4       13       19       48       49 </v>
   <v type="int" >        8       13       43       48       49 </v>
   <v type="int" >        8       13       42       43       48 </v>
   <v type="int" >        8       14       19       20       49 </v>
   <v type="int" >        8       13       14       19       49 </v>
   <v type="int" >        4       13       14       43       49 </v>
   <v type="int" >        4       14       20       49       50 </v>
   <v type="int" >        8       14       44       49       50 </v>
   <v type="int" >        8       14       43       44       49 </v>
   <v type="int" >        8       15       20       21       50 </v>
   <v type="int" >        8       14       15       20       50 </v>
   <v type="int" >        4       14       15       44       50 </v>
   <v type="int" >        4       15       21       50       51 </v>
   <v type="int" >        8       15       45       50       51 </v>
   <v type="int" >        8       15       44       45       50 </v>
   <v type="int" >        8       16       21       22       51 </v>
   <v type="int" >        8       15       16       21       51 </v>
   <v type="int" >        4       15       16       45       51 </v>
   <v type="int" >        4       16       22       51       52 </v>
   <v type="int" >        8       16       46       51       52 </v>
   <v type="int" >        8       16       45       46       51 </v>
   <v type="int" >        8       16       21       22       52 </v>
   <v type="int" >        4       16       16       22       52 </v>
   <v type="int" >        4       16       16       46       52 </v>
   <v type="int" >        4       16       21       51       52 </v>
   <v type="int" >        8       16       46       46       52 </v>
   <v type="int" >        8       15       20       21       51 </v>
   <v type="int" >        4       15       16       46       51 </v>
   <v type="int" >        4       15       20       50       51 </v>
   <v type="int" >        8       15       45       46       51 </v>
   <v type="int" >        8       14       19       20       50 </v>
   <v type="int" >        4       14       15       45       50 </v>
   <v type="int" >        4       14       19       49       50 </v>
   <v type="int" >        8       14       44       45       50 </v>
   <v type="int" >        8       13       18       19       49 </v>
   <v type="int" >        4       13       14       44       49 </v>
   <v type="int" >        4       13       18       48       49 </v>
   <v type="int" >        8       13       43       44       49 </v>
   <v type="int" >        8       12       17       18       48 </v>
   <v type="int" >        4       12       13       43       48 </v>
   <v type="int" >        4       12       17       47       48 </v>
   <v type="int" >        8       12       42       43       48 </v>
   <v type="int" >        4       11       11       17       47 </v>
   <v type="int" >        4       11       12       42       47 </v>
   <v type="int" >        4       11       11       41       47 </v>
   <v type="int" >        8       11       41       42       47 </v>
   <v type="int" >        4       10       11       41       41 </v>
   <v type="int" >        4        3       10       33       41 </v>
   <v type="int" >        4       10       40       41       41 </v>
   <v type="int" >        4        2       10       33       40 </v>
   <v type="int" >        8        4       11       12       34 </v>
   <v type="int" >        8        3        4       11       34 </v>
   <v type="int" >        4        3       11       33       34 </v>
   <v type="int" >        4       11       12       34       42 </v>
   <v type="int" >        8       11       34       41       42 </v>
   <v type="int" >        8       11       33       34       41 </v>
   <v type="int" >        8       12       17       18       42 </v>
   <v type="int" >        8       11       12       17       42 </v>
   <v type="int" >        4       11       17       41       42 </v>
   <v type="int" >        4       17       18       42       48 </v>
   <v type="int" >        8       17       42       47       48 </v>
   <v type="int" >        8       17       41       42       47 </v>
   <v type="int" >        8       18       18       23       48 </v>
   <v type="int" >        8       17       18       18       48 </v>
   <v type="int" >        4       17       18       47       48 </v>
   <v type="int" >        4       18       23       48       53 </v>
   <v type="int" >        8       18       48       48       53 </v>
   <v type="int" >        8       18       47       48       48 </v>
   <v type="int" >        8       19       23       24       53 </v>
   <v type="int" >        8       18       19       23       53 </v>
   <v type="int" >        4       18       19       48       53 </v>
   <v type="int" >        4       19       24       53       54 </v>
   <v type="int" >        8       19       49       53       54 </v>
   <v type="int" >        8       19       48       49       53 </v>
   <v type="int" >        8       20       24       25       54 </v>
   <v type="int" >        8       19       20       24       54 </v>
   <v type="int" >        4       19       20       49       54 </v>
   <v type="int" >        4       20       25       54       55 </v>
   <v type="int" >        8       20       50       54       55 </v>
   <v type="int" >        8       20       49       50       54 </v>
   <v type="int" >        8       21       25       26       55 </v>
   <v type="int" >        8       20       21       25       55 </v>
   <v type="int" >        4       20       21       50       55 </v>
   <v type="int" >        4       21       26       55       56 </v>
   <v type="int" >        8       21       51       55       56 </v>
   <v type="int" >        8       21       50       51       55 </v>
   <v type="int" >        8       22       26       26       56 </v>
   <v type="int" >        8       21       22       26       56 </v>
   <v type="int" >        4       21       22       51       56 </v>
   <v type="int" >        4       22       26       56       56 </v>
   <v type="int" >        4       22       52       56       56 </v>
   <v type="int" >        8       22       51       52       56 </v>
   <v type="int" >        8       21       25       26       56 </v>
   <v type="int" >        4       21       22       52       56 </v>
   <v type="int" >        4       21       25       55       56 </v>
   <v type="int" >        8       21       51       52       56 </v>
   <v type="int" >        8       20       24       25       55 </v>
   <v type="int" >        4       20       21       51       55 </v>
   <v type="int" >        4       20       24       54       55 </v>
   <v type="int" >        8       20       50       51       55 </v>
   <v type="int" >        8       19       23       24       54 </v>
   <v type="int" >        4       19       20       50       54 </v>
   <v type="int" >        4       19       23       53       54 </v>
   <v type="int" >        8       19       49       50       54 </v>
   <v type="int" >        4       18       18       23       53 </v>
   <v type="int" >        4       18       19       49       53 </v>
   <v type="int" >        4       18       18       48       53 </v>
   <v type="int" >        8       18       48       49       53 </v>
   <v type="int" >        4       17       18       48       48 </v>
   <v type="int" >        4       12       17       42       48 </v>
   <v type="int" >        4       17       47       48       48 </v>
   <v type="int" >        4       11       17       42       47 </v>
   <v type="int" >        4        4       11       34       42 </v>
   <v type="int" >        4        3       11       34       41 </v>
   <v type="int" >        8        5       12       13       35 </v>
   <v type="int" >        8        4        5       12       35 </v>
   <v type="int" >        4        4       12       34       35 </v>
   <v type="int" >        4       12       13       35       43 </v>
   <v type="int" >        8       12       35       42       43 </v>
   <v type="int" >        8       12       34       35       42 </v>
   <v type="int" >        8       13       18       19       43 </v>
   <v type="int" >        8       12       13       18       43 </v>
   <v type="int" >        4       12       18       42       43 </v>
   <v type="int" >        4       18       19       43       49 </v>
   <v type="int" >        8       18       43       48       49 </v>
   <v type="int" >        8       18       42       43       48 </v>
   <v type="int" >        8       19       23       24       49 </v>
   <v type="int" >        8       18       19       23       49 </v>
   <v type="int" >        4       18       23       48       49 </v>
   <v type="int" >        4       23       24       49       54 </v>
   <v type="int" >        8       23       49       53       54 </v>
   <v type="int" >        8       23       48       49       53 </v>
   <v type="int" >        8       24       24       27       54 </v>
   <v type="int" >        8       23       24       24       54 </v>
   <v type="int" >        4       23       24       53       54 </v>
   <v type="int" >        4       24       27       54       57 </v>
   <v type="int" >        8       24       54       54       57 </v>
   <v type="int" >        8       24       53       54       54 </v>
   <v type="int" >        8       25       27       28       57 </v>
   <v type="int" >        8       24       25       27       57 </v>
   <v type="int" >        4       24       25       54       57 </v>
   <v type="int" >        4       25       28       57       58 </v>
   <v type="int" >        8       25       55       57       58 </v>
   <v type="int" >        8       25       54       55       57 </v>
   <v type="int" >        8       26       28       29       58 </v>
   <v type="int" >        8       25       26       28       58 </v>
   <v type="int" >        4       25       26       55       58 </v>
   <v type="int" >        4       26       29       58       59 </v>
   <v type="int" >        8       26       56       58       59 </v>
   <v type="int" >        8       26       55       56       58 </v>
   <v type="int" >        8       26       28       29       59 </v>
   <v type="int" >        4       26       26       29       59 </v>
   <v type="int" >        4       26       26       56       59 </v>
   <v type="int" >        4       26       28       58       59 </v>
   <v type="int" >        8       26       56       56       59 </v>
   <v type="int" >        8       25       27       28       58 </v>
   <v type="int" >        4       25       26       56       58 </v>
   <v type="int" >        4       25       27       57       58 </v>
   <v type="int" >        8       25       55       56       58 </v>
   <v type="int" >        4       24       24       27       57 </v>
   <v type="int" >        4       24       25       55       57 </v>
   <v type="int" >        4       24       24       54       57 </v>
   <v type="int" >        8       24       54       55       57 </v>
   <v type="int" >        4       23       24       54       54 </v>
   <v type="int" >        4       19       23       49       54 </v>
   <v type="int" >        4       23       53       54       54 </v>
   <v type="int" >        4       18       23       49       53 </v>
   <v type="int" >        4       13       18       43       49 </v>
   <v type="int" >        4       12       18       43       48 </v>
   <v type="int" >        4        5       12       35       43 </v>
   <v type="int" >        4        4       12       35       42 </v>
   <v type="int" >        8        6       13       14       36 </v>
   <v type="int" >        8        5        6       13       36 </v>
   <v type="int" >        4        5       13       35       36 </v>
   <v type="int" >        4       13       14       36       44 </v>
   <v type="int" >        8       13       36       43       44 </v>
   <v type="int" >        8       13       35       36       43 </v>
   <v type="int" >        8       14       19       20       44 </v>
   <v type="int" >        8       13       14       19       44 </v>
   <v type="int" >        4       13       19       43       44 </v>
   <v type="int" >        4       19       20       44       50 </v>
   <v type="int" >        8       19       44       49       50 </v>
   <v type="int" >        8       19       43       44       49 </v>
   <v type="int" >        8       20       24       25       50 </v>
   <v type="int" >        8       19       20       24       50 </v>
   <v type="int" >        4       19       24       49       50 </v>
   <v type="int" >        4       24       25       50       55 </v>
   <v type="int" >        8       24       50       54       55 </v>
   <v type="int" >        8       24       49       50       54 </v>
   <v type="int" >        8       25       27       28       55 </v>
   <v type="int" >        8       24       25       27       55 </v>
   <v type="int" >        4       24       27       54       55 </v>
   <v type="int" >        4       27       28       55       58 </v>
   <v type="int" >        8       27       55       57       58 </v>
   <v type="int" >        8       27       54       55       57 </v>
   <v type="int" >        8       28       28       30       58 </v>
   <v type="int" >        8       27       28       28       58 </v>
   <v type="int" >        4       27       28       57       58 </v>
   <v type="int" >        4       28       30       58       60 </v>
   <v type="int" >        8       28       58       58       60 </v>
   <v type="int" >        8       28       57       58       58 </v>
   <v type="int" >        8       29       30       30       60 </v>
   <v type="int" >        8       28       29       30       60 </v>
   <v type="int" >        4       28       29       58       60 </v>
   <v type="int" >        4       29       30       60       60 </v>
   <v type="int" >        4       29       59       60       60 </v>
   <v type="int" >        8       29       58       59       60 </v>
   <v type="int" >        4       28       28       30       60 </v>
   <v type="int" >        4       28       29       59       60 </v>
   <v type="int" >        4       28       28       58       60 </v>
   <v type="int" >        8       28       58       59       60 </v>
   <v type="int" >        4       27       28       58       58 </v>
   <v type="int" >        4       25       27       55       58 </v>
   <v type="int" >        4       27       57       58       58 </v>
   <v type="int" >        4       24       27       55       57 </v>
   <v type="int" >        4       20       24       50       55 </v>
   <v type="int" >        4       19       24       50       54 </v>
   <v type="int" >        4       14       19       44       50 </v>
   <v type="int" >        4       13       19       44       49 </v>
   <v type="int" >        4        6       13       36       44 </v>
   <v type="int" >        4        5       13       36       43 </v>
   <v type="int" >        8        7       14       15       37 </v>
   <v type="int" >        8        6        7       14       37 </v>
   <v type="int" >        4        6       14       36       37 </v>
   <v type="int" >        4       14       15       37       45 </v>
   <v type="int" >        8       14       37       44       45 </v>
   <v type="int" >        8       14       36       37       44 </v>
   <v type="int" >        8       15       20       21       45 </v>
   <v type="int" >        8       14       15       20       45 </v>
   <v type="int" >        4       14       20       44       45 </v>
   <v type="int" >        4       20       21       45       51 </v>
   <v type="int" >        8       20       45       50       51 </v>
   <v type="int" >        8       20       44       45       50 </v>
   <v type="int" >        8       21       25       26       51 </v>
   <v type="int" >        8       20       21       25       51 </v>
   <v type="int" >        4       20       25       50       51 </v>
   <v type="int" >        4       25       26       51       56 </v>
   <v type="int" >        8       25       51       55       56 </v>
   <v type="int" >        8       25       50       51       55 </v>
   <v type="int" >        8       26       28       29       56 </v>
   <v type="int" >        8       25       26       28       56 </v>
   <v type="int" >        4       25       28       55       56 </v>
   <v type="int" >        4       28       29       56       59 </v>
   <v type="int" >        8       28       56       58       59 </v>
   <v type="int" >        8       28       55       56       58 </v>
   <v type="int" >        4       29       30       30       59 </v>
   <v type="int" >        8       28       29       30       59 </v>
   <v type="int" >        4       28       30       58       59 </v>
   <v type="int" >        4       30       30       59       60 </v>
   <v type="int" >        8       30       59       60       60 </v>
   <v type="int" >        8       30       58       59       60 </v>
   <v type="int" >        4       30       30       30       60 </v>
   <v type="int" >        4       30       30       60       60 </v>
   <v type="int" >        4       29       30       59       60 </v>
   <v type="int" >        4       30       60       60       60 </v>
   <v type="int" >        4       28       30       59       60 </v>
   <v type="int" >        4       26       28       56       59 </v>
   <v type="int" >        4       25       28       56       58 </v>
   <v type="int" >        4       21       25       51       56 </v>
   <v type="int" >        4       20       25       51       55 </v>
   <v type="int" >        4       15       20       45       51 </v>
   <v type="int" >        4       14       20       45       50 </v>
   <v type="int" >        4        7       14       37       45 </v>
   <v type="int" >        4        6       14       37       44 </v>
   <v type="int" >        8        8       15       16       38 </v>
   <v type="int" >        8        7        8       15       38 </v>
   <v type="int" >        4        7       15       37       38 </v>
   <v type="int" >        4       15       16       38       46 </v>
   <v type="int" >        8       15       38       45       46 </v>
   <v type="int" >        8       15       37       38       45 </v>
   <v type="int" >        8       16       21       22       46 </v>
   <v type="int" >        8       15       16       21       46 </v>
   <v type="int" >        4       15       21       45       46 </v>
   <v type="int" >        4       21       22       46       52 </v>
   <v type="int" >        8       21       46       51       52 </v>
   <v type="int" >        8       21       45       46       51 </v>
   <v type="int" >        4       22       26       26       52 </v>
   <v type="int" >        8       21       22       26       52 </v>
   <v type="int" >        4       21       26       51       52 </v>
   <v type="int" >        4       26       26       52       56 </v>
   <v type="int" >        8       26       52       56       56 </v>
   <v type="int" >        8       26       51       52       56 </v>
   <v type="int" >        8       26       26       29       56 </v>
   <v type="int" >        4       26       29       56       56 </v>
   <v type="int" >        4       28       29       56       58 </v>
   <v type="int" >        8       29       56       58       59 </v>
   <v type="int" >        4       29       56       56       59 </v>
   <v type="int" >        8       28       29       30       58 </v>
   <v type="int" >        4       29       30       58       59 </v>
   <v type="int" >        4       28       30       58       58 </v>
   <v type="int" >        4       30       58       58       60 </v>
   <v type="int" >        4       29       30       58       60 </v>
   <v type="int" >        4       26       29       56       58 </v>
   <v type="int" >        4       26       29       56       59 </v>
   <v type="int" >        4       22       26       52       56 </v>
   <v type="int" >        4       21       26       52       56 </v>
   <v type="int" >        4       16       21       46       52 </v>
   <v type="int" >        4       15       21       46       51 </v>
   <v type="int" >        4        8       15       38       46 </v>
   <v type="int" >        4        7       15       38       45 </v>
   <v type="int" >        4        9       16       16       39 </v>
   <v type="int" >        8        8        9       16       39 </v>
   <v type="int" >        4        8       16       38       39 </v>
   <v type="int" >        4       16       16       39       46 </v>
   <v type="int" >        8       16       39       46       46 </v>
   <v type="int" >        8       16       38       39       46 </v>
   <v type="int" >        8       16       16       22       46 </v>
   <v type="int" >        4       16       22       46       46 </v>
   <v type="int" >        4       21       22       46       51 </v>
   <v type="int" >        8       22       46       51       52 </v>
   <v type="int" >        4       22       46       46       52 </v>
   <v type="int" >        8       21       22       26       51 </v>
   <v type="int" >        4       22       26       51       52 </v>
   <v type="int" >        4       25       26       51       55 </v>
   <v type="int" >        8       26       51       55       56 </v>
   <v type="int" >        8       25       26       28       55 </v>
   <v type="int" >        4       26       28       55       56 </v>
   <v type="int" >        4       27       28       55       57 </v>
   <v type="int" >        8       28       55       57       58 </v>
   <v type="int" >        4       27       28       28       57 </v>
   <v type="int" >        4       28       28       57       58 </v>
   <v type="int" >        4       25       28       55       57 </v>
   <v type="int" >        4       26       28       55       58 </v>
   <v type="int" >        4       21       26       51       55 </v>
   <v type="int" >        4       22       26       51       56 </v>
   <v type="int" >        4       16       22       46       51 </v>
   <v type="int" >        4       16       22       46       52 </v>
   <v type="int" >        4        9       16       39       46 </v>
   <v type="int" >        4        8       16       39       46 </v>
   <v type="int" >        8        8        9       16       38 </v>
   <v type="int" >        4        9       16       38       39 </v>
   <v type="int" >        4       15       16       38       45 </v>
   <v type="int" >        8       16       38       45       46 </v>
   <v type="int" >        8       15       16       21       45 </v>
   <v type="int" >        4       16       21       45       46 </v>
   <v type="int" >        4       20       21       45       50 </v>
   <v type="int" >        8       21       45       50       51 </v>
   <v type="int" >        8       20       21       25       50 </v>
   <v type="int" >        4       21       25       50       51 </v>
   <v type="int" >        4       24       25       50       54 </v>
   <v type="int" >        8       25       50       54       55 </v>
   <v type="int" >        8       24       25       27       54 </v>
   <v type="int" >        4       25       27       54       55 </v>
   <v type="int" >        4       24       27       54       54 </v>
   <v type="int" >        4       27       54       54       57 </v>
   <v type="int" >        4       25       27       54       57 </v>
   <v type="int" >        4       20       25       50       54 </v>
   <v type="int" >        4       21       25       50       55 </v>
   <v type="int" >        4       15       21       45       50 </v>
   <v type="int" >        4       16       21       45       51 </v>
   <v type="int" >        4        8       16       38       45 </v>
   <v type="int" >        4        9       16       38       46 </v>
   <v type="int" >        8        7        8       15       37 </v>
   <v type="int" >        4        8       15       37       38 </v>
   <v type="int" >        4       14       15       37       44 </v>
   <v type="int" >        8       15       37       44       45 </v>
   <v type="int" >        8       14       15       20       44 </v>
   <v type="int" >        4       15       20       44       45 </v>
   <v type="int" >        4       19       20       44       49 </v>
   <v type="int" >        8       20       44       49       50 </v>
   <v type="int" >        8       19       20       24       49 </v>
   <v type="int" >        4       20       24       49       50 </v>
   <v type="int" >        4       23       24       49       53 </v>
   <v type="int" >        8       24       49       53       54 </v>
   <v type="int" >        4       23       24       24       53 </v>
   <v type="int" >        4       24       24       53       54 </v>
   <v type="int" >        4       19       24       49       53 </v>
   <v type="int" >        4       20       24       49       54 </v>
   <v type="int" >        4       14       20       44       49 </v>
   <v type="int" >        4       15       20       44       50 </v>
   <v type="int" >        4        7       15       37       44 </v>
   <v type="int" >        4        8       15       37       45 </v>
   <v type="int" >        8        6        7       14       36 </v>
   <v type="int" >        4        7       14       36       37 </v>
   <v type="int" >        4       13       14       36       43 </v>
   <v type="int" >        8       14       36       43       44 </v>
   <v type="int" >        8       13       14       19       43 </v>
   <v type="int" >        4       14       19       43       44 </v>
   <v type="int" >        4       18       19       43       48 </v>
   <v type="int" >        8       19       43       48       49 </v>
   <v type="int" >        8       18       19       23       48 </v>
   <v type="int" >        4       19       23       48       49 </v>
   <v type="int" >        4       18       23       48       48 </v>
   <v type="int" >        4       23       48       48       53 </v>
   <v type="int" >        4       19       23       48       53 </v>
   <v type="int" >        4       13       19       43       48 </v>
   <v type="int" >        4       14       19       43       49 </v>
   <v type="int" >        4        6       14       36       43 </v>
   <v type="int" >        4        7       14       36       44 </v>
   <v type="int" >        8        5        6       13       35 </v>
   <v type="int" >        4        6       13       35       36 </v>
   <v type="int" >        4       12       13       35       42 </v>
   <v type="int" >        8       13       35       42       43 </v>
   <v type="int" >        8       12       13       18       42 </v>
   <v type="int" >        4       13       18       42       43 </v>
   <v type="int" >        4       17       18       42       47 </v>
   <v type="int" >        8       18       42       47       48 </v>
   <v type="int" >        4       17       18       18       47 </v>
   <v type="int" >        4       18       18       47       48 </v>
   <v type="int" >        4       12       18       42       47 </v>
   <v type="int" >        4       13       18       42       48 </v>
   <v type="int" >        4        5       13       35       42 </v>
   <v type="int" >        4        6       13       35       43 </v>
   <v type="int" >        8        4        5       12       34 </v>
   <v type="int" >        4        5       12       34       35 </v>
   <v type="int" >        4       11       12       34       41 </v>
   <v type="int" >        8       12       34       41       42 </v>
   <v type="int" >        8       11       12       17       41 </v>
   <v type="int" >        4       12       17       41       42 </v>
   <v type="int" >        4       11       17       41       41 </v>
   <v type="int" >        4       17       41       41       47 </v>
   <v type="int" >        4       12       17       41       47 </v>
   <v type="int" >        4        4       12       34       41 </v>
   <v type="int" >        4        5       12       34       42 </v>
   <v type="int" >        8        3        4       11       33 </v>
   <v type="int" >        4        4       11       33       34 </v>
   <v type="int" >        4       10       11       33       40 </v>
   <v type="int" >        8       11       33       40       41 </v>
   <v type="int" >        4       10       11       11       40 </v>
   <v type="int" >        4       11       11       40       41 </v>
   <v type="int" >        4        3       11       33       40 </v>
   <v type="int" >        4        4       11       33       41 </v>
   <v type="int" >        8        2        3       10       32 </v>
   <v type="int" >        4        3       10       32       33 </v>
   <v type="int" >        4        2       10       32       32 </v>
   <v type="int" >        4       10       32       32       40 </v>
   <v type="int" >        4        3       10       32       40 </v>
   <v type="int" >        4        1        2        2       31 </v>
   <v type="int" >        4        2        2       31       32 </v>
   <v type="int" >        8       32       32       40       62 </v>
   <v type="int" >        8       31       32       32       62 </v>
   <v type="int" >        4       31       32       61       62 </v>
   <v type="int" >        4       32       40       62       70 </v>
   <v type="int" >        8       32       62       62       70 </v>
   <v type="int" >        8       32       61       62       62 </v>
   <v type="int" >        8       33       40       41       70 </v>
   <v type="int" >        8       32       33       40       70 </v>
   <v type="int" >        4       32       33       62       70 </v>
   <v type="int" >        4       33       41       70       71 </v>
   <v type="int" >        8       33       63       70       71 </v>
   <v type="int" >        8       33       62       63       70 </v>
   <v type="int" >        8       34       41       42       71 </v>
   <v type="int" >        8       33       34       41       71 </v>
   <v type="int" >        4       33       34       63       71 </v>
   <v type="int" >        4       34       42       71       72 </v>
   <v type="int" >        8       34       64       71       72 </v>
   <v type="int" >        8       34       63       64       71 </v>
   <v type="int" >        8       35       42       43       72 </v>
   <v type="int" >        8       34       35       42       72 </v>
   <v type="int" >        4       34       35       64       72 </v>
   <v type="int" >        4       35       43       72       73 </v>
   <v type="int" >        8       35       65       72       73 </v>
   <v type="int" >        8       35       64       65       72 </v>
   <v type="int" >        8       36       43       44       73 </v>
   <v type="int" >        8       35       36       43       73 </v>
   <v type="int" >        4       35       36       65       73 </v>
   <v type="int" >        4       36       44       73       74 </v>
   <v type="int" >        8       36       66       73       74 </v>
   <v type="int" >        8       36       65       66       73 </v>
   <v type="int" >        8       37       44       45       74 </v>
   <v type="int" >        8       36       37       44       74 </v>
   <v type="int" >        4       36       37       66       74 </v>
   <v type="int" >        4       37       45       74       75 </v>
   <v type="int" >        8       37       67       74       75 </v>
   <v type="int" >        8       37       66       67       74 </v>
   <v type="int" >        8       38       45       46       75 </v>
   <v type="int" >        8       37       38       45       75 </v>
   <v type="int" >        4       37       38       67       75 </v>
   <v type="int" >        4       38       46       75       76 </v>
   <v type="int" >        8       38       68       75       76 </v>
   <v type="int" >        8       38       67       68       75 </v>
   <v type="int" >        8       39       46       46       76 </v>
   <v type="int" >        8       38       39       46       76 </v>
   <v type="int" >        4       38       39       68       76 </v>
   <v type="int" >        4       39       46       76       76 </v>
   <v type="int" >        4       39       69       76       76 </v>
   <v type="int" >        8       39       68       69       76 </v>
   <v type="int" >        8       38       45       46       76 </v>
   <v type="int" >        4       38       39       69       76 </v>
   <v type="int" >        4       38       45       75       76 </v>
   <v type="int" >        8       38       68       69       76 </v>
   <v type="int" >        8       37       44       45       75 </v>
   <v type="int" >        4       37       38       68       75 </v>
   <v type="int" >        4       37       44       74       75 </v>
   <v type="int" >        8       37       67       68       75 </v>
   <v type="int" >        8       36       43       44       74 </v>
   <v type="int" >        4       36       37       67       74 </v>
   <v type="int" >        4       36       43       73       74 </v>
   <v type="int" >        8       36       66       67       74 </v>
   <v type="int" >        8       35       42       43       73 </v>
   <v type="int" >        4       35       36       66       73 </v>
   <v type="int" >        4       35       42       72       73 </v>
   <v type="int" >        8       35       65       66       73 </v>
   <v type="int" >        8       34       41       42       72 </v>
   <v type="int" >        4       34       35       65       72 </v>
   <v type="int" >        4       34       41       71       72 </v>
   <v type="int" >        8       34       64       65       72 </v>
   <v type="int" >        8       33       40       41       71 </v>
   <v type="int" >        4       33       34       64       71 </v>
   <v type="int" >        4       33       40       70       71 </v>
   <v type="int" >        8       33       63       64       71 </v>
   <v type="int" >        4       32       32       40       70 </v>
   <v type="int" >        4       32       33       63       70 </v>
   <v type="int" >        4       32       32       62       70 </v>
   <v type="int" >        8       32       62       63       70 </v>
   <v type="int" >        4       31       32       62       62 </v>
   <v type="int" >        4       31       61       62       62 </v>
   <v type="int" >        8       33       40       41       63 </v>
   <v type="int" >        8       32       33       40       63 </v>
   <v type="int" >        4       32       40       62       63 </v>
   <v type="int" >        4       40       41       63       71 </v>
   <v type="int" >        8       40       63       70       71 </v>
   <v type="int" >        8       40       62       63       70 </v>
   <v type="int" >        8       41       41       47       71 </v>
   <v type="int" >        8       40       41       41       71 </v>
   <v type="int" >        4       40       41       70       71 </v>
   <v type="int" >        4       41       47       71       77 </v>
   <v type="int" >        8       41       71       71       77 </v>
   <v type="int" >        8       41       70       71       71 </v>
   <v type="int" >        8       42       47       48       77 </v>
   <v type="int" >        8       41       42       47       77 </v>
   <v type="int" >        4       41       42       71       77 </v>
   <v type="int" >        4       42       48       77       78 </v>
   <v type="int" >        8       42       72       77       78 </v>
   <v type="int" >        8       42       71       72       77 </v>
   <v type="int" >        8       43       48       49       78 </v>
   <v type="int" >        8       42       43       48       78 </v>
   <v type="int" >        4       42       43       72       78 </v>
   <v type="int" >        4       43       49       78       79 </v>
   <v type="int" >        8       43       73       78       79 </v>
   <v type="int" >        8       43       72       73       78 </v>
   <v type="int" >        8       44       49       50       79 </v>
   <v type="int" >        8       43       44       49       79 </v>
   <v type="int" >        4       43       44       73       79 </v>
   <v type="int" >        4       44       50       79       80 </v>
   <v type="int" >        8       44       74       79       80 </v>
   <v type="int" >        8       44       73       74       79 </v>
   <v type="int" >        8       45       50       51       80 </v>
   <v type="int" >        8       44       45       50       80 </v>
   <v type="int" >        4       44       45       74       80 </v>
   <v type="int" >        4       45       51       80       81 </v>
   <v type="int" >        8       45       75       80       81 </v>
   <v type="int" >        8       45       74       75       80 </v>
   <v type="int" >        8       46       51       52       81 </v>
   <v type="int" >        8       45       46       51       81 </v>
   <v type="int" >        4       45       46       75       81 </v>
   <v type="int" >        4       46       52       81       82 </v>
   <v type="int" >        8       46       76       81       82 </v>
   <v type="int" >        8       46       75       76       81 </v>
   <v type="int" >        8       46       51       52       82 </v>
   <v type="int" >        4       46       46       52       82 </v>
   <v type="int" >        4       46       46       76       82 </v>
   <v type="int" >        4       46       51       81       82 </v>
   <v type="int" >        8       46       76       76       82 </v>
   <v type="int" >        8       45       50       51       81 </v>
   <v type="int" >        4       45       46       76       81 </v>
   <v type="int" >        4       45       50       80       81 </v>
   <v type="int" >        8       45       75       76       81 </v>
   <v type="int" >        8       44       49       50       80 </v>
   <v type="int" >        4       44       45       75       80 </v>
   <v type="int" >        4       44       49       79       80 </v>
   <v type="int" >        8       44       74       75       80 </v>
   <v type="int" >        8       43       48       49       79 </v>
   <v type="int" >        4       43       44       74       79 </v>
   <v type="int" >        4       43       48       78       79 </v>
   <v type="int" >        8       43       73       74       79 </v>
   <v type="int" >        8       42       47       48       78 </v>
   <v type="int" >        4       42       43       73       78 </v>
   <v type="int" >        4       42       47       77       78 </v>
   <v type="int" >        8       42       72       73       78 </v>
   <v type="int" >        4       41       41       47       77 </v>
   <v type="int" >        4       41       42       72       77 </v>
   <v type="int" >        4       41       41       71       77 </v>
   <v type="int" >        8       41       71       72       77 </v>
   <v type="int" >        4       40       41       71       71 </v>
   <v type="int" >        4       33       40       63       71 </v>
   <v type="int" >        4       40       70       71       71 </v>
   <v type="int" >        4       32       40       63       70 </v>
   <v type="int" >        8       34       41       42       64 </v>
   <v type="int" >        8       33       34       41       64 </v>
   <v type="int" >        4       33       41       63       64 </v>
   <v type="int" >        4       41       42       64       72 </v>
   <v type="int" >        8       41       64       71       72 </v>
   <v type="int" >        8       41       63       64       71 </v>
   <v type="int" >        8       42       47       48       72 </v>
   <v type="int" >        8       41       42       47       72 </v>
   <v type="int" >        4       41       47       71       72 </v>
   <v type="int" >        4       47       48       72       78 </v>
   <v type="int" >        8       47       72       77       78 </v>
   <v type="int" >        8       47       71       72       77 </v>
   <v type="int" >        8       48       48       53       78 </v>
   <v type="int" >        8       47       48       48       78 </v>
   <v type="int" >        4       47       48       77       78 </v>
   <v type="int" >        4       48       53       78       83 </v>
   <v type="int" >        8       48       78       78       83 </v>
   <v type="int" >        8       48       77       78       78 </v>
   <v type="int" >        8       49       53       54       83 </v>
   <v type="int" >        8       48       49       53       83 </v>
   <v type="int" >        4       48       49       78       83 </v>
   <v type="int" >        4       49       54       83       84 </v>
   <v type="int" >        8       49       79       83       84 </v>
   <v type="int" >        8       49       78       79       83 </v>
   <v type="int" >        8       50       54       55       84 </v>
   <v type="int" >        8       49       50       54       84 </v>
   <v type="int" >        4       49       50       79       84 </v>
   <v type="int" >        4       50       55       84       85 </v>
   <v type="int" >        8       50       80       84       85 </v>
   <v type="int" >        8       50       79       80       84 </v>
   <v type="int" >        8       51       55       56       85 </v>
   <v type="int" >        8       50       51       55       85 </v>
   <v type="int" >        4       50       51       80       85 </v>
   <v type="int" >        4       51       56       85       86 </v>
   <v type="int" >        8       51       81       85       86 </v>
   <v type="int" >        8       51       80       81       85 </v>
   <v type="int" >        8       52       56       56       86 </v>
   <v type="int" >        8       51       52       56       86 </v>
   <v type="int" >        4       51       52       81       86 </v>
   <v type="int" >        4       52       56       86       86 </v>
   <v type="int" >        4       52       82       86       86 </v>
   <v type="int" >        8       52       81       82       86 </v>
   <v type="int" >        8       51       55       56       86 </v>
   <v type="int" >        4       51       52       82       86 </v>
   <v type="int" >        4       51       55       85       86 </v>
   <v type="int" >        8       51       81       82       86 </v>
   <v type="int" >        8       50       54       55       85 </v>
   <v type="int" >        4       50       51       81       85 </v>
   <v type="int" >        4       50       54       84       85 </v>
   <v type="int" >        8       50       80       81       85 </v>
   <v type="int" >        8       49       53       54       84 </v>
   <v type="int" >        4       49       50       80       84 </v>
   <v type="int" >        4       49       53       83       84 </v>
   <v type="int" >        8       49       79       80       84 </v>
   <v type="int" >        4       48       48       53       83 </v>
   <v type="int" >        4       48       49       79       83 </v>
   <v type="int" >        4       48       48       78       83 </v>
   <v type="int" >        8       48       78       79       83 </v>
   <v type="int" >        4       47       48       78       78 </v>
   <v type="int" >        4       42       47       72       78 </v>
   <v type="int" >        4       47       77       78       78 </v>
   <v type="int" >        4       41       47       72       77 </v>
   <v type="int" >        4       34       41       64       72 </v>
   <v type="int" >        4       33       41       64       71 </v>
   <v type="int" >        8       35       42       43       65 </v>
   <v type="int" >        8       34       35       42       65 </v>
   <v type="int" >        4       34       42       64       65 </v>
   <v type="int" >        4       42       43       65       73 </v>
   <v type="int" >        8       42       65       72       73 </v>
   <v type="int" >        8       42       64       65       72 </v>
   <v type="int" >        8       43       48       49       73 </v>
   <v type="int" >        8       42       43       48       73 </v>
   <v type="int" >        4       42       48       72       73 </v>
   <v type="int" >        4       48       49       73       79 </v>
   <v type="int" >        8       48       73       78       79 </v>
   <v type="int" >        8       48       72       73       78 </v>
   <v type="int" >        8       49       53       54       79 </v>
   <v type="int" >        8       48       49       53       79 </v>
   <v type="int" >        4       48       53       78       79 </v>
   <v type="int" >        4       53       54       79       84 </v>
   <v type="int" >        8       53       79       83       84 </v>
   <v type="int" >        8       53       78       79       83 </v>
   <v type="int" >        8       54       54       57       84 </v>
   <v type="int" >        8       53       54       54       84 </v>
   <v type="int" >        4       53       54       83       84 </v>
   <v type="int" >        4       54       57       84       87 </v>
   <v type="int" >        8       54       84       84       87 </v>
   <v type="int" >        8       54       83       84       84 </v>
   <v type="int" >        8       55       57       58       87 </v>
   <v type="int" >        8       54       55       57       87 </v>
   <v type="int" >        4       54       55       84       87 </v>
   <v type="int" >        4       55       58       87       88 </v>
   <v type="int" >        8       55       85       87       88 </v>
   <v type="int" >        8       55       84       85       87 </v>
   <v type="int" >        8       56       58       59       88 </v>
   <v type="int" >        8       55       56       58       88 </v>
   <v type="int" >        4       55       56       85       88 </v>
   <v type="int" >        4       56       59       88       89 </v>
   <v type="int" >        8       56       86       88       89 </v>
   <v type="int" >        8       56       85       86       88 </v>
   <v type="int" >        8       56       58       59       89 </v>
   <v type="int" >        4       56       56       59       89 </v>
   <v type="int" >        4       56       56       86       89 </v>
   <v type="int" >        4       56       58       88       89 </v>
   <v type="int" >        8       56       86       86       89 </v>
   <v type="int" >        8       55       57       58       88 </v>
   <v type="int" >        4       55       56       86       88 </v>
   <v type="int" >        4       55       57       87       88 </v>
   <v type="int" >        8       55       85       86       88 </v>
   <v type="int" >        4       54       54       57       87 </v>
   <v type="int" >        4       54       55       85       87 </v>
   <v type="int" >        4       54       54       84       87 </v>
   <v type="int" >        8       54       84       85       87 </v>
   <v type="int" >        4       53       54       84       84 </v>
   <v type="int" >        4       49       53       79       84 </v>
   <v type="int" >        4       53       83       84       84 </v>
   <v type="int" >        4       48       53       79       83 </v>
   <v type="int" >        4       43       48       73       79 </v>
   <v type="int" >        4       42       48       73       78 </v>
   <v type="int" >        4       35       42       65       73 </v>
   <v type="int" >        4       34       42       65       72 </v>
   <v type="int" >        8       36       43       44       66 </v>
   <v type="int" >        8       35       36       43       66 </v>
   <v type="int" >        4       35       43       65       66 </v>
   <v type="int" >        4       43       44       66       74 </v>
   <v type="int" >        8       43       66       73       74 </v>
   <v type="int" >        8       43       65       66       73 </v>
   <v type="int" >        8       44       49       50       74 </v>
   <v type="int" >        8       43       44       49       74 </v>
   <v type="int" >        4       43       49       73       74 </v>
   <v type="int" >        4       49       50       74       80 </v>
   <v type="int" >        8       49       74       79       80 </v>
   <v type="int" >        8       49       73       74       79 </v>
   <v type="int" >        8       50       54       55       80 </v>
   <v type="int" >        8       49       50       54       80 </v>
   <v type="int" >        4       49       54       79       80 </v>
   <v type="int" >        4       54       55       80       85 </v>
   <v type="int" >        8       54       80       84       85 </v>
   <v type="int" >        8       54       79       80       84 </v>
   <v type="int" >        8       55       57       58       85 </v>
   <v type="int" >        8       54       55       57       85 </v>
   <v type="int" >        4       54       57       84       85 </v>
   <v type="int" >        4       57       58       85       88 </v>
   <v type="int" >        8       57       85       87       88 </v>
   <v type="int" >        8       57       84       85       87 </v>
   <v type="int" >        8       58       58       60       88 </v>
   <v type="int" >        8       57       58       58       88 </v>
   <v type="int" >        4       57       58       87       88 </v>
   <v type="int" >        4       58       60       88       90 </v>
   <v type="int" >        8       58       88       88       90 </v>
   <v type="int" >        8       58       87       88       88 </v>
   <v type="int" >        8       59       60       60       90 </v>
   <v type="int" >        8       58       59       60       90 </v>
   <v type="int" >        4       58       59       88       90 </v>
   <v type="int" >        4       59       60       90       90 </v>
   <v type="int" >        4       59       89       90       90 </v>
   <v type="int" >        8       59       88       89       90 </v>
   <v type="int" >        4       58       58       60       90 </v>
   <v type="int" >        4       58       59       89       90 </v>
   <v type="int" >        4       58       58       88       90 </v>
   <v type="int" >        8       58       88       89       90 </v>
   <v type="int" >        4       57       58       88       88 </v>
   <v type="int" >        4       55       57       85       88 </v>
   <v type="int" >        4       57       87       88       88 </v>
   <v type="int" >        4       54       57       85       87 </v>
   <v type="int" >        4       50       54       80       85 </v>
   <v type="int" >        4       49       54       80       84 </v>
   <v type="int" >        4       44       49       74       80 </v>
   <v type="int" >        4       43       49       74       79 </v>
   <v type="int" >        4       36       43       66       74 </v>
   <v type="int" >        4       35       43       66       73 </v>
   <v type="int" >        8       37       44       45       67 </v>
   <v type="int" >        8       36       37       44       67 </v>
   <v type="int" >        4       36       44       66       67 </v>
   <v type="int" >        4       44       45       67       75 </v>
   <v type="int" >        8       44       67       74       75 </v>
   <v type="int" >        8       44       66       67       74 </v>
   <v type="int" >        8       45       50       51       75 </v>
   <v type="int" >        8       44       45       50       75 </v>
   <v type="int" >        4       44       50       74       75 </v>
   <v type="int" >        4       50       51       75       81 </v>
   <v type="int" >        8       50       75       80       81 </v>
   <v type="int" >        8       50       74       75       80 </v>
   <v type="int" >        8       51       55       56       81 </v>
   <v type="int" >        8       50       51       55       81 </v>
   <v type="int" >        4       50       55       80       81 </v>
   <v type="int" >        4       55       56       81       86 </v>
   <v type="int" >        8       55       81       85       86 </v>
   <v type="int" >        8       55       80       81       85 </v>
   <v type="int" >        8       56       58       59       86 </v>
   <v type="int" >        8       55       56       58       86 </v>
   <v type="int" >        4       55       58       85       86 </v>
   <v type="int" >        4       58       59       86       89 </v>
   <v type="int" >        8       58       86       88       89 </v>
   <v type="int" >        8       58       85       86       88 </v>
   <v type="int" >        4       59       60       60       89 </v>
   <v type="int" >        8       58       59       60       89 </v>
   <v type="int" >        4       58       60       88       89 </v>
   <v type="int" >        4       60       60       89       90 </v>
   <v type="int" >        8       60       89       90       90 </v>
   <v type="int" >        8       60       88       89       90 </v>
   <v type="int" >        4       60       60       60       90 </v>
   <v type="int" >        4       60       60       90       90 </v>
   <v type="int" >        4       59       60       89       90 </v>
   <v type="int" >        4       60       90       90       90 </v>
   <v type="int" >        4       58       60       89       90 </v>
   <v type="int" >        4       56       58       86       89 </v>
   <v type="int" >        4       55       58       86       88 </v>
   <v type="int" >        4       51       55       81       86 </v>
   <v type="int" >        4       50       55       81       85 </v>
   <v type="int" >        4       45       50       75       81 </v>
   <v type="int" >        4       44       50       75       80 </v>
   <v type="int" >        4       37       44       67       75 </v>
   <v type="int" >        4       36       44       67       74 </v>
   <v type="int" >        8       38       45       46       68 </v>
   <v type="int" >        8       37       38       45       68 </v>
   <v type="int" >        4       37       45       67       68 </v>
   <v type="int" >        4       45       46       68       76 </v>
   <v type="int" >        8       45       68       75       76 </v>
   <v type="int" >        8       45       67       68       75 </v>
   <v type="int" >        8       46       51       52       76 </v>
   <v type="int" >        8       45       46       51       76 </v>
   <v type="int" >        4       45       51       75       76 </v>
   <v type="int" >        4       51       52       76       82 </v>
   <v type="int" >        8       51       76       81       82 </v>
   <v type="int" >        8       51       75       76       81 </v>
   <v type="int" >        4       52       56       56       82 </v>
   <v type="int" >        8       51       52       56       82 </v>
   <v type="int" >        4       51       56       81       82 </v>
   <v type="int" >        4       56       56       82       86 </v>
   <v type="int" >        8       56       82       86       86 </v>
   <v type="int" >        8       56       81       82       86 </v>
   <v type="int" >        8       56       56       59       86 </v>
   <v type="int" >        4       56       59       86       86 </v>
   <v type="int" >        4       58       59       86       88 </v>
   <v type="int" >        8       59       86       88       89 </v>
   <v type="int" >        4       59       86       86       89 </v>
   <v type="int" >        8       58       59       60       88 </v>
   <v type="int" >        4       59       60       88       89 </v>
   <v type="int" >        4       58       60       88       88 </v>
   <v type="int" >        4       60       88       88       90 </v>
   <v type="int" >        4       59       60       88       90 </v>
   <v type="int" >        4       56       59       86       88 </v>
   <v type="int" >        4       56       59       86       89 </v>
   <v type="int" >        4       52       56       82       86 </v>
   <v type="int" >        4       51       56       82       86 </v>
   <v type="int" >        4       46       51       76       82 </v>
   <v type="int" >        4       45       51       76       81 </v>
   <v type="int" >        4       38       45       68       76 </v>
   <v type="int" >        4       37       45       68       75 </v>
   <v type="int" >        4       39       46       46       69 </v>
   <v type="int" >        8       38       39       46       69 </v>
   <v type="int" >        4       38       46       68       69 </v>
   <v type="int" >        4       46       46       69       76 </v>
   <v type="int" >        8       46       69       76       76 </v>
   <v type="int" >        8       46       68       69       76 </v>
   <v type="int" >        8       46       46       52       76 </v>
   <v type="int" >        4       46       52       76       76 </v>
   <v type="int" >        4       51       52       76       81 </v>
   <v type="int" >        8       52       76       81       82 </v>
   <v type="int" >        4       52       76       76       82 </v>
   <v type="int" >        8       51       52       56       81 </v>
   <v type="int" >        4       52       56       81       82 </v>
   <v type="int" >        4       55       56       81       85 </v>
   <v type="int" >        8       56       81       85       86 </v>
   <v type="int" >        8       55       56       58       85 </v>
   <v type="int" >        4       56       58       85       86 </v>
   <v type="int" >        4       57       58       85       87 </v>
   <v type="int" >        8       58       85       87       88 </v>
   <v type="int" >        4       57       58       58       87 </v>
   <v type="int" >        4       58       58       87       88 </v>
   <v type="int" >        4       55       58       85       87 </v>
   <v type="int" >        4       56       58       85       88 </v>
   <v type="int" >        4       51       56       81       85 </v>
   <v type="int" >        4       52       56       81       86 </v>
   <v type="int" >        4       46       52       76       81 </v>
   <v type="int" >        4       46       52       76       82 </v>
   <v type="int" >        4       39       46       69       76 </v>
   <v type="int" >        4       38       46       69       76 </v>
   <v type="int" >        8       38       39       46       68 </v>
   <v type="int" >        4       39       46       68       69 </v>
   <v type="int" >        4       45       46       68       75 </v>
   <v type="int" >        8       46       68       75       76 </v>
   <v type="int" >        8       45       46       51       75 </v>
   <v type="int" >        4       46       51       75       76 </v>
   <v type="int" >        4       50       51       75       80 </v>
   <v type="int" >        8       51       75       80       81 </v>
   <v type="int" >        8       50       51       55       80 </v>
   <v type="int" >        4       51       55       80       81 </v>
   <v type="int" >        4       54       55       80       84 </v>
   <v type="int" >        8       55       80       84       85 </v>
   <v type="int" >        8       54       55       57       84 </v>
   <v type="int" >        4       55       57       84       85 </v>
   <v type="int" >        4       54       57       84       84 </v>
   <v type="int" >        4       57       84       84       87 </v>
   <v type="int" >        4       55       57       84       87 </v>
   <v type="int" >        4       50       55       80       84 </v>
   <v type="int" >        4       51       55       80       85 </v>
   <v type="int" >        4       45       51       75       80 </v>
   <v type="int" >        4       46       51       75       81 </v>
   <v type="int" >        4       38       46       68       75 </v>
   <v type="int" >        4       39       46       68       76 </v>
[...]
        <r>  0.0011  0.0492  0.0016 </r>
        <r>  0.0008  0.0493  0.0016 </r>
        <r>  0.0002  0.1879  0.0055 </r>
        <r>  0.0003  0.1887  0.0055 </r>
       </set>
       <set comment="band 8">
        <r>  0.0003  0.1887  0.0055 </r>
        <r>  0.0002  0.1879  0.0055 </r>
        <r>  0.0008  0.0493  0.0016 </r>
        <r>  0.0011  0.0492  0.0016 </r>
       </set>
       <set comment="band 9">
        <r>  0.0000  0.1186  0.0079 </r>
        <r>  0.0000  0.1205  0.0077 </r>
        <r>  0.0000  0.1807  0.0115 </r>
        <r>  0.0000  0.1782  0.0117 </r>
       </set>
       <set comment="band 10">
        <r>  0.0000  0.1782  0.0117 </r>
        <r>  0.0000  0.1807  0.0115 </r>
        <r>  0.0000  0.1205  0.0077 </r>
        <r>  0.0000  0.1186  0.0079 </r>
       </set>
       <set comment="band 11">
        <r>  0.0077  0.0385  0.0145 </r>
        <r>  0.0057  0.0287  0.0175 </r>
        <r>  0.0008  0.0504  0.0038 </r>
        <r>  0.0011  0.0618  0.0033 </r>
       </set>
       <set comment="band 12">
        <r>  0.0011  0.0618  0.0033 </r>
        <r>  0.0008  0.0504  0.0038 </r>
        <r>  0.0056  0.0289  0.0175 </r>
        <r>  0.0076  0.0386  0.0146 </r>
       </set>
      </set>
      <set comment="kpoint 114">
       <set comment="band 1">
        <r>  0.1089  0.0308  0.0018 </r>
        <r>  0.1087  0.0308  0.0018 </r>
        <r>  0.1658  0.0470  0.0028 </r>
        <r>  0.1662  0.0469  0.0027 </r>
       </set>
       <set comment="band 2">
        <r>  0.1662  0.0469  0.0027 </r>
        <r>  0.1658  0.0470  0.0028 </r>
        <r>  0.1087  0.0308  0.0018 </r>
        <r>  0.1089  0.0308  0.0018 </r>
       </set>
       <set comment="band 3">
        <r>  0.1306  0.1979  0.0084 </r>
        <r>  0.1308  0.1974  0.0085 </r>
        <r>  0.0263  0.0397  0.0017 </r>
        <r>  0.0263  0.0399  0.0017 </r>
       </set>
       <set comment="band 4">
        <r>  0.0263  0.0399  0.0017 </r>
        <r>  0.0263  0.0397  0.0017 </r>
        <r>  0.1308  0.1974  0.0085 </r>
        <r>  0.1306  0.1979  0.0084 </r>
       </set>
       <set comment="band 5">
        <r>  0.0048  0.0556  0.0014 </r>
        <r>  0.0048  0.0555  0.0014 </r>
        <r>  0.0258  0.2981  0.0073 </r>
        <r>  0.0256  0.2985  0.0073 </r>
       </set>
       <set comment="band 6">
        <r>  0.0256  0.2985  0.0073 </r>
        <r>  0.0258  0.2981  0.0073 </r>
        <r>  0.0048  0.0555  0.0014 </r>
        <r>  0.0048  0.0556  0.0014 </r>
       </set>
       <set comment="band 7">
        <r>  0.0007  0.0849  0.0032 </r>
        <r>  0.0005  0.0847  0.0031 </r>
        <r>  0.0003  0.1583  0.0058 </r>
        <r>  0.0004  0.1591  0.0058 </r>
       </set>
       <set comment="band 8">
        <r>  0.0004  0.1591  0.0058 </r>
        <r>  0.0003  0.1583  0.0058 </r>
        <r>  0.0005  0.0847  0.0031 </r>
        <r>  0.0007  0.0849  0.0032 </r>
       </set>
       <set comment="band 9">
        <r>  0.0000  0.0350  0.0026 </r>
        <r>  0.0001  0.0358  0.0024 </r>
        <r>  0.0000  0.2518  0.0172 </r>
        <r>  0.0000  0.2497  0.0173 </r>
       </set>
       <set comment="band 10">
        <r>  0.0000  0.2497  0.0173 </r>
        <r>  0.0000  0.2518  0.0172 </r>
        <r>  0.0001  0.0358  0.0024 </r>
        <r>  0.0000  0.0350  0.0026 </r>
       </set>
       <set comment="band 11">
        <r>  0.0032  0.0565  0.0080 </r>
        <r>  0.0008  0.0414  0.0111 </r>
        <r>  0.0013  0.0359  0.0153 </r>
        <r>  0.0051  0.0545  0.0104 </r>
       </set>
       <set comment="band 12">
        <r>  0.0052  0.0546  0.0104 </r>
        <r>  0.0013  0.0359  0.0154 </r>
        <r>  0.0008  0.0415  0.0111 </r>
        <r>  0.0032  0.0564  0.0080 </r>
       </set>
      </set>
      <set comment="kpoint 115">
       <set comment="band 1">
        <r>  0.1444  0.0542  0.0029 </r>
        <r>  0.1440  0.0543  0.0029 </r>
        <r>  0.1170  0.0441  0.0023 </r>
        <r>  0.1174  0.0441  0.0023 </r>
       </set>
       <set comment="band 2">
        <r>  0.1174  0.0441  0.0023 </r>
        <r>  0.1170  0.0441  0.0023 </r>
        <r>  0.1440  0.0543  0.0029 </r>
        <r>  0.1444  0.0542  0.0029 </r>
       </set>
       <set comment="band 3">
        <r>  0.0784  0.0973  0.0035 </r>
        <r>  0.0786  0.0970  0.0035 </r>
        <r>  0.0922  0.1138  0.0041 </r>
        <r>  0.0920  0.1142  0.0041 </r>
       </set>
       <set comment="band 4">
        <r>  0.0920  0.1142  0.0041 </r>
        <r>  0.0922  0.1138  0.0041 </r>
        <r>  0.0786  0.0970  0.0035 </r>
        <r>  0.0784  0.0973  0.0035 </r>
       </set>
       <set comment="band 5">
        <r>  0.0065  0.0518  0.0010 </r>
        <r>  0.0065  0.0518  0.0010 </r>
        <r>  0.0367  0.2901  0.0057 </r>
        <r>  0.0365  0.2905  0.0057 </r>
       </set>
       <set comment="band 6">
        <r>  0.0365  0.2905  0.0057 </r>
        <r>  0.0367  0.2901  0.0057 </r>
        <r>  0.0065  0.0518  0.0010 </r>
        <r>  0.0065  0.0518  0.0010 </r>
       </set>
       <set comment="band 7">
        <r>  0.0005  0.1057  0.0044 </r>
        <r>  0.0003  0.1051  0.0044 </r>
        <r>  0.0002  0.1464  0.0061 </r>
        <r>  0.0004  0.1474  0.0061 </r>
       </set>
       <set comment="band 8">
        <r>  0.0004  0.1474  0.0061 </r>
        <r>  0.0002  0.1464  0.0061 </r>
        <r>  0.0003  0.1051  0.0044 </r>
        <r>  0.0005  0.1057  0.0044 </r>
       </set>
       <set comment="band 9">
        <r>  0.0001  0.0475  0.0036 </r>
        <r>  0.0002  0.0481  0.0035 </r>
        <r>  0.0000  0.2244  0.0161 </r>
        <r>  0.0000  0.2223  0.0163 </r>
       </set>
       <set comment="band 10">
        <r>  0.0000  0.2223  0.0163 </r>
        <r>  0.0000  0.2244  0.0161 </r>
        <r>  0.0002  0.0481  0.0035 </r>
        <r>  0.0001  0.0475  0.0036 </r>
       </set>
       <set comment="band 11">
        <r>  0.0098  0.0552  0.0118 </r>
        <r>  0.0044  0.0329  0.0173 </r>
        <r>  0.0102  0.0378  0.0289 </r>
        <r>  0.0231  0.0816  0.0162 </r>
       </set>
       <set comment="band 12">
        <r>  0.0233  0.0821  0.0163 </r>
        <r>  0.0105  0.0382  0.0290 </r>
        <r>  0.0045  0.0329  0.0174 </r>
        <r>  0.0100  0.0552  0.0118 </r>
       </set>
      </set>
      <set comment="kpoint 116">
       <set comment="band 1">
        <r>  0.1546  0.0632  0.0041 </r>
        <r>  0.1535  0.0636  0.0042 </r>
        <r>  0.1081  0.0448  0.0029 </r>
        <r>  0.1089  0.0445  0.0029 </r>
       </set>
       <set comment="band 2">
        <r>  0.1089  0.0445  0.0029 </r>
        <r>  0.1081  0.0448  0.0029 </r>
        <r>  0.1535  0.0636  0.0042 </r>
        <r>  0.1546  0.0632  0.0041 </r>
       </set>
       <set comment="band 3">
        <r>  0.1166  0.1368  0.0032 </r>
        <r>  0.1176  0.1360  0.0032 </r>
        <r>  0.0532  0.0615  0.0015 </r>
        <r>  0.0527  0.0619  0.0015 </r>
       </set>
       <set comment="band 4">
        <r>  0.0527  0.0619  0.0015 </r>
        <r>  0.0532  0.0615  0.0015 </r>
        <r>  0.1176  0.1360  0.0032 </r>
        <r>  0.1166  0.1368  0.0032 </r>
       </set>
       <set comment="band 5">
        <r>  0.0315  0.2170  0.0037 </r>
        <r>  0.0316  0.2167  0.0037 </r>
        <r>  0.0175  0.1199  0.0021 </r>
        <r>  0.0174  0.1201  0.0021 </r>
       </set>
       <set comment="band 6">
        <r>  0.0174  0.1201  0.0021 </r>
        <r>  0.0175  0.1199  0.0021 </r>
        <r>  0.0316  0.2167  0.0037 </r>
        <r>  0.0315  0.2170  0.0037 </r>
       </set>
       <set comment="band 7">
        <r>  0.0003  0.1549  0.0065 </r>
        <r>  0.0000  0.1533  0.0065 </r>
        <r>  0.0001  0.1094  0.0047 </r>
        <r>  0.0004  0.1103  0.0047 </r>
       </set>
       <set comment="band 8">
        <r>  0.0004  0.1103  0.0047 </r>
        <r>  0.0001  0.1094  0.0047 </r>
        <r>  0.0000  0.1533  0.0065 </r>
        <r>  0.0003  0.1549  0.0065 </r>
       </set>
       <set comment="band 9">
        <r>  0.0002  0.0011  0.0002 </r>
        <r>  0.0006  0.0010  0.0002 </r>
        <r>  0.0000  0.2566  0.0195 </r>
        <r>  0.0000  0.2529  0.0198 </r>
       </set>
       <set comment="band 10">
        <r>  0.0000  0.2529  0.0198 </r>
        <r>  0.0000  0.2566  0.0195 </r>
        <r>  0.0006  0.0010  0.0002 </r>
        <r>  0.0002  0.0011  0.0002 </r>
       </set>
       <set comment="band 11">
        <r>  0.0382  0.0788  0.0212 </r>
        <r>  0.0264  0.0383  0.0327 </r>
        <r>  0.0198  0.0318  0.0268 </r>
        <r>  0.0286  0.0622  0.0182 </r>
       </set>
       <set comment="band 12">
        <r>  0.0286  0.0622  0.0182 </r>
        <r>  0.0198  0.0319  0.0268 </r>
        <r>  0.0264  0.0383  0.0327 </r>
        <r>  0.0382  0.0788  0.0212 </r>
       </set>
      </set>
      <set comment="kpoint 117">
       <set comment="band 1">
        <r>  0.0102  0.0038  0.0002 </r>
        <r>  0.0102  0.0038  0.0002 </r>
        <r>  0.2509  0.0939  0.0048 </r>
        <r>  0.2516  0.0937  0.0048 </r>
       </set>
       <set comment="band 2">
        <r>  0.2516  0.0937  0.0048 </r>
        <r>  0.2509  0.0939  0.0048 </r>
        <r>  0.0102  0.0038  0.0002 </r>
        <r>  0.0102  0.0038  0.0002 </r>
       </set>
       <set comment="band 3">
        <r>  0.0144  0.0156  0.0007 </r>
        <r>  0.0144  0.0155  0.0007 </r>
        <r>  0.1760  0.1895  0.0084 </r>
        <r>  0.1757  0.1900  0.0084 </r>
       </set>
       <set comment="band 4">
        <r>  0.1757  0.1900  0.0084 </r>
        <r>  0.1760  0.1895  0.0084 </r>
        <r>  0.0144  0.0155  0.0007 </r>
        <r>  0.0144  0.0156  0.0007 </r>
       </set>
       <set comment="band 5">
        <r>  0.0249  0.3017  0.0050 </r>
        <r>  0.0252  0.3013  0.0050 </r>
        <r>  0.0033  0.0399  0.0007 </r>
        <r>  0.0033  0.0399  0.0007 </r>
       </set>
       <set comment="band 6">
        <r>  0.0033  0.0399  0.0007 </r>
        <r>  0.0033  0.0399  0.0007 </r>
        <r>  0.0252  0.3013  0.0050 </r>
        <r>  0.0249  0.3017  0.0050 </r>
       </set>
       <set comment="band 7">
        <r>  0.0008  0.0382  0.0017 </r>
        <r>  0.0004  0.0383  0.0017 </r>
        <r>  0.0001  0.2116  0.0090 </r>
        <r>  0.0001  0.2133  0.0089 </r>
       </set>
       <set comment="band 8">
        <r>  0.0001  0.2133  0.0089 </r>
        <r>  0.0001  0.2116  0.0090 </r>
        <r>  0.0004  0.0383  0.0017 </r>
        <r>  0.0008  0.0382  0.0017 </r>
       </set>
       <set comment="band 9">
        <r>  0.0000  0.2016  0.0136 </r>
        <r>  0.0000  0.2036  0.0134 </r>
        <r>  0.0000  0.0795  0.0052 </r>
        <r>  0.0000  0.0784  0.0054 </r>
       </set>
       <set comment="band 10">
        <r>  0.0000  0.0784  0.0054 </r>
        <r>  0.0000  0.0795  0.0052 </r>
        <r>  0.0000  0.2036  0.0134 </r>
        <r>  0.0000  0.2016  0.0136 </r>
       </set>
       <set comment="band 11">
        <r>  0.0039  0.0500  0.0072 </r>
        <r>  0.0005  0.0142  0.0173 </r>
        <r>  0.0001  0.0341  0.0145 </r>
        <r>  0.0008  0.0451  0.0125 </r>
       </set>
       <set comment="band 12">
        <r>  0.0008  0.0451  0.0125 </r>
        <r>  0.0001  0.0341  0.0145 </r>
        <r>  0.0005  0.0142  0.0173 </r>
        <r>  0.0039  0.0501  0.0072 </r>
       </set>
      </set>
      <set comment="kpoint 118">
       <set comment="band 1">
        <r>  0.2101  0.0965  0.0050 </r>
        <r>  0.2090  0.0969  0.0050 </r>
        <r>  0.0419  0.0195  0.0010 </r>
        <r>  0.0422  0.0194  0.0010 </r>
       </set>
       <set comment="band 2">
        <r>  0.0422  0.0194  0.0010 </r>
        <r>  0.0419  0.0195  0.0010 </r>
        <r>  0.2090  0.0969  0.0050 </r>
        <r>  0.2101  0.0965  0.0050 </r>
       </set>
       <set comment="band 3">
        <r>  0.1005  0.0955  0.0037 </r>
        <r>  0.1010  0.0950  0.0037 </r>
        <r>  0.0972  0.0915  0.0036 </r>
        <r>  0.0968  0.0920  0.0036 </r>
       </set>
       <set comment="band 4">
        <r>  0.0968  0.0920  0.0036 </r>
        <r>  0.0972  0.0915  0.0036 </r>
        <r>  0.1010  0.0950  0.0037 </r>
        <r>  0.1005  0.0955  0.0037 </r>
       </set>
       <set comment="band 5">
        <r>  0.0200  0.1570  0.0020 </r>
        <r>  0.0201  0.1568  0.0020 </r>
        <r>  0.0217  0.1691  0.0022 </r>
        <r>  0.0215  0.1694  0.0022 </r>
       </set>
       <set comment="band 6">
        <r>  0.0215  0.1694  0.0022 </r>
        <r>  0.0217  0.1691  0.0022 </r>
        <r>  0.0201  0.1568  0.0020 </r>
        <r>  0.0200  0.1570  0.0020 </r>
       </set>
       <set comment="band 7">
        <r>  0.0005  0.0723  0.0034 </r>
        <r>  0.0002  0.0717  0.0034 </r>
        <r>  0.0001  0.1868  0.0088 </r>
        <r>  0.0002  0.1891  0.0087 </r>
       </set>
       <set comment="band 8">
        <r>  0.0002  0.1891  0.0087 </r>
        <r>  0.0001  0.1868  0.0088 </r>
        <r>  0.0002  0.0717  0.0034 </r>
        <r>  0.0005  0.0723  0.0034 </r>
       </set>
       <set comment="band 9">
        <r>  0.0001  0.0993  0.0066 </r>
        <r>  0.0000  0.1010  0.0065 </r>
        <r>  0.0000  0.1746  0.0112 </r>
        <r>  0.0001  0.1720  0.0114 </r>
       </set>
       <set comment="band 10">
        <r>  0.0001  0.1720  0.0114 </r>
        <r>  0.0000  0.1746  0.0112 </r>
        <r>  0.0000  0.1010  0.0065 </r>
        <r>  0.0001  0.0993  0.0066 </r>
       </set>
       <set comment="band 11">
        <r>  0.0028  0.0490  0.0036 </r>
        <r>  0.0000  0.0033  0.0161 </r>
        <r>  0.0000  0.0182  0.0242 </r>
        <r>  0.0003  0.0240  0.0230 </r>
       </set>
       <set comment="band 12">
        <r>  0.0003  0.0240  0.0230 </r>
        <r>  0.0000  0.0182  0.0242 </r>
        <r>  0.0000  0.0034  0.0161 </r>
        <r>  0.0028  0.0490  0.0036 </r>
       </set>
      </set>
      <set comment="kpoint 119">
       <set comment="band 1">
        <r>  0.1461  0.0569  0.0046 </r>
        <r>  0.1439  0.0579  0.0046 </r>
        <r>  0.1272  0.0511  0.0041 </r>
        <r>  0.1291  0.0503  0.0040 </r>
       </set>
       <set comment="band 2">
        <r>  0.1291  0.0503  0.0040 </r>
        <r>  0.1272  0.0511  0.0041 </r>
        <r>  0.1439  0.0579  0.0046 </r>
        <r>  0.1461  0.0569  0.0046 </r>
       </set>
       <set comment="band 3">
        <r>  0.0424  0.0499  0.0011 </r>
        <r>  0.0433  0.0493  0.0011 </r>
        <r>  0.1295  0.1472  0.0032 </r>
        <r>  0.1269  0.1490  0.0032 </r>
       </set>
       <set comment="band 4">
        <r>  0.1269  0.1490  0.0032 </r>
        <r>  0.1295  0.1473  0.0032 </r>
        <r>  0.0433  0.0493  0.0011 </r>
        <r>  0.0424  0.0499  0.0011 </r>
       </set>
       <set comment="band 5">
        <r>  0.0310  0.1959  0.0024 </r>
        <r>  0.0311  0.1956  0.0024 </r>
        <r>  0.0195  0.1227  0.0015 </r>
        <r>  0.0194  0.1228  0.0015 </r>
       </set>
       <set comment="band 6">
        <r>  0.0194  0.1228  0.0015 </r>
        <r>  0.0195  0.1227  0.0015 </r>
        <r>  0.0311  0.1956  0.0024 </r>
        <r>  0.0310  0.1959  0.0024 </r>
       </set>
       <set comment="band 7">
        <r>  0.0004  0.0881  0.0041 </r>
        <r>  0.0000  0.0867  0.0041 </r>
        <r>  0.0000  0.1789  0.0085 </r>
        <r>  0.0002  0.1827  0.0084 </r>
       </set>
       <set comment="band 8">
        <r>  0.0002  0.1827  0.0084 </r>
        <r>  0.0000  0.1789  0.0085 </r>
        <r>  0.0000  0.0867  0.0041 </r>
        <r>  0.0004  0.0881  0.0041 </r>
       </set>
       <set comment="band 9">
        <r>  0.0001  0.1046  0.0071 </r>
        <r>  0.0001  0.1073  0.0069 </r>
        <r>  0.0001  0.1615  0.0104 </r>
        <r>  0.0001  0.1575  0.0106 </r>
       </set>
       <set comment="band 10">
        <r>  0.0001  0.1575  0.0106 </r>
        <r>  0.0001  0.1615  0.0104 </r>
        <r>  0.0001  0.1073  0.0069 </r>
        <r>  0.0001  0.1046  0.0071 </r>
       </set>
       <set comment="band 11">
        <r>  0.0010  0.0266  0.0186 </r>
        <r>  0.0000  0.0081  0.0235 </r>
        <r>  0.0000  0.0050  0.0196 </r>
        <r>  0.0017  0.0364  0.0111 </r>
       </set>
       <set comment="band 12">
        <r>  0.0017  0.0364  0.0111 </r>
        <r>  0.0000  0.0050  0.0196 </r>
        <r>  0.0000  0.0081  0.0235 </r>
        <r>  0.0010  0.0266  0.0186 </r>
       </set>
      </set>
      <set comment="kpoint 120">
       <set comment="band 1">
        <r>  0.0331  0.0169  0.0010 </r>
        <r>  0.0326  0.0171  0.0010 </r>
        <r>  0.2153  0.1127  0.0064 </r>
        <r>  0.2185  0.1113  0.0064 </r>
       </set>
       <set comment="band 2">
        <r>  0.2185  0.1113  0.0064 </r>
        <r>  0.2153  0.1127  0.0064 </r>
        <r>  0.0326  0.0171  0.0010 </r>
        <r>  0.0331  0.0169  0.0010 </r>
       </set>
       <set comment="band 3">
        <r>  0.2307  0.1490  0.0079 </r>
        <r>  0.2339  0.1469  0.0079 </r>
        <r>  0.0047  0.0030  0.0002 </r>
        <r>  0.0046  0.0030  0.0002 </r>
       </set>
       <set comment="band 4">
        <r>  0.0046  0.0030  0.0002 </r>
        <r>  0.0047  0.0030  0.0002 </r>
        <r>  0.2339  0.1469  0.0079 </r>
        <r>  0.2307  0.1490  0.0079 </r>
       </set>
       <set comment="band 5">
        <r>  0.0085  0.2300  0.0007 </r>
        <r>  0.0086  0.2298  0.0007 </r>
        <r>  0.0040  0.1080  0.0003 </r>
        <r>  0.0040  0.1081  0.0003 </r>
       </set>
       <set comment="band 6">
        <r>  0.0040  0.1081  0.0003 </r>
        <r>  0.0040  0.1080  0.0003 </r>
        <r>  0.0086  0.2298  0.0007 </r>
        <r>  0.0085  0.2300  0.0007 </r>
       </set>
       <set comment="band 7">
        <r>  0.0005  0.0024  0.0002 </r>
        <r>  0.0000  0.0029  0.0001 </r>
        <r>  0.0000  0.2600  0.0137 </r>
        <r>  0.0000  0.2696  0.0132 </r>
       </set>
       <set comment="band 8">
        <r>  0.0000  0.2696  0.0132 </r>
        <r>  0.0000  0.2600  0.0137 </r>
        <r>  0.0000  0.0029  0.0001 </r>
        <r>  0.0005  0.0024  0.0002 </r>
       </set>
       <set comment="band 9">
        <r>  0.0003  0.0010  0.0002 </r>
        <r>  0.0000  0.0016  0.0001 </r>
        <r>  0.0000  0.2762  0.0155 </r>
        <r>  0.0000  0.2661  0.0160 </r>
       </set>
       <set comment="band 10">
        <r>  0.0000  0.2661  0.0160 </r>
        <r>  0.0000  0.2762  0.0155 </r>
        <r>  0.0000  0.0016  0.0001 </r>
        <r>  0.0003  0.0010  0.0002 </r>
       </set>
       <set comment="band 11">
        <r>  0.0003  0.0398  0.0014 </r>
        <r>  0.0001  0.0001  0.0122 </r>
        <r>  0.0000  0.0029  0.0318 </r>
        <r>  0.0000  0.0046  0.0314 </r>
       </set>
       <set comment="band 12">
        <r>  0.0000  0.0046  0.0314 </r>
        <r>  0.0000  0.0029  0.0318 </r>
        <r>  0.0001  0.0001  0.0122 </r>
        <r>  0.0003  0.0398  0.0014 </r>
       </set>
      </set>
     </set>
    </set>
   </array>
  </projected>
 </calculation>
 <structure name="finalpos" >
  <crystal>
   <varray name="basis" >
    <v>       2.45000000       0.00000000       0.00000000 </v>
    <v>      -1.22500000       2.12176224       0.00000000 </v>
    <v>       0.00000000       0.00000000       6.70000000 </v>
   </varray>
   <i name="volume">     34.82872713 </i>
   <varray name="rec_basis" >
    <v>       0.40816327       0.23565317       0.00000000 </v>
    <v>       0.00000000       0.47130634       0.00000000 </v>
    <v>       0.00000000       0.00000000       0.14925373 </v>
   </varray>
  </crystal>
  <varray name="positions" >
   <v>       0.00000000       0.00000000       0.00000000 </v>
   <v>       0.33333333       0.66666667       0.00000000 </v>
   <v>       0.66666667       0.33333333       0.50000000 </v>
   <v>       0.00000000       0.00000000       0.50000000 </v>
  </varray>
 </structure>
</modeling>
