graphite                                
           1
     2.450000    0.000000    0.000000
    -1.225000    2.121762    0.000000
     0.000000    0.000000    6.700000
   C 
   4
Direct configuration=     1
   0.00000000  0.00000000  0.00000000
   0.33333333  0.66666667  0.00000000
   0.66666667  0.33333333  0.50000000
   0.00000000  0.00000000  0.50000000
