Nb                                      
   3.30080000000000     
     2.000000    0.000000    0.000000
     0.000000    2.000000    0.000000
     0.000000    0.000000    2.000000
   Nb
    16
Direct
  0.000000  0.000000  0.000000
  0.250000  0.250000  0.250000
  0.500000  0.000000  0.000000
  0.750000  0.250000  0.250000
  0.000000  0.500000  0.000000
  0.250000  0.750000  0.250000
  0.000000  0.000000  0.500000
  0.250000  0.250000  0.750000
  0.500000  0.500000  0.000000
  0.750000  0.750000  0.250000
  0.000000  0.500000  0.500000
  0.250000  0.750000  0.750000
  0.500000  0.000000  0.500000
  0.750000  0.250000  0.750000
  0.500000  0.500000  0.500000
  0.750000  0.750000  0.750000
 
   56   56   56
 0.13509192083E+04 0.13250526955E+04 0.12459227443E+04 0.11121537884E+04 0.92978799483E+03
 0.71775600675E+03 0.50603327565E+03 0.32578260137E+03 0.19703774241E+03 0.12176480620E+03
 0.86097805676E+02 0.69786311988E+02 0.62049239322E+02 0.58982651100E+02 0.58218867977E+02
 0.58982651100E+02 0.62049239322E+02 0.69786311988E+02 0.86097805676E+02 0.12176480620E+03
 0.19703774241E+03 0.32578260137E+03 0.50603327565E+03 0.71775600675E+03 0.92978799483E+03
 0.11121537884E+04 0.12459227443E+04 0.13250526955E+04 0.13509192083E+04 0.13250526955E+04
 0.12459227443E+04 0.11121537884E+04 0.92978799483E+03 0.71775600675E+03 0.50603327565E+03
 0.32578260137E+03 0.19703774241E+03 0.12176480620E+03 0.86097805676E+02 0.69786311988E+02
 0.62049239322E+02 0.58982651100E+02 0.58218867977E+02 0.58982651100E+02 0.62049239322E+02
 0.69786311988E+02 0.86097805676E+02 0.12176480620E+03 0.19703774241E+03 0.32578260137E+03
 0.50603327565E+03 0.71775600675E+03 0.92978799483E+03 0.11121537884E+04 0.12459227443E+04
 0.13250526955E+04 0.13250526955E+04 0.12993701643E+04 0.12208761147E+04 0.10884320412E+04
 0.90837796284E+03 0.69979067476E+03 0.49241383125E+03 0.31676508842E+03 0.19205914152E+03
 0.11963252349E+03 0.85419180689E+02 0.69567990176E+02 0.62042241683E+02 0.59060329364E+02
 0.58317919789E+02 0.59060329364E+02 0.62042241683E+02 0.69567990176E+02 0.85419180689E+02
 0.11963252349E+03 0.19205914152E+03 0.31676508842E+03 0.49241383125E+03 0.69979067476E+03
 0.90837796284E+03 0.10884320412E+04 0.12208761147E+04 0.12993701643E+04 0.13250526955E+04
 0.12993701643E+04 0.12208761147E+04 0.10884320412E+04 0.90837796284E+03 0.69979067476E+03
 0.49241383125E+03 0.31676508842E+03 0.19205914152E+03 0.11963252349E+03 0.85419180689E+02
 0.69567990176E+02 0.62042241683E+02 0.59060329364E+02 0.58317919789E+02 0.59060329364E+02
 0.62042241683E+02 0.69567990176E+02 0.85419180689E+02 0.11963252349E+03 0.19205914152E+03
 0.31676508842E+03 0.49241383125E+03 0.69979067476E+03 0.90837796284E+03 0.10884320412E+04
 0.12208761147E+04 0.12993701643E+04 0.12459227443E+04 0.12208761147E+04 0.11445671967E+04
 0.10165958283E+04 0.84413339740E+03 0.64651851487E+03 0.45259136103E+03 0.29081910157E+03
 0.17799905428E+03 0.11373216979E+03 0.83521316571E+02 0.68953469919E+02 0.62034050194E+02
 0.59292275800E+02 0.58609844429E+02 0.59292275800E+02 0.62034050194E+02 0.68953469919E+02
 0.83521316571E+02 0.11373216979E+03 0.17799905428E+03 0.29081910157E+03 0.45259136103E+03
 0.64651851487E+03 0.84413339740E+03 0.10165958283E+04 0.11445671967E+04 0.12208761147E+04
 0.12459227443E+04 0.12208761147E+04 0.11445671967E+04 0.10165958283E+04 0.84413339740E+03
 0.64651851487E+03 0.45259136103E+03 0.29081910157E+03 0.17799905428E+03 0.11373216979E+03
 0.83521316571E+02 0.68953469919E+02 0.62034050194E+02 0.59292275800E+02 0.58609844429E+02
 0.59292275800E+02 0.62034050194E+02 0.68953469919E+02 0.83521316571E+02 0.11373216979E+03
 0.17799905428E+03 0.29081910157E+03 0.45259136103E+03 0.64651851487E+03 0.84413339740E+03
 0.10165958283E+04 0.11445671967E+04 0.12208761147E+04 0.11121537884E+04 0.10884320412E+04
 0.10165958283E+04 0.89746456524E+03 0.73933264673E+03 0.56144468573E+03 0.39059503854E+03
 0.25161229726E+03 0.15748532653E+03 0.10542135375E+03 0.80698582269E+02 0.68050741955E+02
 0.62050019534E+02 0.59664321443E+02 0.59068930503E+02 0.59664321443E+02 0.62050019534E+02
 0.68050741955E+02 0.80698582269E+02 0.10542135375E+03 0.15748532653E+03 0.25161229726E+03
 0.39059503854E+03 0.56144468573E+03 0.73933264673E+03 0.89746456524E+03 0.10165958283E+04
 0.10884320412E+04 0.11121537884E+04 0.10884320412E+04 0.10165958283E+04 0.89746456524E+03
 0.73933264673E+03 0.56144468573E+03 0.39059503854E+03 0.25161229726E+03 0.15748532653E+03
 0.10542135375E+03 0.80698582269E+02 0.68050741955E+02 0.62050019534E+02 0.59664321443E+02
 0.59068930503E+02 0.59664321443E+02 0.62050019534E+02 0.68050741955E+02 0.80698582269E+02
 0.10542135375E+03 0.15748532653E+03 0.25161229726E+03 0.39059503854E+03 0.56144468573E+03
 0.73933264673E+03 0.89746456524E+03 0.10165958283E+04 0.10884320412E+04 0.92978799483E+03
 0.90837796284E+03 0.84413339740E+03 0.73933264673E+03 0.60321036269E+03 0.45398755773E+03
 0.31490616258E+03 0.20566226666E+03 0.13456757365E+03 0.96444026580E+02 0.77289455706E+02
 0.67000879383E+02 0.62099601443E+02 0.60127345766E+02 0.59629581491E+02 0.60127345766E+02
 0.62099601443E+02 0.67000879383E+02 0.77289455706E+02 0.96444026580E+02 0.13456757365E+03
 0.20566226666E+03 0.31490616258E+03 0.45398755773E+03 0.60321036269E+03 0.73933264673E+03
 0.84413339740E+03 0.90837796284E+03 0.92978799483E+03 0.90837796284E+03 0.84413339740E+03
 0.73933264673E+03 0.60321036269E+03 0.45398755773E+03 0.31490616258E+03 0.20566226666E+03
 0.13456757365E+03 0.96444026580E+02 0.77289455706E+02 0.67000879383E+02 0.62099601443E+02
 0.60127345766E+02 0.59629581491E+02 0.60127345766E+02 0.62099601443E+02 0.67000879383E+02
 0.77289455706E+02 0.96444026580E+02 0.13456757365E+03 0.20566226666E+03 0.31490616258E+03
 0.45398755773E+03 0.60321036269E+03 0.73933264673E+03 0.84413339740E+03 0.90837796284E+03
 0.71775600675E+03 0.69979067476E+03 0.64651851487E+03 0.56144468573E+03 0.45398755773E+03
 0.34004336211E+03 0.23789127616E+03 0.16119225648E+03 0.11353951137E+03 0.88071917231E+02
 0.73745850265E+02 0.65935801981E+02 0.62155175078E+02 0.60587547555E+02 0.60180311908E+02
 0.60587547555E+02 0.62155175078E+02 0.65935801981E+02 0.73745850265E+02 0.88071917231E+02
 0.11353951137E+03 0.16119225648E+03 0.23789127616E+03 0.34004336211E+03 0.45398755773E+03
 0.56144468573E+03 0.64651851487E+03 0.69979067476E+03 0.71775600675E+03 0.69979067476E+03
 0.64651851487E+03 0.56144468573E+03 0.45398755773E+03 0.34004336211E+03 0.23789127616E+03
 0.16119225648E+03 0.11353951137E+03 0.88071917231E+02 0.73745850265E+02 0.65935801981E+02
 0.62155175078E+02 0.60587547555E+02 0.60180311908E+02 0.60587547555E+02 0.62155175078E+02
 0.65935801981E+02 0.73745850265E+02 0.88071917231E+02 0.11353951137E+03 0.16119225648E+03
 0.23789127616E+03 0.34004336211E+03 0.45398755773E+03 0.56144468573E+03 0.64651851487E+03
 0.69979067476E+03 0.50603327565E+03 0.49241383125E+03 0.45259136103E+03 0.39059503854E+03
 0.31490616258E+03 0.23789127616E+03 0.17211169626E+03 0.12526861178E+03 0.97080466091E+02
 0.80530160891E+02 0.70485851298E+02 0.64942612347E+02 0.62154076663E+02 0.60924518597E+02
 0.60586515173E+02 0.60924518597E+02 0.62154076663E+02 0.64942612347E+02 0.70485851298E+02
 0.80530160891E+02 0.97080466091E+02 0.12526861178E+03 0.17211169626E+03 0.23789127616E+03
 0.31490616258E+03 0.39059503854E+03 0.45259136103E+03 0.49241383125E+03 0.50603327565E+03
 0.49241383125E+03 0.45259136103E+03 0.39059503854E+03 0.31490616258E+03 0.23789127616E+03
 0.17211169626E+03 0.12526861178E+03 0.97080466091E+02 0.80530160891E+02 0.70485851298E+02
 0.64942612347E+02 0.62154076663E+02 0.60924518597E+02 0.60586515173E+02 0.60924518597E+02
 0.62154076663E+02 0.64942612347E+02 0.70485851298E+02 0.80530160891E+02 0.97080466091E+02
 0.12526861178E+03 0.17211169626E+03 0.23789127616E+03 0.31490616258E+03 0.39059503854E+03
 0.45259136103E+03 0.49241383125E+03 0.32578260137E+03 0.31676508842E+03 0.29081910157E+03
 0.25161229726E+03 0.20566226666E+03 0.16119225648E+03 0.12526861178E+03 0.10069294011E+03
 0.84850466957E+02 0.74270406089E+02 0.67770822403E+02 0.64045416490E+02 0.62022394551E+02
 0.61032397653E+02 0.60736425762E+02 0.61032397653E+02 0.62022394551E+02 0.64045416490E+02
 0.67770822403E+02 0.74270406089E+02 0.84850466957E+02 0.10069294011E+03 0.12526861178E+03
 0.16119225648E+03 0.20566226666E+03 0.25161229726E+03 0.29081910157E+03 0.31676508842E+03
 0.32578260137E+03 0.31676508842E+03 0.29081910157E+03 0.25161229726E+03 0.20566226666E+03
 0.16119225648E+03 0.12526861178E+03 0.10069294011E+03 0.84850466957E+02 0.74270406089E+02
 0.67770822403E+02 0.64045416490E+02 0.62022394551E+02 0.61032397653E+02 0.60736425762E+02
 0.61032397653E+02 0.62022394551E+02 0.64045416490E+02 0.67770822403E+02 0.74270406089E+02
 0.84850466957E+02 0.10069294011E+03 0.12526861178E+03 0.16119225648E+03 0.20566226666E+03
 0.25161229726E+03 0.29081910157E+03 0.31676508842E+03 0.19703774241E+03 0.19205914152E+03
 0.17799905428E+03 0.15748532653E+03 0.13456757365E+03 0.11353951137E+03 0.97080466091E+02
 0.84850466957E+02 0.75751479757E+02 0.69577347387E+02 0.65651920396E+02 0.63211163997E+02
 0.61706563190E+02 0.60862475093E+02 0.60586515173E+02 0.60862475093E+02 0.61706563190E+02
 0.63211163997E+02 0.65651920396E+02 0.69577347387E+02 0.75751479757E+02 0.84850466957E+02
 0.97080466091E+02 0.11353951137E+03 0.13456757365E+03 0.15748532653E+03 0.17799905428E+03
 0.19205914152E+03 0.19703774241E+03 0.19205914152E+03 0.17799905428E+03 0.15748532653E+03
 0.13456757365E+03 0.11353951137E+03 0.97080466091E+02 0.84850466957E+02 0.75751479757E+02
 0.69577347387E+02 0.65651920396E+02 0.63211163997E+02 0.61706563190E+02 0.60862475093E+02
 0.60586515173E+02 0.60862475093E+02 0.61706563190E+02 0.63211163997E+02 0.65651920396E+02
 0.69577347387E+02 0.75751479757E+02 0.84850466957E+02 0.97080466091E+02 0.11353951137E+03
 0.13456757365E+03 0.15748532653E+03 0.17799905428E+03 0.19205914152E+03 0.12176480620E+03
 0.11963252349E+03 0.11373216979E+03 0.10542135375E+03 0.96444026580E+02 0.88071917231E+02
 0.80530160891E+02 0.74270406089E+02 0.69577347387E+02 0.66287547158E+02 0.64011017479E+02
 0.62380297250E+02 0.61198144242E+02 0.60443920459E+02 0.60180311908E+02 0.60443920459E+02
 0.61198144242E+02 0.62380297250E+02 0.64011017479E+02 0.66287547158E+02 0.69577347387E+02
 0.74270406089E+02 0.80530160891E+02 0.88071917231E+02 0.96444026580E+02 0.10542135375E+03
 0.11373216979E+03 0.11963252349E+03 0.12176480620E+03 0.11963252349E+03 0.11373216979E+03
 0.10542135375E+03 0.96444026580E+02 0.88071917231E+02 0.80530160891E+02 0.74270406089E+02
 0.69577347387E+02 0.66287547158E+02 0.64011017479E+02 0.62380297250E+02 0.61198144242E+02
 0.60443920459E+02 0.60180311908E+02 0.60443920459E+02 0.61198144242E+02 0.62380297250E+02
 0.64011017479E+02 0.66287547158E+02 0.69577347387E+02 0.74270406089E+02 0.80530160891E+02
 0.88071917231E+02 0.96444026580E+02 0.10542135375E+03 0.11373216979E+03 0.11963252349E+03
 0.86097805676E+02 0.85419180689E+02 0.83521316571E+02 0.80698582269E+02 0.77289455706E+02
 0.73745850265E+02 0.70485851298E+02 0.67770822403E+02 0.65651920396E+02 0.64011017479E+02
 0.62670902144E+02 0.61513366699E+02 0.60543782497E+02 0.59872365343E+02 0.59629581491E+02
 0.59872365343E+02 0.60543782497E+02 0.61513366699E+02 0.62670902144E+02 0.64011017479E+02
 0.65651920396E+02 0.67770822403E+02 0.70485851298E+02 0.73745850265E+02 0.77289455706E+02
 0.80698582269E+02 0.83521316571E+02 0.85419180689E+02 0.86097805676E+02 0.85419180689E+02
 0.83521316571E+02 0.80698582269E+02 0.77289455706E+02 0.73745850265E+02 0.70485851298E+02
 0.67770822403E+02 0.65651920396E+02 0.64011017479E+02 0.62670902144E+02 0.61513366699E+02
 0.60543782497E+02 0.59872365343E+02 0.59629581491E+02 0.59872365343E+02 0.60543782497E+02
 0.61513366699E+02 0.62670902144E+02 0.64011017479E+02 0.65651920396E+02 0.67770822403E+02
 0.70485851298E+02 0.73745850265E+02 0.77289455706E+02 0.80698582269E+02 0.83521316571E+02
 0.85419180689E+02 0.69786311988E+02 0.69567990176E+02 0.68953469919E+02 0.68050741955E+02
 0.67000879383E+02 0.65935801981E+02 0.64942612347E+02 0.64045416490E+02 0.63211163997E+02
 0.62380297250E+02 0.61513366699E+02 0.60633314881E+02 0.59838714835E+02 0.59274265692E+02
 0.59068930503E+02 0.59274265692E+02 0.59838714835E+02 0.60633314881E+02 0.61513366699E+02
 0.62380297250E+02 0.63211163997E+02 0.64045416490E+02 0.64942612347E+02 0.65935801981E+02
 0.67000879383E+02 0.68050741955E+02 0.68953469919E+02 0.69567990176E+02 0.69786311988E+02
 0.69567990176E+02 0.68953469919E+02 0.68050741955E+02 0.67000879383E+02 0.65935801981E+02
 0.64942612347E+02 0.64045416490E+02 0.63211163997E+02 0.62380297250E+02 0.61513366699E+02
 0.60633314881E+02 0.59838714835E+02 0.59274265692E+02 0.59068930503E+02 0.59274265692E+02
 0.59838714835E+02 0.60633314881E+02 0.61513366699E+02 0.62380297250E+02 0.63211163997E+02
 0.64045416490E+02 0.64942612347E+02 0.65935801981E+02 0.67000879383E+02 0.68050741955E+02
 0.68953469919E+02 0.69567990176E+02 0.62049239322E+02 0.62042241683E+02 0.62034050194E+02
 0.62050019534E+02 0.62099601443E+02 0.62155175078E+02 0.62154076663E+02 0.62022394551E+02
 0.61706563190E+02 0.61198144242E+02 0.60543782497E+02 0.59838714835E+02 0.59206047277E+02
 0.58766973216E+02 0.58609844429E+02 0.58766973216E+02 0.59206047277E+02 0.59838714835E+02
 0.60543782497E+02 0.61198144242E+02 0.61706563190E+02 0.62022394551E+02 0.62154076663E+02
 0.62155175078E+02 0.62099601443E+02 0.62050019534E+02 0.62034050194E+02 0.62042241683E+02
 0.62049239322E+02 0.62042241683E+02 0.62034050194E+02 0.62050019534E+02 0.62099601443E+02
 0.62155175078E+02 0.62154076663E+02 0.62022394551E+02 0.61706563190E+02 0.61198144242E+02
 0.60543782497E+02 0.59838714835E+02 0.59206047277E+02 0.58766973216E+02 0.58609844429E+02
 0.58766973216E+02 0.59206047277E+02 0.59838714835E+02 0.60543782497E+02 0.61198144242E+02
 0.61706563190E+02 0.62022394551E+02 0.62154076663E+02 0.62155175078E+02 0.62099601443E+02
 0.62050019534E+02 0.62034050194E+02 0.62042241683E+02 0.58982651100E+02 0.59060329364E+02
 0.59292275800E+02 0.59664321443E+02 0.60127345766E+02 0.60587547555E+02 0.60924518597E+02
 0.61032397653E+02 0.60862475093E+02 0.60443920459E+02 0.59872365343E+02 0.59274265692E+02
 0.58766973216E+02 0.58433457094E+02 0.58317919789E+02 0.58433457094E+02 0.58766973216E+02
 0.59274265692E+02 0.59872365343E+02 0.60443920459E+02 0.60862475093E+02 0.61032397653E+02
 0.60924518597E+02 0.60587547555E+02 0.60127345766E+02 0.59664321443E+02 0.59292275800E+02
 0.59060329364E+02 0.58982651100E+02 0.59060329364E+02 0.59292275800E+02 0.59664321443E+02
 0.60127345766E+02 0.60587547555E+02 0.60924518597E+02 0.61032397653E+02 0.60862475093E+02
 0.60443920459E+02 0.59872365343E+02 0.59274265692E+02 0.58766973216E+02 0.58433457094E+02
 0.58317919789E+02 0.58433457094E+02 0.58766973216E+02 0.59274265692E+02 0.59872365343E+02
 0.60443920459E+02 0.60862475093E+02 0.61032397653E+02 0.60924518597E+02 0.60587547555E+02
 0.60127345766E+02 0.59664321443E+02 0.59292275800E+02 0.59060329364E+02 0.58218867977E+02
 0.58317919789E+02 0.58609844429E+02 0.59068930503E+02 0.59629581491E+02 0.60180311908E+02
 0.60586515173E+02 0.60736425762E+02 0.60586515173E+02 0.60180311908E+02 0.59629581491E+02
 0.59068930503E+02 0.58609844429E+02 0.58317919789E+02 0.58218867977E+02 0.58317919789E+02
 0.58609844429E+02 0.59068930503E+02 0.59629581491E+02 0.60180311908E+02 0.60586515173E+02
 0.60736425762E+02 0.60586515173E+02 0.60180311908E+02 0.59629581491E+02 0.59068930503E+02
 0.58609844429E+02 0.58317919789E+02 0.58218867977E+02 0.58317919789E+02 0.58609844429E+02
 0.59068930503E+02 0.59629581491E+02 0.60180311908E+02 0.60586515173E+02 0.60736425762E+02
 0.60586515173E+02 0.60180311908E+02 0.59629581491E+02 0.59068930503E+02 0.58609844429E+02
 0.58317919789E+02 0.58218867977E+02 0.58317919789E+02 0.58609844429E+02 0.59068930503E+02
 0.59629581491E+02 0.60180311908E+02 0.60586515173E+02 0.60736425762E+02 0.60586515173E+02
 0.60180311908E+02 0.59629581491E+02 0.59068930503E+02 0.58609844429E+02 0.58317919789E+02
 0.58982651100E+02 0.59060329364E+02 0.59292275800E+02 0.59664321443E+02 0.60127345766E+02
 0.60587547555E+02 0.60924518597E+02 0.61032397653E+02 0.60862475093E+02 0.60443920459E+02
 0.59872365343E+02 0.59274265692E+02 0.58766973216E+02 0.58433457094E+02 0.58317919789E+02
 0.58433457094E+02 0.58766973216E+02 0.59274265692E+02 0.59872365343E+02 0.60443920459E+02
 0.60862475093E+02 0.61032397653E+02 0.60924518597E+02 0.60587547555E+02 0.60127345766E+02
 0.59664321443E+02 0.59292275800E+02 0.59060329364E+02 0.58982651100E+02 0.59060329364E+02
 0.59292275800E+02 0.59664321443E+02 0.60127345766E+02 0.60587547555E+02 0.60924518597E+02
 0.61032397653E+02 0.60862475093E+02 0.60443920459E+02 0.59872365343E+02 0.59274265692E+02
 0.58766973216E+02 0.58433457094E+02 0.58317919789E+02 0.58433457094E+02 0.58766973216E+02
 0.59274265692E+02 0.59872365343E+02 0.60443920459E+02 0.60862475093E+02 0.61032397653E+02
 0.60924518597E+02 0.60587547555E+02 0.60127345766E+02 0.59664321443E+02 0.59292275800E+02
 0.59060329364E+02 0.62049239322E+02 0.62042241683E+02 0.62034050194E+02 0.62050019534E+02
 0.62099601443E+02 0.62155175078E+02 0.62154076663E+02 0.62022394551E+02 0.61706563190E+02
 0.61198144242E+02 0.60543782497E+02 0.59838714835E+02 0.59206047277E+02 0.58766973216E+02
 0.58609844429E+02 0.58766973216E+02 0.59206047277E+02 0.59838714835E+02 0.60543782497E+02
 0.61198144242E+02 0.61706563190E+02 0.62022394551E+02 0.62154076663E+02 0.62155175078E+02
 0.62099601443E+02 0.62050019534E+02 0.62034050194E+02 0.62042241683E+02 0.62049239322E+02
 0.62042241683E+02 0.62034050194E+02 0.62050019534E+02 0.62099601443E+02 0.62155175078E+02
 0.62154076663E+02 0.62022394551E+02 0.61706563190E+02 0.61198144242E+02 0.60543782497E+02
 0.59838714835E+02 0.59206047277E+02 0.58766973216E+02 0.58609844429E+02 0.58766973216E+02
 0.59206047277E+02 0.59838714835E+02 0.60543782497E+02 0.61198144242E+02 0.61706563190E+02
 0.62022394551E+02 0.62154076663E+02 0.62155175078E+02 0.62099601443E+02 0.62050019534E+02
 0.62034050194E+02 0.62042241683E+02 0.69786311988E+02 0.69567990176E+02 0.68953469919E+02
 0.68050741955E+02 0.67000879383E+02 0.65935801981E+02 0.64942612347E+02 0.64045416490E+02
 0.63211163997E+02 0.62380297250E+02 0.61513366699E+02 0.60633314881E+02 0.59838714835E+02
 0.59274265692E+02 0.59068930503E+02 0.59274265692E+02 0.59838714835E+02 0.60633314881E+02
 0.61513366699E+02 0.62380297250E+02 0.63211163997E+02 0.64045416490E+02 0.64942612347E+02
 0.65935801981E+02 0.67000879383E+02 0.68050741955E+02 0.68953469919E+02 0.69567990176E+02
 0.69786311988E+02 0.69567990176E+02 0.68953469919E+02 0.68050741955E+02 0.67000879383E+02
 0.65935801981E+02 0.64942612347E+02 0.64045416490E+02 0.63211163997E+02 0.62380297250E+02
 0.61513366699E+02 0.60633314881E+02 0.59838714835E+02 0.59274265692E+02 0.59068930503E+02
 0.59274265692E+02 0.59838714835E+02 0.60633314881E+02 0.61513366699E+02 0.62380297250E+02
 0.63211163997E+02 0.64045416490E+02 0.64942612347E+02 0.65935801981E+02 0.67000879383E+02
 0.68050741955E+02 0.68953469919E+02 0.69567990176E+02 0.86097805676E+02 0.85419180689E+02
 0.83521316571E+02 0.80698582269E+02 0.77289455706E+02 0.73745850265E+02 0.70485851298E+02
 0.67770822403E+02 0.65651920396E+02 0.64011017479E+02 0.62670902144E+02 0.61513366699E+02
 0.60543782497E+02 0.59872365343E+02 0.59629581491E+02 0.59872365343E+02 0.60543782497E+02
 0.61513366699E+02 0.62670902144E+02 0.64011017479E+02 0.65651920396E+02 0.67770822403E+02
 0.70485851298E+02 0.73745850265E+02 0.77289455706E+02 0.80698582269E+02 0.83521316571E+02
 0.85419180689E+02 0.86097805676E+02 0.85419180689E+02 0.83521316571E+02 0.80698582269E+02
 0.77289455706E+02 0.73745850265E+02 0.70485851298E+02 0.67770822403E+02 0.65651920396E+02
 0.64011017479E+02 0.62670902144E+02 0.61513366699E+02 0.60543782497E+02 0.59872365343E+02
 0.59629581491E+02 0.59872365343E+02 0.60543782497E+02 0.61513366699E+02 0.62670902144E+02
 0.64011017479E+02 0.65651920396E+02 0.67770822403E+02 0.70485851298E+02 0.73745850265E+02
 0.77289455706E+02 0.80698582269E+02 0.83521316571E+02 0.85419180689E+02 0.12176480620E+03
 0.11963252349E+03 0.11373216979E+03 0.10542135375E+03 0.96444026580E+02 0.88071917231E+02
 0.80530160891E+02 0.74270406089E+02 0.69577347387E+02 0.66287547158E+02 0.64011017479E+02
 0.62380297250E+02 0.61198144242E+02 0.60443920459E+02 0.60180311908E+02 0.60443920459E+02
 0.61198144242E+02 0.62380297250E+02 0.64011017479E+02 0.66287547158E+02 0.69577347387E+02
 0.74270406089E+02 0.80530160891E+02 0.88071917231E+02 0.96444026580E+02 0.10542135375E+03
 0.11373216979E+03 0.11963252349E+03 0.12176480620E+03 0.11963252349E+03 0.11373216979E+03
 0.10542135375E+03 0.96444026580E+02 0.88071917231E+02 0.80530160891E+02 0.74270406089E+02
 0.69577347387E+02 0.66287547158E+02 0.64011017479E+02 0.62380297250E+02 0.61198144242E+02
 0.60443920459E+02 0.60180311908E+02 0.60443920459E+02 0.61198144242E+02 0.62380297250E+02
 0.64011017479E+02 0.66287547158E+02 0.69577347387E+02 0.74270406089E+02 0.80530160891E+02
 0.88071917231E+02 0.96444026580E+02 0.10542135375E+03 0.11373216979E+03 0.11963252349E+03
 0.19703774241E+03 0.19205914152E+03 0.17799905428E+03 0.15748532653E+03 0.13456757365E+03
 0.11353951137E+03 0.97080466091E+02 0.84850466957E+02 0.75751479757E+02 0.69577347387E+02
 0.65651920396E+02 0.63211163997E+02 0.61706563190E+02 0.60862475093E+02 0.60586515173E+02
 0.60862475093E+02 0.61706563190E+02 0.63211163997E+02 0.65651920396E+02 0.69577347387E+02
 0.75751479757E+02 0.84850466957E+02 0.97080466091E+02 0.11353951137E+03 0.13456757365E+03
 0.15748532653E+03 0.17799905428E+03 0.19205914152E+03 0.19703774241E+03 0.19205914152E+03
 0.17799905428E+03 0.15748532653E+03 0.13456757365E+03 0.11353951137E+03 0.97080466091E+02
 0.84850466957E+02 0.75751479757E+02 0.69577347387E+02 0.65651920396E+02 0.63211163997E+02
 0.61706563190E+02 0.60862475093E+02 0.60586515173E+02 0.60862475093E+02 0.61706563190E+02
 0.63211163997E+02 0.65651920396E+02 0.69577347387E+02 0.75751479757E+02 0.84850466957E+02
 0.97080466091E+02 0.11353951137E+03 0.13456757365E+03 0.15748532653E+03 0.17799905428E+03
 0.19205914152E+03 0.32578260137E+03 0.31676508842E+03 0.29081910157E+03 0.25161229726E+03
 0.20566226666E+03 0.16119225648E+03 0.12526861178E+03 0.10069294011E+03 0.84850466957E+02
 0.74270406089E+02 0.67770822403E+02 0.64045416490E+02 0.62022394551E+02 0.61032397653E+02
 0.60736425762E+02 0.61032397653E+02 0.62022394551E+02 0.64045416490E+02 0.67770822403E+02
 0.74270406089E+02 0.84850466957E+02 0.10069294011E+03 0.12526861178E+03 0.16119225648E+03
 0.20566226666E+03 0.25161229726E+03 0.29081910157E+03 0.31676508842E+03 0.32578260137E+03
 0.31676508842E+03 0.29081910157E+03 0.25161229726E+03 0.20566226666E+03 0.16119225648E+03
 0.12526861178E+03 0.10069294011E+03 0.84850466957E+02 0.74270406089E+02 0.67770822403E+02
 0.64045416490E+02 0.62022394551E+02 0.61032397653E+02 0.60736425762E+02 0.61032397653E+02
 0.62022394551E+02 0.64045416490E+02 0.67770822403E+02 0.74270406089E+02 0.84850466957E+02
 0.10069294011E+03 0.12526861178E+03 0.16119225648E+03 0.20566226666E+03 0.25161229726E+03
 0.29081910157E+03 0.31676508842E+03 0.50603327565E+03 0.49241383125E+03 0.45259136103E+03
 0.39059503854E+03 0.31490616258E+03 0.23789127616E+03 0.17211169626E+03 0.12526861178E+03
 0.97080466091E+02 0.80530160891E+02 0.70485851298E+02 0.64942612347E+02 0.62154076663E+02
 0.60924518597E+02 0.60586515173E+02 0.60924518597E+02 0.62154076663E+02 0.64942612347E+02
 0.70485851298E+02 0.80530160891E+02 0.97080466091E+02 0.12526861178E+03 0.17211169626E+03
 0.23789127616E+03 0.31490616258E+03 0.39059503854E+03 0.45259136103E+03 0.49241383125E+03
 0.50603327565E+03 0.49241383125E+03 0.45259136103E+03 0.39059503854E+03 0.31490616258E+03
 0.23789127616E+03 0.17211169626E+03 0.12526861178E+03 0.97080466091E+02 0.80530160891E+02
 0.70485851298E+02 0.64942612347E+02 0.62154076663E+02 0.60924518597E+02 0.60586515173E+02
 0.60924518597E+02 0.62154076663E+02 0.64942612347E+02 0.70485851298E+02 0.80530160891E+02
 0.97080466091E+02 0.12526861178E+03 0.17211169626E+03 0.23789127616E+03 0.31490616258E+03
 0.39059503854E+03 0.45259136103E+03 0.49241383125E+03 0.71775600675E+03 0.69979067476E+03
 0.64651851487E+03 0.56144468573E+03 0.45398755773E+03 0.34004336211E+03 0.23789127616E+03
 0.16119225648E+03 0.11353951137E+03 0.88071917231E+02 0.73745850265E+02 0.65935801981E+02
 0.62155175078E+02 0.60587547555E+02 0.60180311908E+02 0.60587547555E+02 0.62155175078E+02
 0.65935801981E+02 0.73745850265E+02 0.88071917231E+02 0.11353951137E+03 0.16119225648E+03
 0.23789127616E+03 0.34004336211E+03 0.45398755773E+03 0.56144468573E+03 0.64651851487E+03
 0.69979067476E+03 0.71775600675E+03 0.69979067476E+03 0.64651851487E+03 0.56144468573E+03
 0.45398755773E+03 0.34004336211E+03 0.23789127616E+03 0.16119225648E+03 0.11353951137E+03
 0.88071917231E+02 0.73745850265E+02 0.65935801981E+02 0.62155175078E+02 0.60587547555E+02
 0.60180311908E+02 0.60587547555E+02 0.62155175078E+02 0.65935801981E+02 0.73745850265E+02
 0.88071917231E+02 0.11353951137E+03 0.16119225648E+03 0.23789127616E+03 0.34004336211E+03
 0.45398755773E+03 0.56144468573E+03 0.64651851487E+03 0.69979067476E+03 0.92978799483E+03
 0.90837796284E+03 0.84413339740E+03 0.73933264673E+03 0.60321036269E+03 0.45398755773E+03
 0.31490616258E+03 0.20566226666E+03 0.13456757365E+03 0.96444026580E+02 0.77289455706E+02
 0.67000879383E+02 0.62099601443E+02 0.60127345766E+02 0.59629581491E+02 0.60127345766E+02
 0.62099601443E+02 0.67000879383E+02 0.77289455706E+02 0.96444026580E+02 0.13456757365E+03
 0.20566226666E+03 0.31490616258E+03 0.45398755773E+03 0.60321036269E+03 0.73933264673E+03
 0.84413339740E+03 0.90837796284E+03 0.92978799483E+03 0.90837796284E+03 0.84413339740E+03
 0.73933264673E+03 0.60321036269E+03 0.45398755773E+03 0.31490616258E+03 0.20566226666E+03
 0.13456757365E+03 0.96444026580E+02 0.77289455706E+02 0.67000879383E+02 0.62099601443E+02
 0.60127345766E+02 0.59629581491E+02 0.60127345766E+02 0.62099601443E+02 0.67000879383E+02
 0.77289455706E+02 0.96444026580E+02 0.13456757365E+03 0.20566226666E+03 0.31490616258E+03
 0.45398755773E+03 0.60321036269E+03 0.73933264673E+03 0.84413339740E+03 0.90837796284E+03
 0.11121537884E+04 0.10884320412E+04 0.10165958283E+04 0.89746456524E+03 0.73933264673E+03
 0.56144468573E+03 0.39059503854E+03 0.25161229726E+03 0.15748532653E+03 0.10542135375E+03
 0.80698582269E+02 0.68050741955E+02 0.62050019534E+02 0.59664321443E+02 0.59068930503E+02
 0.59664321443E+02 0.62050019534E+02 0.68050741955E+02 0.80698582269E+02 0.10542135375E+03
 0.15748532653E+03 0.25161229726E+03 0.39059503854E+03 0.56144468573E+03 0.73933264673E+03
 0.89746456524E+03 0.10165958283E+04 0.10884320412E+04 0.11121537884E+04 0.10884320412E+04
 0.10165958283E+04 0.89746456524E+03 0.73933264673E+03 0.56144468573E+03 0.39059503854E+03
 0.25161229726E+03 0.15748532653E+03 0.10542135375E+03 0.80698582269E+02 0.68050741955E+02
 0.62050019534E+02 0.59664321443E+02 0.59068930503E+02 0.59664321443E+02 0.62050019534E+02
 0.68050741955E+02 0.80698582269E+02 0.10542135375E+03 0.15748532653E+03 0.25161229726E+03
 0.39059503854E+03 0.56144468573E+03 0.73933264673E+03 0.89746456524E+03 0.10165958283E+04
 0.10884320412E+04 0.12459227443E+04 0.12208761147E+04 0.11445671967E+04 0.10165958283E+04
 0.84413339740E+03 0.64651851487E+03 0.45259136103E+03 0.29081910157E+03 0.17799905428E+03
 0.11373216979E+03 0.83521316571E+02 0.68953469919E+02 0.62034050194E+02 0.59292275800E+02
 0.58609844429E+02 0.59292275800E+02 0.62034050194E+02 0.68953469919E+02 0.83521316571E+02
 0.11373216979E+03 0.17799905428E+03 0.29081910157E+03 0.45259136103E+03 0.64651851487E+03
 0.84413339740E+03 0.10165958283E+04 0.11445671967E+04 0.12208761147E+04 0.12459227443E+04
 0.12208761147E+04 0.11445671967E+04 0.10165958283E+04 0.84413339740E+03 0.64651851487E+03
 0.45259136103E+03 0.29081910157E+03 0.17799905428E+03 0.11373216979E+03 0.83521316571E+02
 0.68953469919E+02 0.62034050194E+02 0.59292275800E+02 0.58609844429E+02 0.59292275800E+02
 0.62034050194E+02 0.68953469919E+02 0.83521316571E+02 0.11373216979E+03 0.17799905428E+03
 0.29081910157E+03 0.45259136103E+03 0.64651851487E+03 0.84413339740E+03 0.10165958283E+04
 0.11445671967E+04 0.12208761147E+04 0.13250526955E+04 0.12993701643E+04 0.12208761147E+04
 0.10884320412E+04 0.90837796284E+03 0.69979067476E+03 0.49241383125E+03 0.31676508842E+03
 0.19205914152E+03 0.11963252349E+03 0.85419180689E+02 0.69567990176E+02 0.62042241683E+02
 0.59060329364E+02 0.58317919789E+02 0.59060329364E+02 0.62042241683E+02 0.69567990176E+02
 0.85419180689E+02 0.11963252349E+03 0.19205914152E+03 0.31676508842E+03 0.49241383125E+03
 0.69979067476E+03 0.90837796284E+03 0.10884320412E+04 0.12208761147E+04 0.12993701643E+04
 0.13250526955E+04 0.12993701643E+04 0.12208761147E+04 0.10884320412E+04 0.90837796284E+03
 0.69979067476E+03 0.49241383125E+03 0.31676508842E+03 0.19205914152E+03 0.11963252349E+03
 0.85419180689E+02 0.69567990176E+02 0.62042241683E+02 0.59060329364E+02 0.58317919789E+02
 0.59060329364E+02 0.62042241683E+02 0.69567990176E+02 0.85419180689E+02 0.11963252349E+03
 0.19205914152E+03 0.31676508842E+03 0.49241383125E+03 0.69979067476E+03 0.90837796284E+03
 0.10884320412E+04 0.12208761147E+04 0.12993701643E+04 0.13509192083E+04 0.13250526955E+04
 0.12459227443E+04 0.11121537884E+04 0.92978799483E+03 0.71775600675E+03 0.50603327565E+03
 0.32578260137E+03 0.19703774241E+03 0.12176480620E+03 0.86097805676E+02 0.69786311988E+02
 0.62049239322E+02 0.58982651100E+02 0.58218867977E+02 0.58982651100E+02 0.62049239322E+02
 0.69786311988E+02 0.86097805676E+02 0.12176480620E+03 0.19703774241E+03 0.32578260137E+03
 0.50603327565E+03 0.71775600675E+03 0.92978799483E+03 0.11121537884E+04 0.12459227443E+04
 0.13250526955E+04 0.13509192083E+04 0.13250526955E+04 0.12459227443E+04 0.11121537884E+04
 0.92978799483E+03 0.71775600675E+03 0.50603327565E+03 0.32578260137E+03 0.19703774241E+03