  16  16   0   0
  0.1798157E+02  0.6601600E-09  0.6601600E-09  0.6601600E-09  0.5000000E-15
  1.000000000000000E-004
  CAR 
 Nb gaussian                             
     10.94350883    -28.07316817  301      4.85377163      1.00000000
    -28.073  0.0000E+00  0.0000E+00
    -27.943  0.0000E+00  0.0000E+00
    -27.813  0.0000E+00  0.0000E+00
    -27.683  0.0000E+00  0.0000E+00
    -27.553  0.0000E+00  0.0000E+00
    -27.423  0.0000E+00  0.0000E+00
    -27.293  0.0000E+00  0.0000E+00
    -27.163  0.1062E-13  0.1381E-14
    -27.033  0.1129E-10  0.1470E-11
    -26.903  0.5308E-08  0.6918E-09
    -26.773  0.1125E-05  0.1470E-06
    -26.643  0.1090E-03  0.1432E-04
    -26.513  0.4927E-02  0.6551E-03
    -26.382  0.1070E+00  0.1458E-01
    -26.252  0.1168E+01  0.1664E+00
    -26.122  0.6798E+01  0.1051E+01
    -25.992  0.2270E+02  0.4003E+01
    -25.862  0.4633E+02  0.1003E+02
    -25.732  0.6112E+02  0.1798E+02
    -25.602  0.5900E+02  0.2565E+02
    -25.472  0.5447E+02  0.3273E+02
    -25.342  0.5896E+02  0.4040E+02
    -25.212  0.6882E+02  0.4935E+02
    -25.082  0.7701E+02  0.5937E+02
    -24.952  0.8343E+02  0.7022E+02
    -24.822  0.8588E+02  0.8139E+02
    -24.692  0.6826E+02  0.9027E+02
    -24.562  0.3367E+02  0.9464E+02
    -24.432  0.9084E+01  0.9583E+02
    -24.302  0.1250E+01  0.9599E+02
    -24.172  0.8381E-01  0.9600E+02
    -24.041  0.2654E-02  0.9600E+02
    -23.911  0.3879E-04  0.9600E+02
    -23.781  0.2573E-06  0.9600E+02
    -23.651  0.7650E-09  0.9600E+02
    -23.521  0.1010E-11  0.9600E+02
    -23.391  0.0000E+00  0.9600E+02
    -23.261  0.0000E+00  0.9600E+02
    -23.131  0.0000E+00  0.9600E+02
    -23.001  0.0000E+00  0.9600E+02
    -22.871  0.0000E+00  0.9600E+02
    -22.741  0.0000E+00  0.9600E+02
    -22.611  0.0000E+00  0.9600E+02
    -22.481  0.0000E+00  0.9600E+02
    -22.351  0.0000E+00  0.9600E+02
    -22.221  0.0000E+00  0.9600E+02
    -22.091  0.0000E+00  0.9600E+02
    -21.961  0.0000E+00  0.9600E+02
    -21.830  0.0000E+00  0.9600E+02
    -21.700  0.0000E+00  0.9600E+02
    -21.570  0.0000E+00  0.9600E+02
    -21.440  0.0000E+00  0.9600E+02
    -21.310  0.0000E+00  0.9600E+02
    -21.180  0.0000E+00  0.9600E+02
    -21.050  0.0000E+00  0.9600E+02
    -20.920  0.0000E+00  0.9600E+02
    -20.790  0.0000E+00  0.9600E+02
    -20.660  0.0000E+00  0.9600E+02
    -20.530  0.0000E+00  0.9600E+02
    -20.400  0.0000E+00  0.9600E+02
    -20.270  0.0000E+00  0.9600E+02
    -20.140  0.0000E+00  0.9600E+02
    -20.010  0.0000E+00  0.9600E+02
    -19.880  0.0000E+00  0.9600E+02
    -19.750  0.0000E+00  0.9600E+02
    -19.620  0.0000E+00  0.9600E+02
    -19.489  0.0000E+00  0.9600E+02
    -19.359  0.0000E+00  0.9600E+02
    -19.229  0.0000E+00  0.9600E+02
    -19.099  0.0000E+00  0.9600E+02
    -18.969  0.0000E+00  0.9600E+02
    -18.839  0.0000E+00  0.9600E+02
    -18.709  0.0000E+00  0.9600E+02
    -18.579  0.0000E+00  0.9600E+02
    -18.449  0.0000E+00  0.9600E+02
    -18.319  0.0000E+00  0.9600E+02
    -18.189  0.0000E+00  0.9600E+02
    -18.059  0.0000E+00  0.9600E+02
    -17.929  0.0000E+00  0.9600E+02
    -17.799  0.0000E+00  0.9600E+02
    -17.669  0.0000E+00  0.9600E+02
    -17.539  0.0000E+00  0.9600E+02
    -17.409  0.0000E+00  0.9600E+02
    -17.279  0.0000E+00  0.9600E+02
    -17.148  0.0000E+00  0.9600E+02
    -17.018  0.0000E+00  0.9600E+02
    -16.888  0.0000E+00  0.9600E+02
    -16.758  0.0000E+00  0.9600E+02
    -16.628  0.0000E+00  0.9600E+02
    -16.498  0.0000E+00  0.9600E+02
    -16.368  0.0000E+00  0.9600E+02
    -16.238  0.0000E+00  0.9600E+02
    -16.108  0.0000E+00  0.9600E+02
    -15.978  0.0000E+00  0.9600E+02
    -15.848  0.0000E+00  0.9600E+02
    -15.718  0.0000E+00  0.9600E+02
    -15.588  0.0000E+00  0.9600E+02
    -15.458  0.0000E+00  0.9600E+02
    -15.328  0.0000E+00  0.9600E+02
    -15.198  0.0000E+00  0.9600E+02
    -15.068  0.0000E+00  0.9600E+02
    -14.938  0.0000E+00  0.9600E+02
    -14.807  0.0000E+00  0.9600E+02
    -14.677  0.0000E+00  0.9600E+02
    -14.547  0.0000E+00  0.9600E+02
    -14.417  0.0000E+00  0.9600E+02
    -14.287  0.0000E+00  0.9600E+02
    -14.157  0.0000E+00  0.9600E+02
    -14.027  0.0000E+00  0.9600E+02
    -13.897  0.0000E+00  0.9600E+02
    -13.767  0.0000E+00  0.9600E+02
    -13.637  0.0000E+00  0.9600E+02
    -13.507  0.0000E+00  0.9600E+02
    -13.377  0.0000E+00  0.9600E+02
    -13.247  0.0000E+00  0.9600E+02
    -13.117  0.0000E+00  0.9600E+02
    -12.987  0.0000E+00  0.9600E+02
    -12.857  0.0000E+00  0.9600E+02
    -12.727  0.0000E+00  0.9600E+02
    -12.597  0.0000E+00  0.9600E+02
    -12.466  0.0000E+00  0.9600E+02
    -12.336  0.0000E+00  0.9600E+02
    -12.206  0.0000E+00  0.9600E+02
    -12.076  0.0000E+00  0.9600E+02
    -11.946  0.0000E+00  0.9600E+02
    -11.816  0.0000E+00  0.9600E+02
    -11.686  0.0000E+00  0.9600E+02
    -11.556  0.0000E+00  0.9600E+02
    -11.426  0.0000E+00  0.9600E+02
    -11.296  0.0000E+00  0.9600E+02
    -11.166  0.0000E+00  0.9600E+02
    -11.036  0.0000E+00  0.9600E+02
    -10.906  0.0000E+00  0.9600E+02
    -10.776  0.0000E+00  0.9600E+02
    -10.646  0.0000E+00  0.9600E+02
    -10.516  0.0000E+00  0.9600E+02
    -10.386  0.0000E+00  0.9600E+02
    -10.256  0.0000E+00  0.9600E+02
    -10.125  0.0000E+00  0.9600E+02
     -9.995  0.0000E+00  0.9600E+02
     -9.865  0.0000E+00  0.9600E+02
     -9.735  0.0000E+00  0.9600E+02
     -9.605  0.0000E+00  0.9600E+02
     -9.475  0.0000E+00  0.9600E+02
     -9.345  0.0000E+00  0.9600E+02
     -9.215  0.0000E+00  0.9600E+02
     -9.085  0.0000E+00  0.9600E+02
     -8.955  0.0000E+00  0.9600E+02
     -8.825  0.0000E+00  0.9600E+02
     -8.695  0.0000E+00  0.9600E+02
     -8.565  0.0000E+00  0.9600E+02
     -8.435  0.0000E+00  0.9600E+02
     -8.305  0.0000E+00  0.9600E+02
     -8.175  0.0000E+00  0.9600E+02
     -8.045  0.0000E+00  0.9600E+02
     -7.915  0.0000E+00  0.9600E+02
     -7.784  0.0000E+00  0.9600E+02
     -7.654  0.0000E+00  0.9600E+02
     -7.524  0.0000E+00  0.9600E+02
     -7.394  0.0000E+00  0.9600E+02
     -7.264  0.0000E+00  0.9600E+02
     -7.134  0.0000E+00  0.9600E+02
     -7.004  0.0000E+00  0.9600E+02
     -6.874  0.0000E+00  0.9600E+02
     -6.744  0.0000E+00  0.9600E+02
     -6.614  0.0000E+00  0.9600E+02
     -6.484  0.0000E+00  0.9600E+02
     -6.354  0.0000E+00  0.9600E+02
     -6.224  0.0000E+00  0.9600E+02
     -6.094  0.0000E+00  0.9600E+02
     -5.964  0.0000E+00  0.9600E+02
     -5.834  0.0000E+00  0.9600E+02
     -5.704  0.0000E+00  0.9600E+02
     -5.574  0.0000E+00  0.9600E+02
     -5.443  0.0000E+00  0.9600E+02
     -5.313  0.0000E+00  0.9600E+02
     -5.183  0.0000E+00  0.9600E+02
     -5.053  0.0000E+00  0.9600E+02
     -4.923  0.0000E+00  0.9600E+02
     -4.793  0.0000E+00  0.9600E+02
     -4.663  0.0000E+00  0.9600E+02
     -4.533  0.0000E+00  0.9600E+02
     -4.403  0.0000E+00  0.9600E+02
     -4.273  0.0000E+00  0.9600E+02
     -4.143  0.0000E+00  0.9600E+02
     -4.013  0.0000E+00  0.9600E+02
     -3.883  0.0000E+00  0.9600E+02
     -3.753  0.0000E+00  0.9600E+02
     -3.623  0.0000E+00  0.9600E+02
     -3.493  0.0000E+00  0.9600E+02
     -3.363  0.0000E+00  0.9600E+02
     -3.233  0.0000E+00  0.9600E+02
     -3.102  0.0000E+00  0.9600E+02
     -2.972  0.0000E+00  0.9600E+02
     -2.842  0.0000E+00  0.9600E+02
     -2.712  0.0000E+00  0.9600E+02
     -2.582  0.0000E+00  0.9600E+02
     -2.452  0.0000E+00  0.9600E+02
     -2.322  0.0000E+00  0.9600E+02
     -2.192  0.4610E-16  0.9600E+02
     -2.062  0.5578E-13  0.9600E+02
     -1.932  0.2867E-10  0.9600E+02
     -1.802  0.6619E-08  0.9600E+02
     -1.672  0.6952E-06  0.9600E+02
     -1.542  0.3379E-04  0.9600E+02
     -1.412  0.7787E-03  0.9600E+02
     -1.282  0.8809E-02  0.9600E+02
     -1.152  0.5155E-01  0.9601E+02
     -1.022  0.1691E+00  0.9603E+02
     -0.892  0.3505E+00  0.9608E+02
     -0.761  0.5343E+00  0.9615E+02
     -0.631  0.6912E+00  0.9623E+02
     -0.501  0.8297E+00  0.9634E+02
     -0.371  0.9606E+00  0.9647E+02
     -0.241  0.1090E+01  0.9661E+02
     -0.111  0.1221E+01  0.9677E+02
      0.019  0.1358E+01  0.9694E+02
      0.149  0.1502E+01  0.9714E+02
      0.279  0.1657E+01  0.9736E+02
      0.409  0.1827E+01  0.9759E+02
      0.539  0.2019E+01  0.9786E+02
      0.669  0.2242E+01  0.9815E+02
      0.799  0.2533E+01  0.9848E+02
      0.929  0.3091E+01  0.9888E+02
      1.059  0.4557E+01  0.9947E+02
      1.189  0.7576E+01  0.1005E+03
      1.319  0.1137E+02  0.1019E+03
      1.449  0.1422E+02  0.1038E+03
      1.580  0.1575E+02  0.1058E+03
      1.710  0.1673E+02  0.1080E+03
      1.840  0.1780E+02  0.1103E+03
      1.970  0.1922E+02  0.1128E+03
      2.100  0.2086E+02  0.1155E+03
      2.230  0.2199E+02  0.1184E+03
      2.360  0.2214E+02  0.1213E+03
      2.490  0.2138E+02  0.1241E+03
      2.620  0.1918E+02  0.1266E+03
      2.750  0.1527E+02  0.1285E+03
      2.880  0.1151E+02  0.1300E+03
      3.010  0.1064E+02  0.1314E+03
      3.140  0.1458E+02  0.1333E+03
      3.270  0.2232E+02  0.1362E+03
      3.400  0.2948E+02  0.1401E+03
      3.530  0.3198E+02  0.1442E+03
      3.660  0.2904E+02  0.1480E+03
      3.790  0.2404E+02  0.1511E+03
      3.921  0.2034E+02  0.1538E+03
      4.051  0.1857E+02  0.1562E+03
      4.181  0.1842E+02  0.1586E+03
      4.311  0.1999E+02  0.1612E+03
      4.441  0.2375E+02  0.1643E+03
      4.571  0.2842E+02  0.1680E+03
      4.701  0.3014E+02  0.1719E+03
      4.831  0.2736E+02  0.1754E+03
      4.961  0.2276E+02  0.1784E+03
      5.091  0.1838E+02  0.1808E+03
      5.221  0.1423E+02  0.1826E+03
      5.351  0.1091E+02  0.1841E+03
      5.481  0.9068E+01  0.1852E+03
      5.611  0.8229E+01  0.1863E+03
      5.741  0.7815E+01  0.1873E+03
      5.871  0.7601E+01  0.1883E+03
      6.001  0.7558E+01  0.1893E+03
      6.131  0.7670E+01  0.1903E+03
      6.262  0.7990E+01  0.1913E+03
      6.392  0.8724E+01  0.1925E+03
      6.522  0.1016E+02  0.1938E+03
      6.652  0.1204E+02  0.1954E+03
      6.782  0.1351E+02  0.1971E+03
      6.912  0.1436E+02  0.1990E+03
      7.042  0.1500E+02  0.2009E+03
      7.172  0.1570E+02  0.2030E+03
      7.302  0.1667E+02  0.2051E+03
      7.432  0.1799E+02  0.2075E+03
      7.562  0.1936E+02  0.2100E+03
      7.692  0.2018E+02  0.2126E+03
      7.822  0.2056E+02  0.2153E+03
      7.952  0.2133E+02  0.2181E+03
      8.082  0.2282E+02  0.2210E+03
      8.212  0.2369E+02  0.2241E+03
      8.342  0.2317E+02  0.2271E+03
      8.472  0.2235E+02  0.2300E+03
      8.603  0.2197E+02  0.2329E+03
      8.733  0.2142E+02  0.2357E+03
      8.863  0.1810E+02  0.2380E+03
      8.993  0.1070E+02  0.2394E+03
      9.123  0.3692E+01  0.2399E+03
      9.253  0.6659E+00  0.2400E+03
      9.383  0.5924E-01  0.2400E+03
      9.513  0.2515E-02  0.2400E+03
      9.643  0.4997E-04  0.2400E+03
      9.773  0.4589E-06  0.2400E+03
      9.903  0.1931E-08  0.2400E+03
     10.033  0.3700E-11  0.2400E+03
     10.163  0.2884E-14  0.2400E+03
     10.293  0.0000E+00  0.2400E+03
     10.423  0.0000E+00  0.2400E+03
     10.553  0.0000E+00  0.2400E+03
     10.683  0.0000E+00  0.2400E+03
     10.813  0.0000E+00  0.2400E+03
     10.944  0.0000E+00  0.2400E+03
