       N       E                     dE             d eps       ncg     rms          rms(c)
DAV:   1     0.132730531326E+04    0.13273E+04   -0.70694E+04 58160   0.112E+03
DAV:   2    -0.105331937403E+03   -0.14326E+04   -0.14049E+04 53240   0.453E+02
DAV:   3    -0.176415860195E+03   -0.71084E+02   -0.67091E+02 78040   0.796E+01
DAV:   4    -0.178341072682E+03   -0.19252E+01   -0.19158E+01 63800   0.144E+01
DAV:   5    -0.178429898455E+03   -0.88826E-01   -0.88713E-01 78000   0.221E+00
DAV:   6    -0.178430932182E+03   -0.10337E-02   -0.10336E-02 63440   0.298E-01
DAV:   7    -0.178430971539E+03   -0.39357E-04   -0.39356E-04 80920   0.501E-02
DAV:   8    -0.178430971813E+03   -0.27387E-06   -0.27398E-06 64320   0.586E-03
DAV:   9    -0.178430971825E+03   -0.11820E-07   -0.11685E-07 57880   0.100E-03
   1 F= -.17843097E+03 E0= -.17818840E+03  d E =-.485150E+00
