GaAs                                    
   5.75000000000000     
     0.000000    0.500247    0.500247
     0.500247    0.000000    0.500247
     0.500247    0.500247    0.000000
   Ga   As
     1     1
Direct
  0.000000  0.000000  0.000000
  0.250000  0.250000  0.250000
 
   28   28   28
 -2.1486     -1.1102      1.6344      5.1585      8.4065      10.600      11.442      11.102      10.078      8.9775    
  8.1704      7.6189      7.2544      7.0413      6.9702      7.0411      7.2542      7.6187      8.1705      8.9778    
  10.078      11.102      11.441      10.600      8.4065      5.1586      1.6344     -1.1103     -1.1102     0.69659    
  3.7581      7.1930      10.115      11.914      12.421      11.912      10.966      10.163      9.6244      9.2694    
  9.0457      8.9342      8.9341      9.0452      9.2688      9.6240      10.163      10.966      11.912      12.421    
  11.914      10.115      7.1932      3.7587     0.69719     -1.1099      1.6344      3.7581      6.6861      9.6777    
  12.018      13.256      13.378      12.799      12.140      11.721      11.476      11.331      11.250      11.223    
  11.250      11.331      11.475      11.720      12.140      12.800      13.379      13.257      12.018      9.6774    
  6.6862      3.7587      1.6349     0.86026      5.1585      7.1930      9.6777      12.012      13.640      14.309    
  14.203      13.846      13.676      13.672      13.734      13.797      13.832      13.833      13.798      13.733    
  13.669      13.675      13.846      14.204      14.310      13.641      12.011      9.6774      7.1929      5.1586    
  4.0271      4.0270      8.4065      10.115      12.018      13.640      14.626      14.962      15.012      15.208    
  15.574      15.988      16.342      16.572      16.651      16.573      16.342      15.986      15.571      15.206    
  15.012      14.964      14.627      13.641      12.018      10.115      8.4062      7.2608      6.8629      7.2609    
  10.600      11.914      13.256      14.309      14.962      15.427      16.055      16.879      17.761      18.551    
  19.118      19.395      19.396      19.120      18.551      17.758      16.875      16.052      15.426      14.964    
  14.310      13.257      11.915      10.600      9.6121      9.1012      9.1012      9.6121      11.442      12.421    
  13.378      14.203      15.012      16.055      17.345      18.744      20.060      21.039      21.574      21.737    
  21.577      21.042      20.060      18.740      17.340      16.052      15.011      14.204      13.379      12.421    
  11.442      10.639      10.144      9.9810      10.143      10.639      11.102      11.912      12.799      13.846    
  15.208      16.879      18.744      20.594      22.050      22.913      23.277      23.279      22.918      22.054    
  20.593      18.740      16.875      15.206      13.846      12.800      11.912      11.102      10.425      9.9618    
  9.7368      9.7366      9.9615      10.425      10.078      10.966      12.140      13.676      15.574      17.761    
  20.060      22.050      23.356      24.007      24.193      24.011      23.362      22.054      20.060      17.759    
  15.571      13.675      12.140      10.966      10.078      9.4008      8.9258      8.6536      8.5668      8.6535    
  8.9259      9.4011      8.9775      10.163      11.721      13.672      15.988      18.551      21.039      22.913    
  24.007      24.470      24.471      24.011      22.917      21.042      18.551      15.986      13.669      11.720    
  10.164      8.9778      8.1259      7.5517      7.2033      7.0419      7.0418      7.2032      7.5520      8.1262    
  8.1704      9.6244      11.476      13.734      16.342      19.118      21.574      23.277      24.193      24.471    
  24.194      23.280      21.577      19.120      16.342      13.733      11.475      9.6243      8.1709      7.0811    
  6.3165      5.8310      5.5711      5.4905      5.5710      5.8311      6.3166      7.0809      7.6189      9.2694    
  11.331      13.797      16.572      19.395      21.737      23.279      24.011      24.011      23.280      21.738    
  19.397      16.573      13.798      11.331      9.2686      7.6187      6.3503      5.4245      4.7987      4.4242    
  4.2525      4.2524      4.4242      4.7987      5.4243      6.3500      7.2544      9.0457      11.250      13.832    
  16.651      19.396      21.577      22.918      23.362      22.917      21.577      19.397      16.652      13.833    
  11.250      9.0452      7.2540      5.8553      4.8099      4.0747      3.6029      3.3460      3.2653      3.3459    
  3.6028      4.0746      4.8098      5.8554      7.0413      8.9342      11.223      13.833      16.573      19.120    
  21.042      22.054      22.054      21.042      19.120      16.573      13.833      11.223      8.9342      7.0413    
  5.5434      4.4063      3.5861      3.0356      2.7061      2.5542      2.5541      2.7060      3.0357      3.5863    
  4.4064      5.5434      6.9702      8.9341      11.250      13.798      16.342      18.551      20.060      20.593    
  20.060      18.551      16.342      13.798      11.250      8.9342      6.9704      5.3903      4.1745      3.2822    
  2.6651      2.2733      2.0606      1.9938      2.0606      2.2733      2.6652      3.2823      4.1745      5.3901    
  7.0411      9.0452      11.331      13.733      15.986      17.758      18.740      18.740      17.759      15.986    
  13.733      11.331      9.0452      7.0413      5.3903      4.0983      3.1354      2.4549      2.0051      1.7378    
  1.6148      1.6148      1.7378      2.0051      2.4548      3.1354      4.0983      5.3901      7.2542      9.2688    
  11.475      13.669      15.571      16.875      17.340      16.875      15.571      13.669      11.475      9.2686    
  7.2540      5.5434      4.1745      3.1354      2.3865      1.8765      1.5550      1.3804      1.3254      1.3804    
  1.5550      1.8764      2.3864      3.1354      4.1745      5.5435      7.6187      9.6240      11.720      13.675    
  15.206      16.052      16.052      15.206      13.675      11.720      9.6243      7.6187      5.8553      4.4063    
  3.2822      2.4549      1.8765      1.4958      1.2683      1.1627      1.1627      1.2684      1.4958      1.8765    
  2.4549      3.2823      4.4065      5.8556      8.1705      10.163      12.140      13.846      15.012      15.426    
  15.011      13.846      12.140      10.164      8.1709      6.3503      4.8099      3.5861      2.6651      2.0051    
  1.5550      1.2683      1.1102      1.0598      1.1102      1.2684      1.5550      2.0051      2.6652      3.5863    
  4.8100      6.3502      8.9778      10.966      12.800      14.204      14.964      14.964      14.204      12.800    
  10.966      8.9778      7.0811      5.4245      4.0747      3.0356      2.2733      1.7378      1.3804      1.1627    
  1.0598      1.0598      1.1627      1.3804      1.7378      2.2733      3.0356      4.0745      5.4244      7.0810    
  10.078      11.912      13.379      14.310      14.627      14.310      13.379      11.912      10.078      8.1259    
  6.3165      4.7987      3.6029      2.7061      2.0606      1.6148      1.3254      1.1627      1.1102      1.1627    
  1.3254      1.6148      2.0606      2.7060      3.6026      4.7986      6.3166      8.1262      11.102      12.421    
  13.257      13.641      13.641      13.257      12.421      11.102      9.4008      7.5517      5.8310      4.4242    
  3.3460      2.5542      1.9938      1.6148      1.3804      1.2684      1.2684      1.3804      1.6148      1.9938    
  2.5542      3.3459      4.4241      5.8310      7.5518      9.4010      11.441      11.914      12.018      12.011    
  12.018      11.915      11.442      10.425      8.9258      7.2033      5.5711      4.2525      3.2653      2.5541    
  2.0606      1.7378      1.5550      1.4958      1.5550      1.7378      2.0606      2.5542      3.2654      4.2525    
  5.5711      7.2032      8.9257      10.425      10.600      10.115      9.6774      9.6774      10.115      10.600    
  10.639      9.9618      8.6536      7.0419      5.4905      4.2524      3.3459      2.7060      2.2733      2.0051    
  1.8764      1.8765      2.0051      2.2733      2.7060      3.3459      4.2525      5.4906      7.0420      8.6535    
  9.9615      10.639      8.4065      7.1932      6.6862      7.1929      8.4062      9.6121      10.144      9.7368    
  8.5668      7.0418      5.5710      4.4242      3.6028      3.0357      2.6652      2.4548      2.3864      2.4549    
  2.6652      3.0356      3.6026      4.4241      5.5711      7.0420      8.5669      9.7367      10.144      9.6121    
  5.1586      3.7587      3.7587      5.1586      7.2608      9.1012      9.9810      9.7366      8.6535      7.2032    
  5.8311      4.7987      4.0746      3.5863      3.2823      3.1354      3.1354      3.2823      3.5863      4.0745    
  4.7986      5.8310      7.2032      8.6535      9.7367      9.9811      9.1013      7.2608      1.6344     0.69719    
  1.6349      4.0271      6.8629      9.1012      10.143      9.9615      8.9259      7.5520      6.3166      5.4243    
  4.8098      4.4064      4.1745      4.0983      4.1745      4.4065      4.8100      5.4244      6.3166      7.5518    
  8.9257      9.9615      10.144      9.1013      6.8626      4.0265     -1.1103     -1.1099     0.86026      4.0270    
  7.2609      9.6121      10.639      10.425      9.4011      8.1262      7.0809      6.3500      5.8554      5.5434    
  5.3901      5.3901      5.5435      5.8556      6.3502      7.0810      8.1262      9.4010      10.425      10.639    
  9.6121      7.2608      4.0265     0.85957     -1.1102     0.69659      3.7581      7.1930      10.115      11.914    
  12.421      11.912      10.966      10.163      9.6244      9.2694      9.0457      8.9342      8.9341      9.0452    
  9.2688      9.6240      10.163      10.966      11.912      12.421      11.914      10.115      7.1932      3.7587    
 0.69719     -1.1099     0.69659      2.9927      6.1682      9.4339      12.024      13.450      13.679      13.134    
  12.465      12.035      11.785      11.638      11.555      11.527      11.554      11.637      11.783      12.034    
  12.465      13.134      13.679      13.450      12.024      9.4339      6.1688      2.9936     0.69733     -.13928    
  3.7581      6.1682      9.1303      11.954      13.996      14.940      14.963      14.623      14.445      14.444    
  14.515      14.586      14.625      14.625      14.587      14.515      14.442      14.443      14.622      14.963    
  14.941      13.996      11.954      9.1303      6.1686      3.7587      2.4213      2.4210      7.1930      9.4339    
  11.954      14.159      15.588      16.179      16.318      16.541      16.951      17.414      17.809      18.064    
  18.150      18.066      17.811      17.414      16.949      16.539      16.318      16.180      15.588      14.159    
  11.954      9.4339      7.1929      5.6921      5.1702      5.6923      10.115      12.024      13.996      15.588    
  16.605      17.253      17.981      18.932      19.950      20.842      21.413      21.660      21.661      21.416    
  20.843      19.949      18.929      17.979      17.253      16.606      15.589      13.996      12.024      10.115    
  8.6765      7.9275      7.9275      8.6767      11.914      13.450      14.940      16.179      17.253      18.495    
  20.032      21.698      23.157      24.052      24.429      24.518      24.432      24.056      23.158      21.696    
  20.029      18.493      17.252      16.180      14.941      13.450      11.914      10.645      9.8480      9.5824    
  9.8478      10.645      12.421      13.679      14.963      16.318      17.981      20.032      22.322      24.388    
  25.661      26.149      26.235      26.238      26.157      25.666      24.389      22.320      20.029      17.978    
  16.318      14.963      13.679      12.421      11.327      10.554      10.169      10.169      10.554      11.327    
  11.912      13.134      14.623      16.541      18.932      21.698      24.388      26.191      26.918      26.988    
  26.938      26.995      26.927      26.197      24.390      21.696      18.929      16.539      14.623      13.134    
  11.912      10.902      10.151      9.7011      9.5539      9.7008      10.151      10.902      10.966      12.465    
  14.445      16.951      19.950      23.157      25.661      26.918      27.175      27.065      27.067      27.181    
  26.926      25.666      23.158      19.948      16.949      14.444      12.465      10.966      9.8529      9.0517    
  8.5360      8.2868      8.2864      8.5354      9.0521      9.8538      10.163      12.035      14.444      17.414    
  20.842      24.052      26.149      26.988      27.065      27.001      27.066      26.991      26.154      24.056    
  20.843      17.413      14.442      12.035      10.164      8.7680      7.7854      7.1492      6.7960      6.6834    
  6.7958      7.1493      7.7858      8.7680      9.6244      11.785      14.515      17.809      21.413      24.429    
  26.235      26.938      27.067      27.066      26.936      26.235      24.432      21.416      17.810      14.514    
  11.783      9.6242      7.9783      6.7798      5.9661      5.4743      5.2464      5.2466      5.4746      5.9662    
  6.7794      7.9779      9.2694      11.638      14.586      18.064      21.660      24.518      26.238      26.995    
  27.181      26.991      26.235      24.518      21.663      18.066      14.586      11.637      9.2690      7.4379    
  6.0750      5.1157      4.4968      4.1571      4.0496      4.1569      4.4968      5.1160      6.0750      7.4377    
  9.0457      11.555      14.625      18.150      21.661      24.432      26.157      26.927      26.926      26.154    
  24.432      21.663      18.152      14.625      11.554      9.0454      7.0814      5.5979      4.5276      3.8069    
  3.3736      3.1729      3.1726      3.3731      3.8071      4.5281      5.5980      7.0812      8.9342      11.527    
  14.625      18.066      21.416      24.056      25.666      26.197      25.666      24.056      21.416      18.066    
  14.625      11.527      8.9343      6.8732      5.2974      4.1414      3.3396      2.8292      2.5520      2.4649    
  2.5520      2.8292      3.3397      4.1415      5.2975      6.8731      8.9341      11.554      14.587      17.811    
  20.843      23.158      24.389      24.390      23.158      20.843      17.810      14.586      11.554      8.9343    
  6.8040      5.1502      3.9197      3.0487      2.4726      2.1310      1.9744      1.9744      2.1311      2.4726    
  3.0486      3.9197      5.1501      6.8038      9.0452      11.637      14.515      17.414      19.949      21.696    
  22.320      21.696      19.948      17.413      14.514      11.637      9.0454      6.8732      5.1502      3.8471    
  2.9083      2.2699      1.8697      1.6544      1.5870      1.6544      1.8697      2.2699      2.9082      3.8471    
  5.1501      6.8730      9.2688      11.783      14.442      16.949      18.929      20.029      20.029      18.929    
  16.949      14.442      11.783      9.2690      7.0814      5.2974      3.9197      2.9083      2.2041      1.7444    
  1.4735      1.3493      1.3494      1.4736      1.7444      2.2039      2.9083      3.9199      5.2975      7.0813    
  9.6240      12.034      14.443      16.539      17.979      18.493      17.978      16.539      14.444      12.035    
  9.6242      7.4379      5.5979      4.1414      3.0487      2.2699      1.7444      1.4150      1.2364      1.1800    
  1.2364      1.4150      1.7444      2.2699      3.0487      4.1416      5.5983      7.4382      10.163      12.465    
  14.622      16.318      17.253      17.252      16.318      14.623      12.465      10.164      7.9783      6.0750    
  4.5276      3.3396      2.4726      1.8697      1.4735      1.2364      1.1259      1.1258      1.2363      1.4735    
  1.8698      2.4726      3.3397      4.5279      6.0755      7.9785      10.966      13.134      14.963      16.180    
  16.606      16.180      14.963      13.134      10.966      8.7680      6.7798      5.1157      3.8069      2.8292    
  2.1310      1.6544      1.3493      1.1800      1.1258      1.1801      1.3494      1.6544      2.1310      2.8292    
  3.8068      5.1155      6.7797      8.7682      11.912      13.679      14.941      15.588      15.589      14.941    
  13.679      11.912      9.8529      7.7854      5.9661      4.4968      3.3736      2.5520      1.9744      1.5870    
  1.3494      1.2364      1.2363      1.3494      1.5871      1.9745      2.5519      3.3732      4.4964      5.9658    
  7.7857      9.8536      12.421      13.450      13.996      14.159      13.996      13.450      12.421      10.902    
  9.0517      7.1492      5.4743      4.1571      3.1729      2.4649      1.9744      1.6544      1.4736      1.4150    
  1.4735      1.6544      1.9745      2.4650      3.1729      4.1570      5.4742      7.1491      9.0516      10.902    
  11.914      12.024      11.954      11.954      12.024      11.914      11.327      10.151      8.5360      6.7960    
  5.2464      4.0496      3.1726      2.5520      2.1311      1.8697      1.7444      1.7444      1.8698      2.1310    
  2.5519      3.1729      4.0502      5.2468      6.7959      8.5354      10.150      11.327      10.115      9.4339    
  9.1303      9.4339      10.115      10.645      10.554      9.7011      8.2868      6.6834      5.2466      4.1569    
  3.3731      2.8292      2.4726      2.2699      2.2039      2.2699      2.4726      2.8292      3.3732      4.1570    
  5.2468      6.6836      8.2868      9.7009      10.554      10.645      7.1932      6.1688      6.1686      7.1929    
  8.6765      9.8480      10.169      9.5539      8.2864      6.7958      5.4746      4.4968      3.8071      3.3397    
  3.0486      2.9082      2.9083      3.0487      3.3397      3.8068      4.4964      5.4742      6.7959      8.2868    
  9.5543      10.169      9.8479      8.6766      3.7587      2.9936      3.7587      5.6921      7.9275      9.5824    
  10.169      9.7008      8.5354      7.1493      5.9662      5.1160      4.5281      4.1415      3.9197      3.8471    
  3.9199      4.1416      4.5279      5.1155      5.9658      7.1491      8.5354      9.7009      10.169      9.5827    
  7.9277      5.6922     0.69719     0.69733      2.4213      5.1702      7.9275      9.8478      10.554      10.151    
  9.0521      7.7858      6.7794      6.0750      5.5980      5.2975      5.1501      5.1501      5.2975      5.5983    
  6.0755      6.7797      7.7857      9.0516      10.150      10.554      9.8479      7.9277      5.1702      2.4210    
 -1.1099     -.13928      2.4210      5.6923      8.6767      10.645      11.327      10.902      9.8538      8.7680    
  7.9779      7.4377      7.0812      6.8731      6.8038      6.8730      7.0813      7.4382      7.9785      8.7682    
  9.8536      10.902      11.327      10.645      8.6766      5.6922      2.4210     -.13922      1.6344      3.7581    
  6.6861      9.6777      12.018      13.256      13.378      12.799      12.140      11.721      11.476      11.331    
  11.250      11.223      11.250      11.331      11.475      11.720      12.140      12.800      13.379      13.257    
  12.018      9.6774      6.6862      3.7587      1.6349     0.86026      3.7581      6.1682      9.1303      11.954    
  13.996      14.940      14.963      14.623      14.445      14.444      14.515      14.586      14.625      14.625    
  14.587      14.515      14.442      14.443      14.622      14.963      14.941      13.996      11.954      9.1303    
  6.1686      3.7587      2.4213      2.4210      6.6861      9.1303      11.885      14.314      15.915      16.608    
  16.785      17.016      17.441      17.922      18.333      18.596      18.683      18.598      18.335      17.923    
  17.441      17.015      16.783      16.607      15.915      14.314      11.885      9.1301      6.6860      5.0496    
  4.4801      5.0495      9.6777      11.954      14.314      16.242      17.493      18.263      19.050      20.070    
  21.163      22.089      22.634      22.848      22.849      22.637      22.093      21.166      20.071      19.048    
  18.261      17.492      16.243      14.314      11.953      9.6772      7.9615      7.0649      7.0649      7.9617    
  12.018      13.996      15.915      17.493      18.789      20.179      21.887      23.725      25.184      25.918    
  26.107      26.114      26.107      25.919      25.187      23.728      21.888      20.178      18.787      17.492    
  15.915      13.996      12.018      10.376      9.3371      8.9888      9.3372      10.376      13.256      14.940    
  16.608      18.263      20.179      22.537      25.127      27.148      28.026      28.000      27.732      27.731    
  27.998      28.026      27.151      25.130      22.539      20.178      18.262      16.607      14.941      13.257    
  11.767      10.700      10.161      10.161      10.700      11.767      13.378      14.963      16.785      19.050    
  21.887      25.127      27.812      28.992      28.758      27.982      27.594      27.980      28.758      28.995    
  27.815      25.129      21.887      19.049      16.784      14.963      13.378      12.011      10.962      10.320    
  10.107      10.320      10.962      12.011      12.799      14.623      17.016      20.070      23.725      27.148    
  28.992      28.921      27.738      26.703      26.702      27.737      28.923      28.996      27.152      23.726    
  20.070      17.016      14.623      12.799      11.383      10.316      9.6029      9.2492      9.2487      9.6022    
  10.316      11.385      12.140      14.445      17.441      21.163      25.184      28.026      28.758      27.738    
  26.236      25.555      26.233      27.734      28.758      28.029      25.187      21.164      17.441      14.445    
  12.140      10.432      9.2147      8.3955      7.9238      7.7702      7.9238      8.3956      9.2150      10.432    
  11.721      14.444      17.922      22.089      25.918      28.000      27.982      26.703      25.555      25.553    
  26.697      27.976      27.998      25.920      22.092      17.923      14.443      11.720      9.6664      8.1788    
  7.1662      6.5471      6.2556      6.2562      6.5479      7.1660      8.1778      9.6659      11.476      14.515    
  18.333      22.634      26.107      27.732      27.594      26.702      26.233      26.697      27.588      27.729    
  26.107      22.636      18.334      14.515      11.476      9.1514      7.4359      6.2312      5.4497      5.0156    
  4.8770      5.0156      5.4497      6.2312      7.4357      9.1512      11.331      14.586      18.596      22.848    
  26.114      27.731      27.980      27.737      27.734      27.976      27.729      26.114      22.849      18.596    
  14.586      11.332      8.8128      6.9274      5.5726      4.6590      4.1055      3.8466      3.8461      4.1047    
  4.6592      5.5734      6.9275      8.8122      11.250      14.625      18.683      22.849      26.107      27.998    
  28.758      28.923      28.758      27.998      26.107      22.849      18.683      14.625      11.250      8.5990    
  6.5922      5.1265      4.1092      3.4585      3.1029      2.9906      3.1028      3.4585      4.1092      5.1266    
  6.5924      8.5991      11.223      14.625      18.598      22.637      25.919      28.026      28.995      28.996    
  28.029      25.920      22.636      18.596      14.625      11.224      8.4933      6.3968      4.8456      3.7475    
  3.0188      2.5847      2.3852      2.3855      2.5851      3.0187      3.7471      4.8457      6.3972      8.4931    
  11.250      14.587      18.335      22.093      25.187      27.151      27.815      27.152      25.187      22.092    
  18.334      14.586      11.250      8.4933      6.3325      4.7088      3.5401      2.7444      2.2449      1.9762    
  1.8922      1.9762      2.2449      2.7443      3.5402      4.7087      6.3321      8.4928      11.331      14.515    
  17.923      21.166      23.728      25.130      25.129      23.726      21.164      17.923      14.515      11.332    
  8.5990      6.3968      4.7088      3.4727      2.6122      2.0515      1.7229      1.5734      1.5734      1.7230    
  2.0515      2.6121      3.4727      4.7089      6.3968      8.5987      11.475      14.442      17.441      20.071    
  21.888      22.539      21.887      20.070      17.441      14.443      11.476      8.8128      6.5922      4.8456    
  3.5401      2.6122      1.9890      1.6018      1.3945      1.3298      1.3946      1.6019      1.9888      2.6121    
  3.5403      4.8460      6.5923      8.8123      11.720      14.443      17.015      19.048      20.178      20.178    
  19.049      17.016      14.445      11.720      9.1514      6.9274      5.1265      3.7475      2.7444      2.0515    
  1.6018      1.3370      1.2153      1.2152      1.3369      1.6019      2.0517      2.7442      3.7474      5.1267    
  6.9282      9.1521      12.140      14.622      16.783      18.261      18.787      18.262      16.784      14.623    
  12.140      9.6664      7.4359      5.5726      4.1092      3.0188      2.2449      1.7229      1.3945      1.2153    
  1.1585      1.2153      1.3945      1.7230      2.2448      3.0186      4.1092      5.5732      7.4369      9.6671    
  12.800      14.963      16.607      17.492      17.492      16.607      14.963      12.799      10.432      8.1788    
  6.2312      4.6590      3.4585      2.5847      1.9762      1.5734      1.3298      1.2152      1.2153      1.3299    
  1.5734      1.9762      2.5848      3.4585      4.6585      6.2306      8.1787      10.433      13.379      14.941    
  15.915      16.243      15.915      14.941      13.378      11.383      9.2147      7.1662      5.4497      4.1055    
  3.1029      2.3852      1.8922      1.5734      1.3946      1.3369      1.3945      1.5734      1.8924      2.3855    
  3.1028      4.1047      5.4486      7.1654      9.2149      11.385      13.257      13.996      14.314      14.314    
  13.996      13.257      12.011      10.316      8.3955      6.5471      5.0156      3.8466      2.9906      2.3855    
  1.9762      1.7230      1.6019      1.6019      1.7230      1.9762      2.3855      2.9907      3.8468      5.0158    
  6.5470      8.3951      10.316      12.010      12.018      11.954      11.885      11.953      12.018      11.767    
  10.962      9.6029      7.9238      6.2556      4.8770      3.8461      3.1028      2.5851      2.2449      2.0515    
  1.9888      2.0517      2.2448      2.5848      3.1028      3.8468      4.8782      6.2566      7.9238      9.6019    
  10.961      11.767      9.6774      9.1303      9.1301      9.6772      10.376      10.700      10.320      9.2492    
  7.7702      6.2562      5.0156      4.1047      3.4585      3.0187      2.7443      2.6121      2.6121      2.7442    
  3.0186      3.4585      4.1047      5.0158      6.2566      7.7707      9.2495      10.320      10.700      10.375    
  6.6862      6.1686      6.6860      7.9615      9.3371      10.161      10.107      9.2487      7.9238      6.5479    
  5.4497      4.6592      4.1092      3.7471      3.5402      3.4727      3.5403      3.7474      4.1092      4.6585    
  5.4486      6.5470      7.9238      9.2495      10.108      10.162      9.3372      7.9616      3.7587      3.7587    
  5.0496      7.0649      8.9888      10.161      10.320      9.6022      8.3956      7.1660      6.2312      5.5734    
  5.1266      4.8457      4.7087      4.7089      4.8460      5.1267      5.5732      6.2306      7.1654      8.3951    
  9.6019      10.320      10.162      8.9893      7.0652      5.0496      1.6349      2.4213      4.4801      7.0649    
  9.3372      10.700      10.962      10.316      9.2150      8.1778      7.4357      6.9275      6.5924      6.3972    
  6.3321      6.3968      6.5923      6.9282      7.4369      8.1787      9.2149      10.316      10.961      10.700    
  9.3372      7.0652      4.4802      2.4213     0.86026      2.4210      5.0495      7.9617      10.376      11.767    
  12.011      11.385      10.432      9.6659      9.1512      8.8122      8.5991      8.4931      8.4928      8.5987    
  8.8123      9.1521      9.6671      10.433      11.385      12.010      11.767      10.375      7.9616      5.0496    
  2.4213     0.86037      5.1585      7.1930      9.6777      12.012      13.640      14.309      14.203      13.846    
  13.676      13.672      13.734      13.797      13.832      13.833      13.798      13.733      13.669      13.675    
  13.846      14.204      14.310      13.641      12.011      9.6774      7.1929      5.1586      4.0271      4.0270    
  7.1930      9.4339      11.954      14.159      15.588      16.179      16.318      16.541      16.951      17.414    
  17.809      18.064      18.150      18.066      17.811      17.414      16.949      16.539      16.318      16.180    
  15.588      14.159      11.954      9.4339      7.1929      5.6921      5.1702      5.6923      9.6777      11.954    
  14.314      16.242      17.493      18.263      19.050      20.070      21.163      22.089      22.634      22.848    
  22.849      22.637      22.093      21.166      20.071      19.048      18.261      17.492      16.243      14.314    
  11.953      9.6772      7.9615      7.0649      7.0649      7.9617      12.012      14.159      16.242      17.951    
  19.335      20.783      22.553      24.443      25.879      26.533      26.641      26.615      26.642      26.537    