   2   2   0   0
  0.2379889E+02  0.4067871E-09  0.4067871E-09  0.4067871E-09  0.5000000E-15
  1.000000000000000E-004
  CAR 
 GaAs                                    
     14.06254155    -11.98674547  301      2.35121627      1.00000000
    -11.987  0.0000E+00  0.0000E+00
    -11.900  0.0000E+00  0.0000E+00
    -11.813  0.0000E+00  0.0000E+00
    -11.726  0.0000E+00  0.0000E+00
    -11.639  0.0000E+00  0.0000E+00
    -11.553  0.0000E+00  0.0000E+00
    -11.466  0.0000E+00  0.0000E+00
    -11.379  0.0000E+00  0.0000E+00
    -11.292  0.0000E+00  0.0000E+00
    -11.205  0.0000E+00  0.0000E+00
    -11.118  0.0000E+00  0.0000E+00
    -11.032  0.0000E+00  0.0000E+00
    -10.945  0.0000E+00  0.0000E+00
    -10.858  0.0000E+00  0.0000E+00
    -10.771  0.0000E+00  0.0000E+00
    -10.684  0.0000E+00  0.0000E+00
    -10.597  0.0000E+00  0.0000E+00
    -10.511  0.0000E+00  0.0000E+00
    -10.424  0.0000E+00  0.0000E+00
    -10.337  0.0000E+00  0.0000E+00
    -10.250  0.0000E+00  0.0000E+00
    -10.163  0.0000E+00  0.0000E+00
    -10.076  0.0000E+00  0.0000E+00
     -9.990  0.0000E+00  0.0000E+00
     -9.903  0.1489E+00  0.8527E-02
     -9.816  0.2177E+00  0.2457E-01
     -9.729  0.2708E+00  0.4571E-01
     -9.642  0.3188E+00  0.7120E-01
     -9.555  0.3625E+00  0.1007E+00
     -9.469  0.4062E+00  0.1342E+00
     -9.382  0.4515E+00  0.1714E+00
     -9.295  0.4957E+00  0.2125E+00
     -9.208  0.5425E+00  0.2576E+00
     -9.121  0.5933E+00  0.3069E+00
     -9.034  0.6475E+00  0.3608E+00
     -8.948  0.7095E+00  0.4196E+00
     -8.861  0.7784E+00  0.4841E+00
     -8.774  0.8619E+00  0.5552E+00
     -8.687  0.9655E+00  0.6344E+00
     -8.600  0.1111E+01  0.7241E+00
     -8.514  0.1374E+01  0.8303E+00
     -8.427  0.1598E+01  0.9661E+00
     -8.340  0.1593E+01  0.1104E+01
     -8.253  0.1583E+01  0.1241E+01
     -8.166  0.1582E+01  0.1378E+01
     -8.079  0.1598E+01  0.1516E+01
     -7.993  0.1648E+01  0.1658E+01
     -7.906  0.1812E+01  0.1810E+01
     -7.819  0.1051E+01  0.1991E+01
     -7.732  0.0000E+00  0.2000E+01
     -7.645  0.0000E+00  0.2000E+01
     -7.558  0.0000E+00  0.2000E+01
     -7.472  0.0000E+00  0.2000E+01
     -7.385  0.0000E+00  0.2000E+01
     -7.298  0.0000E+00  0.2000E+01
     -7.211  0.0000E+00  0.2000E+01
     -7.124  0.0000E+00  0.2000E+01
     -7.037  0.0000E+00  0.2000E+01
     -6.951  0.0000E+00  0.2000E+01
     -6.864  0.0000E+00  0.2000E+01
     -6.777  0.0000E+00  0.2000E+01
     -6.690  0.0000E+00  0.2000E+01
     -6.603  0.0000E+00  0.2000E+01
     -6.516  0.0000E+00  0.2000E+01
     -6.430  0.0000E+00  0.2000E+01
     -6.343  0.0000E+00  0.2000E+01
     -6.256  0.0000E+00  0.2000E+01
     -6.169  0.0000E+00  0.2000E+01
     -6.082  0.0000E+00  0.2000E+01
     -5.995  0.0000E+00  0.2000E+01
     -5.909  0.0000E+00  0.2000E+01
     -5.822  0.0000E+00  0.2000E+01
     -5.735  0.0000E+00  0.2000E+01
     -5.648  0.0000E+00  0.2000E+01
     -5.561  0.0000E+00  0.2000E+01
     -5.474  0.0000E+00  0.2000E+01
     -5.388  0.0000E+00  0.2000E+01
     -5.301  0.0000E+00  0.2000E+01
     -5.214  0.0000E+00  0.2000E+01
     -5.127  0.0000E+00  0.2000E+01
     -5.040  0.0000E+00  0.2000E+01
     -4.953  0.0000E+00  0.2000E+01
     -4.867  0.0000E+00  0.2000E+01
     -4.780  0.0000E+00  0.2000E+01
     -4.693  0.0000E+00  0.2000E+01
     -4.606  0.0000E+00  0.2000E+01
     -4.519  0.0000E+00  0.2000E+01
     -4.432  0.0000E+00  0.2000E+01
     -4.346  0.0000E+00  0.2000E+01
     -4.259  0.0000E+00  0.2000E+01
     -4.172  0.2726E+00  0.2005E+01
     -4.085  0.8029E+00  0.2051E+01
     -3.998  0.1662E+01  0.2162E+01
     -3.911  0.2658E+01  0.2344E+01
     -3.825  0.2411E+01  0.2631E+01
     -3.738  0.1570E+01  0.2797E+01
     -3.651  0.1223E+01  0.2916E+01
     -3.564  0.1008E+01  0.3013E+01
     -3.477  0.8655E+00  0.3094E+01
     -3.390  0.7599E+00  0.3164E+01
     -3.304  0.6748E+00  0.3226E+01
     -3.217  0.6081E+00  0.3282E+01
     -3.130  0.5523E+00  0.3332E+01
     -3.043  0.5061E+00  0.3378E+01
     -2.956  0.4637E+00  0.3420E+01
     -2.869  0.4295E+00  0.3459E+01
     -2.783  0.3976E+00  0.3495E+01
     -2.696  0.3702E+00  0.3528E+01
     -2.609  0.3444E+00  0.3559E+01
     -2.522  0.3220E+00  0.3588E+01
     -2.435  0.3015E+00  0.3615E+01
     -2.349  0.2820E+00  0.3640E+01
     -2.262  0.2646E+00  0.3664E+01
     -2.175  0.2485E+00  0.3686E+01
     -2.088  0.2335E+00  0.3707E+01
     -2.001  0.2198E+00  0.3727E+01
     -1.914  0.2064E+00  0.3745E+01
     -1.828  0.1944E+00  0.3763E+01
     -1.741  0.1832E+00  0.3779E+01
     -1.654  0.1722E+00  0.3795E+01
     -1.567  0.1622E+00  0.3809E+01
     -1.480  0.1527E+00  0.3823E+01
     -1.393  0.1436E+00  0.3836E+01
     -1.307  0.4420E+00  0.3854E+01
     -1.220  0.8555E+00  0.3913E+01
     -1.133  0.1402E+01  0.4006E+01
     -1.046  0.1458E+01  0.4136E+01
     -0.959  0.1328E+01  0.4258E+01
     -0.872  0.1210E+01  0.4367E+01
     -0.786  0.1143E+01  0.4470E+01
     -0.699  0.1098E+01  0.4567E+01
     -0.612  0.1150E+01  0.4665E+01
     -0.525  0.1180E+01  0.4767E+01
     -0.438  0.1220E+01  0.4871E+01
     -0.351  0.1283E+01  0.4979E+01
     -0.265  0.1364E+01  0.5094E+01
     -0.178  0.1516E+01  0.5218E+01
     -0.091  0.1737E+01  0.5363E+01
     -0.004  0.1696E+01  0.5512E+01
      0.083  0.1663E+01  0.5658E+01
      0.170  0.1634E+01  0.5801E+01
      0.256  0.1613E+01  0.5942E+01
      0.343  0.1584E+01  0.6081E+01
      0.430  0.1566E+01  0.6218E+01
      0.517  0.1532E+01  0.6352E+01
      0.604  0.1517E+01  0.6485E+01
      0.691  0.1489E+01  0.6615E+01
      0.777  0.1463E+01  0.6743E+01
      0.864  0.1448E+01  0.6870E+01
      0.951  0.1424E+01  0.6995E+01
      1.038  0.1413E+01  0.7117E+01
      1.125  0.1382E+01  0.7239E+01
      1.212  0.1370E+01  0.7358E+01
      1.298  0.1221E+01  0.7475E+01
      1.385  0.9653E+00  0.7568E+01
      1.472  0.8258E+00  0.7645E+01
      1.559  0.7044E+00  0.7710E+01
      1.646  0.6116E+00  0.7768E+01
      1.733  0.5348E+00  0.7817E+01
      1.819  0.4594E+00  0.7861E+01
      1.906  0.4027E+00  0.7898E+01
      1.993  0.3324E+00  0.7930E+01
      2.080  0.2659E+00  0.7956E+01
      2.167  0.2065E+00  0.7978E+01
      2.254  0.1432E+00  0.7993E+01
      2.340  0.0000E+00  0.8000E+01
      2.427  0.0000E+00  0.8000E+01
      2.514  0.0000E+00  0.8000E+01
      2.601  0.0000E+00  0.8000E+01
      2.688  0.0000E+00  0.8000E+01
      2.775  0.0000E+00  0.8000E+01
      2.861  0.1721E-02  0.8000E+01
      2.948  0.2662E-02  0.8000E+01
      3.035  0.3778E-02  0.8001E+01
      3.122  0.5067E-02  0.8001E+01
      3.209  0.8041E-02  0.8002E+01
      3.296  0.3851E-01  0.8003E+01
      3.382  0.8846E-01  0.8008E+01
      3.469  0.1216E+00  0.8017E+01
      3.556  0.1440E+00  0.8028E+01
      3.643  0.1847E+00  0.8043E+01
      3.730  0.2327E+00  0.8061E+01
      3.816  0.2967E+00  0.8083E+01
      3.903  0.4364E+00  0.8114E+01
      3.990  0.5920E+00  0.8160E+01
      4.077  0.7148E+00  0.8214E+01
      4.164  0.8348E+00  0.8281E+01
      4.251  0.9411E+00  0.8358E+01
      4.337  0.1067E+01  0.8445E+01
      4.424  0.1208E+01  0.8544E+01
      4.511  0.1368E+01  0.8656E+01
      4.598  0.1618E+01  0.8785E+01
      4.685  0.2055E+01  0.8948E+01
      4.772  0.2118E+01  0.9130E+01
      4.858  0.1759E+01  0.9301E+01
      4.945  0.1553E+01  0.9444E+01
      5.032  0.1279E+01  0.9568E+01
      5.119  0.1099E+01  0.9671E+01
      5.206  0.9753E+00  0.9761E+01
      5.293  0.8908E+00  0.9842E+01
      5.379  0.9033E+00  0.9918E+01
      5.466  0.9750E+00  0.1000E+02
      5.553  0.1031E+01  0.1009E+02
      5.640  0.9051E+00  0.1018E+02
      5.727  0.8452E+00  0.1025E+02
      5.814  0.8142E+00  0.1033E+02
      5.900  0.7906E+00  0.1040E+02
      5.987  0.7886E+00  0.1046E+02
      6.074  0.8244E+00  0.1053E+02
      6.161  0.8167E+00  0.1060E+02
      6.248  0.8204E+00  0.1068E+02
      6.335  0.8779E+00  0.1075E+02
      6.421  0.9412E+00  0.1083E+02
      6.508  0.1090E+01  0.1091E+02
      6.595  0.2101E+01  0.1105E+02
      6.682  0.2089E+01  0.1123E+02
      6.769  0.1932E+01  0.1141E+02
      6.856  0.1772E+01  0.1157E+02
      6.942  0.1657E+01  0.1172E+02
      7.029  0.1205E+01  0.1184E+02
      7.116  0.1319E+01  0.1195E+02
      7.203  0.1184E+01  0.1206E+02
      7.290  0.1076E+01  0.1216E+02
      7.377  0.1064E+01  0.1225E+02
      7.463  0.1201E+01  0.1235E+02
      7.550  0.1336E+01  0.1246E+02
      7.637  0.1538E+01  0.1258E+02
      7.724  0.1892E+01  0.1273E+02
      7.811  0.1801E+01  0.1289E+02
      7.898  0.1981E+01  0.1305E+02
      7.984  0.1698E+01  0.1321E+02
      8.071  0.1502E+01  0.1335E+02
      8.158  0.1361E+01  0.1348E+02
      8.245  0.1287E+01  0.1359E+02
      8.332  0.1227E+01  0.1370E+02
      8.419  0.1199E+01  0.1381E+02
      8.505  0.1193E+01  0.1391E+02
      8.592  0.1038E+01  0.1401E+02
      8.679  0.9025E+00  0.1409E+02
      8.766  0.8822E+00  0.1417E+02
      8.853  0.8601E+00  0.1424E+02
      8.940  0.8593E+00  0.1432E+02
      9.026  0.8741E+00  0.1439E+02
      9.113  0.8853E+00  0.1447E+02
      9.200  0.9064E+00  0.1455E+02
      9.287  0.9443E+00  0.1463E+02
      9.374  0.9923E+00  0.1471E+02
      9.461  0.1055E+01  0.1480E+02
      9.547  0.1108E+01  0.1490E+02
      9.634  0.1245E+01  0.1500E+02
      9.721  0.1344E+01  0.1511E+02
      9.808  0.1245E+01  0.1523E+02
      9.895  0.9486E+00  0.1532E+02
      9.981  0.8882E+00  0.1540E+02
     10.068  0.9085E+00  0.1548E+02
     10.155  0.8499E+00  0.1555E+02
     10.242  0.6801E+00  0.1562E+02
     10.329  0.4267E+00  0.1566E+02
     10.416  0.3984E+00  0.1570E+02
     10.502  0.3679E+00  0.1573E+02
     10.589  0.3396E+00  0.1576E+02
     10.676  0.3134E+00  0.1579E+02
     10.763  0.2889E+00  0.1581E+02
     10.850  0.2658E+00  0.1584E+02
     10.937  0.2448E+00  0.1586E+02
     11.023  0.2213E+00  0.1588E+02
     11.110  0.2005E+00  0.1590E+02
     11.197  0.1839E+00  0.1592E+02
     11.284  0.1634E+00  0.1593E+02
     11.371  0.1443E+00  0.1594E+02
     11.458  0.1291E+00  0.1596E+02
     11.544  0.1088E+00  0.1597E+02
     11.631  0.9628E-01  0.1598E+02
     11.718  0.8003E-01  0.1598E+02
     11.805  0.6132E-01  0.1599E+02
     11.892  0.5299E-01  0.1599E+02
     11.979  0.3020E-01  0.1600E+02
     12.065  0.0000E+00  0.1600E+02
     12.152  0.0000E+00  0.1600E+02
     12.239  0.0000E+00  0.1600E+02
     12.326  0.0000E+00  0.1600E+02
     12.413  0.0000E+00  0.1600E+02
     12.500  0.0000E+00  0.1600E+02
     12.586  0.0000E+00  0.1600E+02
     12.673  0.0000E+00  0.1600E+02
     12.760  0.0000E+00  0.1600E+02
     12.847  0.0000E+00  0.1600E+02
     12.934  0.0000E+00  0.1600E+02
     13.021  0.0000E+00  0.1600E+02
     13.107  0.0000E+00  0.1600E+02
     13.194  0.0000E+00  0.1600E+02
     13.281  0.0000E+00  0.1600E+02
     13.368  0.0000E+00  0.1600E+02
     13.455  0.0000E+00  0.1600E+02
     13.542  0.0000E+00  0.1600E+02
     13.628  0.0000E+00  0.1600E+02
     13.715  0.0000E+00  0.1600E+02
     13.802  0.0000E+00  0.1600E+02
     13.889  0.0000E+00  0.1600E+02
     13.976  0.0000E+00  0.1600E+02
     14.063  0.0000E+00  0.1600E+02
