    2    2    1    1
  0.2379889E+02  0.4067871E-09  0.4067871E-09  0.4067871E-09  0.5000000E-15
  1.000000000000000E-004
  CAR 
 GaAs                                    
      8    770      8
 
  0.2500000E-01  0.2500000E-01  0.2500000E-01  0.2500000E-03
    1       -9.986745   1.000000
    2        2.029805   1.000000
    3        2.334854   1.000000
    4        2.334854   1.000000
    5        2.800282   0.000000
    6        6.096541   0.000000
    7        6.104980   0.000000
    8        6.104980   0.000000
 
  0.7500000E-01  0.2500000E-01  0.2500000E-01  0.7500000E-03
    1       -9.952929   1.000000
    2        1.425673   1.000000
    3        2.220172   1.000000
    4        2.316985   1.000000
    5        3.284492   0.000000
    6        6.096055   0.000000
    7        6.140328   0.000000
    8        6.271747   0.000000
 
  0.1250000E+00  0.2500000E-01  0.2500000E-01  0.7500000E-03
    1       -9.869208   1.000000
    2        0.612823   1.000000
    3        2.070236   1.000000
    4        2.227580   1.000000
    5        3.694267   0.000000
    6        6.234307   0.000000
    7        6.280822   0.000000
    8        6.537850   0.000000
 
  0.1750000E+00  0.2500000E-01  0.2500000E-01  0.7500000E-03
    1       -9.737975   1.000000
    2       -0.225030   1.000000
    3        1.897354   1.000000
    4        2.088611   1.000000
    5        3.848021   0.000000
    6        6.484430   0.000000
    7        6.531053   0.000000
    8        6.921827   0.000000
 
  0.2250000E+00  0.2500000E-01  0.2500000E-01  0.7500000E-03
    1       -9.563688   1.000000
    2       -1.045170   1.000000
    3        1.721821   1.000000
    4        1.925403   1.000000
    5        3.813016   0.000000
    6        6.694287   0.000000
    7        6.818378   0.000000
    8        7.487976   0.000000
 
  0.2750000E+00  0.2500000E-01  0.2500000E-01  0.7500000E-03
    1       -9.353731   1.000000
    2       -1.820479   1.000000
    3        1.559900   1.000000
    4        1.759591   1.000000
    5        3.697924   0.000000
    6        6.858520   0.000000
    7        6.996188   0.000000
    8        8.195741   0.000000
 
  0.3250000E+00  0.2500000E-01  0.2500000E-01  0.7500000E-03
    1       -9.120195   1.000000
    2       -2.525944   1.000000
    3        1.422688   1.000000
    4        1.606680   1.000000
    5        3.567542   0.000000
    6        6.953032   0.000000
    7        7.068385   0.000000
    8        8.948684   0.000000
 
  0.3750000E+00  0.2500000E-01  0.2500000E-01  0.7500000E-03
    1       -8.882666   1.000000
    2       -3.133553   1.000000
    3        1.316931   1.000000
    4        1.476188   1.000000
    5        3.452208   0.000000
    6        6.988162   0.000000
    7        7.066435   0.000000
    8        9.616972   0.000000
 
  0.4250000E+00  0.2500000E-01  0.2500000E-01  0.7500000E-03
    1       -8.671273   1.000000
    2       -3.607329   1.000000
    3        1.246840   1.000000
    4        1.374762   1.000000
    5        3.366060   0.000000
    6        6.993505   0.000000
    7        7.029638   0.000000
    8        9.974787   0.000000
 
  0.4750000E+00  0.2500000E-01  0.2500000E-01  0.7500000E-03
    1       -8.526393   1.000000
    2       -3.903663   1.000000
    3        1.214212   1.000000
    4        1.307241   1.000000
    5        3.315335   0.000000
    6        6.988833   0.000000
    7        6.996113   0.000000
    8       10.054047   0.000000
 
 -0.4750000E+00  0.2500000E-01  0.2500000E-01  0.7500000E-03
    1       -8.486627   1.000000
    2       -3.981227   1.000000
    3        1.219983   1.000000
    4        1.275897   1.000000
    5        3.302926   0.000000
    6        6.961489   0.000000
    7        7.011867   0.000000
    8       10.060197   0.000000
 
 -0.4250000E+00  0.2500000E-01  0.2500000E-01  0.7500000E-03
    1       -8.564594   1.000000
    2       -3.827434   1.000000
    3        1.263511   1.000000
    4        1.281976   1.000000
    5        3.329278   0.000000
    6        6.952024   0.000000
    7        7.044400   0.000000
    8       10.040191   0.000000
 
 -0.3750000E+00  0.2500000E-01  0.2500000E-01  0.7500000E-03
    1       -8.736472   1.000000
    2       -3.466928   1.000000
    3        1.325728   1.000000
    4        1.343218   1.000000
    5        3.393221   0.000000
    6        6.952350   0.000000
    7        7.085306   0.000000
    8        9.892517   0.000000
 
 -0.3250000E+00  0.2500000E-01  0.2500000E-01  0.7500000E-03
    1       -8.960652   1.000000
    2       -2.944085   1.000000
    3        1.405518   1.000000
    4        1.456343   1.000000
    5        3.490936   0.000000
    6        6.941458   0.000000
    7        7.113476   0.000000
    8        9.410578   0.000000
 
 -0.2750000E+00  0.2500000E-01  0.2500000E-01  0.7500000E-03
    1       -9.199592   1.000000
    2       -2.300204   1.000000
    3        1.519357   1.000000
    4        1.597396   1.000000
    5        3.614214   0.000000
    6        6.886795   0.000000
    7        7.097584   0.000000
    8        8.695939   0.000000
 
 -0.2250000E+00  0.2500000E-01  0.2500000E-01  0.7500000E-03
    1       -9.427035   1.000000
    2       -1.568466   1.000000
    3        1.661755   1.000000
    4        1.759334   1.000000
    5        3.744913   0.000000
    6        6.757116   0.000000
    7        7.006088   0.000000
    8        7.947797   0.000000
 
 -0.1750000E+00  0.2500000E-01  0.2500000E-01  0.7500000E-03
    1       -9.626155   1.000000
    2       -0.775151   1.000000
    3        1.824647   1.000000
    4        1.930351   1.000000
    5        3.844101   0.000000
    6        6.544838   0.000000
    7        6.831377   0.000000
    8        7.263719   0.000000
 
 -0.1250000E+00  0.2500000E-01  0.2500000E-01  0.7500000E-03
    1       -9.786760   1.000000
    2        0.055183   1.000000
    3        1.994821   1.000000
    4        2.092512   1.000000
    5        3.831688   0.000000
    6        6.286117   0.000000
    7        6.601178   0.000000
    8        6.724438   0.000000
 
 -0.7500000E-01  0.2500000E-01  0.2500000E-01  0.7500000E-03
    1       -9.902535   1.000000
    2        0.893499   1.000000
    3        2.153469   1.000000
    4        2.221590   1.000000
    5        3.596364   0.000000
    6        6.084803   0.000000
    7        6.367893   0.000000
    8        6.376015   0.000000
 
 -0.2500000E-01  0.2500000E-01  0.2500000E-01  0.7500000E-03
    1       -9.969811   1.000000
    2        1.684895   1.000000
    3        2.275444   1.000000
    4        2.292898   1.000000
    5        3.122461   0.000000
    6        6.031895   0.000000
    7        6.184969   0.000000
    8        6.187632   0.000000
 
  0.7500000E-01  0.7500000E-01  0.2500000E-01  0.7500000E-03
    1       -9.936013   1.000000
    2        1.282994   1.000000
    3        2.164559   1.000000
    4        2.183033   1.000000
    5        3.510752   0.000000
    6        5.906338   0.000000
    7        6.344893   0.000000
    8        6.345614   0.000000
 
  0.1250000E+00  0.7500000E-01  0.2500000E-01  0.1500000E-02
    1       -9.868930   1.000000
    2        0.701423   1.000000
    3        1.955359   1.000000
    4        2.117289   1.000000
    5        3.901128   0.000000
    6        5.834055   0.000000
    7        6.508371   0.000000
    8        6.654031   0.000000
 
  0.1750000E+00  0.7500000E-01  0.2500000E-01  0.1500000E-02
    1       -9.753529   1.000000
    2       -0.047201   1.000000
    3        1.747101   1.000000
    4        2.009659   1.000000
    5        4.134997   0.000000
    6        5.941410   0.000000
    7        6.756784   0.000000
    8        7.029144   0.000000
 
  0.2250000E+00  0.7500000E-01  0.2500000E-01  0.1500000E-02
    1       -9.593523   1.000000
    2       -0.831357   1.000000
    3        1.548939   1.000000
    4        1.856633   1.000000
    5        4.164915   0.000000
    6        6.199317   0.000000
    7        7.024209   0.000000
    8        7.464480   0.000000
 
  0.2750000E+00  0.7500000E-01  0.2500000E-01  0.1500000E-02
    1       -9.395148   1.000000
    2       -1.597486   1.000000
    3        1.369554   1.000000
    4        1.685170   1.000000
    5        4.079204   0.000000
    6        6.479715   0.000000
    7        7.221277   0.000000
    8        7.971432   0.000000
 
  0.3250000E+00  0.7500000E-01  0.2500000E-01  0.1500000E-02
    1       -9.168718   1.000000
    2       -2.311800   1.000000
    3        1.215564   1.000000
    4        1.519232   1.000000
    5        3.957474   0.000000
    6        6.678928   0.000000
    7        7.309297   0.000000
    8        8.554074   0.000000
 
  0.3750000E+00  0.7500000E-01  0.2500000E-01  0.1500000E-02
    1       -8.930957   1.000000
    2       -2.943793   1.000000
    3        1.089683   1.000000
    4        1.377888   1.000000
    5        3.840027   0.000000
    6        6.779070   0.000000
    7        7.308033   0.000000
    8        9.180730   0.000000
 
  0.4250000E+00  0.7500000E-01  0.2500000E-01  0.1500000E-02
    1       -8.708063   1.000000
    2       -3.458832   1.000000
    3        0.991225   1.000000
    4        1.275082   1.000000
    5        3.745321   0.000000
    6        6.817647   0.000000
    7        7.258963   0.000000
    8        9.745555   0.000000
 
  0.4750000E+00  0.7500000E-01  0.2500000E-01  0.1500000E-02
    1       -8.537339   1.000000
    2       -3.814388   1.000000
    3        0.918940   1.000000
    4        1.219696   1.000000
    5        3.682168   0.000000
    6        6.835612   0.000000
    7        7.198813   0.000000
    8       10.078300   0.000000
 
 -0.4750000E+00  0.7500000E-01  0.2500000E-01  0.1500000E-02
    1       -8.459988   1.000000
    2       -3.965966   1.000000
    3        0.874681   1.000000
    4        1.213838   1.000000
    5        3.654742   0.000000
    6        6.856733   0.000000
    7        7.152151   0.000000
    8       10.181115   0.000000
 
 -0.4250000E+00  0.7500000E-01  0.2500000E-01  0.1500000E-02
    1       -8.499531   1.000000
    2       -3.889039   1.000000
    3        0.862609   1.000000
    4        1.255349   1.000000
    5        3.664408   0.000000
    6        6.885206   0.000000
    7        7.133569   0.000000
    8       10.152177   0.000000
 
 -0.3750000E+00  0.7500000E-01  0.2500000E-01  0.1500000E-02
    1       -8.643525   1.000000
    2       -3.596547   1.000000
    3        0.886914   1.000000
    4        1.338732   1.000000
    5        3.710651   0.000000
    6        6.907964   0.000000
    7        7.147772   0.000000
    8        9.937744   0.000000
 
 -0.3250000E+00  0.7500000E-01  0.2500000E-01  0.1500000E-02
    1       -8.853704   1.000000
    2       -3.129522   1.000000
    3        0.950359   1.000000
    4        1.457941   1.000000
    5        3.790399   0.000000
    6        6.902435   0.000000
    7        7.180841   0.000000
    8        9.440152   0.000000
 
 -0.2750000E+00  0.7500000E-01  0.2500000E-01  0.1500000E-02
    1       -9.090010   1.000000
    2       -2.532474   1.000000
    3        1.054240   1.000000
    4        1.605467   1.000000
    5        3.896653   0.000000
    6        6.842507   0.000000
    7        7.190106   0.000000
    8        8.794354   0.000000
 
 -0.2250000E+00  0.7500000E-01  0.2500000E-01  0.1500000E-02
    1       -9.322440   1.000000
    2       -1.843128   1.000000
    3        1.197856   1.000000
    4        1.771195   1.000000
    5        4.014129   0.000000
    6        6.699306   0.000000
    7        7.111552   0.000000
    8        8.170991   0.000000
 
 -0.1750000E+00  0.7500000E-01  0.2500000E-01  0.1500000E-02
    1       -9.531523   1.000000
    2       -1.093593   1.000000
    3        1.378670   1.000000
    4        1.941038   1.000000
    5        4.109677   0.000000
    6        6.461860   0.000000
    7        6.902115   0.000000
    8        7.653957   0.000000
 
 -0.1250000E+00  0.7500000E-01  0.2500000E-01  0.1500000E-02
    1       -9.705123   1.000000
    2       -0.317336   1.000000
    3        1.592921   1.000000
    4        2.094715   1.000000
    5        4.114564   0.000000
    6        6.183997   0.000000
    7        6.628321   0.000000
    8        7.221645   0.000000
 
 -0.7500000E-01  0.7500000E-01  0.2500000E-01  0.1500000E-02
    1       -9.835845   1.000000
    2        0.437402   1.000000
    3        1.836955   1.000000
    4        2.206847   1.000000
    5        3.933149   0.000000
    6        6.001299   0.000000
    7        6.404078   0.000000
    8        6.813164   0.000000
 
 -0.2500000E-01  0.7500000E-01  0.2500000E-01  0.1500000E-02
    1       -9.919250   1.000000
    2        1.077692   1.000000
    3        2.107770   1.000000
    4        2.254005   1.000000
    5        3.566798   0.000000
    6        5.991769   0.000000
    7        6.284369   0.000000
    8        6.432779   0.000000
 
  0.1250000E+00  0.1250000E+00  0.2500000E-01  0.7500000E-03
    1       -9.818626   1.000000
    2        0.457795   1.000000
    3        1.838437   1.000000
    4        1.848928   1.000000
    5        4.269363   0.000000
    6        5.569094   0.000000
    7        6.832330   0.000000
    8        6.839893   0.000000
 
  0.1750000E+00  0.1250000E+00  0.2500000E-01  0.1500000E-02
    1       -9.719648   1.000000
    2       -0.072906   1.000000
    3        1.582334   1.000000
    4        1.737853   1.000000
    5        4.551438   0.000000
    6        5.493982   0.000000
    7        7.092365   0.000000
    8        7.209987   0.000000
 
  0.2250000E+00  0.1250000E+00  0.2500000E-01  0.1500000E-02
    1       -9.575051   1.000000
    2       -0.740187   1.000000
    3        1.345731   1.000000
    4        1.597424   1.000000
    5        4.658700   0.000000
    6        5.632506   0.000000
    7        7.377869   0.000000
    8        7.565985   0.000000
 
  0.2750000E+00  0.1250000E+00  0.2500000E-01  0.1500000E-02
    1       -9.390161   1.000000
    2       -1.445378   1.000000
    3        1.129464   1.000000
    4        1.430884   1.000000
    5        4.616777   0.000000
    6        5.934470   0.000000
    7        7.607664   0.000000
    8        7.848598   0.000000
 
  0.3250000E+00  0.1250000E+00  0.2500000E-01  0.1500000E-02
    1       -9.173730   1.000000
    2       -2.132654   1.000000
    3        0.931031   1.000000
    4        1.271025   1.000000
    5        4.512701   0.000000
    6        6.261203   0.000000
    7        7.721146   0.000000
    8        8.119800   0.000000
 
  0.3750000E+00  0.1250000E+00  0.2500000E-01  0.1500000E-02
    1       -8.940095   1.000000
    2       -2.762627   1.000000
    3        0.749590   1.000000
    4        1.145119   1.000000
    5        4.398642   0.000000
    6        6.492946   0.000000
    7        7.728332   0.000000
    8        8.508145   0.000000
 
  0.4250000E+00  0.1250000E+00  0.2500000E-01  0.1500000E-02
    1       -8.711812   1.000000
    2       -3.297724   1.000000
    3        0.588705   1.000000
    4        1.067008   1.000000
    5        4.299132   0.000000
    6        6.607178   0.000000
    7        7.670413   0.000000
    8        9.049351   0.000000
 
  0.4750000E+00  0.1250000E+00  0.2500000E-01  0.1500000E-02
    1       -8.522254   1.000000
    2       -3.695755   1.000000
    3        0.455828   1.000000
    4        1.039595   1.000000
    5        4.226302   0.000000
    6        6.660503   0.000000
    7        7.584119   0.000000
    8        9.651089   0.000000
 
 -0.4750000E+00  0.1250000E+00  0.2500000E-01  0.1500000E-02
    1       -8.412171   1.000000
    2       -3.910499   1.000000
    3        0.358199   1.000000
    4        1.060878   1.000000
    5        4.185901   0.000000
    6        6.704714   0.000000
    7        7.495905   0.000000
    8       10.125703   0.000000
 
 -0.4250000E+00  0.1250000E+00  0.2500000E-01  0.1500000E-02
    1       -8.412953   1.000000
    2       -3.908529   1.000000
    3        0.301701   1.000000
    4        1.127108   1.000000
    5        4.180307   0.000000
    6        6.763130   0.000000
    7        7.420432   0.000000
    8       10.253953   0.000000
 
 -0.3750000E+00  0.1250000E+00  0.2500000E-01  0.1500000E-02
    1       -8.524324   1.000000
    2       -3.690416   1.000000
    3        0.291329   1.000000
    4        1.233724   1.000000
    5        4.209222   0.000000
    6        6.836102   0.000000
    7        7.362196   0.000000
    8        9.956505   0.000000
 
 -0.3250000E+00  0.1250000E+00  0.2500000E-01  0.1500000E-02
    1       -8.714564   1.000000
    2       -3.290590   1.000000
    3        0.331457   1.000000
    4        1.374294   1.000000
    5        4.269312   0.000000
    6        6.898183   0.000000
    7        7.319932   0.000000
    8        9.367832   0.000000
 
 -0.2750000E+00  0.1250000E+00  0.2500000E-01  0.1500000E-02
    1       -8.943030   1.000000
    2       -2.756786   1.000000
    3        0.426061   1.000000
    4        1.539867   1.000000
    5        4.352433   0.000000
    6        6.888124   0.000000
    7        7.287925   0.000000
    8        8.722724   0.000000
 
 -0.2250000E+00  0.1250000E+00  0.2500000E-01  0.1500000E-02
    1       -9.176501   1.000000
    2       -2.133854   1.000000
    3        0.580523   1.000000
    4        1.718883   1.000000
    5        4.441033   0.000000
    6        6.745515   0.000000
    7        7.207541   0.000000
    8        8.200266   0.000000
 
 -0.1750000E+00  0.1250000E+00  0.2500000E-01  0.1500000E-02
    1       -9.392549   1.000000
    2       -1.464651   1.000000
    3        0.802818   1.000000
    4        1.894418   1.000000
    5        4.496883   0.000000
    6        6.479896   0.000000
    7        6.992287   0.000000
    8        7.888403   0.000000
 
 -0.1250000E+00  0.1250000E+00  0.2500000E-01  0.1500000E-02
    1       -9.576959   1.000000
    2       -0.798068   1.000000
    3        1.104622   1.000000
    4        2.043198   1.000000
    5        4.445574   0.000000
    6        6.203869   0.000000
    7        6.735756   0.000000
    8        7.626774   0.000000
 
 -0.7500000E-01  0.1250000E+00  0.2500000E-01  0.1500000E-02
    1       -9.721005   1.000000
    2       -0.193373   1.000000
    3        1.493362   1.000000
    4        2.138120   1.000000
    5        4.217543   0.000000
    6        6.071927   0.000000
    7        6.552940   0.000000
    8        7.250107   0.000000
 
 -0.2500000E-01  0.1250000E+00  0.2500000E-01  0.1500000E-02
    1       -9.819431   1.000000
    2        0.291531   1.000000
    3        1.924134   1.000000
    4        2.158554   1.000000
    5        3.882408   0.000000
    6        6.107206   0.000000
    7        6.488075   0.000000
    8        6.764569   0.000000
 
  0.1750000E+00  0.1750000E+00  0.2500000E-01  0.7500000E-03
    1       -9.637241   1.000000
    2       -0.358274   1.000000
    3        1.449280   1.000000
    4        1.450328   1.000000
    5        4.768290   0.000000
    6        5.333306   0.000000
    7        7.471823   0.000000
    8        7.477633   0.000000
 
  0.2250000E+00  0.1750000E+00  0.2500000E-01  0.1500000E-02
    1       -9.508736   1.000000
    2       -0.843970   1.000000
    3        1.181352   1.000000
    4        1.318104   1.000000
    5        4.808869   0.000000
    6        5.404782   0.000000
    7        7.786415   0.000000
    8        7.812204   0.000000
 
  0.2750000E+00  0.1750000E+00  0.2500000E-01  0.1500000E-02
    1       -9.338745   1.000000
    2       -1.430031   1.000000
    3        0.924790   1.000000
    4        1.162576   1.000000
    5        4.843761   0.000000
    6        5.569259   0.000000
    7        7.940302   0.000000
    8        8.072308   0.000000
 
  0.3250000E+00  0.1750000E+00  0.2500000E-01  0.1500000E-02
    1       -9.134780   1.000000
    2       -2.043550   1.000000
    3        0.671461   1.000000
    4        1.012377   1.000000
    5        4.823778   0.000000
    6        5.872930   0.000000
    7        7.934234   0.000000
    8        8.245324   0.000000
 
  0.3750000E+00  0.1750000E+00  0.2500000E-01  0.1500000E-02
    1       -8.909133   1.000000
    2       -2.634099   1.000000
    3        0.424915   1.000000
    4        0.898656   1.000000
    5        4.754630   0.000000
    6        6.243698   0.000000
    7        7.974114   0.000000
    8        8.307086   0.000000
 
  0.4250000E+00  0.1750000E+00  0.2500000E-01  0.1500000E-02
    1       -8.681203   1.000000
    2       -3.158980   1.000000
    3        0.198440   1.000000
    4        0.833575   1.000000
    5        4.678197   0.000000
    6        6.528464   0.000000
    7        8.132579   0.000000
    8        8.378510   0.000000
 
  0.4750000E+00  0.1750000E+00  0.2500000E-01  0.1500000E-02
    1       -8.480363   1.000000
    2       -3.574547   1.000000
    3        0.005062   1.000000
    4        0.818817   1.000000
    5        4.619387   0.000000
    6        6.667086   0.000000
    7        8.103186   0.000000
    8        8.843277   0.000000
 
 -0.4750000E+00  0.1750000E+00  0.2500000E-01  0.1500000E-02
    1       -8.344760   1.000000
    2       -3.833563   1.000000
    3       -0.145281   1.000000
    4        0.853114   1.000000
    5        4.589685   0.000000
    6        6.731285   0.000000
    7        7.996974   0.000000
    8        9.494823   0.000000
 
 -0.4250000E+00  0.1750000E+00  0.2500000E-01  0.1500000E-02
    1       -8.309771   1.000000
    2       -3.896590   1.000000
    3       -0.245348   1.000000
    4        0.933334   1.000000
    5        4.592665   0.000000
    6        6.787702   0.000000
    7        7.883338   0.000000
    8       10.022070   0.000000
 
 -0.3750000E+00  0.1750000E+00  0.2500000E-01  0.1500000E-02
    1       -8.386041   1.000000
    2       -3.753240   1.000000
    3       -0.288886   1.000000
    4        1.054660   1.000000
    5        4.626819   0.000000
    6        6.862334   0.000000
    7        7.772160   0.000000
    8        9.908743   0.000000
 
 -0.3250000E+00  0.1750000E+00  0.2500000E-01  0.1500000E-02
    1       -8.550976   1.000000
    2       -3.429901   1.000000
    3       -0.268639   1.000000
    4        1.210776   1.000000
    5        4.686288   0.000000
    6        6.950724   0.000000
    7        7.659406   0.000000
    8        9.287080   0.000000
 
 -0.2750000E+00  0.1750000E+00  0.2500000E-01  0.1500000E-02
    1       -8.765887   1.000000
    2       -2.975732   1.000000
    3       -0.175456   1.000000
    4        1.391909   1.000000
    5        4.757918   0.000000
    6        7.004007   0.000000
    7        7.544142   0.000000
    8        8.604602   0.000000
 
 -0.2250000E+00  0.1750000E+00  0.2500000E-01  0.1500000E-02
    1       -8.995502   1.000000
    2       -2.444542   1.000000
    3        0.004443   1.000000
    4        1.584379   1.000000
    5        4.814924   0.000000
    6        6.901830   0.000000
    7        7.432969   0.000000
    8        8.082935   0.000000
 
 -0.1750000E+00  0.1750000E+00  0.2500000E-01  0.1500000E-02
    1       -9.214529   1.000000
    2       -1.890764   1.000000
    3        0.289897   1.000000
    4        1.769014   1.000000
    5        4.802207   0.000000
    6        6.631330   0.000000
    7        7.212683   0.000000
    8        7.901257   0.000000
 
 -0.1250000E+00  0.1750000E+00  0.2500000E-01  0.1500000E-02
    1       -9.406699   1.000000
    2       -1.366372   1.000000
    3        0.696598   1.000000
    4        1.920265   1.000000
    5        4.638553   0.000000
    6        6.392478   0.000000
    7        6.955560   0.000000
    8        7.844417   0.000000
 
 -0.7500000E-01  0.1750000E+00  0.2500000E-01  0.1500000E-02
    1       -9.561764   1.000000
    2       -0.907380   1.000000
    3        1.209459   1.000000
    4        2.008334   1.000000
    5        4.313633   0.000000
    6        6.310946   0.000000
    7        6.796091   0.000000
    8        7.628825   0.000000
 
 -0.2500000E-01  0.1750000E+00  0.2500000E-01  0.1500000E-02
    1       -9.673444   1.000000
    2       -0.524572   1.000000
    3        1.735499   1.000000
    4        2.014128   1.000000
    5        3.965897   0.000000
    6        6.356226   0.000000
    7        6.756977   0.000000
    8        7.191986   0.000000
 
  0.2250000E+00  0.2250000E+00  0.2500000E-01  0.7500000E-03
    1       -9.396584   1.000000
    2       -1.151443   1.000000
    3        1.051727   1.000000
    4        1.059086   1.000000
    5        4.618228   0.000000
    6        5.492613   0.000000
    7        8.179385   0.000000
    8        8.198448   0.000000
 
  0.2750000E+00  0.2250000E+00  0.2500000E-01  0.1500000E-02
    1       -9.242440   1.000000
    2       -1.594698   1.000000
    3        0.798590   1.000000
    4        0.916952   1.000000
    5        4.568363   0.000000
    6        5.528987   0.000000
    7        8.361005   0.000000
    8        8.553720   0.000000
 
  0.3250000E+00  0.2250000E+00  0.2500000E-01  0.1500000E-02
    1       -9.052958   1.000000
    2       -2.100700   1.000000
    3        0.520402   1.000000
    4        0.772970   1.000000
    5        4.649000   0.000000
    6        5.611593   0.000000
    7        8.267541   0.000000
    8        8.802275   0.000000
 
  0.3750000E+00  0.2250000E+00  0.2500000E-01  0.1500000E-02
    1       -8.838790   1.000000
    2       -2.615041   1.000000
    3        0.220171   1.000000
    4        0.661820   1.000000
    5        4.707320   0.000000
    6        5.887354   0.000000
    7        8.127502   0.000000
    8        8.910008   0.000000
 
  0.4250000E+00  0.2250000E+00  0.2500000E-01  0.1500000E-02
    1       -8.616764   1.000000
    2       -3.093731   1.000000
    3       -0.073552   1.000000
    4        0.599008   1.000000
    5        4.700837   0.000000
    6        6.334675   0.000000
    7        8.060902   0.000000
    8        8.897331   0.000000
 
  0.4750000E+00  0.2250000E+00  0.2500000E-01  0.1500000E-02
    1       -8.412418   1.000000
    2       -3.493576   1.000000
    3       -0.334435   1.000000
    4        0.586989   1.000000
    5        4.681338   0.000000
    6        6.772730   0.000000
    7        8.183145   0.000000
    8        8.817018   0.000000
 
 -0.4750000E+00  0.2250000E+00  0.2500000E-01  0.1500000E-02
    1       -8.260285   1.000000
    2       -3.768413   1.000000
    3       -0.545723   1.000000
    4        0.624824   1.000000
    5        4.682707   0.000000
    6        7.021040   0.000000
    7        8.496006   0.000000
    8        8.828852   0.000000
 
 -0.4250000E+00  0.2250000E+00  0.2500000E-01  0.1500000E-02
    1       -8.196141   1.000000
    2       -3.876782   1.000000
    3       -0.696177   1.000000
    4        0.710041   1.000000
    5        4.716433   0.000000
    6        7.119448   0.000000
    7        8.455840   0.000000
    8        9.376432   0.000000
 
 -0.3750000E+00  0.2250000E+00  0.2500000E-01  0.1500000E-02
    1       -8.238345   1.000000
    2       -3.800524   1.000000
    3       -0.776403   1.000000
    4        0.838433   1.000000
    5        4.781804   0.000000
    6        7.181824   0.000000
    7        8.305694   0.000000
    8        9.732659   0.000000
 
 -0.3250000E+00  0.2250000E+00  0.2500000E-01  0.1500000E-02
    1       -8.374086   1.000000
    2       -3.558305   1.000000
    3       -0.774372   1.000000
    4        1.003268   1.000000
    5        4.869181   0.000000
    6        7.254475   0.000000
    7        8.121255   0.000000
    8        9.242172   0.000000
 
 -0.2750000E+00  0.2250000E+00  0.2500000E-01  0.1500000E-02
    1       -8.569597   1.000000
    2       -3.199059   1.000000
    3       -0.674624   1.000000
    4        1.194683   1.000000
    5        4.956873   0.000000
    6        7.324521   0.000000
    7        7.897589   0.000000
    8        8.548859   0.000000
 
 -0.2250000E+00  0.2250000E+00  0.2500000E-01  0.1500000E-02
    1       -8.789378   1.000000
    2       -2.782775   1.000000
    3       -0.455919   1.000000
    4        1.398138   1.000000
    5        5.002113   0.000000
    6        7.233380   0.000000
    7        7.740099   0.000000
    8        7.986112   0.000000
 
 -0.1750000E+00  0.2250000E+00  0.2500000E-01  0.1500000E-02
    1       -9.006226   1.000000
    2       -2.364693   1.000000
    3       -0.098761   1.000000
    4        1.593183   1.000000
    5        4.928889   0.000000
    6        6.914426   0.000000
    7        7.498924   0.000000
    8        7.892023   0.000000
 
 -0.1250000E+00  0.2250000E+00  0.2500000E-01  0.1500000E-02
    1       -9.201788   1.000000
    2       -1.979595   1.000000
    3        0.395460   1.000000
    4        1.752186   1.000000
    5        4.667530   0.000000
    6        6.681515   0.000000
    7        7.210508   0.000000
    8        8.002739   0.000000
 
 -0.7500000E-01  0.2250000E+00  0.2500000E-01  0.1500000E-02
    1       -9.364361   1.000000
    2       -1.633982   1.000000
    3        0.983734   1.000000
    4        1.843944   1.000000
    5        4.269275   0.000000
    6        6.595301   0.000000
    7        7.055377   0.000000
    8        7.991423   0.000000
 
 -0.2500000E-01  0.2250000E+00  0.2500000E-01  0.1500000E-02
    1       -9.486467   1.000000
    2       -1.321640   1.000000
    3        1.557416   1.000000
    4        1.847280   1.000000
    5        3.900183   0.000000
    6        6.612713   0.000000
    7        6.992939   0.000000
    8        7.750738   0.000000
 
  0.2750000E+00  0.2750000E+00  0.2500000E-01  0.7500000E-03
    1       -9.104611   1.000000
    2       -1.910887   1.000000
    3        0.687502   1.000000
    4        0.702180   1.000000
    5        4.328863   0.000000
    6        5.451448   0.000000
    7        8.902924   0.000000
    8        8.974909   0.000000
 