Si                                      
   5.43000000000000     
     1.000000    0.000000    0.000000
     0.000000    1.000000    0.000000
     0.000000    0.000000    1.000000
   Si
     8
Direct
  0.000000  0.000000  0.000000
  0.500000  0.500000  0.000000
  0.000000  0.500000  0.500000
  0.500000  0.000000  0.500000
  0.250000  0.250000  0.250000
  0.750000  0.750000  0.250000
  0.250000  0.750000  0.750000
  0.750000  0.250000  0.750000
 
   48   48   48
 -.29997783378E+02 -.23823513675E+02 -.72215293767E+01 0.14872930723E+02 0.36508031799E+02
 0.52811291385E+02 0.61283627852E+02 0.62016061925E+02 0.57067284173E+02 0.49401486389E+02
 0.41311440277E+02 0.33665157131E+02 0.26939254977E+02 0.21340000005E+02 0.16857422144E+02
 0.13351266620E+02 0.10636124224E+02 0.85422055659E+01 0.69398675533E+01 0.57343723935E+01
 0.48518724883E+01 0.42321726322E+01 0.38274411925E+01 0.36012159042E+01 0.35288335105E+01
 0.36012159042E+01 0.38274411925E+01 0.42321726322E+01 0.48518724883E+01 0.57343723935E+01
 0.69398675533E+01 0.85422055659E+01 0.10636124224E+02 0.13351266620E+02 0.16857422144E+02
 0.21340000005E+02 0.26939254977E+02 0.33665157131E+02 0.41311440277E+02 0.49401486389E+02
 0.57067284173E+02 0.62016061925E+02 0.61283627852E+02 0.52811291385E+02 0.36508031799E+02
 0.14872930723E+02 -.72215293767E+01 -.23823513675E+02 -.23823513675E+02 -.17944643880E+02
 -.21561769747E+01 0.18796730040E+02 0.39201251849E+02 0.54398661422E+02 0.62028897468E+02
 0.62232654888E+02 0.57041357504E+02 0.49337440240E+02 0.41271669529E+02 0.33662276698E+02
 0.26972138702E+02 0.21400169292E+02 0.16934619071E+02 0.13436888186E+02 0.10724414156E+02
 0.86299832468E+01 0.70256552096E+01 0.58175288896E+01 0.49320981203E+01 0.43094488371E+01
 0.39021602380E+01 0.36742061749E+01 0.36012159042E+01 0.36742061749E+01 0.39021602380E+01
 0.43094488371E+01 0.49320981203E+01 0.58175288896E+01 0.70256552096E+01 0.86299832468E+01
 0.10724414156E+02 0.13436888186E+02 0.16934619071E+02 0.21400169292E+02 0.26972138702E+02
 0.33662276698E+02 0.41271669529E+02 0.49337440240E+02 0.57041357504E+02 0.62232654888E+02
 0.62028897468E+02 0.54398661422E+02 0.39201251849E+02 0.18796730040E+02 -.21561769747E+01
 -.17944643880E+02 -.72215293767E+01 -.21561769747E+01 0.11394801003E+02 0.29216274586E+02
 0.46259380414E+02 0.58455967768E+02 0.63826626173E+02 0.62643489146E+02 0.56855083922E+02
 0.49098591961E+02 0.41124742909E+02 0.33637062543E+02 0.27060740344E+02 0.21574944424E+02
 0.17163734250E+02 0.13693887504E+02 0.10991528894E+02 0.88972547534E+01 0.72882972284E+01
 0.60733565059E+01 0.51800570699E+01 0.45493524672E+01 0.41349781137E+01 0.39021602380E+01
 0.38274411925E+01 0.39021602380E+01 0.41349781137E+01 0.45493524672E+01 0.51800570699E+01
 0.60733565059E+01 0.72882972284E+01 0.88972547534E+01 0.10991528894E+02 0.13693887504E+02
 0.17163734250E+02 0.21574944424E+02 0.27060740344E+02 0.33637062543E+02 0.41124742909E+02
 0.49098591961E+02 0.56855083922E+02 0.62643489146E+02 0.63826626173E+02 0.58455967768E+02
 0.46259380414E+02 0.29216274586E+02 0.11394801003E+02 -.21561769747E+01 0.14872930723E+02
 0.18796730040E+02 0.29216274586E+02 0.42679271034E+02 0.55086297396E+02 0.63205210508E+02
 0.65585332551E+02 0.62666691614E+02 0.56256167299E+02 0.48567617726E+02 0.40800596885E+02
 0.33546870639E+02 0.27178842430E+02 0.21849333696E+02 0.17538596018E+02 0.14123387861E+02
 0.11444538683E+02 0.93557483614E+01 0.77430154133E+01 0.65197128082E+01 0.56157865357E+01
 0.49738323875E+01 0.45493524672E+01 0.43094488371E+01 0.42321726322E+01 0.43094488371E+01
 0.45493524672E+01 0.49738323875E+01 0.56157865357E+01 0.65197128082E+01 0.77430154133E+01
 0.93557483614E+01 0.11444538683E+02 0.14123387861E+02 0.17538596018E+02 0.21849333696E+02
 0.27178842430E+02 0.33546870639E+02 0.40800596885E+02 0.48567617726E+02 0.56256167299E+02
 0.62666691614E+02 0.65585332551E+02 0.63205210508E+02 0.55086297396E+02 0.42679271034E+02
 0.29216274586E+02 0.18796730040E+02 0.36508031799E+02 0.39201251849E+02 0.46259380414E+02
 0.55086297396E+02 0.62639964267E+02 0.66606362194E+02 0.66097101760E+02 0.61700986560E+02
 0.55018479506E+02 0.47611601040E+02 0.40217747668E+02 0.33340183640E+02 0.27293561235E+02
 0.22204303536E+02 0.18052144677E+02 0.14728973175E+02 0.12096010155E+02 0.10025012197E+02
 0.84143510759E+01 0.71846090541E+01 0.62699311781E+01 0.56157865357E+01 0.51800570699E+01
 0.49320981203E+01 0.48518724883E+01 0.49320981203E+01 0.51800570699E+01 0.56157865357E+01
 0.62699311781E+01 0.71846090541E+01 0.84143510759E+01 0.10025012197E+02 0.12096010155E+02
 0.14728973175E+02 0.18052144677E+02 0.22204303536E+02 0.27293561235E+02 0.33340183640E+02
 0.40217747668E+02 0.47611601040E+02 0.55018479506E+02 0.61700986560E+02 0.66097101760E+02
 0.66606362194E+02 0.62639964267E+02 0.55086297396E+02 0.46259380414E+02 0.39201251849E+02
 0.52811291385E+02 0.54398661422E+02 0.58455967768E+02 0.63205210508E+02 0.66606362194E+02
 0.67199242920E+02 0.64590513277E+02 0.59450620468E+02 0.53027763885E+02 0.46139270520E+02
 0.39316147391E+02 0.32974966894E+02 0.27375396318E+02 0.22622007675E+02 0.18698805672E+02
 0.15517459565E+02 0.12964052693E+02 0.10932359797E+02 0.93364192646E+01 0.81068871241E+01
 0.71846090541E+01 0.65197128082E+01 0.60733565059E+01 0.58175288896E+01 0.57343723935E+01
 0.58175288896E+01 0.60733565059E+01 0.65197128082E+01 0.71846090541E+01 0.81068871241E+01
 0.93364192646E+01 0.10932359797E+02 0.12964052693E+02 0.15517459565E+02 0.18698805672E+02
 0.22622007675E+02 0.27375396318E+02 0.32974966894E+02 0.39316147391E+02 0.46139270520E+02
 0.53027763885E+02 0.59450620468E+02 0.64590513277E+02 0.67199242920E+02 0.66606362194E+02
 0.63205210508E+02 0.58455967768E+02 0.54398661422E+02 0.61283627852E+02 0.62028897468E+02
 0.63826626173E+02 0.65585332551E+02 0.66097101760E+02 0.64590513277E+02 0.61032646153E+02
 0.56050689214E+02 0.50267387545E+02 0.44134965660E+02 0.38077818991E+02 0.32430723560E+02
 0.27404896767E+02 0.23088936581E+02 0.19475269889E+02 0.16498184206E+02 0.14070929495E+02
 0.12111556921E+02 0.10552235911E+02 0.93364192646E+01 0.84143510759E+01 0.77430154133E+01
 0.72882972284E+01 0.70256552096E+01 0.69398675533E+01 0.70256552096E+01 0.72882972284E+01
 0.77430154133E+01 0.84143510759E+01 0.93364192646E+01 0.10552235911E+02 0.12111556921E+02
 0.14070929495E+02 0.16498184206E+02 0.19475269889E+02 0.23088936581E+02 0.27404896767E+02
 0.32430723560E+02 0.38077818991E+02 0.44134965660E+02 0.50267387545E+02 0.56050689214E+02
 0.61032646153E+02 0.64590513277E+02 0.66097101760E+02 0.65585332551E+02 0.63826626173E+02
 0.62028897468E+02 0.62016061925E+02 0.62232654888E+02 0.62643489146E+02 0.62666691614E+02
 0.61700986560E+02 0.59450620468E+02 0.56050689214E+02 0.51753574198E+02 0.46844515732E+02
 0.41662078432E+02 0.36531134904E+02 0.31712351449E+02 0.27375396318E+02 0.23597244215E+02
 0.20380421217E+02 0.17681757938E+02 0.15441047642E+02 0.13600535941E+02 0.12111556921E+02
 0.10932359797E+02 0.10025012197E+02 0.93557483614E+01 0.88972547534E+01 0.86299832468E+01
 0.85422055659E+01 0.86299832468E+01 0.88972547534E+01 0.93557483614E+01 0.10025012197E+02
 0.10932359797E+02 0.12111556921E+02 0.13600535941E+02 0.15441047642E+02 0.17681757938E+02
 0.20380421217E+02 0.23597244215E+02 0.27375396318E+02 0.31712351449E+02 0.36531134904E+02
 0.41662078432E+02 0.46844515732E+02 0.51753574198E+02 0.56050689214E+02 0.59450620468E+02
 0.61700986560E+02 0.62666691614E+02 0.62643489146E+02 0.62232654888E+02 0.57067284173E+02
 0.57041357504E+02 0.56855083922E+02 0.56256167299E+02 0.55018479506E+02 0.53027763885E+02
 0.50267387545E+02 0.46844515732E+02 0.42956923509E+02 0.38844503656E+02 0.34743088915E+02
 0.30848247726E+02 0.27293561235E+02 0.24145851189E+02 0.21416107584E+02 0.19080226415E+02
 0.17100663889E+02 0.15441047642E+02 0.14070929495E+02 0.12964052693E+02 0.12096010155E+02
 0.11444538683E+02 0.10991528894E+02 0.10724414156E+02 0.10636124224E+02 0.10724414156E+02
 0.10991528894E+02 0.11444538683E+02 0.12096010155E+02 0.12964052693E+02 0.14070929495E+02
 0.15441047642E+02 0.17100663889E+02 0.19080226415E+02 0.21416107584E+02 0.24145851189E+02
 0.27293561235E+02 0.30848247726E+02 0.34743088915E+02 0.38844503656E+02 0.42956923509E+02
 0.46844515732E+02 0.50267387545E+02 0.53027763885E+02 0.55018479506E+02 0.56256167299E+02
 0.56855083922E+02 0.57041357504E+02 0.49401486389E+02 0.49337440240E+02 0.49098591961E+02
 0.48567617726E+02 0.47611601040E+02 0.46139270520E+02 0.44134965660E+02 0.41662078432E+02
 0.38844503656E+02 0.35838817108E+02 0.32805763905E+02 0.29885329148E+02 0.27178842430E+02
 0.24741826918E+02 0.22589129969E+02 0.20709172783E+02 0.19080226415E+02 0.17681757938E+02
 0.16498184206E+02 0.15517459565E+02 0.14728973175E+02 0.14123387861E+02 0.13693887504E+02
 0.13436888186E+02 0.13351266620E+02 0.13436888186E+02 0.13693887504E+02 0.14123387861E+02
 0.14728973175E+02 0.15517459565E+02 0.16498184206E+02 0.17681757938E+02 0.19080226415E+02
 0.20709172783E+02 0.22589129969E+02 0.24741826918E+02 0.27178842430E+02 0.29885329148E+02
 0.32805763905E+02 0.35838817108E+02 0.38844503656E+02 0.41662078432E+02 0.44134965660E+02
 0.46139270520E+02 0.47611601040E+02 0.48567617726E+02 0.49098591961E+02 0.49337440240E+02
 0.41311440277E+02 0.41271669529E+02 0.41124742909E+02 0.40800596885E+02 0.40217747668E+02
 0.39316147391E+02 0.38077818991E+02 0.36531134904E+02 0.34743088915E+02 0.32805763905E+02
 0.30820517938E+02 0.28881449453E+02 0.27060740344E+02 0.25400186798E+02 0.23912176436E+02
 0.22589129969E+02 0.21416107584E+02 0.20380421217E+02 0.19475269889E+02 0.18698805672E+02
 0.18052144677E+02 0.17538596018E+02 0.17163734250E+02 0.16934619071E+02 0.16857422144E+02
 0.16934619071E+02 0.17163734250E+02 0.17538596018E+02 0.18052144677E+02 0.18698805672E+02
 0.19475269889E+02 0.20380421217E+02 0.21416107584E+02 0.22589129969E+02 0.23912176436E+02
 0.25400186798E+02 0.27060740344E+02 0.28881449453E+02 0.30820517938E+02 0.32805763905E+02
 0.34743088915E+02 0.36531134904E+02 0.38077818991E+02 0.39316147391E+02 0.40217747668E+02
 0.40800596885E+02 0.41124742909E+02 0.41271669529E+02 0.33665157131E+02 0.33662276698E+02
 0.33637062543E+02 0.33546870639E+02 0.33340183640E+02 0.32974966894E+02 0.32430723560E+02
 0.31712351449E+02 0.30848247726E+02 0.29885329148E+02 0.28881449453E+02 0.27894834746E+02
 0.26972138702E+02 0.26139395351E+02 0.25400186798E+02 0.24741826918E+02 0.24145851189E+02
 0.23597244215E+02 0.23088936581E+02 0.22622007675E+02 0.22204303536E+02 0.21849333696E+02
 0.21574944424E+02 0.21400169292E+02 0.21340000005E+02 0.21400169292E+02 0.21574944424E+02
 0.21849333696E+02 0.22204303536E+02 0.22622007675E+02 0.23088936581E+02 0.23597244215E+02
 0.24145851189E+02 0.24741826918E+02 0.25400186798E+02 0.26139395351E+02 0.26972138702E+02
 0.27894834746E+02 0.28881449453E+02 0.29885329148E+02 0.30848247726E+02 0.31712351449E+02
 0.32430723560E+02 0.32974966894E+02 0.33340183640E+02 0.33546870639E+02 0.33637062543E+02
 0.33662276698E+02 0.26939254977E+02 0.26972138702E+02 0.27060740344E+02 0.27178842430E+02
 0.27293561235E+02 0.27375396318E+02 0.27404896767E+02 0.27375396318E+02 0.27293561235E+02
 0.27178842430E+02 0.27060740344E+02 0.26972138702E+02 0.26939254977E+02 0.26972138702E+02
 0.27060740344E+02 0.27178842430E+02 0.27293561235E+02 0.27375396318E+02 0.27404896767E+02
 0.27375396318E+02 0.27293561235E+02 0.27178842430E+02 0.27060740344E+02 0.26972138702E+02
 0.26939254977E+02 0.26972138702E+02 0.27060740344E+02 0.27178842430E+02 0.27293561235E+02
 0.27375396318E+02 0.27404896767E+02 0.27375396318E+02 0.27293561235E+02 0.27178842430E+02
 0.27060740344E+02 0.26972138702E+02 0.26939254977E+02 0.26972138702E+02 0.27060740344E+02
 0.27178842430E+02 0.27293561235E+02 0.27375396318E+02 0.27404896767E+02 0.27375396318E+02
 0.27293561235E+02 0.27178842430E+02 0.27060740344E+02 0.26972138702E+02 0.21340000005E+02
 0.21400169292E+02 0.21574944424E+02 0.21849333696E+02 0.22204303536E+02 0.22622007675E+02
 0.23088936581E+02 0.23597244215E+02 0.24145851189E+02 0.24741826918E+02 0.25400186798E+02
 0.26139395351E+02 0.26972138702E+02 0.27894834746E+02 0.28881449453E+02 0.29885329148E+02
 0.30848247726E+02 0.31712351449E+02 0.32430723560E+02 0.32974966894E+02 0.33340183640E+02
 0.33546870639E+02 0.33637062543E+02 0.33662276698E+02 0.33665157131E+02 0.33662276698E+02
 0.33637062543E+02 0.33546870639E+02 0.33340183640E+02 0.32974966894E+02 0.32430723560E+02
 0.31712351449E+02 0.30848247726E+02 0.29885329148E+02 0.28881449453E+02 0.27894834746E+02
 0.26972138702E+02 0.26139395351E+02 0.25400186798E+02 0.24741826918E+02 0.24145851189E+02
 0.23597244215E+02 0.23088936581E+02 0.22622007675E+02 0.22204303536E+02 0.21849333696E+02
 0.21574944424E+02 0.21400169292E+02 0.16857422144E+02 0.16934619071E+02 0.17163734250E+02
 0.17538596018E+02 0.18052144677E+02 0.18698805672E+02 0.19475269889E+02 0.20380421217E+02
 0.21416107584E+02 0.22589129969E+02 0.23912176436E+02 0.25400186798E+02 0.27060740344E+02
 0.28881449453E+02 0.30820517938E+02 0.32805763905E+02 0.34743088915E+02 0.36531134904E+02
 0.38077818991E+02 0.39316147391E+02 0.40217747668E+02 0.40800596885E+02 0.41124742909E+02
 0.41271669529E+02 0.41311440277E+02 0.41271669529E+02 0.41124742909E+02 0.40800596885E+02
 0.40217747668E+02 0.39316147391E+02 0.38077818991E+02 0.36531134904E+02 0.34743088915E+02
 0.32805763905E+02 0.30820517938E+02 0.28881449453E+02 0.27060740344E+02 0.25400186798E+02
 0.23912176436E+02 0.22589129969E+02 0.21416107584E+02 0.20380421217E+02 0.19475269889E+02
 0.18698805672E+02 0.18052144677E+02 0.17538596018E+02 0.17163734250E+02 0.16934619071E+02
 0.13351266620E+02 0.13436888186E+02 0.13693887504E+02 0.14123387861E+02 0.14728973175E+02
 0.15517459565E+02 0.16498184206E+02 0.17681757938E+02 0.19080226415E+02 0.20709172783E+02
 0.22589129969E+02 0.24741826918E+02 0.27178842430E+02 0.29885329148E+02 0.32805763905E+02
 0.35838817108E+02 0.38844503656E+02 0.41662078432E+02 0.44134965660E+02 0.46139270520E+02
 0.47611601040E+02 0.48567617726E+02 0.49098591961E+02 0.49337440240E+02 0.49401486389E+02
 0.49337440240E+02 0.49098591961E+02 0.48567617726E+02 0.47611601040E+02 0.46139270520E+02
 0.44134965660E+02 0.41662078432E+02 0.38844503656E+02 0.35838817108E+02 0.32805763905E+02
 0.29885329148E+02 0.27178842430E+02 0.24741826918E+02 0.22589129969E+02 0.20709172783E+02
 0.19080226415E+02 0.17681757938E+02 0.16498184206E+02 0.15517459565E+02 0.14728973175E+02
 0.14123387861E+02 0.13693887504E+02 0.13436888186E+02 0.10636124224E+02 0.10724414156E+02
 0.10991528894E+02 0.11444538683E+02 0.12096010155E+02 0.12964052693E+02 0.14070929495E+02
 0.15441047642E+02 0.17100663889E+02 0.19080226415E+02 0.21416107584E+02 0.24145851189E+02
 0.27293561235E+02 0.30848247726E+02 0.34743088915E+02 0.38844503656E+02 0.42956923509E+02
 0.46844515732E+02 0.50267387545E+02 0.53027763885E+02 0.55018479506E+02 0.56256167299E+02
 0.56855083922E+02 0.57041357504E+02 0.57067284173E+02 0.57041357504E+02 0.56855083922E+02
 0.56256167299E+02 0.55018479506E+02 0.53027763885E+02 0.50267387545E+02 0.46844515732E+02
 0.42956923509E+02 0.38844503656E+02 0.34743088915E+02 0.30848247726E+02 0.27293561235E+02
 0.24145851189E+02 0.21416107584E+02 0.19080226415E+02 0.17100663889E+02 0.15441047642E+02
 0.14070929495E+02 0.12964052693E+02 0.12096010155E+02 0.11444538683E+02 0.10991528894E+02
 0.10724414156E+02 0.85422055659E+01 0.86299832468E+01 0.88972547534E+01 0.93557483614E+01
 0.10025012197E+02 0.10932359797E+02 0.12111556921E+02 0.13600535941E+02 0.15441047642E+02
 0.17681757938E+02 0.20380421217E+02 0.23597244215E+02 0.27375396318E+02 0.31712351449E+02
 0.36531134904E+02 0.41662078432E+02 0.46844515732E+02 0.51753574198E+02 0.56050689214E+02
 0.59450620468E+02 0.61700986560E+02 0.62666691614E+02 0.62643489146E+02 0.62232654888E+02
 0.62016061925E+02 0.62232654888E+02 0.62643489146E+02 0.62666691614E+02 0.61700986560E+02
 0.59450620468E+02 0.56050689214E+02 0.51753574198E+02 0.46844515732E+02 0.41662078432E+02
 0.36531134904E+02 0.31712351449E+02 0.27375396318E+02 0.23597244215E+02 0.20380421217E+02
 0.17681757938E+02 0.15441047642E+02 0.13600535941E+02 0.12111556921E+02 0.10932359797E+02
 0.10025012197E+02 0.93557483614E+01 0.88972547534E+01 0.86299832468E+01 0.69398675533E+01
 0.70256552096E+01 0.72882972284E+01 0.77430154133E+01 0.84143510759E+01 0.93364192646E+01
 0.10552235911E+02 0.12111556921E+02 0.14070929495E+02 0.16498184206E+02 0.19475269889E+02
 0.23088936581E+02 0.27404896767E+02 0.32430723560E+02 0.38077818991E+02 0.44134965660E+02
 0.50267387545E+02 0.56050689214E+02 0.61032646153E+02 0.64590513277E+02 0.66097101760E+02
 0.65585332551E+02 0.63826626173E+02 0.62028897468E+02 0.61283627852E+02 0.62028897468E+02
 0.63826626173E+02 0.65585332551E+02 0.66097101760E+02 0.64590513277E+02 0.61032646153E+02
 0.56050689214E+02 0.50267387545E+02 0.44134965660E+02 0.38077818991E+02 0.32430723560E+02
 0.27404896767E+02 0.23088936581E+02 0.19475269889E+02 0.16498184206E+02 0.14070929495E+02
 0.12111556921E+02 0.10552235911E+02 0.93364192646E+01 0.84143510759E+01 0.77430154133E+01
 0.72882972284E+01 0.70256552096E+01 0.57343723935E+01 0.58175288896E+01 0.60733565059E+01
 0.65197128082E+01 0.71846090541E+01 0.81068871241E+01 0.93364192646E+01 0.10932359797E+02
 0.12964052693E+02 0.15517459565E+02 0.18698805672E+02 0.22622007675E+02 0.27375396318E+02
 0.32974966894E+02 0.39316147391E+02 0.46139270520E+02 0.53027763885E+02 0.59450620468E+02
 0.64590513277E+02 0.67199242920E+02 0.66606362194E+02 0.63205210508E+02 0.58455967768E+02
 0.54398661422E+02 0.52811291385E+02 0.54398661422E+02 0.58455967768E+02 0.63205210508E+02
 0.66606362194E+02 0.67199242920E+02 0.64590513277E+02 0.59450620468E+02 0.53027763885E+02
 0.46139270520E+02 0.39316147391E+02 0.32974966894E+02 0.27375396318E+02 0.22622007675E+02
 0.18698805672E+02 0.15517459565E+02 0.12964052693E+02 0.10932359797E+02 0.93364192646E+01
 0.81068871241E+01 0.71846090541E+01 0.65197128082E+01 0.60733565059E+01 0.58175288896E+01
 0.48518724883E+01 0.49320981203E+01 0.51800570699E+01 0.56157865357E+01 0.62699311781E+01
 0.71846090541E+01 0.84143510759E+01 0.10025012197E+02 0.12096010155E+02 0.14728973175E+02
 0.18052144677E+02 0.22204303536E+02 0.27293561235E+02 0.33340183640E+02 0.40217747668E+02
 0.47611601040E+02 0.55018479506E+02 0.61700986560E+02 0.66097101760E+02 0.66606362194E+02
 0.62639964267E+02 0.55086297396E+02 0.46259380414E+02 0.39201251849E+02 0.36508031799E+02
 0.39201251849E+02 0.46259380414E+02 0.55086297396E+02 0.62639964267E+02 0.66606362194E+02
 0.66097101760E+02 0.61700986560E+02 0.55018479506E+02 0.47611601040E+02 0.40217747668E+02
 0.33340183640E+02 0.27293561235E+02 0.22204303536E+02 0.18052144677E+02 0.14728973175E+02
 0.12096010155E+02 0.10025012197E+02 0.84143510759E+01 0.71846090541E+01 0.62699311781E+01
 0.56157865357E+01 0.51800570699E+01 0.49320981203E+01 0.42321726322E+01 0.43094488371E+01
 0.45493524672E+01 0.49738323875E+01 0.56157865357E+01 0.65197128082E+01 0.77430154133E+01
 0.93557483614E+01 0.11444538683E+02 0.14123387861E+02 0.17538596018E+02 0.21849333696E+02
 0.27178842430E+02 0.33546870639E+02 0.40800596885E+02 0.48567617726E+02 0.56256167299E+02
 0.62666691614E+02 0.65585332551E+02 0.63205210508E+02 0.55086297396E+02 0.42679271034E+02
 0.29216274586E+02 0.18796730040E+02 0.14872930723E+02 0.18796730040E+02 0.29216274586E+02
 0.42679271034E+02 0.55086297396E+02 0.63205210508E+02 0.65585332551E+02 0.62666691614E+02
 0.56256167299E+02 0.48567617726E+02 0.40800596885E+02 0.33546870639E+02 0.27178842430E+02
 0.21849333696E+02 0.17538596018E+02 0.14123387861E+02 0.11444538683E+02 0.93557483614E+01
 0.77430154133E+01 0.65197128082E+01 0.56157865357E+01 0.49738323875E+01 0.45493524672E+01
 0.43094488371E+01 0.38274411925E+01 0.39021602380E+01 0.41349781137E+01 0.45493524672E+01
 0.51800570699E+01 0.60733565059E+01 0.72882972284E+01 0.88972547534E+01 0.10991528894E+02
 0.13693887504E+02 0.17163734250E+02 0.21574944424E+02 0.27060740344E+02 0.33637062543E+02
 0.41124742909E+02 0.49098591961E+02 0.56855083922E+02 0.62643489146E+02 0.63826626173E+02
 0.58455967768E+02 0.46259380414E+02 0.29216274586E+02 0.11394801003E+02 -.21561769747E+01
 -.72215293767E+01 -.21561769747E+01 0.11394801003E+02 0.29216274586E+02 0.46259380414E+02
 0.58455967768E+02 0.63826626173E+02 0.62643489146E+02 0.56855083922E+02 0.49098591961E+02
 0.41124742909E+02 0.33637062543E+02 0.27060740344E+02 0.21574944424E+02 0.17163734250E+02
 0.13693887504E+02 0.10991528894E+02 0.88972547534E+01 0.72882972284E+01 0.60733565059E+01
 0.51800570699E+01 0.45493524672E+01 0.41349781137E+01 0.39021602380E+01 0.36012159042E+01
 0.36742061749E+01 0.39021602380E+01 0.43094488371E+01 0.49320981203E+01 0.58175288896E+01
 0.70256552096E+01 0.86299832468E+01 0.10724414156E+02 0.13436888186E+02 0.16934619071E+02
 0.21400169292E+02 0.26972138702E+02 0.33662276698E+02 0.41271669529E+02 0.49337440240E+02
 0.57041357504E+02 0.62232654888E+02 0.62028897468E+02 0.54398661422E+02 0.39201251849E+02
 0.18796730040E+02 -.21561769747E+01 -.17944643880E+02 -.23823513675E+02 -.17944643880E+02
 -.21561769747E+01 0.18796730040E+02 0.39201251849E+02 0.54398661422E+02 0.62028897468E+02
 0.62232654888E+02 0.57041357504E+02 0.49337440240E+02 0.41271669529E+02 0.33662276698E+02
 0.26972138702E+02 0.21400169292E+02 0.16934619071E+02 0.13436888186E+02 0.10724414156E+02
 0.86299832468E+01 0.70256552096E+01 0.58175288896E+01 0.49320981203E+01 0.43094488371E+01
 0.39021602380E+01 0.36742061749E+01 0.35288335105E+01 0.36012159042E+01 0.38274411925E+01
 0.42321726322E+01 0.48518724883E+01 0.57343723935E+01 0.69398675533E+01 0.85422055659E+01
 0.10636124224E+02 0.13351266620E+02 0.16857422144E+02 0.21340000005E+02 0.26939254977E+02
 0.33665157131E+02 0.41311440277E+02 0.49401486389E+02 0.57067284173E+02 0.62016061925E+02
 0.61283627852E+02 0.52811291385E+02 0.36508031799E+02 0.14872930723E+02 -.72215293767E+01
 -.23823513675E+02 -.29997783378E+02 -.23823513675E+02 -.72215293767E+01 0.14872930723E+02
 0.36508031799E+02 0.52811291385E+02 0.61283627852E+02 0.62016061925E+02 0.57067284173E+02
 0.49401486389E+02 0.41311440277E+02 0.33665157131E+02 0.26939254977E+02 0.21340000005E+02
 0.16857422144E+02 0.13351266620E+02 0.10636124224E+02 0.85422055659E+01 0.69398675533E+01
 0.57343723935E+01 0.48518724883E+01 0.42321726322E+01 0.38274411925E+01 0.36012159042E+01
 0.36012159042E+01 0.36742061749E+01 0.39021602380E+01 0.43094488371E+01 0.49320981203E+01
 0.58175288896E+01 0.70256552096E+01 0.86299832468E+01 0.10724414156E+02 0.13436888186E+02
 0.16934619071E+02 0.21400169292E+02 0.26972138702E+02 0.33662276698E+02 0.41271669529E+02
 0.49337440240E+02 0.57041357504E+02 0.62232654888E+02 0.62028897468E+02 0.54398661422E+02
 0.39201251849E+02 0.18796730040E+02 -.21561769747E+01 -.17944643880E+02 -.23823513675E+02
 -.17944643880E+02 -.21561769747E+01 0.18796730040E+02 0.39201251849E+02 0.54398661422E+02
 0.62028897468E+02 0.62232654888E+02 0.57041357504E+02 0.49337440240E+02 0.41271669529E+02
 0.33662276698E+02 0.26972138702E+02 0.21400169292E+02 0.16934619071E+02 0.13436888186E+02
 0.10724414156E+02 0.86299832468E+01 0.70256552096E+01 0.58175288896E+01 0.49320981203E+01
 0.43094488371E+01 0.39021602380E+01 0.36742061749E+01 0.38274411925E+01 0.39021602380E+01
 0.41349781137E+01 0.45493524672E+01 0.51800570699E+01 0.60733565059E+01 0.72882972284E+01
 0.88972547534E+01 0.10991528894E+02 0.13693887504E+02 0.17163734250E+02 0.21574944424E+02
 0.27060740344E+02 0.33637062543E+02 0.41124742909E+02 0.49098591961E+02 0.56855083922E+02
 0.62643489146E+02 0.63826626173E+02 0.58455967768E+02 0.46259380414E+02 0.29216274586E+02
 0.11394801003E+02 -.21561769747E+01 -.72215293767E+01 -.21561769747E+01 0.11394801003E+02
 0.29216274586E+02 0.46259380414E+02 0.58455967768E+02 0.63826626173E+02 0.62643489146E+02
 0.56855083922E+02 0.49098591961E+02 0.41124742909E+02 0.33637062543E+02 0.27060740344E+02
 0.21574944424E+02 0.17163734250E+02 0.13693887504E+02 0.10991528894E+02 0.88972547534E+01
 0.72882972284E+01 0.60733565059E+01 0.51800570699E+01 0.45493524672E+01 0.41349781137E+01
 0.39021602380E+01 0.42321726322E+01 0.43094488371E+01 0.45493524672E+01 0.49738323875E+01
 0.56157865357E+01 0.65197128082E+01 0.77430154133E+01 0.93557483614E+01 0.11444538683E+02
 0.14123387861E+02 0.17538596018E+02 0.21849333696E+02 0.27178842430E+02 0.33546870639E+02
 0.40800596885E+02 0.48567617726E+02 0.56256167299E+02 0.62666691614E+02 0.65585332551E+02
 0.63205210508E+02 0.55086297396E+02 0.42679271034E+02 0.29216274586E+02 0.18796730040E+02
 0.14872930723E+02 0.18796730040E+02 0.29216274586E+02 0.42679271034E+02 0.55086297396E+02
 0.63205210508E+02 0.65585332551E+02 0.62666691614E+02 0.56256167299E+02 0.48567617726E+02
 0.40800596885E+02 0.33546870639E+02 0.27178842430E+02 0.21849333696E+02 0.17538596018E+02
 0.14123387861E+02 0.11444538683E+02 0.93557483614E+01 0.77430154133E+01 0.65197128082E+01
 0.56157865357E+01 0.49738323875E+01 0.45493524672E+01 0.43094488371E+01 0.48518724883E+01
 0.49320981203E+01 0.51800570699E+01 0.56157865357E+01 0.62699311781E+01 0.71846090541E+01
 0.84143510759E+01 0.10025012197E+02 0.12096010155E+02 0.14728973175E+02 0.18052144677E+02
 0.22204303536E+02 0.27293561235E+02 0.33340183640E+02 0.40217747668E+02 0.47611601040E+02
 0.55018479506E+02 0.61700986560E+02 0.66097101760E+02 0.66606362194E+02 0.62639964267E+02
 0.55086297396E+02 0.46259380414E+02 0.39201251849E+02 0.36508031799E+02 0.39201251849E+02
 0.46259380414E+02 0.55086297396E+02 0.62639964267E+02 0.66606362194E+02 0.66097101760E+02
 0.61700986560E+02 0.55018479506E+02 0.47611601040E+02 0.40217747668E+02 0.33340183640E+02
 0.27293561235E+02 0.22204303536E+02 0.18052144677E+02 0.14728973175E+02 0.12096010155E+02
 0.10025012197E+02 0.84143510759E+01 0.71846090541E+01 0.62699311781E+01 0.56157865357E+01
 0.51800570699E+01 0.49320981203E+01 0.57343723935E+01 0.58175288896E+01 0.60733565059E+01
 0.65197128082E+01 0.71846090541E+01 0.81068871241E+01 0.93364192646E+01 0.10932359797E+02
 0.12964052693E+02 0.15517459565E+02 0.18698805672E+02 0.22622007675E+02 0.27375396318E+02
 0.32974966894E+02 0.39316147391E+02 0.46139270520E+02 0.53027763885E+02 0.59450620468E+02
 0.64590513277E+02 0.67199242920E+02 0.66606362194E+02 0.63205210508E+02 0.58455967768E+02
 0.54398661422E+02 0.52811291385E+02 0.54398661422E+02 0.58455967768E+02 0.63205210508E+02
 0.66606362194E+02 0.67199242920E+02 0.64590513277E+02 0.59450620468E+02 0.53027763885E+02
 0.46139270520E+02 0.39316147391E+02 0.32974966894E+02 0.27375396318E+02 0.22622007675E+02
 0.18698805672E+02 0.15517459565E+02 0.12964052693E+02 0.10932359797E+02 0.93364192646E+01
 0.81068871241E+01 0.71846090541E+01 0.65197128082E+01 0.60733565059E+01 0.58175288896E+01
 0.69398675533E+01 0.70256552096E+01 0.72882972284E+01 0.77430154133E+01 0.84143510759E+01
 0.93364192646E+01 0.10552235911E+02 0.12111556921E+02 0.14070929495E+02 0.16498184206E+02
 0.19475269889E+02 0.23088936581E+02 0.27404896767E+02 0.32430723560E+02 0.38077818991E+02
 0.44134965660E+02 0.50267387545E+02 0.56050689214E+02 0.61032646153E+02 0.64590513277E+02
 0.66097101760E+02 0.65585332551E+02 0.63826626173E+02 0.62028897468E+02 0.61283627852E+02
 0.62028897468E+02 0.63826626173E+02 0.65585332551E+02 0.66097101760E+02 0.64590513277E+02
 0.61032646153E+02 0.56050689214E+02 0.50267387545E+02 0.44134965660E+02 0.38077818991E+02
 0.32430723560E+02 0.27404896767E+02 0.23088936581E+02 0.19475269889E+02 0.16498184206E+02
 0.14070929495E+02 0.12111556921E+02 0.10552235911E+02 0.93364192646E+01 0.84143510759E+01
 0.77430154133E+01 0.72882972284E+01 0.70256552096E+01 0.85422055659E+01 0.86299832468E+01
 0.88972547534E+01 0.93557483614E+01 0.10025012197E+02 0.10932359797E+02 0.12111556921E+02
 0.13600535941E+02 0.15441047642E+02 0.17681757938E+02 0.20380421217E+02 0.23597244215E+02
 0.27375396318E+02 0.31712351449E+02 0.36531134904E+02 0.41662078432E+02 0.46844515732E+02
 0.51753574198E+02 0.56050689214E+02 0.59450620468E+02 0.61700986560E+02 0.62666691614E+02
 0.62643489146E+02 0.62232654888E+02 0.62016061925E+02 0.62232654888E+02 0.62643489146E+02
 0.62666691614E+02 0.61700986560E+02 0.59450620468E+02 0.56050689214E+02 0.51753574198E+02
 0.46844515732E+02 0.41662078432E+02 0.36531134904E+02 0.31712351449E+02 0.27375396318E+02
 0.23597244215E+02 0.20380421217E+02 0.17681757938E+02 0.15441047642E+02 0.13600535941E+02
 0.12111556921E+02 0.10932359797E+02 0.10025012197E+02 0.93557483614E+01 0.88972547534E+01
 0.86299832468E+01 0.10636124224E+02 0.10724414156E+02 0.10991528894E+02 0.11444538683E+02
 0.12096010155E+02 0.12964052693E+02 0.14070929495E+02 0.15441047642E+02 0.17100663889E+02
 0.19080226415E+02 0.21416107584E+02 0.24145851189E+02 0.27293561235E+02 0.30848247726E+02
 0.34743088915E+02 0.38844503656E+02 0.42956923509E+02 0.46844515732E+02 0.50267387545E+02
 0.53027763885E+02 0.55018479506E+02 0.56256167299E+02 0.56855083922E+02 0.57041357504E+02
 0.57067284173E+02 0.57041357504E+02 0.56855083922E+02 0.56256167299E+02 0.55018479506E+02
 0.53027763885E+02 0.50267387545E+02 0.46844515732E+02 0.42956923509E+02 0.38844503656E+02
 0.34743088915E+02 0.30848247726E+02 0.27293561235E+02 0.24145851189E+02 0.21416107584E+02
 0.19080226415E+02 0.17100663889E+02 0.15441047642E+02 0.14070929495E+02 0.12964052693E+02
 0.12096010155E+02 0.11444538683E+02 0.10991528894E+02 0.10724414156E+02 0.13351266620E+02
 0.13436888186E+02 0.13693887504E+02 0.14123387861E+02 0.14728973175E+02 0.15517459565E+02
 0.16498184206E+02 0.17681757938E+02 0.19080226415E+02 0.20709172783E+02 0.22589129969E+02
 0.24741826918E+02 0.27178842430E+02 0.29885329148E+02 0.32805763905E+02 0.35838817108E+02
 0.38844503656E+02 0.41662078432E+02 0.44134965660E+02 0.46139270520E+02 0.47611601040E+02
 0.48567617726E+02 0.49098591961E+02 0.49337440240E+02 0.49401486389E+02 0.49337440240E+02
 0.49098591961E+02 0.48567617726E+02 0.47611601040E+02 0.46139270520E+02 0.44134965660E+02
 0.41662078432E+02 0.38844503656E+02 0.35838817108E+02 0.32805763905E+02 0.29885329148E+02