   8   8   0   0
  0.2001288E+02  0.5430000E-09  0.5430000E-09  0.5430000E-09  0.5000000E-15
  1.000000000000000E-004
  CAR 
 Si tetrahedron                          
     12.62965721     -8.13056780  301      5.85663380      1.00000000
     -8.131  0.0000E+00  0.0000E+00
     -8.061  0.0000E+00  0.0000E+00
     -7.992  0.0000E+00  0.0000E+00
     -7.923  0.0000E+00  0.0000E+00
     -7.854  0.0000E+00  0.0000E+00
     -7.785  0.0000E+00  0.0000E+00
     -7.715  0.0000E+00  0.0000E+00
     -7.646  0.0000E+00  0.0000E+00
     -7.577  0.0000E+00  0.0000E+00
     -7.508  0.0000E+00  0.0000E+00
     -7.439  0.0000E+00  0.0000E+00
     -7.369  0.0000E+00  0.0000E+00
     -7.300  0.0000E+00  0.0000E+00
     -7.231  0.0000E+00  0.0000E+00
     -7.162  0.0000E+00  0.0000E+00
     -7.093  0.0000E+00  0.0000E+00
     -7.023  0.0000E+00  0.0000E+00
     -6.954  0.0000E+00  0.0000E+00
     -6.885  0.0000E+00  0.0000E+00
     -6.816  0.0000E+00  0.0000E+00
     -6.747  0.0000E+00  0.0000E+00
     -6.677  0.0000E+00  0.0000E+00
     -6.608  0.0000E+00  0.0000E+00
     -6.539  0.0000E+00  0.0000E+00
     -6.470  0.0000E+00  0.0000E+00
     -6.401  0.0000E+00  0.0000E+00
     -6.331  0.0000E+00  0.0000E+00
     -6.262  0.0000E+00  0.0000E+00
     -6.193  0.0000E+00  0.0000E+00
     -6.124  0.3599E-01  0.8184E-04
     -6.055  0.3603E+00  0.1717E-01
     -5.985  0.5104E+00  0.4797E-01
     -5.916  0.6303E+00  0.8794E-01
     -5.847  0.7382E+00  0.1353E+00
     -5.778  0.8207E+00  0.1891E+00
     -5.709  0.9065E+00  0.2491E+00
     -5.639  0.9801E+00  0.3143E+00
     -5.570  0.1056E+01  0.3849E+00
     -5.501  0.1121E+01  0.4602E+00
     -5.432  0.1195E+01  0.5403E+00
     -5.363  0.1253E+01  0.6249E+00
     -5.293  0.1317E+01  0.7138E+00
     -5.224  0.1380E+01  0.8073E+00
     -5.155  0.1438E+01  0.9047E+00
     -5.086  0.1500E+01  0.1006E+01
     -5.017  0.1561E+01  0.1112E+01
     -4.947  0.1617E+01  0.1222E+01
     -4.878  0.1679E+01  0.1336E+01
     -4.809  0.1742E+01  0.1455E+01
     -4.740  0.1799E+01  0.1577E+01
     -4.671  0.1861E+01  0.1704E+01
     -4.601  0.1927E+01  0.1835E+01
     -4.532  0.1992E+01  0.1971E+01
     -4.463  0.2058E+01  0.2111E+01
     -4.394  0.2131E+01  0.2256E+01
     -4.325  0.2210E+01  0.2406E+01
     -4.255  0.2319E+01  0.2561E+01
     -4.186  0.2481E+01  0.2728E+01
     -4.117  0.2544E+01  0.2901E+01
     -4.048  0.2517E+01  0.3076E+01
     -3.979  0.2620E+01  0.3252E+01
     -3.909  0.2865E+01  0.3442E+01
     -3.840  0.3099E+01  0.3648E+01
     -3.771  0.3752E+01  0.3886E+01
     -3.702  0.3388E+01  0.4135E+01
     -3.633  0.3721E+01  0.4374E+01
     -3.563  0.3310E+01  0.4607E+01
     -3.494  0.3267E+01  0.4833E+01
     -3.425  0.3097E+01  0.5053E+01
     -3.356  0.3002E+01  0.5263E+01
     -3.287  0.2912E+01  0.5472E+01
     -3.217  0.2842E+01  0.5672E+01
     -3.148  0.2729E+01  0.5864E+01
     -3.079  0.2619E+01  0.6051E+01
     -3.010  0.2518E+01  0.6231E+01
     -2.941  0.2437E+01  0.6405E+01
     -2.871  0.2414E+01  0.6573E+01
     -2.802  0.2224E+01  0.6732E+01
     -2.733  0.2087E+01  0.6881E+01
     -2.664  0.2057E+01  0.7029E+01
     -2.595  0.1978E+01  0.7170E+01
     -2.525  0.1820E+01  0.7303E+01
     -2.456  0.1656E+01  0.7423E+01
     -2.387  0.1531E+01  0.7533E+01
     -2.318  0.1588E+01  0.7644E+01
     -2.249  0.1408E+01  0.7750E+01
     -2.179  0.1124E+01  0.7838E+01
     -2.110  0.8390E+00  0.7905E+01
     -2.041  0.5498E+00  0.7954E+01
     -1.972  0.3828E+00  0.7987E+01
     -1.903  0.2282E+00  0.8006E+01
     -1.833  0.2817E+00  0.8023E+01
     -1.764  0.4608E+00  0.8049E+01
     -1.695  0.6504E+00  0.8087E+01
     -1.626  0.8632E+00  0.8139E+01
     -1.556  0.1373E+01  0.8219E+01
     -1.487  0.1338E+01  0.8313E+01
     -1.418  0.1431E+01  0.8409E+01
     -1.349  0.1566E+01  0.8512E+01
     -1.280  0.1774E+01  0.8627E+01
     -1.210  0.2146E+01  0.8761E+01
     -1.141  0.2222E+01  0.8928E+01
     -1.072  0.3486E+01  0.9127E+01
     -1.003  0.5259E+01  0.9428E+01
     -0.934  0.7798E+01  0.9917E+01
     -0.864  0.4948E+01  0.1033E+02
     -0.795  0.4191E+01  0.1065E+02
     -0.726  0.3623E+01  0.1091E+02
     -0.657  0.3268E+01  0.1115E+02
     -0.588  0.3062E+01  0.1137E+02
     -0.518  0.2845E+01  0.1157E+02
     -0.449  0.2669E+01  0.1177E+02
     -0.380  0.2483E+01  0.1195E+02
     -0.311  0.2358E+01  0.1211E+02
     -0.242  0.2268E+01  0.1227E+02
     -0.172  0.2143E+01  0.1243E+02
     -0.103  0.2068E+01  0.1257E+02
     -0.034  0.1959E+01  0.1271E+02
      0.035  0.1868E+01  0.1284E+02
      0.104  0.1807E+01  0.1297E+02
      0.174  0.1706E+01  0.1309E+02
      0.243  0.1606E+01  0.1321E+02
      0.312  0.1571E+01  0.1332E+02
      0.381  0.1550E+01  0.1342E+02
      0.450  0.1516E+01  0.1353E+02
      0.520  0.1447E+01  0.1363E+02
      0.589  0.1363E+01  0.1373E+02
      0.658  0.1313E+01  0.1382E+02
      0.727  0.1266E+01  0.1391E+02
      0.796  0.1219E+01  0.1400E+02
      0.866  0.1175E+01  0.1408E+02
      0.935  0.1133E+01  0.1416E+02
      1.004  0.1092E+01  0.1424E+02
      1.073  0.1053E+01  0.1431E+02
      1.142  0.1020E+01  0.1438E+02
      1.212  0.9916E+00  0.1445E+02
      1.281  0.9716E+00  0.1452E+02
      1.350  0.9863E+00  0.1459E+02
      1.419  0.1050E+01  0.1466E+02
      1.488  0.2495E+01  0.1479E+02
      1.558  0.2620E+01  0.1497E+02
      1.627  0.3535E+01  0.1519E+02
      1.696  0.4258E+01  0.1545E+02
      1.765  0.5117E+01  0.1576E+02
      1.834  0.4740E+01  0.1611E+02
      1.904  0.4466E+01  0.1643E+02
      1.973  0.4318E+01  0.1673E+02
      2.042  0.4281E+01  0.1703E+02
      2.111  0.4010E+01  0.1731E+02
      2.180  0.4017E+01  0.1759E+02
      2.250  0.4080E+01  0.1787E+02
      2.319  0.4222E+01  0.1817E+02
      2.388  0.4124E+01  0.1845E+02
      2.457  0.4120E+01  0.1874E+02
      2.526  0.4314E+01  0.1903E+02
      2.596  0.4502E+01  0.1933E+02
      2.665  0.4741E+01  0.1965E+02
      2.734  0.5033E+01  0.1999E+02
      2.803  0.4667E+01  0.2033E+02
      2.872  0.5428E+01  0.2067E+02
      2.942  0.5047E+01  0.2104E+02
      3.011  0.6047E+01  0.2142E+02
      3.080  0.6345E+01  0.2184E+02
      3.149  0.6045E+01  0.2228E+02
      3.218  0.5794E+01  0.2268E+02
      3.288  0.6495E+01  0.2310E+02
      3.357  0.5328E+01  0.2348E+02
      3.426  0.5813E+01  0.2387E+02
      3.495  0.5593E+01  0.2426E+02
      3.564  0.5605E+01  0.2465E+02
      3.634  0.5623E+01  0.2504E+02
      3.703  0.5510E+01  0.2542E+02
      3.772  0.5367E+01  0.2580E+02
      3.841  0.5065E+01  0.2617E+02
      3.910  0.4547E+01  0.2650E+02
      3.980  0.4934E+01  0.2683E+02
      4.049  0.5244E+01  0.2718E+02
      4.118  0.5066E+01  0.2754E+02
      4.187  0.4906E+01  0.2789E+02
      4.256  0.4787E+01  0.2822E+02
      4.326  0.4721E+01  0.2855E+02
      4.395  0.4753E+01  0.2888E+02
      4.464  0.4655E+01  0.2921E+02
      4.533  0.4442E+01  0.2952E+02
      4.602  0.4580E+01  0.2984E+02
      4.672  0.3712E+01  0.3014E+02
      4.741  0.3130E+01  0.3037E+02
      4.810  0.2857E+01  0.3058E+02
      4.879  0.2543E+01  0.3077E+02
      4.948  0.2295E+01  0.3093E+02
      5.018  0.2113E+01  0.3109E+02
      5.087  0.1899E+01  0.3123E+02
      5.156  0.1714E+01  0.3135E+02
      5.225  0.1615E+01  0.3146E+02
      5.294  0.1384E+01  0.3157E+02
      5.364  0.1248E+01  0.3166E+02
      5.433  0.1110E+01  0.3174E+02
      5.502  0.9468E+00  0.3181E+02
      5.571  0.7970E+00  0.3187E+02
      5.640  0.7038E+00  0.3193E+02
      5.710  0.4908E+00  0.3197E+02
      5.779  0.2390E+00  0.3199E+02
      5.848  0.0000E+00  0.3200E+02
      5.917  0.0000E+00  0.3200E+02
      5.986  0.0000E+00  0.3200E+02
      6.056  0.0000E+00  0.3200E+02
      6.125  0.0000E+00  0.3200E+02
      6.194  0.0000E+00  0.3200E+02
      6.263  0.0000E+00  0.3200E+02
      6.332  0.0000E+00  0.3200E+02
      6.402  0.0000E+00  0.3200E+02
      6.471  0.2858E+00  0.3201E+02
      6.540  0.4968E+00  0.3204E+02
      6.609  0.7451E+00  0.3208E+02
      6.678  0.1142E+01  0.3216E+02
      6.748  0.1139E+01  0.3223E+02
      6.817  0.1325E+01  0.3232E+02
      6.886  0.1609E+01  0.3242E+02
      6.955  0.1703E+01  0.3254E+02
      7.024  0.1885E+01  0.3266E+02
      7.094  0.1928E+01  0.3279E+02
      7.163  0.2120E+01  0.3293E+02
      7.232  0.2276E+01  0.3309E+02
      7.301  0.2407E+01  0.3325E+02
      7.370  0.2561E+01  0.3342E+02
      7.440  0.2872E+01  0.3360E+02
      7.509  0.3109E+01  0.3381E+02
      7.578  0.3408E+01  0.3404E+02
      7.647  0.3804E+01  0.3428E+02
      7.716  0.4054E+01  0.3456E+02
      7.786  0.4136E+01  0.3484E+02
      7.855  0.4451E+01  0.3514E+02
      7.924  0.4784E+01  0.3546E+02
      7.993  0.5743E+01  0.3581E+02
      8.062  0.6300E+01  0.3624E+02
      8.132  0.6159E+01  0.3668E+02
      8.201  0.5893E+01  0.3709E+02
      8.270  0.5817E+01  0.3750E+02
      8.339  0.5083E+01  0.3788E+02
      8.408  0.4774E+01  0.3822E+02
      8.478  0.4652E+01  0.3855E+02
      8.547  0.4111E+01  0.3884E+02
      8.616  0.3930E+01  0.3912E+02
      8.685  0.3565E+01  0.3938E+02
      8.754  0.3419E+01  0.3962E+02
      8.824  0.2953E+01  0.3984E+02
      8.893  0.2724E+01  0.4004E+02
      8.962  0.2393E+01  0.4021E+02
      9.031  0.3054E+01  0.4039E+02
      9.100  0.4598E+01  0.4067E+02
      9.170  0.4809E+01  0.4101E+02
      9.239  0.4129E+01  0.4132E+02
      9.308  0.2373E+01  0.4156E+02
      9.377  0.1455E+01  0.4168E+02
      9.446  0.1226E+01  0.4177E+02
      9.516  0.9729E+00  0.4185E+02
      9.585  0.5919E+00  0.4191E+02
      9.654  0.3433E+00  0.4194E+02
      9.723  0.2184E+00  0.4196E+02
      9.792  0.1195E+00  0.4197E+02
      9.862  0.8993E-01  0.4197E+02
      9.931  0.7392E-01  0.4198E+02
     10.000  0.6102E-01  0.4198E+02
     10.069  0.5200E-01  0.4199E+02
     10.138  0.4870E-01  0.4199E+02
     10.208  0.3217E-01  0.4200E+02
     10.277  0.2237E-01  0.4200E+02
     10.346  0.1596E-01  0.4200E+02
     10.415  0.1018E-01  0.4200E+02
     10.484  0.5427E-02  0.4200E+02
     10.554  0.1745E-02  0.4200E+02
     10.623  0.1405E-04  0.4200E+02
     10.692  0.0000E+00  0.4200E+02
     10.761  0.0000E+00  0.4200E+02
     10.830  0.0000E+00  0.4200E+02
     10.900  0.0000E+00  0.4200E+02
     10.969  0.0000E+00  0.4200E+02
     11.038  0.0000E+00  0.4200E+02
     11.107  0.0000E+00  0.4200E+02
     11.176  0.0000E+00  0.4200E+02
     11.246  0.0000E+00  0.4200E+02
     11.315  0.0000E+00  0.4200E+02
     11.384  0.0000E+00  0.4200E+02
     11.453  0.0000E+00  0.4200E+02
     11.522  0.0000E+00  0.4200E+02
     11.592  0.0000E+00  0.4200E+02
     11.661  0.0000E+00  0.4200E+02
     11.730  0.0000E+00  0.4200E+02
     11.799  0.0000E+00  0.4200E+02
     11.868  0.0000E+00  0.4200E+02
     11.938  0.0000E+00  0.4200E+02
     12.007  0.0000E+00  0.4200E+02
     12.076  0.0000E+00  0.4200E+02
     12.145  0.0000E+00  0.4200E+02
     12.214  0.0000E+00  0.4200E+02
     12.284  0.0000E+00  0.4200E+02
     12.353  0.0000E+00  0.4200E+02
     12.422  0.0000E+00  0.4200E+02
     12.491  0.0000E+00  0.4200E+02
     12.560  0.0000E+00  0.4200E+02
     12.630  0.0000E+00  0.4200E+02
