<?xml version="1.0" encoding="ISO-8859-1"?>
<modeling>
 <generator>
  <i name="program" type="string">vasp </i>
  <i name="version" type="string">5.4.4.18Apr17-6-g9f103f2a35  </i>
  <i name="subversion" type="string">(build May 20 2018 16:52:39) complex            parallel </i>
  <i name="platform" type="string">LinuxIFC </i>
  <i name="date" type="string">2022 11 04 </i>
  <i name="time" type="string">18:26:52 </i>
 </generator>
 <incar>
  <i type="string" name="SYSTEM"> Si tetrahedron</i>
  <i type="string" name="PREC">normal</i>
  <i type="int" name="ICHARG">    11</i>
  <i name="EDIFF">      0.00000010</i>
  <i name="ENCUT">    300.00000000</i>
  <i type="int" name="ISMEAR">    -5</i>
  <i type="logical" name="LCHARG"> F  </i>
  <v type="int" name="KPOINT_BSE">    -1     0     0     0</v>
 </incar>
 <structure name="primitive_cell" >
  <crystal>
   <varray name="basis" >
    <v>       2.71500000       2.71500000       0.00000000 </v>
    <v>       2.71500000       0.00000000      -2.71500000 </v>
    <v>       0.00000000       2.71500000      -2.71500000 </v>
   </varray>
   <i name="volume">     40.02575175 </i>
   <varray name="rec_basis" >
    <v>       0.18416206       0.18416206       0.18416206 </v>
    <v>       0.18416206      -0.18416206      -0.18416206 </v>
    <v>      -0.18416206       0.18416206      -0.18416206 </v>
   </varray>
  </crystal>
  <varray name="positions" >
   <v>       0.00000000       0.00000000       0.00000000 </v>
   <v>      -0.25000000      -0.25000000      -0.25000000 </v>
  </varray>
 </structure>
 <varray name="primitive_index" >
  <v type="int" >        1 </v>
  <v type="int" >        5 </v>
 </varray>
 <kpoints>
  <generation param="Gamma">
   <v type="int" name="divisions">      20       20       20 </v>
   <v name="usershift">      0.00000000       0.00000000       0.00000000 </v>
   <v name="genvec1">      0.05000000       0.00000000       0.00000000 </v>
   <v name="genvec2">      0.00000000       0.05000000       0.00000000 </v>
   <v name="genvec3">      0.00000000       0.00000000       0.05000000 </v>
   <v name="shift">      0.00000000       0.00000000       0.00000000 </v>
  </generation>
  <varray name="kpointlist" >
   <v>       0.00000000       0.00000000       0.00000000 </v>
   <v>       0.05000000       0.00000000       0.00000000 </v>
   <v>       0.10000000       0.00000000       0.00000000 </v>
   <v>       0.15000000       0.00000000       0.00000000 </v>
   <v>       0.20000000       0.00000000       0.00000000 </v>
   <v>       0.25000000       0.00000000       0.00000000 </v>
   <v>       0.30000000       0.00000000       0.00000000 </v>
   <v>       0.35000000       0.00000000       0.00000000 </v>
   <v>       0.40000000       0.00000000       0.00000000 </v>
   <v>       0.45000000       0.00000000       0.00000000 </v>
   <v>       0.50000000       0.00000000       0.00000000 </v>
   <v>       0.05000000       0.05000000       0.00000000 </v>
   <v>       0.10000000       0.05000000       0.00000000 </v>
   <v>       0.15000000       0.05000000       0.00000000 </v>
   <v>       0.20000000       0.05000000       0.00000000 </v>
   <v>       0.25000000       0.05000000       0.00000000 </v>
   <v>       0.30000000       0.05000000       0.00000000 </v>
   <v>       0.35000000       0.05000000       0.00000000 </v>
   <v>       0.40000000       0.05000000       0.00000000 </v>
   <v>       0.45000000       0.05000000       0.00000000 </v>
   <v>       0.50000000       0.05000000       0.00000000 </v>
   <v>       0.10000000       0.10000000       0.00000000 </v>
   <v>       0.15000000       0.10000000       0.00000000 </v>
   <v>       0.20000000       0.10000000       0.00000000 </v>
   <v>       0.25000000       0.10000000       0.00000000 </v>
   <v>       0.30000000       0.10000000       0.00000000 </v>
   <v>       0.35000000       0.10000000       0.00000000 </v>
   <v>       0.40000000       0.10000000       0.00000000 </v>
   <v>       0.45000000       0.10000000       0.00000000 </v>
   <v>       0.50000000       0.10000000       0.00000000 </v>
   <v>       0.15000000       0.15000000       0.00000000 </v>
   <v>       0.20000000       0.15000000       0.00000000 </v>
   <v>       0.25000000       0.15000000       0.00000000 </v>
   <v>       0.30000000       0.15000000       0.00000000 </v>
   <v>       0.35000000       0.15000000       0.00000000 </v>
   <v>       0.40000000       0.15000000       0.00000000 </v>
   <v>       0.45000000       0.15000000       0.00000000 </v>
   <v>       0.50000000       0.15000000       0.00000000 </v>
   <v>       0.20000000       0.20000000       0.00000000 </v>
   <v>       0.25000000       0.20000000       0.00000000 </v>
   <v>       0.30000000       0.20000000       0.00000000 </v>
   <v>       0.35000000       0.20000000       0.00000000 </v>
   <v>       0.40000000       0.20000000       0.00000000 </v>
   <v>       0.45000000       0.20000000       0.00000000 </v>
   <v>       0.50000000       0.20000000       0.00000000 </v>
   <v>       0.25000000       0.25000000       0.00000000 </v>
   <v>       0.30000000       0.25000000       0.00000000 </v>
   <v>       0.35000000       0.25000000       0.00000000 </v>
   <v>       0.40000000       0.25000000       0.00000000 </v>
   <v>       0.45000000       0.25000000       0.00000000 </v>
   <v>       0.50000000       0.25000000       0.00000000 </v>
   <v>       0.30000000       0.30000000       0.00000000 </v>
   <v>       0.35000000       0.30000000       0.00000000 </v>
   <v>       0.40000000       0.30000000       0.00000000 </v>
   <v>       0.45000000       0.30000000       0.00000000 </v>
   <v>       0.50000000       0.30000000       0.00000000 </v>
   <v>       0.35000000       0.35000000       0.00000000 </v>
   <v>       0.40000000       0.35000000       0.00000000 </v>
   <v>       0.45000000       0.35000000       0.00000000 </v>
   <v>       0.50000000       0.35000000       0.00000000 </v>
   <v>       0.40000000       0.40000000       0.00000000 </v>
   <v>       0.45000000       0.40000000       0.00000000 </v>
   <v>       0.50000000       0.40000000       0.00000000 </v>
   <v>       0.45000000       0.45000000       0.00000000 </v>
   <v>       0.50000000       0.45000000       0.00000000 </v>
   <v>       0.50000000       0.50000000       0.00000000 </v>
   <v>       0.05000000       0.05000000       0.05000000 </v>
   <v>       0.10000000       0.05000000       0.05000000 </v>
   <v>       0.15000000       0.05000000       0.05000000 </v>
   <v>       0.20000000       0.05000000       0.05000000 </v>
   <v>       0.25000000       0.05000000       0.05000000 </v>
   <v>       0.30000000       0.05000000       0.05000000 </v>
   <v>       0.35000000       0.05000000       0.05000000 </v>
   <v>       0.40000000       0.05000000       0.05000000 </v>
   <v>       0.45000000       0.05000000       0.05000000 </v>
   <v>       0.50000000       0.05000000       0.05000000 </v>
   <v>       0.10000000       0.10000000       0.05000000 </v>
   <v>       0.15000000       0.10000000       0.05000000 </v>
   <v>       0.20000000       0.10000000       0.05000000 </v>
   <v>       0.25000000       0.10000000       0.05000000 </v>
   <v>       0.30000000       0.10000000       0.05000000 </v>
   <v>       0.35000000       0.10000000       0.05000000 </v>
   <v>       0.40000000       0.10000000       0.05000000 </v>
   <v>       0.45000000       0.10000000       0.05000000 </v>
   <v>       0.50000000       0.10000000       0.05000000 </v>
   <v>       0.15000000       0.15000000       0.05000000 </v>
   <v>       0.20000000       0.15000000       0.05000000 </v>
   <v>       0.25000000       0.15000000       0.05000000 </v>
   <v>       0.30000000       0.15000000       0.05000000 </v>
   <v>       0.35000000       0.15000000       0.05000000 </v>
   <v>       0.40000000       0.15000000       0.05000000 </v>
   <v>       0.45000000       0.15000000       0.05000000 </v>
   <v>       0.50000000       0.15000000       0.05000000 </v>
   <v>       0.20000000       0.20000000       0.05000000 </v>
   <v>       0.25000000       0.20000000       0.05000000 </v>
   <v>       0.30000000       0.20000000       0.05000000 </v>
   <v>       0.35000000       0.20000000       0.05000000 </v>
   <v>       0.40000000       0.20000000       0.05000000 </v>
   <v>       0.45000000       0.20000000       0.05000000 </v>
   <v>       0.50000000       0.20000000       0.05000000 </v>
   <v>       0.25000000       0.25000000       0.05000000 </v>
   <v>       0.30000000       0.25000000       0.05000000 </v>
   <v>       0.35000000       0.25000000       0.05000000 </v>
   <v>       0.40000000       0.25000000       0.05000000 </v>
   <v>       0.45000000       0.25000000       0.05000000 </v>
   <v>       0.50000000       0.25000000       0.05000000 </v>
   <v>       0.30000000       0.30000000       0.05000000 </v>
   <v>       0.35000000       0.30000000       0.05000000 </v>
   <v>       0.40000000       0.30000000       0.05000000 </v>
   <v>       0.45000000       0.30000000       0.05000000 </v>
   <v>       0.50000000       0.30000000       0.05000000 </v>
   <v>       0.35000000       0.35000000       0.05000000 </v>
   <v>       0.40000000       0.35000000       0.05000000 </v>
   <v>       0.45000000       0.35000000       0.05000000 </v>
   <v>       0.50000000       0.35000000       0.05000000 </v>
   <v>       0.40000000       0.40000000       0.05000000 </v>
   <v>       0.45000000       0.40000000       0.05000000 </v>
   <v>       0.50000000       0.40000000       0.05000000 </v>
   <v>       0.45000000       0.45000000       0.05000000 </v>
   <v>       0.50000000       0.45000000       0.05000000 </v>
   <v>       0.50000000       0.50000000       0.05000000 </v>
   <v>       0.10000000       0.10000000       0.10000000 </v>
   <v>       0.15000000       0.10000000       0.10000000 </v>
   <v>       0.20000000       0.10000000       0.10000000 </v>
   <v>       0.25000000       0.10000000       0.10000000 </v>
   <v>       0.30000000       0.10000000       0.10000000 </v>
   <v>       0.35000000       0.10000000       0.10000000 </v>
   <v>       0.40000000       0.10000000       0.10000000 </v>
   <v>       0.45000000       0.10000000       0.10000000 </v>
   <v>       0.50000000       0.10000000       0.10000000 </v>
   <v>       0.15000000       0.15000000       0.10000000 </v>
   <v>       0.20000000       0.15000000       0.10000000 </v>
   <v>       0.25000000       0.15000000       0.10000000 </v>
   <v>       0.30000000       0.15000000       0.10000000 </v>
   <v>       0.35000000       0.15000000       0.10000000 </v>
   <v>       0.40000000       0.15000000       0.10000000 </v>
   <v>       0.45000000       0.15000000       0.10000000 </v>
   <v>       0.50000000       0.15000000       0.10000000 </v>
   <v>       0.20000000       0.20000000       0.10000000 </v>
   <v>       0.25000000       0.20000000       0.10000000 </v>
   <v>       0.30000000       0.20000000       0.10000000 </v>
   <v>       0.35000000       0.20000000       0.10000000 </v>
   <v>       0.40000000       0.20000000       0.10000000 </v>
   <v>       0.45000000       0.20000000       0.10000000 </v>
   <v>       0.50000000       0.20000000       0.10000000 </v>
   <v>       0.25000000       0.25000000       0.10000000 </v>
   <v>       0.30000000       0.25000000       0.10000000 </v>
   <v>       0.35000000       0.25000000       0.10000000 </v>
   <v>       0.40000000       0.25000000       0.10000000 </v>
   <v>       0.45000000       0.25000000       0.10000000 </v>
   <v>       0.50000000       0.25000000       0.10000000 </v>
   <v>       0.30000000       0.30000000       0.10000000 </v>
   <v>       0.35000000       0.30000000       0.10000000 </v>
   <v>       0.40000000       0.30000000       0.10000000 </v>
   <v>       0.45000000       0.30000000       0.10000000 </v>
   <v>       0.50000000       0.30000000       0.10000000 </v>
   <v>       0.35000000       0.35000000       0.10000000 </v>
   <v>       0.40000000       0.35000000       0.10000000 </v>
   <v>       0.45000000       0.35000000       0.10000000 </v>
   <v>       0.50000000       0.35000000       0.10000000 </v>
   <v>       0.40000000       0.40000000       0.10000000 </v>
   <v>       0.45000000       0.40000000       0.10000000 </v>
   <v>       0.50000000       0.40000000       0.10000000 </v>
   <v>       0.45000000       0.45000000       0.10000000 </v>
   <v>       0.50000000       0.45000000       0.10000000 </v>
   <v>       0.50000000       0.50000000       0.10000000 </v>
   <v>       0.15000000       0.15000000       0.15000000 </v>
   <v>       0.20000000       0.15000000       0.15000000 </v>
   <v>       0.25000000       0.15000000       0.15000000 </v>
   <v>       0.30000000       0.15000000       0.15000000 </v>
   <v>       0.35000000       0.15000000       0.15000000 </v>
   <v>       0.40000000       0.15000000       0.15000000 </v>
   <v>       0.45000000       0.15000000       0.15000000 </v>
   <v>       0.50000000       0.15000000       0.15000000 </v>
   <v>       0.20000000       0.20000000       0.15000000 </v>
   <v>       0.25000000       0.20000000       0.15000000 </v>
   <v>       0.30000000       0.20000000       0.15000000 </v>
   <v>       0.35000000       0.20000000       0.15000000 </v>
   <v>       0.40000000       0.20000000       0.15000000 </v>
   <v>       0.45000000       0.20000000       0.15000000 </v>
   <v>       0.50000000       0.20000000       0.15000000 </v>
   <v>       0.25000000       0.25000000       0.15000000 </v>
   <v>       0.30000000       0.25000000       0.15000000 </v>
   <v>       0.35000000       0.25000000       0.15000000 </v>
   <v>       0.40000000       0.25000000       0.15000000 </v>
   <v>       0.45000000       0.25000000       0.15000000 </v>
   <v>       0.50000000       0.25000000       0.15000000 </v>
   <v>       0.30000000       0.30000000       0.15000000 </v>
   <v>       0.35000000       0.30000000       0.15000000 </v>
   <v>       0.40000000       0.30000000       0.15000000 </v>
   <v>       0.45000000       0.30000000       0.15000000 </v>
   <v>       0.50000000       0.30000000       0.15000000 </v>
   <v>       0.35000000       0.35000000       0.15000000 </v>
   <v>       0.40000000       0.35000000       0.15000000 </v>
   <v>       0.45000000       0.35000000       0.15000000 </v>
   <v>       0.50000000       0.35000000       0.15000000 </v>
   <v>       0.40000000       0.40000000       0.15000000 </v>
   <v>       0.45000000       0.40000000       0.15000000 </v>
   <v>       0.50000000       0.40000000       0.15000000 </v>
   <v>       0.45000000       0.45000000       0.15000000 </v>
   <v>       0.50000000       0.45000000       0.15000000 </v>
   <v>       0.50000000       0.50000000       0.15000000 </v>
   <v>       0.20000000       0.20000000       0.20000000 </v>
   <v>       0.25000000       0.20000000       0.20000000 </v>
   <v>       0.30000000       0.20000000       0.20000000 </v>
   <v>       0.35000000       0.20000000       0.20000000 </v>
   <v>       0.40000000       0.20000000       0.20000000 </v>
   <v>       0.45000000       0.20000000       0.20000000 </v>
   <v>       0.50000000       0.20000000       0.20000000 </v>
   <v>       0.25000000       0.25000000       0.20000000 </v>
   <v>       0.30000000       0.25000000       0.20000000 </v>
   <v>       0.35000000       0.25000000       0.20000000 </v>
   <v>       0.40000000       0.25000000       0.20000000 </v>
   <v>       0.45000000       0.25000000       0.20000000 </v>
   <v>       0.50000000       0.25000000       0.20000000 </v>
   <v>       0.30000000       0.30000000       0.20000000 </v>
   <v>       0.35000000       0.30000000       0.20000000 </v>
   <v>       0.40000000       0.30000000       0.20000000 </v>
   <v>       0.45000000       0.30000000       0.20000000 </v>
   <v>       0.50000000       0.30000000       0.20000000 </v>
   <v>       0.35000000       0.35000000       0.20000000 </v>
   <v>       0.40000000       0.35000000       0.20000000 </v>
   <v>       0.45000000       0.35000000       0.20000000 </v>
   <v>       0.50000000       0.35000000       0.20000000 </v>
   <v>       0.40000000       0.40000000       0.20000000 </v>
   <v>       0.45000000       0.40000000       0.20000000 </v>
   <v>       0.50000000       0.40000000       0.20000000 </v>
   <v>       0.45000000       0.45000000       0.20000000 </v>
   <v>       0.50000000       0.45000000       0.20000000 </v>
   <v>       0.50000000       0.50000000       0.20000000 </v>
   <v>       0.25000000       0.25000000       0.25000000 </v>
   <v>       0.30000000       0.25000000       0.25000000 </v>
   <v>       0.35000000       0.25000000       0.25000000 </v>
   <v>       0.40000000       0.25000000       0.25000000 </v>
   <v>       0.45000000       0.25000000       0.25000000 </v>
   <v>       0.50000000       0.25000000       0.25000000 </v>
   <v>       0.30000000       0.30000000       0.25000000 </v>
   <v>       0.35000000       0.30000000       0.25000000 </v>
   <v>       0.40000000       0.30000000       0.25000000 </v>
   <v>       0.45000000       0.30000000       0.25000000 </v>
   <v>       0.50000000       0.30000000       0.25000000 </v>
   <v>       0.35000000       0.35000000       0.25000000 </v>
   <v>       0.40000000       0.35000000       0.25000000 </v>
   <v>       0.45000000       0.35000000       0.25000000 </v>
   <v>       0.50000000       0.35000000       0.25000000 </v>
   <v>       0.40000000       0.40000000       0.25000000 </v>
   <v>       0.45000000       0.40000000       0.25000000 </v>
   <v>       0.50000000       0.40000000       0.25000000 </v>
   <v>       0.45000000       0.45000000       0.25000000 </v>
   <v>       0.50000000       0.45000000       0.25000000 </v>
   <v>       0.50000000       0.50000000       0.25000000 </v>
   <v>       0.30000000       0.30000000       0.30000000 </v>
   <v>       0.35000000       0.30000000       0.30000000 </v>
   <v>       0.40000000       0.30000000       0.30000000 </v>
   <v>       0.45000000       0.30000000       0.30000000 </v>
   <v>       0.50000000       0.30000000       0.30000000 </v>
   <v>       0.35000000       0.35000000       0.30000000 </v>
   <v>       0.40000000       0.35000000       0.30000000 </v>
   <v>       0.45000000       0.35000000       0.30000000 </v>
   <v>       0.50000000       0.35000000       0.30000000 </v>
   <v>       0.40000000       0.40000000       0.30000000 </v>
   <v>       0.45000000       0.40000000       0.30000000 </v>
   <v>       0.50000000       0.40000000       0.30000000 </v>
   <v>       0.45000000       0.45000000       0.30000000 </v>
   <v>       0.50000000       0.45000000       0.30000000 </v>
   <v>       0.50000000       0.50000000       0.30000000 </v>
   <v>       0.35000000       0.35000000       0.35000000 </v>
   <v>       0.40000000       0.35000000       0.35000000 </v>
   <v>       0.45000000       0.35000000       0.35000000 </v>
   <v>       0.50000000       0.35000000       0.35000000 </v>
   <v>       0.40000000       0.40000000       0.35000000 </v>
   <v>       0.45000000       0.40000000       0.35000000 </v>
   <v>       0.50000000       0.40000000       0.35000000 </v>
   <v>       0.45000000       0.45000000       0.35000000 </v>
   <v>       0.50000000       0.45000000       0.35000000 </v>
   <v>       0.50000000       0.50000000       0.35000000 </v>
   <v>       0.40000000       0.40000000       0.40000000 </v>
   <v>       0.45000000       0.40000000       0.40000000 </v>
   <v>       0.50000000       0.40000000       0.40000000 </v>
   <v>       0.45000000       0.45000000       0.40000000 </v>
   <v>       0.50000000       0.45000000       0.40000000 </v>
   <v>       0.50000000       0.50000000       0.40000000 </v>
   <v>       0.45000000       0.45000000       0.45000000 </v>
   <v>       0.50000000       0.45000000       0.45000000 </v>
   <v>       0.50000000       0.50000000       0.45000000 </v>
   <v>       0.50000000       0.50000000       0.50000000 </v>
  </varray>
  <varray name="weights" >
   <v>       0.00012500 </v>
   <v>       0.00075000 </v>
   <v>       0.00075000 </v>
   <v>       0.00075000 </v>
   <v>       0.00075000 </v>
   <v>       0.00075000 </v>
   <v>       0.00075000 </v>
   <v>       0.00075000 </v>
   <v>       0.00075000 </v>
   <v>       0.00075000 </v>
   <v>       0.00037500 </v>
   <v>       0.00150000 </v>
   <v>       0.00300000 </v>
   <v>       0.00300000 </v>
   <v>       0.00300000 </v>
   <v>       0.00300000 </v>
   <v>       0.00300000 </v>
   <v>       0.00300000 </v>
   <v>       0.00300000 </v>
   <v>       0.00300000 </v>
   <v>       0.00150000 </v>
   <v>       0.00150000 </v>
   <v>       0.00300000 </v>
   <v>       0.00300000 </v>
   <v>       0.00300000 </v>
   <v>       0.00300000 </v>
   <v>       0.00300000 </v>
   <v>       0.00300000 </v>
   <v>       0.00300000 </v>
   <v>       0.00150000 </v>
   <v>       0.00150000 </v>
   <v>       0.00300000 </v>
   <v>       0.00300000 </v>
   <v>       0.00300000 </v>
   <v>       0.00300000 </v>
   <v>       0.00300000 </v>
   <v>       0.00300000 </v>
   <v>       0.00150000 </v>
   <v>       0.00150000 </v>
   <v>       0.00300000 </v>
   <v>       0.00300000 </v>
   <v>       0.00300000 </v>
   <v>       0.00300000 </v>
   <v>       0.00300000 </v>
   <v>       0.00150000 </v>
   <v>       0.00150000 </v>
   <v>       0.00300000 </v>
   <v>       0.00300000 </v>
   <v>       0.00300000 </v>
   <v>       0.00300000 </v>
   <v>       0.00150000 </v>
   <v>       0.00150000 </v>
   <v>       0.00300000 </v>
   <v>       0.00300000 </v>
   <v>       0.00300000 </v>
   <v>       0.00150000 </v>
   <v>       0.00150000 </v>
   <v>       0.00300000 </v>
   <v>       0.00300000 </v>
   <v>       0.00150000 </v>
   <v>       0.00150000 </v>
   <v>       0.00300000 </v>
   <v>       0.00150000 </v>
   <v>       0.00150000 </v>
   <v>       0.00150000 </v>
   <v>       0.00037500 </v>
   <v>       0.00100000 </v>
   <v>       0.00300000 </v>
   <v>       0.00300000 </v>
   <v>       0.00300000 </v>
   <v>       0.00300000 </v>
   <v>       0.00300000 </v>
   <v>       0.00300000 </v>
   <v>       0.00300000 </v>
   <v>       0.00300000 </v>
   <v>       0.00150000 </v>
   <v>       0.00300000 </v>
   <v>       0.00600000 </v>
   <v>       0.00600000 </v>
   <v>       0.00600000 </v>
   <v>       0.00600000 </v>
   <v>       0.00600000 </v>
   <v>       0.00600000 </v>
   <v>       0.00600000 </v>
   <v>       0.00300000 </v>
   <v>       0.00300000 </v>
   <v>       0.00600000 </v>
   <v>       0.00600000 </v>
   <v>       0.00600000 </v>
   <v>       0.00600000 </v>
   <v>       0.00600000 </v>
   <v>       0.00600000 </v>
   <v>       0.00300000 </v>
   <v>       0.00300000 </v>
   <v>       0.00600000 </v>
   <v>       0.00600000 </v>
   <v>       0.00600000 </v>
   <v>       0.00600000 </v>
   <v>       0.00600000 </v>
   <v>       0.00300000 </v>
   <v>       0.00300000 </v>
   <v>       0.00600000 </v>
   <v>       0.00600000 </v>
   <v>       0.00600000 </v>
   <v>       0.00600000 </v>
   <v>       0.00300000 </v>
   <v>       0.00300000 </v>
   <v>       0.00600000 </v>
   <v>       0.00600000 </v>
   <v>       0.00600000 </v>
   <v>       0.00300000 </v>
   <v>       0.00300000 </v>
   <v>       0.00600000 </v>
   <v>       0.00600000 </v>
   <v>       0.00300000 </v>
   <v>       0.00300000 </v>
   <v>       0.00600000 </v>
   <v>       0.00300000 </v>
   <v>       0.00300000 </v>
   <v>       0.00300000 </v>
   <v>       0.00075000 </v>
   <v>       0.00100000 </v>
   <v>       0.00300000 </v>
   <v>       0.00300000 </v>
   <v>       0.00300000 </v>
   <v>       0.00300000 </v>
   <v>       0.00300000 </v>
   <v>       0.00300000 </v>
   <v>       0.00300000 </v>
   <v>       0.00150000 </v>
   <v>       0.00300000 </v>
   <v>       0.00600000 </v>
   <v>       0.00600000 </v>
   <v>       0.00600000 </v>
   <v>       0.00600000 </v>
   <v>       0.00600000 </v>
   <v>       0.00600000 </v>
   <v>       0.00300000 </v>
   <v>       0.00300000 </v>
   <v>       0.00600000 </v>
   <v>       0.00600000 </v>
   <v>       0.00600000 </v>
   <v>       0.00600000 </v>
   <v>       0.00600000 </v>
   <v>       0.00300000 </v>
   <v>       0.00300000 </v>
   <v>       0.00600000 </v>
   <v>       0.00600000 </v>
   <v>       0.00600000 </v>
   <v>       0.00600000 </v>
   <v>       0.00300000 </v>
   <v>       0.00300000 </v>
   <v>       0.00600000 </v>
   <v>       0.00600000 </v>
   <v>       0.00600000 </v>
   <v>       0.00300000 </v>
   <v>       0.00300000 </v>
   <v>       0.00600000 </v>
   <v>       0.00600000 </v>
   <v>       0.00300000 </v>
   <v>       0.00300000 </v>
   <v>       0.00600000 </v>
   <v>       0.00300000 </v>
   <v>       0.00300000 </v>
   <v>       0.00300000 </v>
   <v>       0.00075000 </v>
   <v>       0.00100000 </v>
   <v>       0.00300000 </v>
   <v>       0.00300000 </v>
   <v>       0.00300000 </v>
   <v>       0.00300000 </v>
   <v>       0.00300000 </v>
   <v>       0.00300000 </v>
   <v>       0.00150000 </v>
   <v>       0.00300000 </v>
   <v>       0.00600000 </v>
   <v>       0.00600000 </v>
   <v>       0.00600000 </v>
   <v>       0.00600000 </v>
   <v>       0.00600000 </v>
   <v>       0.00300000 </v>
   <v>       0.00300000 </v>
   <v>       0.00600000 </v>
   <v>       0.00600000 </v>
   <v>       0.00600000 </v>
   <v>       0.00600000 </v>
   <v>       0.00300000 </v>
   <v>       0.00300000 </v>
   <v>       0.00600000 </v>
   <v>       0.00600000 </v>
   <v>       0.00600000 </v>
   <v>       0.00300000 </v>
   <v>       0.00300000 </v>
   <v>       0.00600000 </v>
   <v>       0.00600000 </v>
   <v>       0.00300000 </v>
   <v>       0.00300000 </v>
   <v>       0.00600000 </v>
   <v>       0.00300000 </v>
   <v>       0.00300000 </v>
   <v>       0.00300000 </v>
   <v>       0.00075000 </v>
   <v>       0.00100000 </v>
   <v>       0.00300000 </v>
   <v>       0.00300000 </v>
   <v>       0.00300000 </v>
   <v>       0.00300000 </v>
   <v>       0.00300000 </v>
   <v>       0.00150000 </v>
   <v>       0.00300000 </v>
   <v>       0.00600000 </v>
   <v>       0.00600000 </v>
   <v>       0.00600000 </v>
   <v>       0.00600000 </v>
   <v>       0.00300000 </v>
   <v>       0.00300000 </v>
   <v>       0.00600000 </v>
   <v>       0.00600000 </v>
   <v>       0.00600000 </v>
   <v>       0.00300000 </v>
   <v>       0.00300000 </v>
   <v>       0.00600000 </v>
   <v>       0.00600000 </v>
   <v>       0.00300000 </v>
   <v>       0.00300000 </v>
   <v>       0.00600000 </v>
   <v>       0.00300000 </v>
   <v>       0.00300000 </v>
   <v>       0.00300000 </v>
   <v>       0.00075000 </v>
   <v>       0.00100000 </v>
   <v>       0.00300000 </v>
   <v>       0.00300000 </v>
   <v>       0.00300000 </v>
   <v>       0.00300000 </v>
   <v>       0.00150000 </v>
   <v>       0.00300000 </v>
   <v>       0.00600000 </v>
   <v>       0.00600000 </v>
   <v>       0.00600000 </v>
   <v>       0.00300000 </v>
   <v>       0.00300000 </v>
   <v>       0.00600000 </v>
   <v>       0.00600000 </v>
   <v>       0.00300000 </v>
   <v>       0.00300000 </v>
   <v>       0.00600000 </v>
   <v>       0.00300000 </v>
   <v>       0.00300000 </v>
   <v>       0.00300000 </v>
   <v>       0.00075000 </v>
   <v>       0.00100000 </v>
   <v>       0.00300000 </v>
   <v>       0.00300000 </v>
   <v>       0.00300000 </v>
   <v>       0.00150000 </v>
   <v>       0.00300000 </v>
   <v>       0.00600000 </v>
   <v>       0.00600000 </v>
   <v>       0.00300000 </v>
   <v>       0.00300000 </v>
   <v>       0.00600000 </v>
   <v>       0.00300000 </v>
   <v>       0.00300000 </v>
   <v>       0.00300000 </v>
   <v>       0.00075000 </v>
   <v>       0.00100000 </v>
   <v>       0.00300000 </v>
   <v>       0.00300000 </v>
   <v>       0.00150000 </v>
   <v>       0.00300000 </v>
   <v>       0.00600000 </v>
   <v>       0.00300000 </v>
   <v>       0.00300000 </v>
   <v>       0.00300000 </v>
   <v>       0.00075000 </v>
   <v>       0.00100000 </v>
   <v>       0.00300000 </v>
   <v>       0.00150000 </v>
   <v>       0.00300000 </v>
   <v>       0.00300000 </v>
   <v>       0.00075000 </v>
   <v>       0.00100000 </v>
   <v>       0.00150000 </v>
   <v>       0.00075000 </v>
   <v>       0.00012500 </v>
  </varray>
  <varray name="tetrahedronlist"  type="int" >
   <v type="int" >       12        1        2        2       12 </v>
   <v type="int" >       12        2        2       12       12 </v>
   <v type="int" >       12        2       12       12       67 </v>
   <v type="int" >       12        2        3       12       13 </v>
   <v type="int" >       12        2       12       12       13 </v>
   <v type="int" >       12       12       12       13       67 </v>
   <v type="int" >       12        3       12       13       13 </v>
   <v type="int" >       24       12       13       13       68 </v>
   <v type="int" >       24       12       13       67       68 </v>
   <v type="int" >       12        3        4       13       14 </v>
   <v type="int" >       12        3       13       13       14 </v>
   <v type="int" >       12       13       13       14       68 </v>
   <v type="int" >       12        4       13       14       14 </v>
   <v type="int" >       12       13       14       14       69 </v>
   <v type="int" >       12       13       14       68       69 </v>
   <v type="int" >       12        4        5       14       15 </v>
   <v type="int" >       12        4       14       14       15 </v>
   <v type="int" >       12       14       14       15       69 </v>
   <v type="int" >       12        5       14       15       15 </v>
   <v type="int" >       12       14       15       15       70 </v>
   <v type="int" >       12       14       15       69       70 </v>
   <v type="int" >       12        5        6       15       16 </v>
   <v type="int" >       12        5       15       15       16 </v>
   <v type="int" >       12       15       15       16       70 </v>
   <v type="int" >       12        6       15       16       16 </v>
   <v type="int" >       12       15       16       16       71 </v>
   <v type="int" >       12       15       16       70       71 </v>
   <v type="int" >       12        6        7       16       17 </v>
   <v type="int" >       12        6       16       16       17 </v>
   <v type="int" >       12       16       16       17       71 </v>
   <v type="int" >       12        7       16       17       17 </v>
   <v type="int" >       12       16       17       17       72 </v>
   <v type="int" >       12       16       17       71       72 </v>
   <v type="int" >       12        7        8       17       18 </v>
   <v type="int" >       12        7       17       17       18 </v>
   <v type="int" >       12       17       17       18       72 </v>
   <v type="int" >       12        8       17       18       18 </v>
   <v type="int" >       12       17       18       18       73 </v>
   <v type="int" >       12       17       18       72       73 </v>
   <v type="int" >       12        8        9       18       19 </v>
   <v type="int" >       12        8       18       18       19 </v>
   <v type="int" >       12       18       18       19       73 </v>
   <v type="int" >       12        9       18       19       19 </v>
   <v type="int" >       12       18       19       19       74 </v>
   <v type="int" >       12       18       19       73       74 </v>
   <v type="int" >       12        9       10       19       20 </v>
   <v type="int" >       12        9       19       19       20 </v>
   <v type="int" >       12       19       19       20       74 </v>
   <v type="int" >       12       10       19       20       20 </v>
   <v type="int" >       12       19       20       20       75 </v>
   <v type="int" >       12       19       20       74       75 </v>
   <v type="int" >       12       10       11       20       21 </v>
   <v type="int" >       12       10       20       20       21 </v>
   <v type="int" >       12       20       20       21       75 </v>
   <v type="int" >       12       11       20       21       21 </v>
   <v type="int" >       12       20       21       21       76 </v>
   <v type="int" >       12       20       21       75       76 </v>
   <v type="int" >       12       12       13       22       67 </v>
   <v type="int" >       12       13       22       67       68 </v>
   <v type="int" >       12       22       67       68       77 </v>
   <v type="int" >       12       13       14       23       68 </v>
   <v type="int" >       12       13       22       23       68 </v>
   <v type="int" >       12       22       23       68       77 </v>
   <v type="int" >       12       14       23       68       69 </v>
   <v type="int" >       12       23       68       69       78 </v>
   <v type="int" >       12       23       68       77       78 </v>
   <v type="int" >       12       14       15       24       69 </v>
   <v type="int" >       12       14       23       24       69 </v>
   <v type="int" >       12       23       24       69       78 </v>
   <v type="int" >       12       15       24       69       70 </v>
   <v type="int" >       12       24       69       70       79 </v>
   <v type="int" >       12       24       69       78       79 </v>
   <v type="int" >       12       15       16       25       70 </v>
   <v type="int" >       12       15       24       25       70 </v>
   <v type="int" >       12       24       25       70       79 </v>
   <v type="int" >       12       16       25       70       71 </v>
   <v type="int" >       12       25       70       71       80 </v>
   <v type="int" >       12       25       70       79       80 </v>
   <v type="int" >       12       16       17       26       71 </v>
   <v type="int" >       12       16       25       26       71 </v>
   <v type="int" >       12       25       26       71       80 </v>
   <v type="int" >       12       17       26       71       72 </v>
   <v type="int" >       12       26       71       72       81 </v>
   <v type="int" >       12       26       71       80       81 </v>
   <v type="int" >       12       17       18       27       72 </v>
   <v type="int" >       12       17       26       27       72 </v>
   <v type="int" >       12       26       27       72       81 </v>
   <v type="int" >       12       18       27       72       73 </v>
   <v type="int" >       12       27       72       73       82 </v>
   <v type="int" >       12       27       72       81       82 </v>
   <v type="int" >       12       18       19       28       73 </v>
   <v type="int" >       12       18       27       28       73 </v>
   <v type="int" >       12       27       28       73       82 </v>
   <v type="int" >       12       19       28       73       74 </v>
   <v type="int" >       12       28       73       74       83 </v>
   <v type="int" >       12       28       73       82       83 </v>
   <v type="int" >       12       19       20       29       74 </v>
   <v type="int" >       12       19       28       29       74 </v>
   <v type="int" >       12       28       29       74       83 </v>
   <v type="int" >       12       20       29       74       75 </v>
   <v type="int" >       12       29       74       75       84 </v>
   <v type="int" >       12       29       74       83       84 </v>
   <v type="int" >       12       20       21       30       75 </v>
   <v type="int" >       12       20       29       30       75 </v>
   <v type="int" >       12       29       30       75       84 </v>
   <v type="int" >       12       21       30       75       76 </v>
   <v type="int" >       12       30       75       76       85 </v>
   <v type="int" >       12       30       75       84       85 </v>
   <v type="int" >       12       20       21       29       76 </v>
   <v type="int" >       12       21       29       30       76 </v>
   <v type="int" >       12       29       30       76       85 </v>
   <v type="int" >       12       20       29       75       76 </v>
   <v type="int" >       12       29       75       76       84 </v>
   <v type="int" >       12       29       76       84       85 </v>
   <v type="int" >       12       19       20       28       75 </v>
   <v type="int" >       12       20       28       29       75 </v>
   <v type="int" >       12       28       29       75       84 </v>
   <v type="int" >       12       19       28       74       75 </v>
   <v type="int" >       12       28       74       75       83 </v>
   <v type="int" >       12       28       75       83       84 </v>
   <v type="int" >       12       18       19       27       74 </v>
   <v type="int" >       12       19       27       28       74 </v>
   <v type="int" >       12       27       28       74       83 </v>
   <v type="int" >       12       18       27       73       74 </v>
   <v type="int" >       12       27       73       74       82 </v>
   <v type="int" >       12       27       74       82       83 </v>
   <v type="int" >       12       17       18       26       73 </v>
   <v type="int" >       12       18       26       27       73 </v>
   <v type="int" >       12       26       27       73       82 </v>
   <v type="int" >       12       17       26       72       73 </v>
   <v type="int" >       12       26       72       73       81 </v>
   <v type="int" >       12       26       73       81       82 </v>
   <v type="int" >       12       16       17       25       72 </v>
   <v type="int" >       12       17       25       26       72 </v>
   <v type="int" >       12       25       26       72       81 </v>
   <v type="int" >       12       16       25       71       72 </v>
   <v type="int" >       12       25       71       72       80 </v>
   <v type="int" >       12       25       72       80       81 </v>
   <v type="int" >       12       15       16       24       71 </v>
   <v type="int" >       12       16       24       25       71 </v>
   <v type="int" >       12       24       25       71       80 </v>
   <v type="int" >       12       15       24       70       71 </v>
   <v type="int" >       12       24       70       71       79 </v>
   <v type="int" >       12       24       71       79       80 </v>
   <v type="int" >       12       14       15       23       70 </v>
   <v type="int" >       12       15       23       24       70 </v>
   <v type="int" >       12       23       24       70       79 </v>
   <v type="int" >       12       14       23       69       70 </v>
   <v type="int" >       12       23       69       70       78 </v>
   <v type="int" >       12       23       70       78       79 </v>
   <v type="int" >       12       13       14       22       69 </v>
   <v type="int" >       12       14       22       23       69 </v>
   <v type="int" >       12       22       23       69       78 </v>
   <v type="int" >       12       13       22       68       69 </v>
   <v type="int" >       12       22       68       69       77 </v>
   <v type="int" >       12       22       69       77       78 </v>
   <v type="int" >       12       13       13       22       68 </v>
   <v type="int" >       12       13       22       68       77 </v>
   <v type="int" >       12       13       67       68       68 </v>
   <v type="int" >       12       13       68       68       77 </v>
   <v type="int" >       12        2        3       12       67 </v>
   <v type="int" >       12        3       12       13       67 </v>
   <v type="int" >       12        3       13       67       68 </v>
   <v type="int" >       12       22       23       31       77 </v>
   <v type="int" >       12       23       31       77       78 </v>
   <v type="int" >       12       31       77       78       86 </v>
   <v type="int" >       12       23       24       32       78 </v>
   <v type="int" >       12       23       31       32       78 </v>
   <v type="int" >       12       31       32       78       86 </v>
   <v type="int" >       12       24       32       78       79 </v>
   <v type="int" >       12       32       78       79       87 </v>
   <v type="int" >       12       32       78       86       87 </v>
   <v type="int" >       12       24       25       33       79 </v>
   <v type="int" >       12       24       32       33       79 </v>
   <v type="int" >       12       32       33       79       87 </v>
   <v type="int" >       12       25       33       79       80 </v>
   <v type="int" >       12       33       79       80       88 </v>
   <v type="int" >       12       33       79       87       88 </v>
   <v type="int" >       12       25       26       34       80 </v>
   <v type="int" >       12       25       33       34       80 </v>
   <v type="int" >       12       33       34       80       88 </v>
   <v type="int" >       12       26       34       80       81 </v>
   <v type="int" >       12       34       80       81       89 </v>
   <v type="int" >       12       34       80       88       89 </v>
   <v type="int" >       12       26       27       35       81 </v>
   <v type="int" >       12       26       34       35       81 </v>
   <v type="int" >       12       34       35       81       89 </v>
   <v type="int" >       12       27       35       81       82 </v>
   <v type="int" >       12       35       81       82       90 </v>
   <v type="int" >       12       35       81       89       90 </v>
   <v type="int" >       12       27       28       36       82 </v>
   <v type="int" >       12       27       35       36       82 </v>
   <v type="int" >       12       35       36       82       90 </v>
   <v type="int" >       12       28       36       82       83 </v>
   <v type="int" >       12       36       82       83       91 </v>
   <v type="int" >       12       36       82       90       91 </v>
   <v type="int" >       12       28       29       37       83 </v>
   <v type="int" >       12       28       36       37       83 </v>
   <v type="int" >       12       36       37       83       91 </v>
   <v type="int" >       12       29       37       83       84 </v>
   <v type="int" >       12       37       83       84       92 </v>
   <v type="int" >       12       37       83       91       92 </v>
   <v type="int" >       12       29       30       38       84 </v>
   <v type="int" >       12       29       37       38       84 </v>
   <v type="int" >       12       37       38       84       92 </v>
   <v type="int" >       12       30       38       84       85 </v>
   <v type="int" >       12       38       84       85       93 </v>
   <v type="int" >       12       38       84       92       93 </v>
   <v type="int" >       12       29       30       37       85 </v>
   <v type="int" >       12       30       37       38       85 </v>
   <v type="int" >       12       37       38       85       93 </v>
   <v type="int" >       12       29       37       84       85 </v>
   <v type="int" >       12       37       84       85       92 </v>
   <v type="int" >       12       37       85       92       93 </v>
   <v type="int" >       12       28       29       36       84 </v>
   <v type="int" >       12       29       36       37       84 </v>
   <v type="int" >       12       36       37       84       92 </v>
   <v type="int" >       12       28       36       83       84 </v>
   <v type="int" >       12       36       83       84       91 </v>
   <v type="int" >       12       36       84       91       92 </v>
   <v type="int" >       12       27       28       35       83 </v>
   <v type="int" >       12       28       35       36       83 </v>
   <v type="int" >       12       35       36       83       91 </v>
   <v type="int" >       12       27       35       82       83 </v>
   <v type="int" >       12       35       82       83       90 </v>
   <v type="int" >       12       35       83       90       91 </v>
   <v type="int" >       12       26       27       34       82 </v>
   <v type="int" >       12       27       34       35       82 </v>
   <v type="int" >       12       34       35       82       90 </v>
   <v type="int" >       12       26       34       81       82 </v>
   <v type="int" >       12       34       81       82       89 </v>
   <v type="int" >       12       34       82       89       90 </v>
   <v type="int" >       12       25       26       33       81 </v>
   <v type="int" >       12       26       33       34       81 </v>
   <v type="int" >       12       33       34       81       89 </v>
   <v type="int" >       12       25       33       80       81 </v>
   <v type="int" >       12       33       80       81       88 </v>
   <v type="int" >       12       33       81       88       89 </v>
   <v type="int" >       12       24       25       32       80 </v>
   <v type="int" >       12       25       32       33       80 </v>
   <v type="int" >       12       32       33       80       88 </v>
   <v type="int" >       12       24       32       79       80 </v>
   <v type="int" >       12       32       79       80       87 </v>
   <v type="int" >       12       32       80       87       88 </v>
   <v type="int" >       12       23       24       31       79 </v>
   <v type="int" >       12       24       31       32       79 </v>
   <v type="int" >       12       31       32       79       87 </v>
   <v type="int" >       12       23       31       78       79 </v>
   <v type="int" >       12       31       78       79       86 </v>
   <v type="int" >       12       31       79       86       87 </v>
   <v type="int" >       12       22       23       23       78 </v>
   <v type="int" >       12       23       23       31       78 </v>
   <v type="int" >       12       23       31       78       86 </v>
   <v type="int" >       12       22       23       77       78 </v>
   <v type="int" >       12       23       77       78       78 </v>
   <v type="int" >       12       23       78       78       86 </v>
   <v type="int" >       12       13       14       22       77 </v>
   <v type="int" >       12       14       22       23       77 </v>
   <v type="int" >       12       14       23       77       78 </v>
   <v type="int" >       12       13       14       68       77 </v>
   <v type="int" >       12       14       68       69       77 </v>
   <v type="int" >       12       14       69       77       78 </v>
   <v type="int" >       12        3        4       13       68 </v>
   <v type="int" >       12        4       13       14       68 </v>
   <v type="int" >       12        4       14       68       69 </v>
   <v type="int" >       12       31       32       39       86 </v>
   <v type="int" >       12       32       39       86       87 </v>
   <v type="int" >       12       39       86       87       94 </v>
   <v type="int" >       12       32       33       40       87 </v>
   <v type="int" >       12       32       39       40       87 </v>
   <v type="int" >       12       39       40       87       94 </v>
   <v type="int" >       12       33       40       87       88 </v>
   <v type="int" >       12       40       87       88       95 </v>
   <v type="int" >       12       40       87       94       95 </v>
   <v type="int" >       12       33       34       41       88 </v>
   <v type="int" >       12       33       40       41       88 </v>
   <v type="int" >       12       40       41       88       95 </v>
   <v type="int" >       12       34       41       88       89 </v>
   <v type="int" >       12       41       88       89       96 </v>
   <v type="int" >       12       41       88       95       96 </v>
   <v type="int" >       12       34       35       42       89 </v>
   <v type="int" >       12       34       41       42       89 </v>
   <v type="int" >       12       41       42       89       96 </v>
   <v type="int" >       12       35       42       89       90 </v>
   <v type="int" >       12       42       89       90       97 </v>
   <v type="int" >       12       42       89       96       97 </v>
   <v type="int" >       12       35       36       43       90 </v>
   <v type="int" >       12       35       42       43       90 </v>
   <v type="int" >       12       42       43       90       97 </v>
   <v type="int" >       12       36       43       90       91 </v>
   <v type="int" >       12       43       90       91       98 </v>
   <v type="int" >       12       43       90       97       98 </v>
   <v type="int" >       12       36       37       44       91 </v>
   <v type="int" >       12       36       43       44       91 </v>
   <v type="int" >       12       43       44       91       98 </v>
   <v type="int" >       12       37       44       91       92 </v>
   <v type="int" >       12       44       91       92       99 </v>
   <v type="int" >       12       44       91       98       99 </v>
   <v type="int" >       12       37       38       45       92 </v>
   <v type="int" >       12       37       44       45       92 </v>
   <v type="int" >       12       44       45       92       99 </v>
   <v type="int" >       12       38       45       92       93 </v>
   <v type="int" >       12       45       92       93      100 </v>
   <v type="int" >       12       45       92       99      100 </v>
   <v type="int" >       12       37       38       44       93 </v>
   <v type="int" >       12       38       44       45       93 </v>
   <v type="int" >       12       44       45       93      100 </v>
   <v type="int" >       12       37       44       92       93 </v>
   <v type="int" >       12       44       92       93       99 </v>
   <v type="int" >       12       44       93       99      100 </v>
   <v type="int" >       12       36       37       43       92 </v>
   <v type="int" >       12       37       43       44       92 </v>
   <v type="int" >       12       43       44       92       99 </v>
   <v type="int" >       12       36       43       91       92 </v>
   <v type="int" >       12       43       91       92       98 </v>
   <v type="int" >       12       43       92       98       99 </v>
   <v type="int" >       12       35       36       42       91 </v>
   <v type="int" >       12       36       42       43       91 </v>
   <v type="int" >       12       42       43       91       98 </v>
   <v type="int" >       12       35       42       90       91 </v>
   <v type="int" >       12       42       90       91       97 </v>
   <v type="int" >       12       42       91       97       98 </v>
   <v type="int" >       12       34       35       41       90 </v>
   <v type="int" >       12       35       41       42       90 </v>
   <v type="int" >       12       41       42       90       97 </v>
   <v type="int" >       12       34       41       89       90 </v>
   <v type="int" >       12       41       89       90       96 </v>
   <v type="int" >       12       41       90       96       97 </v>
   <v type="int" >       12       33       34       40       89 </v>
   <v type="int" >       12       34       40       41       89 </v>
   <v type="int" >       12       40       41       89       96 </v>
   <v type="int" >       12       33       40       88       89 </v>
   <v type="int" >       12       40       88       89       95 </v>
   <v type="int" >       12       40       89       95       96 </v>
   <v type="int" >       12       32       33       39       88 </v>
   <v type="int" >       12       33       39       40       88 </v>
   <v type="int" >       12       39       40       88       95 </v>
   <v type="int" >       12       32       39       87       88 </v>
   <v type="int" >       12       39       87       88       94 </v>
   <v type="int" >       12       39       88       94       95 </v>
   <v type="int" >       12       31       32       32       87 </v>
   <v type="int" >       12       32       32       39       87 </v>
   <v type="int" >       12       32       39       87       94 </v>
   <v type="int" >       12       31       32       86       87 </v>
   <v type="int" >       12       32       86       87       87 </v>
   <v type="int" >       12       32       87       87       94 </v>
   <v type="int" >       12       23       24       31       86 </v>
   <v type="int" >       12       24       31       32       86 </v>
   <v type="int" >       12       24       32       86       87 </v>
   <v type="int" >       12       23       24       78       86 </v>
   <v type="int" >       12       24       78       79       86 </v>
   <v type="int" >       12       24       79       86       87 </v>
   <v type="int" >       12       14       15       23       78 </v>
   <v type="int" >       12       15       23       24       78 </v>
   <v type="int" >       12       15       24       78       79 </v>
   <v type="int" >       12       14       15       69       78 </v>
   <v type="int" >       12       15       69       70       78 </v>
   <v type="int" >       12       15       70       78       79 </v>
   <v type="int" >       12        4        5       14       69 </v>
   <v type="int" >       12        5       14       15       69 </v>
   <v type="int" >       12        5       15       69       70 </v>
   <v type="int" >       12       39       40       46       94 </v>
   <v type="int" >       12       40       46       94       95 </v>
   <v type="int" >       12       46       94       95      101 </v>
   <v type="int" >       12       40       41       47       95 </v>
   <v type="int" >       12       40       46       47       95 </v>
   <v type="int" >       12       46       47       95      101 </v>
   <v type="int" >       12       41       47       95       96 </v>
   <v type="int" >       12       47       95       96      102 </v>
   <v type="int" >       12       47       95      101      102 </v>
   <v type="int" >       12       41       42       48       96 </v>
   <v type="int" >       12       41       47       48       96 </v>
   <v type="int" >       12       47       48       96      102 </v>
   <v type="int" >       12       42       48       96       97 </v>
   <v type="int" >       12       48       96       97      103 </v>
   <v type="int" >       12       48       96      102      103 </v>
   <v type="int" >       12       42       43       49       97 </v>
   <v type="int" >       12       42       48       49       97 </v>
   <v type="int" >       12       48       49       97      103 </v>
   <v type="int" >       12       43       49       97       98 </v>
   <v type="int" >       12       49       97       98      104 </v>
   <v type="int" >       12       49       97      103      104 </v>
   <v type="int" >       12       43       44       50       98 </v>
   <v type="int" >       12       43       49       50       98 </v>
   <v type="int" >       12       49       50       98      104 </v>
   <v type="int" >       12       44       50       98       99 </v>
   <v type="int" >       12       50       98       99      105 </v>
   <v type="int" >       12       50       98      104      105 </v>
   <v type="int" >       12       44       45       51       99 </v>
   <v type="int" >       12       44       50       51       99 </v>
   <v type="int" >       12       50       51       99      105 </v>
   <v type="int" >       12       45       51       99      100 </v>
   <v type="int" >       12       51       99      100      106 </v>
   <v type="int" >       12       51       99      105      106 </v>
   <v type="int" >       12       44       45       50      100 </v>
   <v type="int" >       12       45       50       51      100 </v>
   <v type="int" >       12       50       51      100      106 </v>
   <v type="int" >       12       44       50       99      100 </v>
   <v type="int" >       12       50       99      100      105 </v>
   <v type="int" >       12       50      100      105      106 </v>
   <v type="int" >       12       43       44       49       99 </v>
   <v type="int" >       12       44       49       50       99 </v>
   <v type="int" >       12       49       50       99      105 </v>
   <v type="int" >       12       43       49       98       99 </v>
   <v type="int" >       12       49       98       99      104 </v>
   <v type="int" >       12       49       99      104      105 </v>
   <v type="int" >       12       42       43       48       98 </v>
   <v type="int" >       12       43       48       49       98 </v>
   <v type="int" >       12       48       49       98      104 </v>
   <v type="int" >       12       42       48       97       98 </v>
   <v type="int" >       12       48       97       98      103 </v>
   <v type="int" >       12       48       98      103      104 </v>
   <v type="int" >       12       41       42       47       97 </v>
   <v type="int" >       12       42       47       48       97 </v>
   <v type="int" >       12       47       48       97      103 </v>
   <v type="int" >       12       41       47       96       97 </v>
   <v type="int" >       12       47       96       97      102 </v>
   <v type="int" >       12       47       97      102      103 </v>
   <v type="int" >       12       40       41       46       96 </v>
   <v type="int" >       12       41       46       47       96 </v>
   <v type="int" >       12       46       47       96      102 </v>
   <v type="int" >       12       40       46       95       96 </v>
   <v type="int" >       12       46       95       96      101 </v>
   <v type="int" >       12       46       96      101      102 </v>
   <v type="int" >       12       39       40       40       95 </v>
   <v type="int" >       12       40       40       46       95 </v>
   <v type="int" >       12       40       46       95      101 </v>
   <v type="int" >       12       39       40       94       95 </v>
   <v type="int" >       12       40       94       95       95 </v>
   <v type="int" >       12       40       95       95      101 </v>
   <v type="int" >       12       32       33       39       94 </v>
   <v type="int" >       12       33       39       40       94 </v>
   <v type="int" >       12       33       40       94       95 </v>
   <v type="int" >       12       32       33       87       94 </v>
   <v type="int" >       12       33       87       88       94 </v>
   <v type="int" >       12       33       88       94       95 </v>
   <v type="int" >       12       24       25       32       87 </v>
   <v type="int" >       12       25       32       33       87 </v>
   <v type="int" >       12       25       33       87       88 </v>
   <v type="int" >       12       24       25       79       87 </v>
   <v type="int" >       12       25       79       80       87 </v>
   <v type="int" >       12       25       80       87       88 </v>
   <v type="int" >       12       15       16       24       79 </v>
   <v type="int" >       12       16       24       25       79 </v>
   <v type="int" >       12       16       25       79       80 </v>
   <v type="int" >       12       15       16       70       79 </v>
   <v type="int" >       12       16       70       71       79 </v>
   <v type="int" >       12       16       71       79       80 </v>
   <v type="int" >       12        5        6       15       70 </v>
   <v type="int" >       12        6       15       16       70 </v>
   <v type="int" >       12        6       16       70       71 </v>
   <v type="int" >       12       46       47       52      101 </v>
   <v type="int" >       12       47       52      101      102 </v>
   <v type="int" >       12       52      101      102      107 </v>
   <v type="int" >       12       47       48       53      102 </v>
   <v type="int" >       12       47       52       53      102 </v>
   <v type="int" >       12       52       53      102      107 </v>
   <v type="int" >       12       48       53      102      103 </v>
   <v type="int" >       12       53      102      103      108 </v>
   <v type="int" >       12       53      102      107      108 </v>
   <v type="int" >       12       48       49       54      103 </v>
   <v type="int" >       12       48       53       54      103 </v>
   <v type="int" >       12       53       54      103      108 </v>
   <v type="int" >       12       49       54      103      104 </v>
   <v type="int" >       12       54      103      104      109 </v>
   <v type="int" >       12       54      103      108      109 </v>
   <v type="int" >       12       49       50       55      104 </v>
   <v type="int" >       12       49       54       55      104 </v>
   <v type="int" >       12       54       55      104      109 </v>
   <v type="int" >       12       50       55      104      105 </v>
   <v type="int" >       12       55      104      105      110 </v>
   <v type="int" >       12       55      104      109      110 </v>
   <v type="int" >       12       50       51       56      105 </v>
   <v type="int" >       12       50       55       56      105 </v>
   <v type="int" >       12       55       56      105      110 </v>
   <v type="int" >       12       51       56      105      106 </v>
   <v type="int" >       12       56      105      106      111 </v>
   <v type="int" >       12       56      105      110      111 </v>
   <v type="int" >       12       50       51       55      106 </v>
   <v type="int" >       12       51       55       56      106 </v>
   <v type="int" >       12       55       56      106      111 </v>
   <v type="int" >       12       50       55      105      106 </v>
   <v type="int" >       12       55      105      106      110 </v>
   <v type="int" >       12       55      106      110      111 </v>
   <v type="int" >       12       49       50       54      105 </v>
   <v type="int" >       12       50       54       55      105 </v>
   <v type="int" >       12       54       55      105      110 </v>
   <v type="int" >       12       49       54      104      105 </v>
   <v type="int" >       12       54      104      105      109 </v>
   <v type="int" >       12       54      105      109      110 </v>
   <v type="int" >       12       48       49       53      104 </v>
   <v type="int" >       12       49       53       54      104 </v>
   <v type="int" >       12       53       54      104      109 </v>
   <v type="int" >       12       48       53      103      104 </v>
   <v type="int" >       12       53      103      104      108 </v>
   <v type="int" >       12       53      104      108      109 </v>
   <v type="int" >       12       47       48       52      103 </v>
   <v type="int" >       12       48       52       53      103 </v>
   <v type="int" >       12       52       53      103      108 </v>
   <v type="int" >       12       47       52      102      103 </v>
   <v type="int" >       12       52      102      103      107 </v>
   <v type="int" >       12       52      103      107      108 </v>
   <v type="int" >       12       46       47       47      102 </v>
   <v type="int" >       12       47       47       52      102 </v>
   <v type="int" >       12       47       52      102      107 </v>
   <v type="int" >       12       46       47      101      102 </v>
   <v type="int" >       12       47      101      102      102 </v>
   <v type="int" >       12       47      102      102      107 </v>
   <v type="int" >       12       40       41       46      101 </v>
   <v type="int" >       12       41       46       47      101 </v>
   <v type="int" >       12       41       47      101      102 </v>
   <v type="int" >       12       40       41       95      101 </v>
   <v type="int" >       12       41       95       96      101 </v>
   <v type="int" >       12       41       96      101      102 </v>
   <v type="int" >       12       33       34       40       95 </v>
   <v type="int" >       12       34       40       41       95 </v>
   <v type="int" >       12       34       41       95       96 </v>
   <v type="int" >       12       33       34       88       95 </v>
   <v type="int" >       12       34       88       89       95 </v>
   <v type="int" >       12       34       89       95       96 </v>
   <v type="int" >       12       25       26       33       88 </v>
   <v type="int" >       12       26       33       34       88 </v>
   <v type="int" >       12       26       34       88       89 </v>
   <v type="int" >       12       25       26       80       88 </v>
   <v type="int" >       12       26       80       81       88 </v>
   <v type="int" >       12       26       81       88       89 </v>
   <v type="int" >       12       16       17       25       80 </v>
   <v type="int" >       12       17       25       26       80 </v>
   <v type="int" >       12       17       26       80       81 </v>
   <v type="int" >       12       16       17       71       80 </v>
   <v type="int" >       12       17       71       72       80 </v>
   <v type="int" >       12       17       72       80       81 </v>
   <v type="int" >       12        6        7       16       71 </v>
   <v type="int" >       12        7       16       17       71 </v>
   <v type="int" >       12        7       17       71       72 </v>
   <v type="int" >       12       52       53       57      107 </v>
   <v type="int" >       12       53       57      107      108 </v>
   <v type="int" >       12       57      107      108      112 </v>
   <v type="int" >       12       53       54       58      108 </v>
   <v type="int" >       12       53       57       58      108 </v>
   <v type="int" >       12       57       58      108      112 </v>
   <v type="int" >       12       54       58      108      109 </v>
   <v type="int" >       12       58      108      109      113 </v>
   <v type="int" >       12       58      108      112      113 </v>
   <v type="int" >       12       54       55       59      109 </v>
   <v type="int" >       12       54       58       59      109 </v>
   <v type="int" >       12       58       59      109      113 </v>
   <v type="int" >       12       55       59      109      110 </v>
   <v type="int" >       12       59      109      110      114 </v>
   <v type="int" >       12       59      109      113      114 </v>
   <v type="int" >       12       55       56       60      110 </v>
   <v type="int" >       12       55       59       60      110 </v>
   <v type="int" >       12       59       60      110      114 </v>
   <v type="int" >       12       56       60      110      111 </v>
   <v type="int" >       12       60      110      111      115 </v>
   <v type="int" >       12       60      110      114      115 </v>
   <v type="int" >       12       55       56       59      111 </v>
   <v type="int" >       12       56       59       60      111 </v>
   <v type="int" >       12       59       60      111      115 </v>
   <v type="int" >       12       55       59      110      111 </v>
   <v type="int" >       12       59      110      111      114 </v>
   <v type="int" >       12       59      111      114      115 </v>
   <v type="int" >       12       54       55       58      110 </v>
   <v type="int" >       12       55       58       59      110 </v>
   <v type="int" >       12       58       59      110      114 </v>
   <v type="int" >       12       54       58      109      110 </v>
   <v type="int" >       12       58      109      110      113 </v>
   <v type="int" >       12       58      110      113      114 </v>
   <v type="int" >       12       53       54       57      109 </v>
   <v type="int" >       12       54       57       58      109 </v>
   <v type="int" >       12       57       58      109      113 </v>
   <v type="int" >       12       53       57      108      109 </v>
   <v type="int" >       12       57      108      109      112 </v>
   <v type="int" >       12       57      109      112      113 </v>
   <v type="int" >       12       52       53       53      108 </v>
   <v type="int" >       12       53       53       57      108 </v>
   <v type="int" >       12       53       57      108      112 </v>
   <v type="int" >       12       52       53      107      108 </v>
   <v type="int" >       12       53      107      108      108 </v>
   <v type="int" >       12       53      108      108      112 </v>
   <v type="int" >       12       47       48       52      107 </v>
   <v type="int" >       12       48       52       53      107 </v>
   <v type="int" >       12       48       53      107      108 </v>
   <v type="int" >       12       47       48      102      107 </v>
   <v type="int" >       12       48      102      103      107 </v>
   <v type="int" >       12       48      103      107      108 </v>
   <v type="int" >       12       41       42       47      102 </v>
   <v type="int" >       12       42       47       48      102 </v>
   <v type="int" >       12       42       48      102      103 </v>
   <v type="int" >       12       41       42       96      102 </v>
   <v type="int" >       12       42       96       97      102 </v>
   <v type="int" >       12       42       97      102      103 </v>
   <v type="int" >       12       34       35       41       96 </v>
   <v type="int" >       12       35       41       42       96 </v>
   <v type="int" >       12       35       42       96       97 </v>
   <v type="int" >       12       34       35       89       96 </v>
   <v type="int" >       12       35       89       90       96 </v>
   <v type="int" >       12       35       90       96       97 </v>
   <v type="int" >       12       26       27       34       89 </v>
   <v type="int" >       12       27       34       35       89 </v>
   <v type="int" >       12       27       35       89       90 </v>
   <v type="int" >       12       26       27       81       89 </v>
   <v type="int" >       12       27       81       82       89 </v>
   <v type="int" >       12       27       82       89       90 </v>
   <v type="int" >       12       17       18       26       81 </v>
   <v type="int" >       12       18       26       27       81 </v>
   <v type="int" >       12       18       27       81       82 </v>
   <v type="int" >       12       17       18       72       81 </v>
   <v type="int" >       12       18       72       73       81 </v>
   <v type="int" >       12       18       73       81       82 </v>
   <v type="int" >       12        7        8       17       72 </v>
   <v type="int" >       12        8       17       18       72 </v>
   <v type="int" >       12        8       18       72       73 </v>
   <v type="int" >       12       57       58       61      112 </v>
   <v type="int" >       12       58       61      112      113 </v>
   <v type="int" >       12       61      112      113      116 </v>
   <v type="int" >       12       58       59       62      113 </v>
   <v type="int" >       12       58       61       62      113 </v>
   <v type="int" >       12       61       62      113      116 </v>
   <v type="int" >       12       59       62      113      114 </v>
   <v type="int" >       12       62      113      114      117 </v>
   <v type="int" >       12       62      113      116      117 </v>
   <v type="int" >       12       59       60       63      114 </v>
   <v type="int" >       12       59       62       63      114 </v>
   <v type="int" >       12       62       63      114      117 </v>
   <v type="int" >       12       60       63      114      115 </v>
   <v type="int" >       12       63      114      115      118 </v>
   <v type="int" >       12       63      114      117      118 </v>
   <v type="int" >       12       59       60       62      115 </v>
   <v type="int" >       12       60       62       63      115 </v>
   <v type="int" >       12       62       63      115      118 </v>
   <v type="int" >       12       59       62      114      115 </v>
   <v type="int" >       12       62      114      115      117 </v>
   <v type="int" >       12       62      115      117      118 </v>
   <v type="int" >       12       58       59       61      114 </v>
   <v type="int" >       12       59       61       62      114 </v>
   <v type="int" >       12       61       62      114      117 </v>
   <v type="int" >       12       58       61      113      114 </v>
   <v type="int" >       12       61      113      114      116 </v>
   <v type="int" >       12       61      114      116      117 </v>
   <v type="int" >       12       57       58       58      113 </v>
   <v type="int" >       12       58       58       61      113 </v>
   <v type="int" >       12       58       61      113      116 </v>
   <v type="int" >       12       57       58      112      113 </v>
   <v type="int" >       12       58      112      113      113 </v>
   <v type="int" >       12       58      113      113      116 </v>
   <v type="int" >       12       53       54       57      112 </v>
   <v type="int" >       12       54       57       58      112 </v>
   <v type="int" >       12       54       58      112      113 </v>
   <v type="int" >       12       53       54      108      112 </v>
   <v type="int" >       12       54      108      109      112 </v>
   <v type="int" >       12       54      109      112      113 </v>
   <v type="int" >       12       48       49       53      108 </v>
   <v type="int" >       12       49       53       54      108 </v>
   <v type="int" >       12       49       54      108      109 </v>
   <v type="int" >       12       48       49      103      108 </v>
   <v type="int" >       12       49      103      104      108 </v>
   <v type="int" >       12       49      104      108      109 </v>
   <v type="int" >       12       42       43       48      103 </v>
   <v type="int" >       12       43       48       49      103 </v>
   <v type="int" >       12       43       49      103      104 </v>
   <v type="int" >       12       42       43       97      103 </v>
   <v type="int" >       12       43       97       98      103 </v>
   <v type="int" >       12       43       98      103      104 </v>
   <v type="int" >       12       35       36       42       97 </v>
   <v type="int" >       12       36       42       43       97 </v>
   <v type="int" >       12       36       43       97       98 </v>
   <v type="int" >       12       35       36       90       97 </v>
   <v type="int" >       12       36       90       91       97 </v>
   <v type="int" >       12       36       91       97       98 </v>
   <v type="int" >       12       27       28       35       90 </v>
   <v type="int" >       12       28       35       36       90 </v>
   <v type="int" >       12       28       36       90       91 </v>
   <v type="int" >       12       27       28       82       90 </v>
   <v type="int" >       12       28       82       83       90 </v>
   <v type="int" >       12       28       83       90       91 </v>
   <v type="int" >       12       18       19       27       82 </v>
   <v type="int" >       12       19       27       28       82 </v>
   <v type="int" >       12       19       28       82       83 </v>
   <v type="int" >       12       18       19       73       82 </v>
   <v type="int" >       12       19       73       74       82 </v>
   <v type="int" >       12       19       74       82       83 </v>
   <v type="int" >       12        8        9       18       73 </v>
   <v type="int" >       12        9       18       19       73 </v>
   <v type="int" >       12        9       19       73       74 </v>
   <v type="int" >       12       61       62       64      116 </v>
   <v type="int" >       12       62       64      116      117 </v>
   <v type="int" >       12       64      116      117      119 </v>
   <v type="int" >       12       62       63       65      117 </v>
   <v type="int" >       12       62       64       65      117 </v>
   <v type="int" >       12       64       65      117      119 </v>
   <v type="int" >       12       63       65      117      118 </v>
   <v type="int" >       12       65      117      118      120 </v>
   <v type="int" >       12       65      117      119      120 </v>
   <v type="int" >       12       62       63       64      118 </v>
   <v type="int" >       12       63       64       65      118 </v>
   <v type="int" >       12       64       65      118      120 </v>
   <v type="int" >       12       62       64      117      118 </v>
   <v type="int" >       12       64      117      118      119 </v>
   <v type="int" >       12       64      118      119      120 </v>
   <v type="int" >       12       61       62       62      117 </v>
   <v type="int" >       12       62       62       64      117 </v>
   <v type="int" >       12       62       64      117      119 </v>
   <v type="int" >       12       61       62      116      117 </v>
   <v type="int" >       12       62      116      117      117 </v>
   <v type="int" >       12       62      117      117      119 </v>
   <v type="int" >       12       58       59       61      116 </v>
   <v type="int" >       12       59       61       62      116 </v>
   <v type="int" >       12       59       62      116      117 </v>
   <v type="int" >       12       58       59      113      116 </v>
   <v type="int" >       12       59      113      114      116 </v>
   <v type="int" >       12       59      114      116      117 </v>
   <v type="int" >       12       54       55       58      113 </v>
   <v type="int" >       12       55       58       59      113 </v>
   <v type="int" >       12       55       59      113      114 </v>
   <v type="int" >       12       54       55      109      113 </v>
   <v type="int" >       12       55      109      110      113 </v>
   <v type="int" >       12       55      110      113      114 </v>
   <v type="int" >       12       49       50       54      109 </v>
   <v type="int" >       12       50       54       55      109 </v>
   <v type="int" >       12       50       55      109      110 </v>
   <v type="int" >       12       49       50      104      109 </v>
   <v type="int" >       12       50      104      105      109 </v>
   <v type="int" >       12       50      105      109      110 </v>
   <v type="int" >       12       43       44       49      104 </v>
   <v type="int" >       12       44       49       50      104 </v>
   <v type="int" >       12       44       50      104      105 </v>
   <v type="int" >       12       43       44       98      104 </v>
   <v type="int" >       12       44       98       99      104 </v>
   <v type="int" >       12       44       99      104      105 </v>
   <v type="int" >       12       36       37       43       98 </v>
   <v type="int" >       12       37       43       44       98 </v>
   <v type="int" >       12       37       44       98       99 </v>
   <v type="int" >       12       36       37       91       98 </v>
   <v type="int" >       12       37       91       92       98 </v>
   <v type="int" >       12       37       92       98       99 </v>
   <v type="int" >       12       28       29       36       91 </v>
   <v type="int" >       12       29       36       37       91 </v>
   <v type="int" >       12       29       37       91       92 </v>
   <v type="int" >       12       28       29       83       91 </v>
   <v type="int" >       12       29       83       84       91 </v>
   <v type="int" >       12       29       84       91       92 </v>
   <v type="int" >       12       19       20       28       83 </v>
   <v type="int" >       12       20       28       29       83 </v>
[...]
       <r>    4.6206    1.0000 </r>
       <r>    4.6206    1.0000 </r>
       <r>    4.6206    1.0000 </r>
       <r>    4.6206    1.0000 </r>
       <r>    7.6148    0.0000 </r>
       <r>    7.6148    0.0000 </r>
       <r>    7.6148    0.0000 </r>
       <r>    7.6148    0.0000 </r>
       <r>    9.1779    0.0000 </r>
      </set>
      <set comment="kpoint 283">
       <r>   -3.9323    1.0000 </r>
       <r>   -3.7848    1.0000 </r>
       <r>   -3.7848    1.0000 </r>
       <r>   -3.7848    1.0000 </r>
       <r>   -1.0995    1.0000 </r>
       <r>   -1.0995    1.0000 </r>
       <r>   -1.0995    1.0000 </r>
       <r>   -0.9415    1.0000 </r>
       <r>    4.3934    1.0000 </r>
       <r>    4.3934    1.0000 </r>
       <r>    4.3934    1.0000 </r>
       <r>    4.5664    1.0000 </r>
       <r>    4.5664    1.0000 </r>
       <r>    4.5664    1.0000 </r>
       <r>    4.6517    1.0000 </r>
       <r>    4.6517    1.0000 </r>
       <r>    7.3961    0.0000 </r>
       <r>    7.6092    0.0000 </r>
       <r>    7.6092    0.0000 </r>
       <r>    7.6092    0.0000 </r>
       <r>    9.1257    0.0000 </r>
      </set>
      <set comment="kpoint 284">
       <r>   -3.8529    1.0000 </r>
       <r>   -3.8529    1.0000 </r>
       <r>   -3.7762    1.0000 </r>
       <r>   -3.7762    1.0000 </r>
       <r>   -1.1260    1.0000 </r>
       <r>   -1.1260    1.0000 </r>
       <r>   -1.0441    1.0000 </r>
       <r>   -1.0441    1.0000 </r>
       <r>    4.4368    1.0000 </r>
       <r>    4.4368    1.0000 </r>
       <r>    4.5888    1.0000 </r>
       <r>    4.5888    1.0000 </r>
       <r>    4.5926    1.0000 </r>
       <r>    4.5926    1.0000 </r>
       <r>    4.6118    1.0000 </r>
       <r>    4.6118    1.0000 </r>
       <r>    7.4487    0.0000 </r>
       <r>    7.4487    0.0000 </r>
       <r>    7.5551    0.0000 </r>
       <r>    7.5551    0.0000 </r>
       <r>    9.1432    0.0000 </r>
      </set>
      <set comment="kpoint 285">
       <r>   -3.8067    1.0000 </r>
       <r>   -3.8067    1.0000 </r>
       <r>   -3.8067    1.0000 </r>
       <r>   -3.8067    1.0000 </r>
       <r>   -1.1109    1.0000 </r>
       <r>   -1.1109    1.0000 </r>
       <r>   -1.1109    1.0000 </r>
       <r>   -1.1109    1.0000 </r>
       <r>    4.5584    1.0000 </r>
       <r>    4.5584    1.0000 </r>
       <r>    4.5584    1.0000 </r>
       <r>    4.5584    1.0000 </r>
       <r>    4.6303    1.0000 </r>
       <r>    4.6303    1.0000 </r>
       <r>    4.6303    1.0000 </r>
       <r>    4.6303    1.0000 </r>
       <r>    7.4415    0.0000 </r>
       <r>    7.4415    0.0000 </r>
       <r>    7.4415    0.0000 </r>
       <r>    7.4415    0.0000 </r>
       <r>    9.1784    0.0000 </r>
      </set>
      <set comment="kpoint 286">
       <r>   -3.7981    1.0000 </r>
       <r>   -3.7981    1.0000 </r>
       <r>   -3.7981    1.0000 </r>
       <r>   -3.7981    1.0000 </r>
       <r>   -1.1376    1.0000 </r>
       <r>   -1.1376    1.0000 </r>
       <r>   -1.1376    1.0000 </r>
       <r>   -1.1376    1.0000 </r>
       <r>    4.6336    1.0000 </r>
       <r>    4.6336    1.0000 </r>
       <r>    4.6336    1.0000 </r>
       <r>    4.6336    1.0000 </r>
       <r>    4.6336    1.0000 </r>
       <r>    4.6336    1.0000 </r>
       <r>    4.6336    1.0000 </r>
       <r>    4.6336    1.0000 </r>
       <r>    7.3754    0.0000 </r>
       <r>    7.3754    0.0000 </r>
       <r>    7.3754    0.0000 </r>
       <r>    7.3754    0.0000 </r>
       <r>    9.1773    0.0000 </r>
      </set>
     </set>
    </set>
   </array>
  </eigenvalues>
  <separator name="orbital magnetization" >
   <v name="MAGDIPOLOUT">      0.00000000      0.00000000      0.00000000</v>
  </separator>
  <dos>
   <i name="efermi">      5.85663380 </i>
   <total>
    <array>
     <dimension dim="1">gridpoints</dimension>
     <dimension dim="2">spin</dimension>
     <field>energy</field>
     <field>total</field>
     <field>integrated</field>
     <set>
      <set comment="spin 1">
       <r>    -8.1306     0.0000     0.0000 </r>
       <r>    -8.0614     0.0000     0.0000 </r>
       <r>    -7.9922     0.0000     0.0000 </r>
       <r>    -7.9230     0.0000     0.0000 </r>
       <r>    -7.8538     0.0000     0.0000 </r>
       <r>    -7.7846     0.0000     0.0000 </r>
       <r>    -7.7154     0.0000     0.0000 </r>
       <r>    -7.6462     0.0000     0.0000 </r>
       <r>    -7.5770     0.0000     0.0000 </r>
       <r>    -7.5078     0.0000     0.0000 </r>
       <r>    -7.4386     0.0000     0.0000 </r>
       <r>    -7.3694     0.0000     0.0000 </r>
       <r>    -7.3002     0.0000     0.0000 </r>
       <r>    -7.2310     0.0000     0.0000 </r>
       <r>    -7.1618     0.0000     0.0000 </r>
       <r>    -7.0926     0.0000     0.0000 </r>
       <r>    -7.0234     0.0000     0.0000 </r>
       <r>    -6.9542     0.0000     0.0000 </r>
       <r>    -6.8850     0.0000     0.0000 </r>
       <r>    -6.8158     0.0000     0.0000 </r>
       <r>    -6.7466     0.0000     0.0000 </r>
       <r>    -6.6774     0.0000     0.0000 </r>
       <r>    -6.6082     0.0000     0.0000 </r>
       <r>    -6.5390     0.0000     0.0000 </r>
       <r>    -6.4697     0.0000     0.0000 </r>
       <r>    -6.4005     0.0000     0.0000 </r>
       <r>    -6.3313     0.0000     0.0000 </r>
       <r>    -6.2621     0.0000     0.0000 </r>
       <r>    -6.1929     0.0000     0.0000 </r>
       <r>    -6.1237     0.0360     0.0001 </r>
       <r>    -6.0545     0.3603     0.0172 </r>
       <r>    -5.9853     0.5104     0.0480 </r>
       <r>    -5.9161     0.6303     0.0879 </r>
       <r>    -5.8469     0.7382     0.1353 </r>
       <r>    -5.7777     0.8207     0.1891 </r>
       <r>    -5.7085     0.9065     0.2491 </r>
       <r>    -5.6393     0.9801     0.3143 </r>
       <r>    -5.5701     1.0556     0.3849 </r>
       <r>    -5.5009     1.1214     0.4602 </r>
       <r>    -5.4317     1.1945     0.5403 </r>
       <r>    -5.3625     1.2529     0.6249 </r>
       <r>    -5.2933     1.3172     0.7138 </r>
       <r>    -5.2241     1.3804     0.8073 </r>
       <r>    -5.1549     1.4380     0.9047 </r>
       <r>    -5.0857     1.4996     1.0064 </r>
       <r>    -5.0165     1.5612     1.1124 </r>
       <r>    -4.9473     1.6174     1.2223 </r>
       <r>    -4.8781     1.6786     1.3364 </r>
       <r>    -4.8089     1.7418     1.4547 </r>
       <r>    -4.7397     1.7993     1.5772 </r>
       <r>    -4.6705     1.8614     1.7039 </r>
       <r>    -4.6013     1.9272     1.8349 </r>
       <r>    -4.5321     1.9925     1.9706 </r>
       <r>    -4.4629     2.0582     2.1107 </r>
       <r>    -4.3937     2.1305     2.2556 </r>
       <r>    -4.3245     2.2096     2.4057 </r>
       <r>    -4.2553     2.3187     2.5614 </r>
       <r>    -4.1861     2.4807     2.7275 </r>
       <r>    -4.1169     2.5442     2.9010 </r>
       <r>    -4.0477     2.5170     3.0764 </r>
       <r>    -3.9785     2.6203     3.2523 </r>
       <r>    -3.9093     2.8652     3.4417 </r>
       <r>    -3.8401     3.0991     3.6477 </r>
       <r>    -3.7709     3.7520     3.8864 </r>
       <r>    -3.7017     3.3877     4.1349 </r>
       <r>    -3.6325     3.7210     4.3741 </r>
       <r>    -3.5633     3.3101     4.6066 </r>
       <r>    -3.4941     3.2669     4.8329 </r>
       <r>    -3.4249     3.0974     5.0527 </r>
       <r>    -3.3557     3.0018     5.2626 </r>
       <r>    -3.2865     2.9125     5.4722 </r>
       <r>    -3.2173     2.8418     5.6722 </r>
       <r>    -3.1481     2.7288     5.8639 </r>
       <r>    -3.0789     2.6185     6.0511 </r>
       <r>    -3.0097     2.5181     6.2306 </r>
       <r>    -2.9405     2.4370     6.4053 </r>
       <r>    -2.8713     2.4142     6.5726 </r>
       <r>    -2.8021     2.2245     6.7323 </r>
       <r>    -2.7329     2.0874     6.8814 </r>
       <r>    -2.6637     2.0571     7.0295 </r>
       <r>    -2.5945     1.9778     7.1703 </r>
       <r>    -2.5253     1.8195     7.3028 </r>
       <r>    -2.4561     1.6563     7.4231 </r>
       <r>    -2.3869     1.5307     7.5332 </r>
       <r>    -2.3177     1.5883     7.6441 </r>
       <r>    -2.2485     1.4080     7.7499 </r>
       <r>    -2.1793     1.1242     7.8379 </r>
       <r>    -2.1101     0.8390     7.9054 </r>
       <r>    -2.0409     0.5498     7.9537 </r>
       <r>    -1.9717     0.3828     7.9871 </r>
       <r>    -1.9025     0.2282     8.0062 </r>
       <r>    -1.8333     0.2817     8.0231 </r>
       <r>    -1.7641     0.4608     8.0486 </r>
       <r>    -1.6949     0.6504     8.0869 </r>
       <r>    -1.6257     0.8632     8.1391 </r>
       <r>    -1.5565     1.3731     8.2186 </r>
       <r>    -1.4873     1.3384     8.3135 </r>
       <r>    -1.4181     1.4313     8.4090 </r>
       <r>    -1.3489     1.5664     8.5125 </r>
       <r>    -1.2797     1.7738     8.6275 </r>
       <r>    -1.2105     2.1457     8.7612 </r>
       <r>    -1.1413     2.2216     8.9282 </r>
       <r>    -1.0721     3.4858     9.1273 </r>
       <r>    -1.0029     5.2592     9.4279 </r>
       <r>    -0.9337     7.7975     9.9167 </r>
       <r>    -0.8645     4.9481    10.3297 </r>
       <r>    -0.7953     4.1914    10.6451 </r>
       <r>    -0.7261     3.6227    10.9133 </r>
       <r>    -0.6569     3.2678    11.1503 </r>
       <r>    -0.5877     3.0619    11.3694 </r>
       <r>    -0.5185     2.8447    11.5736 </r>
       <r>    -0.4493     2.6686    11.7656 </r>
       <r>    -0.3801     2.4831    11.9453 </r>
       <r>    -0.3109     2.3585    12.1127 </r>
       <r>    -0.2417     2.2682    12.2724 </r>
       <r>    -0.1725     2.1426    12.4254 </r>
       <r>    -0.1033     2.0681    12.5706 </r>
       <r>    -0.0341     1.9586    12.7107 </r>
       <r>     0.0351     1.8683    12.8428 </r>
       <r>     0.1043     1.8070    12.9697 </r>
       <r>     0.1735     1.7061    13.0914 </r>
       <r>     0.2427     1.6055    13.2055 </r>
       <r>     0.3119     1.5709    13.3151 </r>
       <r>     0.3811     1.5500    13.4234 </r>
       <r>     0.4503     1.5159    13.5293 </r>
       <r>     0.5195     1.4468    13.6320 </r>
       <r>     0.5887     1.3625    13.7291 </r>
       <r>     0.6579     1.3134    13.8216 </r>
       <r>     0.7271     1.2656    13.9109 </r>
       <r>     0.7963     1.2190    13.9968 </r>
       <r>     0.8655     1.1753    14.0797 </r>
       <r>     0.9347     1.1334    14.1595 </r>
       <r>     1.0039     1.0923    14.2365 </r>
       <r>     1.0731     1.0531    14.3107 </r>
       <r>     1.1423     1.0199    14.3824 </r>
       <r>     1.2115     0.9916    14.4520 </r>
       <r>     1.2807     0.9716    14.5199 </r>
       <r>     1.3499     0.9863    14.5873 </r>
       <r>     1.4191     1.0497    14.6574 </r>
       <r>     1.4883     2.4949    14.7870 </r>
       <r>     1.5575     2.6200    14.9739 </r>
       <r>     1.6267     3.5352    15.1918 </r>
       <r>     1.6959     4.2575    15.4457 </r>
       <r>     1.7651     5.1167    15.7619 </r>
       <r>     1.8343     4.7395    16.1062 </r>
       <r>     1.9035     4.4664    16.4275 </r>
       <r>     1.9727     4.3178    16.7307 </r>
       <r>     2.0419     4.2814    17.0295 </r>
       <r>     2.1111     4.0103    17.3135 </r>
       <r>     2.1803     4.0169    17.5902 </r>
       <r>     2.2495     4.0803    17.8702 </r>
       <r>     2.3187     4.2216    18.1655 </r>
       <r>     2.3879     4.1238    18.4520 </r>
       <r>     2.4571     4.1201    18.7365 </r>
       <r>     2.5263     4.3139    19.0272 </r>
       <r>     2.5955     4.5019    19.3343 </r>
       <r>     2.6647     4.7411    19.6543 </r>
       <r>     2.7339     5.0327    19.9943 </r>
       <r>     2.8032     4.6669    20.3315 </r>
       <r>     2.8724     5.4276    20.6660 </r>
       <r>     2.9416     5.0468    21.0419 </r>
       <r>     3.0108     6.0470    21.4192 </r>
       <r>     3.0800     6.3455    21.8446 </r>
       <r>     3.1492     6.0449    22.2779 </r>
       <r>     3.2184     5.7936    22.6834 </r>
       <r>     3.2876     6.4951    23.0953 </r>
       <r>     3.3568     5.3280    23.4779 </r>
       <r>     3.4260     5.8131    23.8654 </r>
       <r>     3.4952     5.5927    24.2566 </r>
       <r>     3.5644     5.6050    24.6461 </r>
       <r>     3.6336     5.6234    25.0388 </r>
       <r>     3.7028     5.5103    25.4236 </r>
       <r>     3.7720     5.3667    25.7995 </r>
       <r>     3.8412     5.0647    26.1744 </r>
       <r>     3.9104     4.5475    26.5023 </r>
       <r>     3.9796     4.9341    26.8254 </r>
       <r>     4.0488     5.2445    27.1821 </r>
       <r>     4.1180     5.0656    27.5409 </r>
       <r>     4.1872     4.9057    27.8885 </r>
       <r>     4.2564     4.7870    28.2229 </r>
       <r>     4.3256     4.7210    28.5519 </r>
       <r>     4.3948     4.7527    28.8850 </r>
       <r>     4.4640     4.6553    29.2118 </r>
       <r>     4.5332     4.4425    29.5247 </r>
       <r>     4.6024     4.5799    29.8391 </r>
       <r>     4.6716     3.7123    30.1385 </r>
       <r>     4.7408     3.1299    30.3713 </r>
       <r>     4.8100     2.8565    30.5797 </r>
       <r>     4.8792     2.5428    30.7665 </r>
       <r>     4.9484     2.2954    30.9345 </r>
       <r>     5.0176     2.1134    31.0867 </r>
       <r>     5.0868     1.8987    31.2264 </r>
       <r>     5.1560     1.7137    31.3510 </r>
       <r>     5.2252     1.6151    31.4647 </r>
       <r>     5.2944     1.3844    31.5678 </r>
       <r>     5.3636     1.2477    31.6585 </r>
       <r>     5.4328     1.1099    31.7415 </r>
       <r>     5.5020     0.9468    31.8120 </r>
       <r>     5.5712     0.7970    31.8736 </r>
       <r>     5.6404     0.7038    31.9257 </r>
       <r>     5.7096     0.4908    31.9656 </r>
       <r>     5.7788     0.2390    31.9938 </r>
       <r>     5.8480     0.0000    32.0000 </r>
       <r>     5.9172     0.0000    32.0000 </r>
       <r>     5.9864     0.0000    32.0000 </r>
       <r>     6.0556     0.0000    32.0000 </r>
       <r>     6.1248     0.0000    32.0000 </r>
       <r>     6.1940     0.0000    32.0000 </r>
       <r>     6.2632     0.0000    32.0000 </r>
       <r>     6.3324     0.0000    32.0000 </r>
       <r>     6.4016     0.0000    32.0000 </r>
       <r>     6.4708     0.2858    32.0071 </r>
       <r>     6.5400     0.4968    32.0395 </r>
       <r>     6.6092     0.7451    32.0843 </r>
       <r>     6.6784     1.1420    32.1551 </r>
       <r>     6.7476     1.1394    32.2338 </r>
       <r>     6.8168     1.3245    32.3195 </r>
       <r>     6.8860     1.6087    32.4207 </r>
       <r>     6.9552     1.7025    32.5396 </r>
       <r>     7.0244     1.8852    32.6626 </r>
       <r>     7.0936     1.9276    32.7920 </r>
       <r>     7.1628     2.1204    32.9334 </r>
       <r>     7.2320     2.2758    33.0852 </r>
       <r>     7.3012     2.4071    33.2467 </r>
       <r>     7.3704     2.5608    33.4179 </r>
       <r>     7.4396     2.8718    33.6039 </r>
       <r>     7.5088     3.1087    33.8115 </r>
       <r>     7.5780     3.4076    34.0363 </r>
       <r>     7.6472     3.8038    34.2841 </r>
       <r>     7.7164     4.0542    34.5601 </r>
       <r>     7.7856     4.1358    34.8413 </r>
       <r>     7.8548     4.4512    35.1385 </r>
       <r>     7.9240     4.7840    35.4565 </r>
       <r>     7.9932     5.7431    35.8146 </r>
       <r>     8.0624     6.3001    36.2440 </r>
       <r>     8.1316     6.1586    36.6777 </r>
       <r>     8.2008     5.8932    37.0902 </r>
       <r>     8.2700     5.8166    37.5042 </r>
       <r>     8.3392     5.0831    37.8783 </r>
       <r>     8.4084     4.7737    38.2205 </r>
       <r>     8.4776     4.6525    38.5451 </r>
       <r>     8.5468     4.1112    38.8430 </r>
       <r>     8.6160     3.9301    39.1224 </r>
       <r>     8.6852     3.5655    39.3790 </r>
       <r>     8.7544     3.4193    39.6214 </r>
       <r>     8.8236     2.9533    39.8441 </r>
       <r>     8.8928     2.7236    40.0379 </r>
       <r>     8.9620     2.3933    40.2136 </r>
       <r>     9.0312     3.0544    40.3927 </r>
       <r>     9.1004     4.5981    40.6661 </r>
       <r>     9.1696     4.8092    41.0054 </r>
       <r>     9.2388     4.1292    41.3236 </r>
       <r>     9.3080     2.3732    41.5582 </r>
       <r>     9.3772     1.4550    41.6814 </r>
       <r>     9.4464     1.2260    41.7730 </r>
       <r>     9.5156     0.9729    41.8510 </r>
       <r>     9.5848     0.5919    41.9061 </r>
       <r>     9.6540     0.3433    41.9368 </r>
       <r>     9.7232     0.2184    41.9561 </r>
       <r>     9.7924     0.1195    41.9676 </r>
       <r>     9.8616     0.0899    41.9746 </r>
       <r>     9.9308     0.0739    41.9802 </r>
       <r>    10.0000     0.0610    41.9849 </r>
       <r>    10.0692     0.0520    41.9888 </r>
       <r>    10.1384     0.0487    41.9922 </r>
       <r>    10.2076     0.0322    41.9952 </r>
       <r>    10.2768     0.0224    41.9970 </r>
       <r>    10.3460     0.0160    41.9983 </r>
       <r>    10.4152     0.0102    41.9992 </r>
       <r>    10.4844     0.0054    41.9997 </r>
       <r>    10.5536     0.0017    42.0000 </r>
       <r>    10.6228     0.0000    42.0000 </r>
       <r>    10.6920     0.0000    42.0000 </r>
       <r>    10.7612     0.0000    42.0000 </r>
       <r>    10.8304     0.0000    42.0000 </r>
       <r>    10.8996     0.0000    42.0000 </r>
       <r>    10.9688     0.0000    42.0000 </r>
       <r>    11.0380     0.0000    42.0000 </r>
       <r>    11.1072     0.0000    42.0000 </r>
       <r>    11.1764     0.0000    42.0000 </r>
       <r>    11.2456     0.0000    42.0000 </r>
       <r>    11.3148     0.0000    42.0000 </r>
       <r>    11.3840     0.0000    42.0000 </r>
       <r>    11.4532     0.0000    42.0000 </r>
       <r>    11.5224     0.0000    42.0000 </r>
       <r>    11.5916     0.0000    42.0000 </r>
       <r>    11.6608     0.0000    42.0000 </r>
       <r>    11.7300     0.0000    42.0000 </r>
       <r>    11.7992     0.0000    42.0000 </r>
       <r>    11.8684     0.0000    42.0000 </r>
       <r>    11.9376     0.0000    42.0000 </r>
       <r>    12.0069     0.0000    42.0000 </r>
       <r>    12.0761     0.0000    42.0000 </r>
       <r>    12.1453     0.0000    42.0000 </r>
       <r>    12.2145     0.0000    42.0000 </r>
       <r>    12.2837     0.0000    42.0000 </r>
       <r>    12.3529     0.0000    42.0000 </r>
       <r>    12.4221     0.0000    42.0000 </r>
       <r>    12.4913     0.0000    42.0000 </r>
       <r>    12.5605     0.0000    42.0000 </r>
       <r>    12.6297     0.0000    42.0000 </r>
      </set>
     </set>
    </array>
   </total>
  </dos>
 </calculation>
 <structure name="finalpos" >
  <crystal>
   <varray name="basis" >
    <v>       5.43000000       0.00000000       0.00000000 </v>
    <v>       0.00000000       5.43000000       0.00000000 </v>
    <v>       0.00000000       0.00000000       5.43000000 </v>
   </varray>
   <i name="volume">    160.10300700 </i>
   <varray name="rec_basis" >
    <v>       0.18416206       0.00000000       0.00000000 </v>
    <v>       0.00000000       0.18416206       0.00000000 </v>
    <v>       0.00000000       0.00000000       0.18416206 </v>
   </varray>
  </crystal>
  <varray name="positions" >
   <v>       0.00000000       0.00000000       0.00000000 </v>
   <v>       0.50000000       0.50000000       0.00000000 </v>
   <v>       0.00000000       0.50000000       0.50000000 </v>
   <v>       0.50000000       0.00000000       0.50000000 </v>
   <v>       0.25000000       0.25000000       0.25000000 </v>
   <v>       0.75000000       0.75000000       0.25000000 </v>
   <v>       0.25000000       0.75000000       0.75000000 </v>
   <v>       0.75000000       0.25000000       0.75000000 </v>
  </varray>
 </structure>
</modeling>
