fcc Al                                  
   4.05000000000000     
     0.500000    0.500000    0.000000
     0.000000    0.500000    0.500000
     0.500000    0.000000    0.500000
   Al
     1
Direct
  0.000000  0.000000  0.000000
 
   32   32   32
 -.20368355032E+00 -.11587071766E+00 0.13879731162E+00 0.53431373896E+00 0.10296010473E+01
 0.15741084516E+01 0.21155905237E+01 0.26068776868E+01 0.30102856899E+01 0.33012425880E+01
 0.34724036847E+01 0.35363087750E+01 0.35229683227E+01 0.34677162543E+01 0.34016366976E+01
 0.33507605658E+01 0.33318923533E+01 0.33507605658E+01 0.34016366976E+01 0.34677162543E+01
 0.35229683227E+01 0.35363087750E+01 0.34724036847E+01 0.33012425880E+01 0.30102856899E+01
 0.26068776868E+01 0.21155905237E+01 0.15741084516E+01 0.10296010473E+01 0.53431373896E+00
 0.13879731162E+00 -.11587071766E+00 -.11587071766E+00 0.55374167054E-01 0.38038396670E+00
 0.82536100761E+00 0.13440960283E+01 0.18848908320E+01 0.23979795210E+01 0.28409646935E+01
 0.31826193620E+01 0.34068675454E+01 0.35165736844E+01 0.35339394856E+01 0.34936260444E+01
 0.34283251481E+01 0.33667870552E+01 0.33304426092E+01 0.33304404516E+01 0.33667842340E+01
 0.34283265350E+01 0.34936294893E+01 0.35339391040E+01 0.35165695186E+01 0.34068657638E+01
 0.31826225038E+01 0.28409680127E+01 0.23979795333E+01 0.18848912590E+01 0.13440999504E+01
 0.82536185775E+00 0.38037287091E+00 0.55355472974E-01 -.11588018766E+00 0.13879731162E+00
 0.38038396670E+00 0.75458474329E+00 0.12217918077E+01 0.17338717294E+01 0.22412146921E+01
 0.26988187017E+01 0.30706573543E+01 0.33336934188E+01 0.34821327662E+01 0.35296733520E+01
 0.35063577029E+01 0.34457253914E+01 0.33774617982E+01 0.33260983053E+01 0.33072215568E+01
 0.33260979941E+01 0.33774618085E+01 0.34457259037E+01 0.35063579377E+01 0.35296725240E+01
 0.34821311824E+01 0.33336921503E+01 0.30706571651E+01 0.26988199473E+01 0.22412177255E+01
 0.17338758562E+01 0.12217938610E+01 0.75458092065E+00 0.38037477911E+00 0.13878927067E+00
 0.55355472974E-01 0.53431373896E+00 0.82536100761E+00 0.12217918077E+01 0.16813249939E+01
 0.21572183570E+01 0.26043123553E+01 0.29838528725E+01 0.32677449685E+01 0.34430617496E+01
 0.35154528848E+01 0.35083999994E+01 0.34542396905E+01 0.33824628346E+01 0.33190259298E+01
 0.32825784956E+01 0.32825794214E+01 0.33190271853E+01 0.33824623744E+01 0.34542383084E+01
 0.35083999046E+01 0.35154538424E+01 0.34430612505E+01 0.32677423523E+01 0.29838507979E+01
 0.26043131713E+01 0.21572210000E+01 0.16813270805E+01 0.12217933618E+01 0.82536382892E+00
 0.53431759180E+00 0.38037477911E+00 0.38037287091E+00 0.10296010473E+01 0.13440960283E+01
 0.17338717294E+01 0.21572183570E+01 0.25711949753E+01 0.29365388348E+01 0.32221465656E+01
 0.34097728572E+01 0.34981394643E+01 0.35038438101E+01 0.34557970511E+01 0.33824854888E+01
 0.33098114773E+01 0.32580384017E+01 0.32394366032E+01 0.32580383710E+01 0.33098113465E+01
 0.33824852773E+01 0.34557969256E+01 0.35038439290E+01 0.34981397977E+01 0.34097731764E+01
 0.32221465494E+01 0.29365382285E+01 0.25711938204E+01 0.21572172304E+01 0.17338716024E+01
 0.13440974991E+01 0.10296035648E+01 0.82536382892E+00 0.75458092065E+00 0.82536185775E+00
 0.15741084516E+01 0.18848908320E+01 0.22412146921E+01 0.26043123553E+01 0.29365388348E+01
 0.32058843152E+01 0.33907541244E+01 0.34844656065E+01 0.34973120184E+01 0.34534074153E+01
 0.33792655215E+01 0.32996558238E+01 0.32352221261E+01 0.31997102275E+01 0.31997104446E+01
 0.32352223281E+01 0.32996554586E+01 0.33792649454E+01 0.34534073497E+01 0.34973124278E+01
 0.34844660337E+01 0.33907549197E+01 0.32058862280E+01 0.29365410692E+01 0.26043122636E+01
 0.22412105504E+01 0.18848843043E+01 0.15741030832E+01 0.13440974991E+01 0.12217933618E+01
 0.12217938610E+01 0.13440999504E+01 0.21155905237E+01 0.23979795210E+01 0.26988187017E+01
 0.29838528725E+01 0.32221465656E+01 0.33907541244E+01 0.34793154447E+01 0.34928496896E+01
 0.34503040490E+01 0.33751601856E+01 0.32903148414E+01 0.32158770938E+01 0.31660276945E+01
 0.31486025355E+01 0.31660281655E+01 0.32158774441E+01 0.32903147085E+01 0.33751597250E+01
 0.34503033603E+01 0.34928486912E+01 0.34793146728E+01 0.33907549807E+01 0.32221497831E+01
 0.29838568576E+01 0.26988202106E+01 0.23979764656E+01 0.21155839200E+01 0.18848843043E+01
 0.17338716024E+01 0.16813270805E+01 0.17338758562E+01 0.18848912590E+01 0.26068776868E+01
 0.28409646935E+01 0.30706573543E+01 0.32677449685E+01 0.34097728572E+01 0.34844656065E+01
 0.34928496896E+01 0.34489623030E+01 0.33724220768E+01 0.32837004907E+01 0.32017396469E+01
 0.31404788475E+01 0.31080964780E+01 0.31080960895E+01 0.31404785791E+01 0.32017405587E+01
 0.32837016550E+01 0.33724216467E+01 0.34489601749E+01 0.34928475679E+01 0.34844645758E+01
 0.34097727575E+01 0.32677463068E+01 0.30706615485E+01 0.28409709010E+01 0.26068812415E+01
 0.23979764656E+01 0.22412105504E+01 0.21572172304E+01 0.21572210000E+01 0.22412177255E+01
 0.23979795333E+01 0.30102856899E+01 0.31826193620E+01 0.33336934188E+01 0.34430617496E+01
 0.34981394643E+01 0.34973120184E+01 0.34503040490E+01 0.33724220768E+01 0.32813081017E+01
 0.31942563602E+01 0.31245560456E+01 0.30802773263E+01 0.30651801947E+01 0.30802770439E+01
 0.31245559934E+01 0.31942569191E+01 0.32813090566E+01 0.33724227950E+01 0.34503038625E+01
 0.34973105530E+01 0.34981370297E+01 0.34430597083E+01 0.33336936225E+01 0.31826224548E+01
 0.30102900431E+01 0.28409709010E+01 0.26988202106E+01 0.26043122636E+01 0.25711938204E+01
 0.26043131713E+01 0.26988199473E+01 0.28409680127E+01 0.33012425880E+01 0.34068675454E+01
 0.34821327662E+01 0.35154528848E+01 0.35038438101E+01 0.34534074153E+01 0.33751601856E+01
 0.32837004907E+01 0.31942563602E+01 0.31191507891E+01 0.30661803440E+01 0.30390780091E+01
 0.30390778216E+01 0.30661797868E+01 0.31191501383E+01 0.31942563783E+01 0.32837017285E+01
 0.33751621748E+01 0.34534088745E+01 0.35038437527E+01 0.35154510998E+01 0.34821294198E+01
 0.34068632529E+01 0.33012391093E+01 0.31826224548E+01 0.30706615485E+01 0.29838568576E+01
 0.29365410692E+01 0.29365382285E+01 0.29838507979E+01 0.30706571651E+01 0.31826225038E+01
 0.34724036847E+01 0.35165736844E+01 0.35296733520E+01 0.35083999994E+01 0.34557970511E+01
 0.33792655215E+01 0.32903148414E+01 0.32017396469E+01 0.31245560456E+01 0.30661803440E+01
 0.30303509891E+01 0.30183349311E+01 0.30303504647E+01 0.30661796834E+01 0.31245554377E+01
 0.32017390801E+01 0.32903147536E+01 0.33792667044E+01 0.34557993718E+01 0.35084016171E+01
 0.35296721040E+01 0.35165693081E+01 0.34723986107E+01 0.34068632529E+01 0.33336936225E+01
 0.32677463068E+01 0.32221497831E+01 0.32058862280E+01 0.32221465494E+01 0.32677423523E+01
 0.33336921503E+01 0.34068657638E+01 0.35363087750E+01 0.35339394856E+01 0.35063577029E+01
 0.34542396905E+01 0.33824854888E+01 0.32996558238E+01 0.32158770938E+01 0.31404788475E+01
 0.30802773263E+01 0.30390780091E+01 0.30183349311E+01 0.30183354270E+01 0.30390787896E+01
 0.30802771978E+01 0.31404776120E+01 0.32158756236E+01 0.32996549054E+01 0.33824852761E+01
 0.34542403236E+01 0.35063594895E+01 0.35339420609E+01 0.35363106291E+01 0.35165693081E+01
 0.34821294198E+01 0.34430597083E+01 0.34097727575E+01 0.33907549807E+01 0.33907549197E+01
 0.34097731764E+01 0.34430612505E+01 0.34821311824E+01 0.35165695186E+01 0.35229683227E+01
 0.34936260444E+01 0.34457253914E+01 0.33824628346E+01 0.33098114773E+01 0.32352221261E+01
 0.31660276945E+01 0.31080964780E+01 0.30651801947E+01 0.30390778216E+01 0.30303504647E+01
 0.30390787896E+01 0.30651813534E+01 0.31080971129E+01 0.31660275626E+01 0.32352211261E+01
 0.33098096919E+01 0.33824612353E+01 0.34457257989E+01 0.34936293651E+01 0.35229729772E+01
 0.35339420609E+01 0.35296721040E+01 0.35154510998E+01 0.34981370297E+01 0.34844645758E+01
 0.34793146728E+01 0.34844660337E+01 0.34981397977E+01 0.35154538424E+01 0.35296725240E+01
 0.35339391040E+01 0.34677162543E+01 0.34283251481E+01 0.33774617982E+01 0.33190259298E+01
 0.32580384017E+01 0.31997102275E+01 0.31486025355E+01 0.31080960895E+01 0.30802770439E+01
 0.30661797868E+01 0.30661796834E+01 0.30802771978E+01 0.31080971129E+01 0.31486040736E+01
 0.31997112259E+01 0.32580383584E+01 0.33190252375E+01 0.33774608101E+01 0.34283237965E+01
 0.34677149293E+01 0.34936293651E+01 0.35063594895E+01 0.35084016171E+01 0.35038437527E+01
 0.34973105530E+01 0.34928475679E+01 0.34928486912E+01 0.34973124278E+01 0.35038439290E+01
 0.35083999046E+01 0.35063579377E+01 0.34936294893E+01 0.34016366976E+01 0.33667870552E+01
 0.33260983053E+01 0.32825784956E+01 0.32394366032E+01 0.31997104446E+01 0.31660281655E+01
 0.31404785791E+01 0.31245559934E+01 0.31191501383E+01 0.31245554377E+01 0.31404776120E+01
 0.31660275626E+01 0.31997112259E+01 0.32394386990E+01 0.32825802424E+01 0.33260978057E+01
 0.33667839675E+01 0.34016326308E+01 0.34283237965E+01 0.34457257989E+01 0.34542403236E+01
 0.34557993718E+01 0.34534088745E+01 0.34503038625E+01 0.34489601749E+01 0.34503033603E+01
 0.34534073497E+01 0.34557969256E+01 0.34542383084E+01 0.34457259037E+01 0.34283265350E+01
 0.33507605658E+01 0.33304426092E+01 0.33072215568E+01 0.32825794214E+01 0.32580383710E+01
 0.32352223281E+01 0.32158774441E+01 0.32017405587E+01 0.31942569191E+01 0.31942563783E+01
 0.32017390801E+01 0.32158756236E+01 0.32352211261E+01 0.32580383584E+01 0.32825802424E+01
 0.33072224351E+01 0.33304431834E+01 0.33507608272E+01 0.33667839675E+01 0.33774608101E+01
 0.33824612353E+01 0.33824852761E+01 0.33792667044E+01 0.33751621748E+01 0.33724227950E+01
 0.33724216467E+01 0.33751597250E+01 0.33792649454E+01 0.33824852773E+01 0.33824623744E+01
 0.33774618085E+01 0.33667842340E+01 0.33318923533E+01 0.33304404516E+01 0.33260979941E+01
 0.33190271853E+01 0.33098113465E+01 0.32996554586E+01 0.32903147085E+01 0.32837016550E+01
 0.32813090566E+01 0.32837017285E+01 0.32903147536E+01 0.32996549054E+01 0.33098096919E+01
 0.33190252375E+01 0.33260978057E+01 0.33304431834E+01 0.33318965436E+01 0.33304431834E+01
 0.33260978057E+01 0.33190252375E+01 0.33098096919E+01 0.32996549054E+01 0.32903147536E+01
 0.32837017285E+01 0.32813090566E+01 0.32837016550E+01 0.32903147085E+01 0.32996554586E+01
 0.33098113465E+01 0.33190271853E+01 0.33260979941E+01 0.33304404516E+01 0.33507605658E+01
 0.33667842340E+01 0.33774618085E+01 0.33824623744E+01 0.33824852773E+01 0.33792649454E+01
 0.33751597250E+01 0.33724216467E+01 0.33724227950E+01 0.33751621748E+01 0.33792667044E+01
 0.33824852761E+01 0.33824612353E+01 0.33774608101E+01 0.33667839675E+01 0.33507608272E+01
 0.33304431834E+01 0.33072224351E+01 0.32825802424E+01 0.32580383584E+01 0.32352211261E+01
 0.32158756236E+01 0.32017390801E+01 0.31942563783E+01 0.31942569191E+01 0.32017405587E+01
 0.32158774441E+01 0.32352223281E+01 0.32580383710E+01 0.32825794214E+01 0.33072215568E+01
 0.33304426092E+01 0.34016366976E+01 0.34283265350E+01 0.34457259037E+01 0.34542383084E+01
 0.34557969256E+01 0.34534073497E+01 0.34503033603E+01 0.34489601749E+01 0.34503038625E+01
 0.34534088745E+01 0.34557993718E+01 0.34542403236E+01 0.34457257989E+01 0.34283237965E+01
 0.34016326308E+01 0.33667839675E+01 0.33260978057E+01 0.32825802424E+01 0.32394386990E+01
 0.31997112259E+01 0.31660275626E+01 0.31404776120E+01 0.31245554377E+01 0.31191501383E+01
 0.31245559934E+01 0.31404785791E+01 0.31660281655E+01 0.31997104446E+01 0.32394366032E+01
 0.32825784956E+01 0.33260983053E+01 0.33667870552E+01 0.34677162543E+01 0.34936294893E+01
 0.35063579377E+01 0.35083999046E+01 0.35038439290E+01 0.34973124278E+01 0.34928486912E+01
 0.34928475679E+01 0.34973105530E+01 0.35038437527E+01 0.35084016171E+01 0.35063594895E+01
 0.34936293651E+01 0.34677149293E+01 0.34283237965E+01 0.33774608101E+01 0.33190252375E+01
 0.32580383584E+01 0.31997112259E+01 0.31486040736E+01 0.31080971129E+01 0.30802771978E+01
 0.30661796834E+01 0.30661797868E+01 0.30802770439E+01 0.31080960895E+01 0.31486025355E+01
 0.31997102275E+01 0.32580384017E+01 0.33190259298E+01 0.33774617982E+01 0.34283251481E+01
 0.35229683227E+01 0.35339391040E+01 0.35296725240E+01 0.35154538424E+01 0.34981397977E+01
 0.34844660337E+01 0.34793146728E+01 0.34844645758E+01 0.34981370297E+01 0.35154510998E+01
 0.35296721040E+01 0.35339420609E+01 0.35229729772E+01 0.34936293651E+01 0.34457257989E+01
 0.33824612353E+01 0.33098096919E+01 0.32352211261E+01 0.31660275626E+01 0.31080971129E+01
 0.30651813534E+01 0.30390787896E+01 0.30303504647E+01 0.30390778216E+01 0.30651801947E+01
 0.31080964780E+01 0.31660276945E+01 0.32352221261E+01 0.33098114773E+01 0.33824628346E+01
 0.34457253914E+01 0.34936260444E+01 0.35363087750E+01 0.35165695186E+01 0.34821311824E+01
 0.34430612505E+01 0.34097731764E+01 0.33907549197E+01 0.33907549807E+01 0.34097727575E+01
 0.34430597083E+01 0.34821294198E+01 0.35165693081E+01 0.35363106291E+01 0.35339420609E+01
 0.35063594895E+01 0.34542403236E+01 0.33824852761E+01 0.32996549054E+01 0.32158756236E+01
 0.31404776120E+01 0.30802771978E+01 0.30390787896E+01 0.30183354270E+01 0.30183349311E+01
 0.30390780091E+01 0.30802773263E+01 0.31404788475E+01 0.32158770938E+01 0.32996558238E+01
 0.33824854888E+01 0.34542396905E+01 0.35063577029E+01 0.35339394856E+01 0.34724036847E+01
 0.34068657638E+01 0.33336921503E+01 0.32677423523E+01 0.32221465494E+01 0.32058862280E+01
 0.32221497831E+01 0.32677463068E+01 0.33336936225E+01 0.34068632529E+01 0.34723986107E+01
 0.35165693081E+01 0.35296721040E+01 0.35084016171E+01 0.34557993718E+01 0.33792667044E+01
 0.32903147536E+01 0.32017390801E+01 0.31245554377E+01 0.30661796834E+01 0.30303504647E+01
 0.30183349311E+01 0.30303509891E+01 0.30661803440E+01 0.31245560456E+01 0.32017396469E+01
 0.32903148414E+01 0.33792655215E+01 0.34557970511E+01 0.35083999994E+01 0.35296733520E+01
 0.35165736844E+01 0.33012425880E+01 0.31826225038E+01 0.30706571651E+01 0.29838507979E+01
 0.29365382285E+01 0.29365410692E+01 0.29838568576E+01 0.30706615485E+01 0.31826224548E+01
 0.33012391093E+01 0.34068632529E+01 0.34821294198E+01 0.35154510998E+01 0.35038437527E+01
 0.34534088745E+01 0.33751621748E+01 0.32837017285E+01 0.31942563783E+01 0.31191501383E+01
 0.30661797868E+01 0.30390778216E+01 0.30390780091E+01 0.30661803440E+01 0.31191507891E+01
 0.31942563602E+01 0.32837004907E+01 0.33751601856E+01 0.34534074153E+01 0.35038438101E+01
 0.35154528848E+01 0.34821327662E+01 0.34068675454E+01 0.30102856899E+01 0.28409680127E+01
 0.26988199473E+01 0.26043131713E+01 0.25711938204E+01 0.26043122636E+01 0.26988202106E+01
 0.28409709010E+01 0.30102900431E+01 0.31826224548E+01 0.33336936225E+01 0.34430597083E+01
 0.34981370297E+01 0.34973105530E+01 0.34503038625E+01 0.33724227950E+01 0.32813090566E+01
 0.31942569191E+01 0.31245559934E+01 0.30802770439E+01 0.30651801947E+01 0.30802773263E+01
 0.31245560456E+01 0.31942563602E+01 0.32813081017E+01 0.33724220768E+01 0.34503040490E+01
 0.34973120184E+01 0.34981394643E+01 0.34430617496E+01 0.33336934188E+01 0.31826193620E+01
 0.26068776868E+01 0.23979795333E+01 0.22412177255E+01 0.21572210000E+01 0.21572172304E+01
 0.22412105504E+01 0.23979764656E+01 0.26068812415E+01 0.28409709010E+01 0.30706615485E+01
 0.32677463068E+01 0.34097727575E+01 0.34844645758E+01 0.34928475679E+01 0.34489601749E+01
 0.33724216467E+01 0.32837016550E+01 0.32017405587E+01 0.31404785791E+01 0.31080960895E+01
 0.31080964780E+01 0.31404788475E+01 0.32017396469E+01 0.32837004907E+01 0.33724220768E+01
 0.34489623030E+01 0.34928496896E+01 0.34844656065E+01 0.34097728572E+01 0.32677449685E+01
 0.30706573543E+01 0.28409646935E+01 0.21155905237E+01 0.18848912590E+01 0.17338758562E+01
 0.16813270805E+01 0.17338716024E+01 0.18848843043E+01 0.21155839200E+01 0.23979764656E+01
 0.26988202106E+01 0.29838568576E+01 0.32221497831E+01 0.33907549807E+01 0.34793146728E+01
 0.34928486912E+01 0.34503033603E+01 0.33751597250E+01 0.32903147085E+01 0.32158774441E+01
 0.31660281655E+01 0.31486025355E+01 0.31660276945E+01 0.32158770938E+01 0.32903148414E+01
 0.33751601856E+01 0.34503040490E+01 0.34928496896E+01 0.34793154447E+01 0.33907541244E+01
 0.32221465656E+01 0.29838528725E+01 0.26988187017E+01 0.23979795210E+01 0.15741084516E+01
 0.13440999504E+01 0.12217938610E+01 0.12217933618E+01 0.13440974991E+01 0.15741030832E+01
 0.18848843043E+01 0.22412105504E+01 0.26043122636E+01 0.29365410692E+01 0.32058862280E+01
 0.33907549197E+01 0.34844660337E+01 0.34973124278E+01 0.34534073497E+01 0.33792649454E+01
 0.32996554586E+01 0.32352223281E+01 0.31997104446E+01 0.31997102275E+01 0.32352221261E+01
 0.32996558238E+01 0.33792655215E+01 0.34534074153E+01 0.34973120184E+01 0.34844656065E+01
 0.33907541244E+01 0.32058843152E+01 0.29365388348E+01 0.26043123553E+01 0.22412146921E+01
 0.18848908320E+01 0.10296010473E+01 0.82536185775E+00 0.75458092065E+00 0.82536382892E+00
 0.10296035648E+01 0.13440974991E+01 0.17338716024E+01 0.21572172304E+01 0.25711938204E+01
 0.29365382285E+01 0.32221465494E+01 0.34097731764E+01 0.34981397977E+01 0.35038439290E+01
 0.34557969256E+01 0.33824852773E+01 0.33098113465E+01 0.32580383710E+01 0.32394366032E+01
 0.32580384017E+01 0.33098114773E+01 0.33824854888E+01 0.34557970511E+01 0.35038438101E+01
 0.34981394643E+01 0.34097728572E+01 0.32221465656E+01 0.29365388348E+01 0.25711949753E+01
 0.21572183570E+01 0.17338717294E+01 0.13440960283E+01 0.53431373896E+00 0.38037287091E+00
 0.38037477911E+00 0.53431759180E+00 0.82536382892E+00 0.12217933618E+01 0.16813270805E+01
 0.21572210000E+01 0.26043131713E+01 0.29838507979E+01 0.32677423523E+01 0.34430612505E+01
 0.35154538424E+01 0.35083999046E+01 0.34542383084E+01 0.33824623744E+01 0.33190271853E+01
 0.32825794214E+01 0.32825784956E+01 0.33190259298E+01 0.33824628346E+01 0.34542396905E+01
 0.35083999994E+01 0.35154528848E+01 0.34430617496E+01 0.32677449685E+01 0.29838528725E+01
 0.26043123553E+01 0.21572183570E+01 0.16813249939E+01 0.12217918077E+01 0.82536100761E+00
 0.13879731162E+00 0.55355472974E-01 0.13878927067E+00 0.38037477911E+00 0.75458092065E+00
 0.12217938610E+01 0.17338758562E+01 0.22412177255E+01 0.26988199473E+01 0.30706571651E+01
 0.33336921503E+01 0.34821311824E+01 0.35296725240E+01 0.35063579377E+01 0.34457259037E+01
 0.33774618085E+01 0.33260979941E+01 0.33072215568E+01 0.33260983053E+01 0.33774617982E+01
 0.34457253914E+01 0.35063577029E+01 0.35296733520E+01 0.34821327662E+01 0.33336934188E+01
 0.30706573543E+01 0.26988187017E+01 0.22412146921E+01 0.17338717294E+01 0.12217918077E+01
 0.75458474329E+00 0.38038396670E+00 -.11587071766E+00 -.11588018766E+00 0.55355472974E-01
 0.38037287091E+00 0.82536185775E+00 0.13440999504E+01 0.18848912590E+01 0.23979795333E+01
 0.28409680127E+01 0.31826225038E+01 0.34068657638E+01 0.35165695186E+01 0.35339391040E+01
 0.34936294893E+01 0.34283265350E+01 0.33667842340E+01 0.33304404516E+01 0.33304426092E+01
 0.33667870552E+01 0.34283251481E+01 0.34936260444E+01 0.35339394856E+01 0.35165736844E+01
 0.34068675454E+01 0.31826193620E+01 0.28409646935E+01 0.23979795210E+01 0.18848908320E+01
 0.13440960283E+01 0.82536100761E+00 0.38038396670E+00 0.55374167054E-01 -.11587071766E+00
 0.55374167054E-01 0.38038396670E+00 0.82536100761E+00 0.13440960283E+01 0.18848908320E+01
 0.23979795210E+01 0.28409646935E+01 0.31826193620E+01 0.34068675454E+01 0.35165736844E+01
 0.35339394856E+01 0.34936260444E+01 0.34283251481E+01 0.33667870552E+01 0.33304426092E+01
 0.33304404516E+01 0.33667842340E+01 0.34283265350E+01 0.34936294893E+01 0.35339391040E+01
 0.35165695186E+01 0.34068657638E+01 0.31826225038E+01 0.28409680127E+01 0.23979795333E+01
 0.18848912590E+01 0.13440999504E+01 0.82536185775E+00 0.38037287091E+00 0.55355472974E-01
 -.11588018766E+00 0.55374167054E-01 0.30246245029E+00 0.68519655784E+00 0.11630847919E+01
 0.16869805948E+01 0.22063851913E+01 0.26756629766E+01 0.30583257868E+01 0.33308774834E+01
 0.34870281485E+01 0.35401005523E+01 0.35201505031E+01 0.34613298002E+01 0.33937987643E+01
 0.33426000124E+01 0.33237268901E+01 0.33425992390E+01 0.33937988921E+01 0.34613309824E+01
 0.35201506969E+01 0.35400989100E+01 0.34870267737E+01 0.33308782326E+01 0.30583275377E+01
 0.26756645675E+01 0.22063887449E+01 0.16869872656E+01 0.11630879216E+01 0.68518566110E+00
 0.30243780584E+00 0.55352630254E-01 -.29970788279E-01 0.38038396670E+00 0.68519655784E+00
 0.11003613760E+01 0.15817058279E+01 0.20806661752E+01 0.25506641434E+01 0.29519070268E+01
 0.32553657477E+01 0.34471164380E+01 0.35319291906E+01 0.35329300079E+01 0.34833417732E+01
 0.34136711599E+01 0.33508346074E+01 0.33144102043E+01 0.33144111973E+01 0.33508361057E+01
 0.34136710206E+01 0.34833404573E+01 0.35329296756E+01 0.35319301597E+01 0.34471166493E+01
 0.32553642043E+01 0.29519060275E+01 0.25506667402E+01 0.20806718768E+01 0.15817099247E+01
 0.11003590440E+01 0.68518762330E+00 0.38037377958E+00 0.21914728620E+00 0.21915173716E+00
 0.82536100761E+00 0.11630847919E+01 0.15817058279E+01 0.20368872758E+01 0.24834518699E+01
 0.28804132915E+01 0.31951851454E+01 0.34080088763E+01 0.35161864852E+01 0.35354849949E+01
 0.34954506531E+01 0.34262001798E+01 0.33548989435E+01 0.33032264478E+01 0.32845262748E+01
 0.33032261140E+01 0.33548988969E+01 0.34262006227E+01 0.34954509741E+01 0.35354846825E+01
 0.35161859007E+01 0.34080086118E+01 0.31951849658E+01 0.28804124279E+01 0.24834504432E+01
 0.20368868213E+01 0.15817079203E+01 0.11630893659E+01 0.82536616972E+00 0.60600715294E+00
 0.52997464611E+00 0.60600380990E+00 0.13440960283E+01 0.16869805948E+01 0.20806661752E+01
 0.24834518699E+01 0.28552489380E+01 0.31619301372E+01 0.33798326129E+01 0.35003172415E+01
 0.35323406268E+01 0.35001936876E+01 0.34324061950E+01 0.33552335772E+01 0.32910876420E+01
 0.32552733381E+01 0.32552728437E+01 0.32910869451E+01 0.33552336922E+01 0.34324066246E+01
 0.35001933388E+01 0.35323398885E+01 0.35003176122E+01 0.33798341343E+01 0.31619306682E+01
 0.28552467774E+01 0.24834482424E+01 0.20806642231E+01 0.16869821306E+01 0.13440999949E+01
 0.10903860239E+01 0.95545298208E+00 0.95545147632E+00 0.10903822303E+01 0.18848908320E+01
 0.22063851913E+01 0.25506641434E+01 0.28804132915E+01 0.31619301372E+01 0.33696077959E+01
 0.34905998500E+01 0.35281095595E+01 0.35007993247E+01 0.34342809204E+01 0.33530671729E+01
 0.32792169044E+01 0.32288217122E+01 0.32110562262E+01 0.32288220635E+01 0.32792168298E+01
 0.33530664440E+01 0.34342802912E+01 0.35007993523E+01 0.35281098644E+01 0.34906001554E+01
 0.33696088418E+01 0.31619323475E+01 0.28804149798E+01 0.25506626169E+01 0.22063801317E+01
 0.18848852131E+01 0.16227816074E+01 0.14513077961E+01 0.13916450915E+01 0.14513085356E+01
 0.16227847743E+01 0.23979795210E+01 0.26756629766E+01 0.29519070268E+01 0.31951851454E+01
 0.33798326129E+01 0.34905998500E+01 0.35262713635E+01 0.35002252957E+01 0.34341511519E+01
 0.33501364563E+01 0.32691090499E+01 0.32070924015E+01 0.31738960220E+01 0.31738958483E+01
 0.32070922437E+01 0.32691094049E+01 0.33501370409E+01 0.34341510084E+01 0.35002239624E+01
 0.35262697202E+01 0.34905995609E+01 0.33798346115E+01 0.31951885761E+01 0.29519097142E+01
 0.26756629921E+01 0.23979765651E+01 0.21518988502E+01 0.19678334038E+01 0.18693356226E+01
 0.18693371013E+01 0.19678372307E+01 0.21519033243E+01 0.28409646935E+01 0.30583257868E+01
 0.32553657477E+01 0.34080088763E+01 0.35003172415E+01 0.35281095595E+01 0.35002252957E+01
 0.34338741881E+01 0.33481467112E+01 0.32622740747E+01 0.31916559639E+01 0.31461001651E+01
 0.31304557565E+01 0.31461001381E+01 0.31916564987E+01 0.32622751128E+01 0.33481472437E+01
 0.34338735186E+01 0.35002238223E+01 0.35281079410E+01 0.35003156228E+01 0.34080077880E+01
 0.32553668167E+01 0.30583301111E+01 0.28409704888E+01 0.26312306989E+01 0.24568404335E+01
 0.23414588193E+01 0.23011056383E+01 0.23414608838E+01 0.24568409892E+01 0.26312272287E+01
 0.31826193620E+01 0.33308774834E+01 0.34471164380E+01 0.35161864852E+01 0.35323406268E+01
 0.35007993247E+01 0.34341511519E+01 0.33481467112E+01 0.32598551029E+01 0.31836431155E+01
 0.31290123353E+01 0.31008158701E+01 0.31008161688E+01 0.31290126663E+01 0.31836428253E+01
 0.32598548177E+01 0.33481475373E+01 0.34341526924E+01 0.35007995646E+01 0.35323382917E+01
 0.35161827696E+01 0.34471139664E+01 0.33308778711E+01 0.31826222805E+01 0.30235346335E+01
 0.28769987865E+01 0.27648881700E+01 0.27041807776E+01 0.27041795197E+01 0.27648848703E+01
 0.28769944961E+01 0.30235304334E+01 0.34068675454E+01 0.34870281485E+01 0.35319291906E+01
 0.35354849949E+01 0.35001936876E+01 0.34342809204E+01 0.33501364563E+01 0.32622740747E+01
 0.31836431155E+01 0.31232604716E+01 0.30858939524E+01 0.30733176864E+01 0.30858929638E+01
 0.31232592359E+01 0.31836425567E+01 0.32622746181E+01 0.33501377953E+01 0.34342824493E+01
 0.35001948778E+01 0.35354852572E+01 0.35319276114E+01 0.34870242296E+01 0.34068626223E+01
 0.33046857248E+01 0.31979572119E+01 0.31050319632E+01 0.30419407026E+01 0.30196144812E+01
 0.30419358599E+01 0.31050264162E+01 0.31979553583E+01 0.33046885271E+01 0.35165736844E+01
 0.35401005523E+01 0.35329300079E+01 0.34954506531E+01 0.34324061950E+01 0.33530671729E+01
 0.32691090499E+01 0.31916559639E+01 0.31290123353E+01 0.30858939524E+01 0.30641419479E+01
 0.30641416104E+01 0.30858933422E+01 0.31290119745E+01 0.31916556270E+01 0.32691084309E+01
 0.33530670125E+01 0.34324077356E+01 0.34954535786E+01 0.35329318698E+01 0.35400990720E+01
 0.35165693174E+01 0.34678506504E+01 0.34046197018E+01 0.33402960214E+01 0.32882748196E+01
 0.32592852970E+01 0.32592840947E+01 0.32882721814E+01 0.33402943091E+01 0.34046210192E+01
 0.34678548637E+01 0.35339394856E+01 0.35201505031E+01 0.34833417732E+01 0.34262001798E+01
 0.33552335772E+01 0.32792169044E+01 0.32070924015E+01 0.31461001651E+01 0.31008158701E+01
 0.30733176864E+01 0.30641416104E+01 0.30733191306E+01 0.31008170656E+01 0.31460998452E+01
 0.32070910452E+01 0.32792157256E+01 0.33552330201E+01 0.34262000889E+01 0.34833424523E+01
 0.35201524752E+01 0.35339422860E+01 0.35259670049E+01 0.35007990475E+01 0.34663836449E+01
 0.34323019801E+01 0.34075616245E+01 0.33985470262E+01 0.34075626477E+01 0.34323038358E+01
 0.34663853448E+01 0.35007991304E+01 0.35259650176E+01 0.34936260444E+01 0.34613298002E+01
 0.34136711599E+01 0.33548989435E+01 0.32910876420E+01 0.32288217122E+01 0.31738960220E+01
 0.31304557565E+01 0.31008161688E+01 0.30858929638E+01 0.30858933422E+01 0.31008170656E+01
 0.31304567046E+01 0.31738966404E+01 0.32288215754E+01 0.32910863273E+01 0.33548967451E+01
 0.34136696035E+01 0.34613307051E+01 0.34936296213E+01 0.35090645329E+01 0.35091733625E+01
 0.34980517274E+01 0.34813471109E+01 0.34654432932E+01 0.34558867435E+01 0.34558878028E+01
 0.34654459448E+01 0.34813498196E+01 0.34980524818E+01 0.35091710954E+01 0.35090603030E+01
 0.34283251481E+01 0.33937987643E+01 0.33508346074E+01 0.33032264478E+01 0.32552733381E+01
 0.32110562262E+01 0.31738958483E+01 0.31461001381E+01 0.31290126663E+01 0.31232592359E+01
 0.31290119745E+01 0.31460998452E+01 0.31738966404E+01 0.32110574971E+01 0.32552740405E+01
 0.33032263054E+01 0.33508339946E+01 0.33937978020E+01 0.34283237978E+01 0.34518654517E+01
 0.34636983280E+01 0.34651542437E+01 0.34593907917E+01 0.34506741538E+01 0.34433039053E+01
 0.34404575571E+01 0.34433050392E+01 0.34506747826E+01 0.34593899914E+01 0.34651530560E+01
 0.34636982452E+01 0.34518665774E+01 0.33667870552E+01 0.33426000124E+01 0.33144102043E+01
 0.32845262748E+01 0.32552728437E+01 0.32288220635E+01 0.32070922437E+01 0.31916564987E+01
 0.31836428253E+01 0.31836425567E+01 0.31916556270E+01 0.32070910452E+01 0.32288215754E+01
 0.32552740405E+01 0.32845286979E+01 0.33144119375E+01 0.33425993269E+01 0.33667839767E+01
 0.33849692849E+01 0.33958843627E+01 0.33994106970E+01 0.33968187957E+01 0.33906208976E+01
 0.33839762386E+01 0.33797863131E+01 0.33797857524E+01 0.33839746250E+01 0.33906186631E+01
 0.33968170132E+01 0.33994106782E+01 0.33958866715E+01 0.33849730052E+01 0.33304426092E+01
 0.33237268901E+01 0.33144111973E+01 0.33032261140E+01 0.32910869451E+01 0.32792168298E+01
 0.32691094049E+01 0.32622751128E+01 0.32598548177E+01 0.32622746181E+01 0.32691084309E+01
 0.32792157256E+01 0.32910863273E+01 0.33032263054E+01 0.33144119375E+01 0.33237277070E+01
 0.33304432596E+01 0.33338924501E+01 0.33335202308E+01 0.33291433064E+01 0.33212968688E+01
 0.33114294799E+01 0.33017446972E+01 0.32946595558E+01 0.32920594767E+01 0.32946576939E+01
 0.33017427021E+01 0.33114289213E+01 0.33212976815E+01 0.33291443101E+01 0.33335205704E+01
 0.33338921367E+01 0.33304404516E+01 0.33425992390E+01 0.33508361057E+01 0.33548988969E+01
 0.33552336922E+01 0.33530664440E+01 0.33501370409E+01 0.33481472437E+01 0.33481475373E+01
 0.33501377953E+01 0.33530670125E+01 0.33552330201E+01 0.33548967451E+01 0.33508339946E+01
 0.33425993269E+01 0.33304432596E+01 0.33150124105E+01 0.32970637221E+01 0.32773784853E+01
 0.32569002766E+01 0.32369495498E+01 0.32192986677E+01 0.32059667043E+01 0.31987624796E+01
 0.31987625777E+01 0.32059671284E+01 0.32192996840E+01 0.32369511532E+01 0.32569017419E+01
 0.32773784778E+01 0.32970613998E+01 0.33150086671E+01 0.33667842340E+01 0.33937988921E+01
 0.34136710206E+01 0.34262006227E+01 0.34324066246E+01 0.34342802912E+01 0.34341510084E+01
 0.34338735186E+01 0.34341526924E+01 0.34342824493E+01 0.34324077356E+01 0.34262000889E+01
 0.34136696035E+01 0.33937978020E+01 0.33667839767E+01 0.33338924501E+01 0.32970637221E+01
 0.32585164822E+01 0.32204993033E+01 0.31852106831E+01 0.31547902794E+01 0.31312582925E+01
 0.31163425578E+01 0.31112297032E+01 0.31163442237E+01 0.31312605890E+01 0.31547918521E+01
 0.31852108774E+01 0.32204985362E+01 0.32585155843E+01 0.32970630931E+01 0.33338921367E+01
 0.34283265350E+01 0.34613309824E+01 0.34833404573E+01 0.34954509741E+01 0.35001933388E+01
 0.35007993523E+01 0.35002239624E+01 0.35002238223E+01 0.35007995646E+01 0.35001948778E+01
 0.34954535786E+01 0.34833424523E+01 0.34613307051E+01 0.34283237978E+01 0.33849692849E+01
 0.33335202308E+01 0.32773784853E+01 0.32204993033E+01 0.31668226931E+01 0.31198393372E+01
 0.30823350881E+01 0.30563060638E+01 0.30429979521E+01 0.30429982570E+01 0.30563067243E+01
 0.30823354032E+01 0.31198385998E+01 0.31668209973E+01 0.32204978873E+01 0.32773788737E+01