   1   1   0   0
  0.1660753E+02  0.2863783E-09  0.2863783E-09  0.2863783E-09  0.5000000E-15
  1.000000000000000E-004
  CAR 
 fcc Al                                  
     25.64657315     -5.18163499  301      7.11595493      1.00000000
     -5.182  0.0000E+00  0.0000E+00
     -5.079  0.0000E+00  0.0000E+00
     -4.976  0.0000E+00  0.0000E+00
     -4.873 -0.9819E-31 -0.1009E-31
     -4.771 -0.4805E-27 -0.4939E-28
     -4.668 -0.1232E-23 -0.1267E-24
     -4.565 -0.1858E-20 -0.1911E-21
     -4.462 -0.1647E-17 -0.1695E-18
     -4.360 -0.8307E-15 -0.8553E-16
     -4.257 -0.2533E-12 -0.2611E-13
     -4.154 -0.4501E-10 -0.4651E-11
     -4.051 -0.4666E-08 -0.4841E-09
     -3.949 -0.2808E-06 -0.2934E-07
     -3.846 -0.9737E-05 -0.1030E-05
     -3.743 -0.1920E-03 -0.2076E-04
     -3.640 -0.2095E-02 -0.2360E-03
     -3.537 -0.1185E-01 -0.1453E-02
     -3.435 -0.2718E-01 -0.4246E-02
     -3.332  0.2622E-01 -0.1552E-02
     -3.229  0.2632E+00  0.2549E-01
     -3.126  0.5522E+00  0.8224E-01
     -3.024  0.5919E+00  0.1431E+00
     -2.921  0.4246E+00  0.1867E+00
     -2.818  0.2908E+00  0.2166E+00
     -2.715  0.2409E+00  0.2413E+00
     -2.613  0.2160E+00  0.2635E+00
     -2.510  0.1997E+00  0.2840E+00
     -2.407  0.1888E+00  0.3034E+00
     -2.304  0.1737E+00  0.3213E+00
     -2.202  0.1614E+00  0.3379E+00
     -2.099  0.1557E+00  0.3539E+00
     -1.996  0.1577E+00  0.3701E+00
     -1.893  0.1416E+00  0.3846E+00
     -1.791  0.1213E+00  0.3971E+00
     -1.688  0.1396E+00  0.4114E+00
     -1.585  0.1489E+00  0.4267E+00
     -1.482  0.1123E+00  0.4383E+00
     -1.379  0.9841E-01  0.4484E+00
     -1.277  0.1267E+00  0.4614E+00
     -1.174  0.1356E+00  0.4753E+00
     -1.071  0.1075E+00  0.4864E+00
     -0.968  0.9348E-01  0.4960E+00
     -0.866  0.1022E+00  0.5065E+00
     -0.763  0.1051E+00  0.5173E+00
     -0.660  0.1113E+00  0.5288E+00
     -0.557  0.1104E+00  0.5401E+00
     -0.455  0.9754E-01  0.5501E+00
     -0.352  0.7949E-01  0.5583E+00
     -0.249  0.7373E-01  0.5659E+00
     -0.146  0.1052E+00  0.5767E+00
     -0.044  0.1269E+00  0.5897E+00
      0.059  0.9463E-01  0.5994E+00
      0.162  0.5893E-01  0.6055E+00
      0.265  0.6140E-01  0.6118E+00
      0.367  0.9220E-01  0.6213E+00
      0.470  0.1201E+00  0.6336E+00
      0.573  0.1025E+00  0.6441E+00
      0.676  0.5661E-01  0.6500E+00
      0.778  0.4725E-01  0.6548E+00
      0.881  0.8599E-01  0.6637E+00
      0.984  0.1170E+00  0.6757E+00
      1.087  0.9527E-01  0.6855E+00
      1.190  0.5656E-01  0.6913E+00
      1.292  0.4430E-01  0.6958E+00
      1.395  0.5692E-01  0.7017E+00
      1.498  0.1013E+00  0.7121E+00
      1.601  0.1317E+00  0.7256E+00
      1.703  0.9086E-01  0.7350E+00
      1.806  0.2726E-01  0.7378E+00
      1.909  0.1546E-01  0.7393E+00
      2.012  0.5417E-01  0.7449E+00
      2.114  0.1000E+00  0.7552E+00
      2.217  0.1265E+00  0.7682E+00
      2.320  0.1147E+00  0.7800E+00
      2.423  0.6224E-01  0.7864E+00
      2.525  0.1041E-01  0.7874E+00
      2.628  0.7853E-02  0.7882E+00
      2.731  0.5721E-01  0.7941E+00
      2.834  0.1016E+00  0.8046E+00
      2.936  0.1058E+00  0.8154E+00
      3.039  0.9031E-01  0.8247E+00
      3.142  0.5753E-01  0.8306E+00
      3.245  0.1014E+00  0.8411E+00
      3.348  0.3445E+00  0.8765E+00
      3.450  0.6677E+00  0.9451E+00
      3.553  0.8513E+00  0.1033E+01
      3.656  0.8181E+00  0.1117E+01
      3.759  0.6702E+00  0.1185E+01
      3.861  0.5368E+00  0.1241E+01
      3.964  0.4317E+00  0.1285E+01
      4.067  0.3674E+00  0.1323E+01
      4.170  0.3442E+00  0.1358E+01
      4.272  0.3106E+00  0.1390E+01
      4.375  0.2760E+00  0.1418E+01
      4.478  0.2954E+00  0.1449E+01
      4.581  0.3419E+00  0.1484E+01
      4.683  0.3409E+00  0.1519E+01
      4.786  0.3140E+00  0.1551E+01
      4.889  0.3565E+00  0.1588E+01
      4.992  0.4914E+00  0.1638E+01
      5.094  0.5490E+00  0.1695E+01
      5.197  0.4608E+00  0.1742E+01
      5.300  0.3706E+00  0.1780E+01
      5.403  0.3316E+00  0.1814E+01
      5.505  0.3707E+00  0.1852E+01
      5.608  0.4238E+00  0.1896E+01
      5.711  0.3724E+00  0.1934E+01
      5.814  0.3037E+00  0.1965E+01
      5.917  0.3812E+00  0.2005E+01
      6.019  0.5964E+00  0.2066E+01
      6.122  0.7184E+00  0.2140E+01
      6.225  0.7080E+00  0.2212E+01
      6.328  0.7729E+00  0.2292E+01
      6.430  0.8926E+00  0.2384E+01
      6.533  0.9797E+00  0.2484E+01
      6.636  0.1015E+01  0.2589E+01
      6.739  0.9321E+00  0.2684E+01
      6.841  0.8040E+00  0.2767E+01
      6.944  0.7941E+00  0.2849E+01
      7.047  0.8899E+00  0.2940E+01
      7.150  0.8341E+00  0.3026E+01
      7.252  0.5580E+00  0.3083E+01
      7.355  0.3588E+00  0.3120E+01
      7.458  0.4490E+00  0.3166E+01
      7.561  0.6656E+00  0.3234E+01
      7.663  0.7267E+00  0.3309E+01
      7.766  0.6266E+00  0.3374E+01
      7.869  0.5050E+00  0.3425E+01
      7.972  0.5098E+00  0.3478E+01
      8.074  0.6552E+00  0.3545E+01
      8.177  0.6835E+00  0.3615E+01
      8.280  0.4940E+00  0.3666E+01
      8.383  0.2843E+00  0.3695E+01
      8.486  0.1661E+00  0.3712E+01
      8.588  0.1581E+00  0.3729E+01
      8.691  0.2121E+00  0.3750E+01
      8.794  0.2849E+00  0.3780E+01
      8.897  0.4440E+00  0.3825E+01
      8.999  0.5796E+00  0.3885E+01
      9.102  0.5450E+00  0.3941E+01
      9.205  0.4542E+00  0.3988E+01
      9.308  0.3939E+00  0.4028E+01
      9.410  0.3340E+00  0.4062E+01
      9.513  0.3016E+00  0.4093E+01
      9.616  0.3343E+00  0.4128E+01
      9.719  0.3916E+00  0.4168E+01
      9.821  0.4273E+00  0.4212E+01
      9.924  0.3659E+00  0.4249E+01
     10.027  0.2479E+00  0.4275E+01
     10.130  0.2450E+00  0.4300E+01
     10.232  0.3181E+00  0.4333E+01
     10.335  0.3386E+00  0.4368E+01
     10.438  0.3136E+00  0.4400E+01
     10.541  0.2688E+00  0.4427E+01
     10.644  0.2589E+00  0.4454E+01
     10.746  0.3195E+00  0.4487E+01
     10.849  0.3415E+00  0.4522E+01
     10.952  0.2859E+00  0.4551E+01
     11.055  0.2719E+00  0.4579E+01
     11.157  0.3228E+00  0.4612E+01
     11.260  0.3413E+00  0.4648E+01
     11.363  0.2853E+00  0.4677E+01
     11.466  0.2006E+00  0.4697E+01
     11.568  0.1575E+00  0.4714E+01
     11.671  0.1804E+00  0.4732E+01
     11.774  0.2934E+00  0.4762E+01
     11.877  0.4351E+00  0.4807E+01
     11.979  0.4359E+00  0.4852E+01
     12.082  0.3046E+00  0.4883E+01
     12.185  0.1940E+00  0.4903E+01
     12.288  0.1583E+00  0.4919E+01
     12.390  0.1929E+00  0.4939E+01
     12.493  0.2588E+00  0.4966E+01
     12.596  0.2666E+00  0.4993E+01
     12.699  0.2456E+00  0.5018E+01
     12.801  0.2855E+00  0.5048E+01
     12.904  0.3339E+00  0.5082E+01
     13.007  0.3509E+00  0.5118E+01
     13.110  0.3790E+00  0.5157E+01
     13.213  0.4135E+00  0.5200E+01
     13.315  0.4604E+00  0.5247E+01
     13.418  0.5753E+00  0.5306E+01
     13.521  0.6471E+00  0.5373E+01
     13.624  0.5677E+00  0.5431E+01
     13.726  0.5029E+00  0.5483E+01
     13.829  0.5171E+00  0.5536E+01
     13.932  0.4615E+00  0.5583E+01
     14.035  0.3499E+00  0.5619E+01
     14.137  0.3316E+00  0.5653E+01
     14.240  0.4074E+00  0.5695E+01
     14.343  0.4464E+00  0.5741E+01
     14.446  0.4248E+00  0.5784E+01
     14.548  0.4080E+00  0.5826E+01
     14.651  0.4291E+00  0.5871E+01
     14.754  0.4714E+00  0.5919E+01
     14.857  0.4589E+00  0.5966E+01
     14.959  0.3899E+00  0.6006E+01
     15.062  0.3697E+00  0.6044E+01
     15.165  0.3964E+00  0.6085E+01
     15.268  0.3420E+00  0.6120E+01
     15.371  0.2345E+00  0.6144E+01
     15.473  0.2559E+00  0.6170E+01
     15.576  0.3892E+00  0.6210E+01
     15.679  0.4084E+00  0.6252E+01
     15.782  0.3032E+00  0.6284E+01
     15.884  0.2986E+00  0.6314E+01
     15.987  0.4861E+00  0.6364E+01
     16.090  0.6541E+00  0.6431E+01
     16.193  0.5644E+00  0.6489E+01
     16.295  0.3313E+00  0.6523E+01
     16.398  0.2411E+00  0.6548E+01
     16.501  0.3343E+00  0.6583E+01
     16.604  0.4649E+00  0.6630E+01
     16.706  0.5908E+00  0.6691E+01
     16.809  0.6172E+00  0.6755E+01
     16.912  0.4753E+00  0.6803E+01
     17.015  0.3599E+00  0.6840E+01
     17.117  0.3691E+00  0.6878E+01
     17.220  0.3647E+00  0.6916E+01
     17.323  0.3073E+00  0.6947E+01
     17.426  0.3147E+00  0.6980E+01
     17.528  0.4070E+00  0.7021E+01
     17.631  0.4650E+00  0.7069E+01
     17.734  0.4381E+00  0.7114E+01
     17.837  0.3772E+00  0.7153E+01
     17.940  0.3251E+00  0.7186E+01
     18.042  0.3571E+00  0.7223E+01
     18.145  0.4249E+00  0.7267E+01
     18.248  0.3918E+00  0.7307E+01
     18.351  0.3514E+00  0.7343E+01
     18.453  0.4455E+00  0.7389E+01
     18.556  0.6389E+00  0.7455E+01
     18.659  0.8526E+00  0.7542E+01
     18.762  0.9915E+00  0.7644E+01
     18.864  0.9687E+00  0.7744E+01
     18.967  0.7948E+00  0.7825E+01
     19.070  0.6824E+00  0.7895E+01
     19.173  0.7543E+00  0.7973E+01
     19.275  0.8133E+00  0.8057E+01
     19.378  0.7387E+00  0.8132E+01
     19.481  0.6043E+00  0.8195E+01
     19.584  0.5062E+00  0.8247E+01
     19.686  0.5057E+00  0.8299E+01
     19.789  0.6052E+00  0.8361E+01
     19.892  0.7453E+00  0.8437E+01
     19.995  0.8002E+00  0.8520E+01
     20.097  0.7350E+00  0.8595E+01
     20.200  0.6526E+00  0.8662E+01
     20.303  0.6855E+00  0.8733E+01
     20.406  0.9302E+00  0.8828E+01
     20.509  0.1111E+01  0.8942E+01
     20.611  0.9013E+00  0.9035E+01
     20.714  0.5487E+00  0.9091E+01
     20.817  0.3217E+00  0.9124E+01
     20.920  0.2214E+00  0.9147E+01
     21.022  0.2673E+00  0.9175E+01
     21.125  0.3670E+00  0.9212E+01
     21.228  0.3420E+00  0.9248E+01
     21.331  0.2699E+00  0.9275E+01
     21.433  0.3037E+00  0.9306E+01
     21.536  0.3391E+00  0.9341E+01
     21.639  0.3287E+00  0.9375E+01
     21.742  0.4361E+00  0.9420E+01
     21.844  0.6805E+00  0.9490E+01
     21.947  0.7905E+00  0.9571E+01
     22.050  0.6253E+00  0.9635E+01
     22.153  0.4419E+00  0.9681E+01
     22.255  0.3997E+00  0.9722E+01
     22.358  0.3978E+00  0.9763E+01
     22.461  0.3971E+00  0.9803E+01
     22.564  0.3469E+00  0.9839E+01
     22.667  0.2033E+00  0.9860E+01
     22.769  0.9090E-01  0.9869E+01
     22.872  0.9453E-01  0.9879E+01
     22.975  0.1432E+00  0.9894E+01
     23.078  0.1577E+00  0.9910E+01
     23.180  0.1233E+00  0.9923E+01
     23.283  0.7870E-01  0.9931E+01
     23.386  0.5842E-01  0.9937E+01
     23.489  0.8743E-01  0.9946E+01
     23.591  0.1734E+00  0.9964E+01
     23.694  0.2165E+00  0.9986E+01
     23.797  0.1318E+00  0.9999E+01
     23.900  0.2413E-01  0.1000E+02
     24.002 -0.1049E-01  0.1000E+02
     24.105 -0.5942E-02  0.1000E+02
     24.208 -0.1162E-02  0.1000E+02
     24.311 -0.1134E-03  0.1000E+02
     24.413 -0.6014E-05  0.1000E+02
     24.516 -0.1794E-06  0.1000E+02
     24.619 -0.3062E-08  0.1000E+02
     24.722 -0.3016E-10  0.1000E+02
     24.824 -0.1725E-12  0.1000E+02
     24.927 -0.5672E-15  0.1000E+02
     25.030  0.0000E+00  0.1000E+02
     25.133  0.0000E+00  0.1000E+02
     25.236  0.0000E+00  0.1000E+02
     25.338  0.0000E+00  0.1000E+02
     25.441  0.0000E+00  0.1000E+02
     25.544  0.0000E+00  0.1000E+02
     25.647  0.0000E+00  0.1000E+02
