    1    1    1    1
  0.1660753E+02  0.2863782E-09  0.2863782E-09  0.2863782E-09  0.5000000E-15
  1.000000000000000E-004
  CAR 
 fcc Al                                  
      3    160      5
 
  0.5000000E+00  0.5000000E+00  0.5000000E+00  0.6250000E-02
    1        3.348165   1.000000
    2        3.516711   1.000000
    3       19.186336   0.000000
    4       19.186351   0.000000
    5       19.330762   0.000000
 
  0.4934211E+00  0.4934211E+00  0.5131579E+00  0.6250000E-02
    1        3.356830   1.000000
    2        3.525876   1.000000
    3       18.761978   0.000000
    4       18.850711   0.000000
    5       19.568514   0.000000
 
  0.4868421E+00  0.4868421E+00  0.5263158E+00  0.6250000E-02
    1        3.382824   1.000000
    2        3.553383   1.000000
    3       18.153555   0.000000
    4       18.468636   0.000000
    5       19.657043   0.000000
 
  0.4802632E+00  0.4802632E+00  0.5394737E+00  0.6250000E-02
    1        3.426145   1.000000
    2        3.599190   1.000000
    3       17.476701   0.000000
    4       18.100790   0.000000
    5       19.576506   0.000000
 
  0.4736842E+00  0.4736842E+00  0.5526316E+00  0.6250000E-02
    1        3.486787   1.000000
    2        3.663242   1.000000
    3       16.766575   0.000000
    4       17.748732   0.000000
    5       19.393034   0.000000
 
  0.4671053E+00  0.4671053E+00  0.5657895E+00  0.6250000E-02
    1        3.564739   1.000000
    2        3.745454   1.000000
    3       16.042353   0.000000
    4       17.412784   0.000000
    5       19.154545   0.000000
 
  0.4605263E+00  0.4605263E+00  0.5789474E+00  0.6250000E-02
    1        3.659987   1.000000
    2        3.845709   1.000000
    3       15.314953   0.000000
    4       17.093022   0.000000
    5       18.889832   0.000000
 
  0.4539474E+00  0.4539474E+00  0.5921053E+00  0.6250000E-02
    1        3.772508   1.000000
    2        3.963863   1.000000
    3       14.590854   0.000000
    4       16.789490   0.000000
    5       18.615040   0.000000
 
  0.4473684E+00  0.4473684E+00  0.6052632E+00  0.6250000E-02
    1        3.902262   1.000000
    2        4.099718   1.000000
    3       13.874141   0.000000
    4       16.502190   0.000000
    5       18.339505   0.000000
 
  0.4407895E+00  0.4407895E+00  0.6184211E+00  0.6250000E-02
    1        4.049206   1.000000
    2        4.253056   1.000000
    3       13.167573   0.000000
    4       16.231132   0.000000
    5       18.068896   0.000000
 
  0.4342105E+00  0.4342105E+00  0.6315789E+00  0.6250000E-02
    1        4.213264   1.000000
    2        4.423543   1.000000
    3       12.473187  -0.000000
    4       15.976278   0.000000
    5       17.806806   0.000000
 
  0.4276316E+00  0.4276316E+00  0.6447368E+00  0.6250000E-02
    1        4.394315   1.000000
    2        4.610756   1.000000
    3       11.792628  -0.000000
    4       15.737615   0.000000
    5       17.555628   0.000000
 
  0.4210526E+00  0.4210526E+00  0.6578947E+00  0.6250000E-02
    1        4.592158   1.000000
    2        4.814119   1.000000
    3       11.127427  -0.000000
    4       15.515138   0.000000
    5       17.317013   0.000000
 
  0.4144737E+00  0.4144737E+00  0.6710526E+00  0.6250000E-02
    1        4.806440   1.000000
    2        5.032774   1.000000
    3       10.479289  -0.000000
    4       15.308819   0.000000
    5       17.092148   0.000000
 
  0.4078947E+00  0.4078947E+00  0.6842105E+00  0.6250000E-02
    1        5.036478   1.000000
    2        5.265407   1.000000
    3        9.850586  -0.000000
    4       15.118641   0.000000
    5       16.881882   0.000000
 
  0.4013158E+00  0.4013158E+00  0.6973684E+00  0.6250000E-02
    1        5.280781   1.000000
    2        5.509863   1.000000
    3        9.245187  -0.000000
    4       14.944584   0.000000
    5       16.686843   0.000000
 
  0.3947368E+00  0.3947368E+00  0.7105263E+00  0.6250000E-02
    1        5.535520   1.000000
    2        5.762516   1.000000
    3        8.670668  -0.000000
    4       14.786626   0.000000
    5       16.507466   0.000000
 
  0.3881579E+00  0.3881579E+00  0.7236842E+00  0.6250000E-02
    1        5.788385   1.000000
    2        6.018129   1.000000
    3        8.144638  -0.000000
    4       14.644749   0.000000
    5       16.344115   0.000000
 
  0.3815789E+00  0.3815789E+00  0.7368421E+00  0.6250000E-02
    1        5.992625   1.000000
    2        6.276799   1.000000
    3        7.713733  -0.000099
    4       14.518931   0.000000
    5       16.196984   0.000000
 
  0.3750000E+00  0.3750000E+00  0.7500000E+00  0.6250000E-02
    1        6.020155   1.000000
    2        6.559112   1.000297
    3        7.485444  -0.012675
    4       14.409160   0.000000
    5       16.066167   0.000000
 
  0.3750000E+00  0.3750000E+00  0.7500000E+00  0.6250000E-02
    1        6.020155   1.000000
    2        6.559112   1.000297
    3        7.485444  -0.012675
    4       14.409160   0.000000
    5       16.066167   0.000000
 
  0.3815789E+00  0.3684211E+00  0.7500000E+00  0.6250000E-02
    1        6.023021   1.000000
    2        6.561809   1.000318
    3        7.488303  -0.012174
    4       14.308346   0.000000
    5       16.171663   0.000000
 
  0.3881579E+00  0.3618421E+00  0.7500000E+00  0.6250000E-02
    1        6.031619   1.000000
    2        6.569894   1.000389
    3        7.496884  -0.010746
    4       14.058597   0.000000
    5       16.435473   0.000000
 
  0.3947368E+00  0.3552632E+00  0.7500000E+00  0.6250000E-02
    1        6.045950   1.000000
    2        6.583340   1.000542
    3        7.511143  -0.008634
    4       13.736048   0.000000
    5       16.781429   0.000000
 
  0.4013158E+00  0.3486842E+00  0.7500000E+00  0.6250000E-02
    1        6.066012   1.000000
    2        6.602104   1.000845
    3        7.531038  -0.006218
    4       13.381735   0.000000
    5       17.168492   0.000000
 
  0.4078947E+00  0.3421053E+00  0.7500000E+00  0.6250000E-02
    1        6.091807   1.000000
    2        6.626121   1.001449
    3        7.556506  -0.003935
    4       13.013912   0.000000
    5       17.578417   0.000000
 
  0.4144737E+00  0.3355263E+00  0.7500000E+00  0.6250000E-02
    1        6.123336   1.000000
    2        6.655295   1.002664
    3        7.587453  -0.002137
    4       12.641155   0.000000
    5       18.002640   0.000000
 
  0.4210526E+00  0.3289474E+00  0.7500000E+00  0.6250000E-02
    1        6.160600   1.000000
    2        6.689496   1.005095
    3        7.623746  -0.000971
    4       12.267985  -0.000000
    5       18.436675   0.000000
 
  0.4276316E+00  0.3223684E+00  0.7500000E+00  0.6250000E-02
    1        6.203600   1.000000
    2        6.728540   1.009745
    3        7.665202  -0.000360
    4       11.897130  -0.000000
    5       18.877867   0.000000
 
  0.4342105E+00  0.3157895E+00  0.7500000E+00  0.6250000E-02
    1        6.252337   1.000000
    2        6.772165   1.017729
    3        7.711554  -0.000106
    4       11.530508  -0.000000
    5       19.324376   0.000000
 
  0.4407895E+00  0.3092105E+00  0.7500000E+00  0.6250000E-02
    1        6.306813   1.000000
    2        6.820002   1.028544
    3        7.762438  -0.000024
    4       11.169755  -0.000000
    5       19.774803   0.000000
 
  0.4473684E+00  0.3026316E+00  0.7500000E+00  0.6250000E-02
    1        6.367029   1.000001
    2        6.871500   1.035457
    3        7.817283  -0.000004
    4       10.816542  -0.000000
    5       20.227835   0.000000
 
  0.4539474E+00  0.2960526E+00  0.7500000E+00  0.6250000E-02
    1        6.432987   1.000008
    2        6.925839   1.019209
    3        7.875247  -0.000001
    4       10.472961  -0.000000
    5       20.682112   0.000000
 
  0.4605263E+00  0.2894737E+00  0.7500000E+00  0.6250000E-02
    1        6.504688   1.000068
    2        6.981732   0.949382
    3        7.934976  -0.000000
    4       10.141932  -0.000000
    5       21.136037   0.000000
 
  0.4671053E+00  0.2828947E+00  0.7500000E+00  0.6250000E-02
    1        6.582136   1.000526
    2        7.037091   0.806676
    3        7.994227  -0.000000
    4        9.828002  -0.000000
    5       21.587533   0.000000
 
  0.4736842E+00  0.2763158E+00  0.7500000E+00  0.6250000E-02
    1        6.665332   1.003247
    2        7.088380   0.615460
    3        8.049178  -0.000000
    4        9.538673  -0.000000
    5       22.033773   0.000000
 
  0.4802632E+00  0.2697368E+00  0.7500000E+00  0.6250000E-02
    1        6.754280   1.014112
    2        7.129423   0.443156
    3        8.093492  -0.000000
    4        9.286585  -0.000000
    5       22.470676   0.000000
 
  0.4868421E+00  0.2631579E+00  0.7500000E+00  0.6250000E-02
    1        6.848979   1.033856
    2        7.149441   0.360488
    3        8.118518  -0.000000
    4        9.091218  -0.000000
    5       22.892043   0.000000
 
  0.4934211E+00  0.2565789E+00  0.7500000E+00  0.6250000E-02
    1        6.949434   0.997925
    2        7.131377   0.434957
    3        8.120481  -0.000000
    4        8.973453  -0.000000
    5       23.288519   0.000000
 
  0.5000000E+00  0.2500000E+00  0.7500000E+00  0.6250000E-02
    1        7.055645   0.742783
    2        7.055646   0.742780
    3        8.114697  -0.000000
    4        8.937612  -0.000000
    5       23.643348   0.000000
 
  0.5000000E+00  0.2500000E+00  0.7500000E+00  0.6250000E-02
    1        7.055645   0.742783
    2        7.055646   0.742780
    3        8.114697  -0.000000
    4        8.937612  -0.000000
    5       23.646573   0.000000
 
  0.4736842E+00  0.2368421E+00  0.7105263E+00  0.6250000E-02
    1        6.426079   1.000006
    2        7.302580  -0.016723
    3        8.399543  -0.000000
    4        9.146962  -0.000000
    5       23.027482   0.000000
 
  0.4473684E+00  0.2236842E+00  0.6710526E+00  0.6250000E-02
    1        5.504770   1.000000
    2        7.607056  -0.001409
    3        8.874977  -0.000000
    4        9.622968  -0.000000
    5       22.463410   0.000000
 
  0.4210526E+00  0.2105263E+00  0.6315789E+00  0.6250000E-02
    1        4.567910   1.000000
    2        7.969122  -0.000000
    3        9.338543  -0.000000
    4       10.291280  -0.000000
    5       21.954936   0.000000
 
  0.3947368E+00  0.1973684E+00  0.5921053E+00  0.6250000E-02
    1        3.663445   1.000000
    2        8.388851  -0.000000
    3        9.808495  -0.000000
    4       11.084606  -0.000000
    5       21.499878   0.000000
 
  0.3684211E+00  0.1842105E+00  0.5526316E+00  0.6250000E-02
    1        2.804778   1.000000
    2        8.866292  -0.000000
    3       10.311301  -0.000000
    4       11.961398  -0.000000
    5       21.100151   0.000000
 
  0.3421053E+00  0.1710526E+00  0.5131579E+00  0.6250000E-02
    1        1.997431   1.000000
    2        9.401471  -0.000000
    3       10.857095  -0.000000
    4       12.903964   0.000000
    5       20.755314   0.000000
 
  0.3157895E+00  0.1578947E+00  0.4736842E+00  0.6250000E-02
    1        1.244231   1.000000
    2        9.994360  -0.000000
    3       11.448624  -0.000000
    4       13.904031   0.000000
    5       20.465449   0.000000
 
  0.2894737E+00  0.1447368E+00  0.4342105E+00  0.6250000E-02
    1        0.547037   1.000000
    2       10.644857  -0.000000
    3       12.085638  -0.000000
    4       14.956661   0.000000
    5       20.230360   0.000000
 
  0.2631579E+00  0.1315789E+00  0.3947368E+00  0.6250000E-02
    1       -0.092896   1.000000
    2       11.352767  -0.000000
    3       12.766462   0.000000
    4       16.058028   0.000000
    5       20.049684   0.000000
 
  0.2368421E+00  0.1184211E+00  0.3552632E+00  0.6250000E-02
    1       -0.674518   1.000000
    2       12.117745  -0.000000
    3       13.488472   0.000000
    4       17.204016   0.000000
    5       19.922747   0.000000
 
  0.2105263E+00  0.1052632E+00  0.3157895E+00  0.6250000E-02
    1       -1.197021   1.000000
    2       12.939175   0.000000
    3       14.248259   0.000000
    4       18.388663   0.000000
    5       19.848591   0.000000
 
  0.1842105E+00  0.9210526E-01  0.2763158E+00  0.6250000E-02
    1       -1.659679   1.000000
    2       13.815996   0.000000
    3       15.041547   0.000000
    4       19.599128   0.000000
    5       19.825639   0.000000
 
  0.1578947E+00  0.7894737E-01  0.2368421E+00  0.6250000E-02
    1       -2.061873   1.000000
    2       14.746523   0.000000
    3       15.863203   0.000000
    4       19.851419   0.000000
    5       20.777399   0.000000
 
  0.1315789E+00  0.6578947E-01  0.1973684E+00  0.6250000E-02
    1       -2.403095   1.000000
    2       15.727779   0.000000
    3       16.706859   0.000000
    4       19.921951   0.000000
    5       21.466546   0.000000
 
  0.1052632E+00  0.5263158E-01  0.1578947E+00  0.6250000E-02
    1       -2.682882   1.000000
    2       16.754384   0.000000
    3       17.564429   0.000000
    4       20.030518   0.000000
    5       21.626567   0.000000
 
  0.7894737E-01  0.3947368E-01  0.1184211E+00  0.6250000E-02
    1       -2.900884   1.000000
    2       17.815673   0.000000
    3       18.424792   0.000000
    4       20.165347   0.000000
    5       21.723417   0.000000
 
  0.5263158E-01  0.2631579E-01  0.7894737E-01  0.6250000E-02
    1       -3.056784   1.000000
    2       18.887168   0.000000
    3       19.268712   0.000000
    4       20.305866   0.000000
    5       21.801229   0.000000
 
  0.2631579E-01  0.1315789E-01  0.3947368E-01  0.6250000E-02
    1       -3.150425   1.000000
    2       19.894222   0.000000
    3       20.041726   0.000000
    4       20.418688   0.000000
    5       21.854179   0.000000
 
  0.0000000E+00  0.0000000E+00  0.0000000E+00  0.6250000E-02
    1       -3.181635   1.000000
    2       20.463184   0.000000
    3       20.463184   0.000000
    4       20.463193   0.000000
    5       21.873102   0.000000
 
  0.0000000E+00  0.0000000E+00  0.0000000E+00  0.6250000E-02
    1       -3.181635   1.000000
    2       20.463184   0.000000
    3       20.463184   0.000000
    4       20.463185   0.000000
    5       21.873102   0.000000
 
  0.2631579E-01  0.0000000E+00  0.2631579E-01  0.6250000E-02
    1       -3.156669   1.000000
    2       20.120448   0.000000
    3       20.120449   0.000000
    4       20.264560   0.000000
    5       21.811735   0.000000
 
  0.5263158E-01  0.0000000E+00  0.5263158E-01  0.6250000E-02
    1       -3.081749   1.000000
    2       19.495362   0.000000
    3       19.495363   0.000000
    4       19.776733   0.000000
    5       21.635198   0.000000
 
  0.7894737E-01  0.0000000E+00  0.7894737E-01  0.6250000E-02
    1       -2.956987   1.000000
    2       18.839342   0.000000
    3       18.839343   0.000000
    4       19.161289   0.000000
    5       21.364153   0.000000
 
  0.1052632E+00  0.0000000E+00  0.1052632E+00  0.6250000E-02
    1       -2.782496   1.000000
    2       18.201936   0.000000
    3       18.201937   0.000000
    4       18.509276   0.000000
    5       21.023771   0.000000
 
  0.1315789E+00  0.0000000E+00  0.1315789E+00  0.6250000E-02
    1       -2.558445   1.000000
    2       17.596653   0.000000
    3       17.596654   0.000000
    4       17.862228   0.000000
    5       20.637290   0.000000
 
  0.1578947E+00  0.0000000E+00  0.1578947E+00  0.6250000E-02
    1       -2.285107   1.000000
    2       17.028670   0.000000
    3       17.028671   0.000000
    4       17.239608   0.000000
    5       20.216264   0.000000
 
  0.1842105E+00  0.0000000E+00  0.1842105E+00  0.6250000E-02
    1       -1.962735   1.000000
    2       16.500390   0.000000
    3       16.500391   0.000000
    4       16.651349   0.000000
    5       19.383402   0.000000
 
  0.2105263E+00  0.0000000E+00  0.2105263E+00  0.6250000E-02
    1       -1.591718   1.000000
    2       16.013054   0.000000
    3       16.013055   0.000000
    4       16.102889   0.000000
    5       18.067163   0.000000
 
  0.2368421E+00  0.0000000E+00  0.2368421E+00  0.6250000E-02
    1       -1.172433   1.000000
    2       15.567399   0.000000
    3       15.567400   0.000000
    4       15.597558   0.000000
    5       16.763008   0.000000
 
  0.2631579E+00  0.0000000E+00  0.2631579E+00  0.6250000E-02
    1       -0.705354   1.000000
    2       15.137386   0.000000
    3       15.163860   0.000000
    4       15.163861   0.000000
    5       15.488060   0.000000
 
  0.2894737E+00  0.0000000E+00  0.2894737E+00  0.6250000E-02
    1       -0.191082   1.000000
    2       14.246837   0.000000
    3       14.723669   0.000000
    4       14.802671   0.000000
    5       14.802672   0.000000
 
  0.3157895E+00  0.0000000E+00  0.3157895E+00  0.6250000E-02
    1        0.369717   1.000000
    2       13.042075   0.000000
    3       14.357304   0.000000
    4       14.483956   0.000000
    5       14.483957   0.000000
 
  0.3421053E+00  0.0000000E+00  0.3421053E+00  0.6250000E-02
    1        0.976086   1.000000
    2       11.876002  -0.000000
    3       14.038915   0.000000
    4       14.207772   0.000000
    5       14.207772   0.000000
 
  0.3684211E+00  0.0000000E+00  0.3684211E+00  0.6250000E-02
    1        1.626755   1.000000
    2       10.750774  -0.000000
    3       13.768944   0.000000
    4       13.974131   0.000000
    5       13.974131   0.000000
 
  0.3947368E+00  0.0000000E+00  0.3947368E+00  0.6250000E-02
    1        2.319581   1.000000
    2        9.669085  -0.000000
    3       13.547710   0.000000
    4       13.783026   0.000000
    5       13.783027   0.000000
 
  0.4210526E+00  0.0000000E+00  0.4210526E+00  0.6250000E-02
    1        3.050302   1.000000
    2        8.635601  -0.000000
    3       13.375435   0.000000
    4       13.634427   0.000000
    5       13.634428   0.000000
 
  0.4473684E+00  0.0000000E+00  0.4473684E+00  0.6250000E-02
    1        3.807865   1.000000
    2        7.661589  -0.000394
    3       13.252260   0.000000
    4       13.528299   0.000000
    5       13.528300   0.000000
 
  0.4736842E+00  0.0000000E+00  0.4736842E+00  0.6250000E-02
    1        4.548666   1.000000
    2        6.790864   1.021893
    3       13.178326   0.000000
    4       13.464636   0.000000
    5       13.464637   0.000000
 
  0.5000000E+00  0.0000000E+00  0.5000000E+00  0.6250000E-02
    1        4.986689   1.000000
    2        6.309531   1.000000
    3       13.153674   0.000000
    4       13.443414   0.000000
    5       13.443415   0.000000
 
  0.5000000E+00  0.0000000E+00  0.5000000E+00  0.6250000E-02
    1        4.986689   1.000000
    2        6.309531   1.000000
    3       13.153674   0.000000
    4       13.443414   0.000000
    5       13.443415   0.000000
 
  0.5000000E+00  0.1315789E-01  0.5131579E+00  0.6250000E-02
    1        4.992409   1.000000
    2        6.315596   1.000000
    3       12.842240   0.000000
    4       13.394257   0.000000
    5       13.766384   0.000000
 
  0.5000000E+00  0.2631579E-01  0.5263158E+00  0.6250000E-02
    1        5.009571   1.000000
    2        6.333798   1.000000
    3       12.432222  -0.000000
    4       13.255837   0.000000
    5       14.211029   0.000000
 
  0.5000000E+00  0.3947368E-01  0.5394737E+00  0.6250000E-02
    1        5.038172   1.000000
    2        6.364085   1.000001
    3       12.026290  -0.000000
    4       13.049092   0.000000
    5       14.674634   0.000000
 
  0.5000000E+00  0.5263158E-01  0.5526316E+00  0.6250000E-02
    1        5.078218   1.000000
    2        6.406436   1.000003
    3       11.630014  -0.000000
    4       12.796131   0.000000
    5       15.151626   0.000000
 
  0.5000000E+00  0.6578947E-01  0.5657895E+00  0.6250000E-02
    1        5.129709   1.000000
    2        6.460802   1.000018
    3       11.244568  -0.000000
    4       12.514477  -0.000000
    5       15.640817   0.000000
 
  0.5000000E+00  0.7894737E-01  0.5789474E+00  0.6250000E-02
    1        5.192651   1.000000
    2        6.527093   1.000127
    3       10.870345  -0.000000
    4       12.216417  -0.000000
    5       16.141710   0.000000
 
  0.5000000E+00  0.9210526E-01  0.5921053E+00  0.6250000E-02
    1        5.267047   1.000000
    2        6.605220   1.000908
    3       10.507526  -0.000000
    4       11.910217  -0.000000
    5       16.654084   0.000000
 
  0.5000000E+00  0.1052632E+00  0.6052632E+00  0.6250000E-02
    1        5.352903   1.000000
    2        6.695060   1.005622
    3       10.156205  -0.000000
    4       11.601449  -0.000000
    5       17.177800   0.000000
 
  0.5000000E+00  0.1184211E+00  0.6184211E+00  0.6250000E-02
    1        5.450220   1.000000
    2        6.796424   1.023174
    3        9.816412  -0.000000
    4       11.293951  -0.000000
    5       17.712695   0.000000
 
  0.5000000E+00  0.1315789E+00  0.6315789E+00  0.6250000E-02
    1        5.559008   1.000000
    2        6.909072   1.028340
    3        9.488182  -0.000000
    4       10.990493  -0.000000
    5       18.258650   0.000000
 
  0.5000000E+00  0.1447368E+00  0.6447368E+00  0.6250000E-02
    1        5.679274   1.000000
    2        7.032688   0.820754
    3        9.171538  -0.000000
    4       10.693192  -0.000000
    5       18.815534   0.000000
 
  0.5000000E+00  0.1578947E+00  0.6578947E+00  0.6250000E-02
    1        5.811026   1.000000
    2        7.166791   0.292406
    3        8.866487  -0.000000
    4       10.403796  -0.000000
    5       19.383198   0.000000
 
  0.5000000E+00  0.1710526E+00  0.6710526E+00  0.6250000E-02
    1        5.954270   1.000000
    2        7.310657  -0.022155
    3        8.573033  -0.000000
    4       10.123953  -0.000000
    5       19.961461   0.000000
 
  0.5000000E+00  0.1842105E+00  0.6842105E+00  0.6250000E-02
    1        6.109021   1.000000
    2        7.463081  -0.017023
    3        8.291176  -0.000000
    4        9.855562  -0.000000
    5       20.550152   0.000000
 
  0.5000000E+00  0.1973684E+00  0.6973684E+00  0.6250000E-02
    1        6.275284   1.000000
    2        7.621936  -0.001012
    3        8.020911  -0.000000
    4        9.601246  -0.000000
    5       21.149057   0.000000
 
  0.5000000E+00  0.2105263E+00  0.7105263E+00  0.6250000E-02
    1        6.453068   1.000014
    2        7.762235  -0.000024
    3        7.783023  -0.000013
    4        9.365575  -0.000000
    5       21.757942   0.000000
 
  0.5000000E+00  0.2236842E+00  0.7236842E+00  0.6250000E-02
    1        6.642384   1.002047
    2        7.515139  -0.008100
    3        7.937113  -0.000000
    4        9.158060  -0.000000
    5       22.376568   0.000000
 
  0.5000000E+00  0.2368421E+00  0.7368421E+00  0.6250000E-02
    1        6.843240   1.033017
    2        7.279609   0.005425
    3        8.062268  -0.000000
    4        9.000765  -0.000000
    5       23.004470   0.000000
 
  0.5000000E+00  0.2500000E+00  0.7500000E+00  0.6250000E-02
    1        7.055645   0.742783
    2        7.055646   0.742780
    3        8.114697  -0.000000
    4        8.937612  -0.000000
    5       23.643433   0.000000
 
  0.5000000E+00  0.2500000E+00  0.7500000E+00  0.6250000E-02
    1        7.055645   0.742783
    2        7.055646   0.742780
    3        8.114697  -0.000000
    4        8.937612  -0.000000
    5       23.641406   0.000000
 
  0.5000000E+00  0.2631579E+00  0.7368421E+00  0.6250000E-02
    1        6.905802   1.029625
    2        6.963259   0.980105
    3        8.287852  -0.000000
    4        9.051296  -0.000000
    5       23.477134   0.000000
 
  0.5000000E+00  0.2763158E+00  0.7236842E+00  0.6250000E-02
    1        6.597963   1.000767
    2        6.734277   1.010626
    3        8.665586  -0.000000
    4        9.344118  -0.000000
    5       23.128025   0.000000
 
  0.5000000E+00  0.2894737E+00  0.7105263E+00  0.6250000E-02
    1        6.256865   1.000000
    2        6.442551   1.000010
    3        9.123111  -0.000000
    4        9.742149  -0.000000
    5       22.802865   0.000000
 
  0.5000000E+00  0.3026316E+00  0.6973684E+00  0.6250000E-02
    1        5.918795   1.000000
    2        6.131131   1.000000
    3        9.624043  -0.000000
    4       10.202194  -0.000000
    5       22.491627   0.000000
 
  0.5000000E+00  0.3157895E+00  0.6842105E+00  0.6250000E-02
    1        5.594962   1.000000
    2        5.820210   1.000000
    3       10.156995  -0.000000
    4       10.703798  -0.000000
    5       22.199062   0.000000
 
  0.5000000E+00  0.3289474E+00  0.6710526E+00  0.6250000E-02
    1        5.289702   1.000000
    2        5.519551   1.000000
    3       10.717402  -0.000000
    4       11.236871  -0.000000
    5       21.937083   0.000000
 
  0.5000000E+00  0.3421053E+00  0.6578947E+00  0.6250000E-02
    1        5.005002   1.000000
    2        5.234296   1.000000
    3       11.302946  -0.000000
    4       11.795832  -0.000000
    5       21.697716   0.000000
 
  0.5000000E+00  0.3552632E+00  0.6447368E+00  0.6250000E-02
    1        4.741886   1.000000
    2        4.967378   1.000000
    3       11.912165  -0.000000
    4       12.377149  -0.000000
    5       21.434099   0.000000
 
  0.5000000E+00  0.3684211E+00  0.6315789E+00  0.6250000E-02
    1        4.500927   1.000000
    2        4.720637   1.000000
    3       12.543882  -0.000000
    4       12.978254   0.000000
    5       21.217034   0.000000
 
  0.5000000E+00  0.3815789E+00  0.6184211E+00  0.6250000E-02
    1        4.282467   1.000000
    2        4.495273   1.000000
    3       13.196887   0.000000
    4       13.596914   0.000000
    5       21.018085   0.000000
 
  0.5000000E+00  0.3947368E+00  0.6052632E+00  0.6250000E-02
    1        4.086720   1.000000
    2        4.292123   1.000000
    3       13.869727   0.000000
    4       14.230911   0.000000
    5       20.836822   0.000000
 
  0.5000000E+00  0.4078947E+00  0.5921053E+00  0.6250000E-02
    1        3.913822   1.000000
    2        4.111810   1.000000
    3       14.560465   0.000000
    4       14.877733   0.000000
    5       20.674978   0.000000
 
  0.5000000E+00  0.4210526E+00  0.5789474E+00  0.6250000E-02
    1        3.763866   1.000000
    2        3.954798   1.000000
    3       15.266305   0.000000
    4       15.534327   0.000000
    5       20.522674   0.000000
 
  0.5000000E+00  0.4342105E+00  0.5657895E+00  0.6250000E-02
    1        3.636904   1.000000
    2        3.821430   1.000000
    3       15.982975   0.000000
    4       16.196552   0.000000
    5       20.382813   0.000000
 
  0.5000000E+00  0.4473684E+00  0.5526316E+00  0.6250000E-02
    1        3.532985   1.000000
    2        3.711980   1.000000
    3       16.703560   0.000000
    4       16.858518   0.000000
    5       20.246277   0.000000
 
  0.5000000E+00  0.4605263E+00  0.5394737E+00  0.6250000E-02
    1        3.452136   1.000000
    2        3.626648   1.000000
    3       17.416526   0.000000
    4       17.511427   0.000000
    5       20.101131   0.000000
 
  0.5000000E+00  0.4736842E+00  0.5263158E+00  0.6250000E-02
    1        3.394377   1.000000
    2        3.565598   1.000000
    3       18.102184   0.000000
    4       18.141961   0.000000
    5       19.917295   0.000000
 
  0.5000000E+00  0.4868421E+00  0.5131579E+00  0.6250000E-02
    1        3.359718   1.000000
    2        3.528933   1.000000
    3       18.727264   0.000000
    4       18.729479   0.000000
    5       19.667189   0.000000
 
  0.5000000E+00  0.5000000E+00  0.5000000E+00  0.6250000E-02
    1        3.348165   1.000000
    2        3.516711   1.000000
    3       19.186336   0.000000
    4       19.186555   0.000000
    5       19.330762   0.000000
 
  0.5000000E+00  0.5000000E+00  0.5000000E+00  0.6250000E-02
    1        3.348165   1.000000
    2        3.516711   1.000000
    3       19.186336   0.000000
    4       19.187439   0.000000
    5       19.330762   0.000000
 
  0.4736842E+00  0.4736842E+00  0.4736842E+00  0.6250000E-02
    1        2.762385   1.000000
    2        4.135409   1.000000
    3       19.057409   0.000000
    4       19.057444   0.000000
    5       19.491169   0.000000
 
  0.4473684E+00  0.4473684E+00  0.4473684E+00  0.6250000E-02
    1        2.133467   1.000000
    2        4.863070   1.000000
    3       18.906223   0.000000
    4       18.906225   0.000000
    5       19.736730   0.000000
 
  0.4210526E+00  0.4210526E+00  0.4210526E+00  0.6250000E-02
    1        1.536550   1.000000
    2        5.624493   1.000000
    3       18.782634   0.000000
    4       18.782635   0.000000
    5       20.017459   0.000000
 
  0.3947368E+00  0.3947368E+00  0.3947368E+00  0.6250000E-02
    1        0.973328   1.000000
    2        6.417862   1.000005
    3       18.689526   0.000000
    4       18.689529   0.000000
    5       20.330113   0.000000
 
  0.3684211E+00  0.3684211E+00  0.3684211E+00  0.6250000E-02
    1        0.444428   1.000000
    2        7.242372   0.066108
    3       18.627458   0.000000
    4       18.627458   0.000000
    5       20.673581   0.000000
 
  0.3421053E+00  0.3421053E+00  0.3421053E+00  0.6250000E-02
    1       -0.049751   1.000000
    2        8.097351  -0.000000
    3       18.596555   0.000000
    4       18.596555   0.000000
    5       21.046903   0.000000
 
  0.3157895E+00  0.3157895E+00  0.3157895E+00  0.6250000E-02
    1       -0.508804   1.000000
    2        8.982027  -0.000000
    3       18.596792   0.000000
    4       18.596792   0.000000
    5       21.448749   0.000000
 
  0.2894737E+00  0.2894737E+00  0.2894737E+00  0.6250000E-02
    1       -0.932400   1.000000
    2        9.895593  -0.000000
    3       18.628057   0.000000
    4       18.628057   0.000000
    5       21.877069   0.000000
 
  0.2631579E+00  0.2631579E+00  0.2631579E+00  0.6250000E-02
    1       -1.320259   1.000000
    2       10.837071  -0.000000
    3       18.690161   0.000000
    4       18.690161   0.000000
    5       22.180439   0.000000
 
  0.2368421E+00  0.2368421E+00  0.2368421E+00  0.6250000E-02
    1       -1.672061   1.000000
    2       11.805212  -0.000000
    3       18.782816   0.000000