 vasp.5.4.4.18Apr17-6-g9f103f2a35 (build May 20 2018 16:52:39) complex          
  
 executed on             LinuxIFC date 2022.11.14  01:04:55
 running on    1 total cores
 distrk:  each k-point on    1 cores,    1 groups
 distr:  one band on NCORES_PER_BAND=   1 cores,    1 groups


--------------------------------------------------------------------------------------------------------


 INCAR:
 POTCAR:    PAW Al                                
 POTCAR:    PAW Al                                
   VRHFIN =Al: s2p1                                                             
   LEXCH  = 91                                                                  
   EATOM  =    53.6910 eV,    3.9462 Ry                                         
                                                                                
   TITEL  = PAW Al                                                              
   LULTRA =        F    use ultrasoft PP ?                                      
   IUNSCR =        1    unscreen: 0-lin 1-nonlin 2-no                           
   RPACOR =    1.500    partial core radius                                     
   POMASS =   26.982; ZVAL   =    3.000    mass and valenz                      
   RCORE  =    1.900    outmost cutoff radius                                   
   RWIGS  =    2.650; RWIGS  =    1.402    wigner-seitz radius (au A)           
   ENMAX  =  240.437; ENMIN  =  180.327 eV                                      
   ICORE  =        2    local potential                                         
   LCOR   =        T    correct aug charges                                     
   LPAW   =        T    paw PP                                                  
   EAUG   =  291.052                                                            
   DEXC   =    -.017                                                            
   RMAX   =    2.974    core radius for proj-oper                               
   RAUG   =    1.300    factor for augmentation sphere                          
   RDEP   =    1.966    core radius for depl-charge                             
   QCUT   =   -4.204; QGAM   =    8.408    optimization parameters              
                                                                                
   Description                                                                  
     l     E      TYP  RCUT    TYP  RCUT                                        
     0   .000     23  1.900                                                     
     0   .000     23  1.900                                                     
     1   .000     23  1.900                                                     
     1  1.000     23  1.900                                                     
     2   .000      7  1.900                                                     
  local pseudopotential read in
  partial core-charges read in
  atomic valenz-charges read in
  non local Contribution for L=           0  read in
    real space projection operators read in
  non local Contribution for L=           0  read in
    real space projection operators read in
  non local Contribution for L=           1  read in
    real space projection operators read in
  non local Contribution for L=           1  read in
    real space projection operators read in
    PAW grid and wavefunctions read in
 
   number of l-projection  operators is LMAX  =           4
   number of lm-projection operators is LMMAX =           8
 
  PAW Al                                :
 energy of atom  1       EATOM=  -53.6910
 kinetic energy error for atom=    0.0003 (will be added to EATOM!!)
 
 
 POSCAR: Al fcc                                  
  positions in direct lattice
  No initial velocities read in
 exchange correlation table for  LEXCH =        7
   RHO(1)=    0.500       N(1)  =     2000
   RHO(2)=  100.500       N(2)  =     4000
 


--------------------------------------------------------------------------------------------------------


 ion  position               nearest neighbor table
   1  0.000  0.000  0.000-
 
  LATTYP: Found a face centered cubic cell.
 ALAT       =     4.0500000000
  
  Lattice vectors:
  
 A1 = (   2.0250000000,   2.0250000000,   0.0000000000)
 A2 = (   0.0000000000,   2.0250000000,   2.0250000000)
 A3 = (   2.0250000000,   0.0000000000,   2.0250000000)


Analysis of symmetry for initial positions (statically):
=====================================================================
 Subroutine PRICEL returns:
 Original cell was already a primitive cell.
 

 Routine SETGRP: Setting up the symmetry group for a 
 face centered cubic supercell.


 Subroutine GETGRP returns: Found 48 space group operations
 (whereof 48 operations were pure point group operations)
 out of a pool of 48 trial point group operations.


The static configuration has the point symmetry O_h .


Analysis of symmetry for dynamics (positions and initial velocities):
=====================================================================
 Subroutine PRICEL returns:
 Original cell was already a primitive cell.
 

 Routine SETGRP: Setting up the symmetry group for a 
 face centered cubic supercell.


 Subroutine GETGRP returns: Found 48 space group operations
 (whereof 48 operations were pure point group operations)
 out of a pool of 48 trial point group operations.


The dynamic configuration has the point symmetry O_h .


 Subroutine INISYM returns: Found 48 space group operations
 (whereof 48 operations are pure point group operations),
 and found     1 'primitive' translations

 
 
 KPOINTS: K-Path Generated by VASPKIT.            
  interpolating k-points between supplied coordinates
  k-points in reciprocal lattice
Space group operators:
 irot       det(A)        alpha          n_x          n_y          n_z        tau_x        tau_y        tau_z
    1     1.000000     0.000001     1.000000     0.000000     0.000000     0.000000     0.000000     0.000000
    2    -1.000000     0.000001     1.000000     0.000000     0.000000     0.000000     0.000000     0.000000
    3     1.000000   120.000000    -0.577350    -0.577350    -0.577350     0.000000     0.000000     0.000000
    4    -1.000000   120.000000    -0.577350    -0.577350    -0.577350     0.000000     0.000000     0.000000
    5     1.000000   120.000000     0.577350     0.577350     0.577350     0.000000     0.000000     0.000000
    6    -1.000000   120.000000     0.577350     0.577350     0.577350     0.000000     0.000000     0.000000
    7     1.000000    90.000000     0.000000    -1.000000     0.000000     0.000000     0.000000     0.000000
    8    -1.000000    90.000000     0.000000    -1.000000     0.000000     0.000000     0.000000     0.000000
    9     1.000000   180.000000     0.707107     0.707107     0.000000     0.000000     0.000000     0.000000
   10    -1.000000   180.000000     0.707107     0.707107     0.000000     0.000000     0.000000     0.000000
   11     1.000000    90.000000     1.000000     0.000000     0.000000     0.000000     0.000000     0.000000
   12    -1.000000    90.000000     1.000000     0.000000     0.000000     0.000000     0.000000     0.000000
   13     1.000000   180.000000     0.000000     1.000000     0.000000     0.000000     0.000000     0.000000
   14    -1.000000   180.000000     0.000000     1.000000     0.000000     0.000000     0.000000     0.000000
   15     1.000000   120.000000     0.577350     0.577350    -0.577350     0.000000     0.000000     0.000000
   16    -1.000000   120.000000     0.577350     0.577350    -0.577350     0.000000     0.000000     0.000000
   17     1.000000   120.000000     0.577350    -0.577350    -0.577350     0.000000     0.000000     0.000000
   18    -1.000000   120.000000     0.577350    -0.577350    -0.577350     0.000000     0.000000     0.000000
   19     1.000000    90.000000     0.000000     1.000000     0.000000     0.000000     0.000000     0.000000
   20    -1.000000    90.000000     0.000000     1.000000     0.000000     0.000000     0.000000     0.000000
   21     1.000000    90.000000     0.000000     0.000000    -1.000000     0.000000     0.000000     0.000000
   22    -1.000000    90.000000     0.000000     0.000000    -1.000000     0.000000     0.000000     0.000000
   23     1.000000   180.000000     0.000000     0.707107     0.707107     0.000000     0.000000     0.000000
   24    -1.000000   180.000000     0.000000     0.707107     0.707107     0.000000     0.000000     0.000000
   25     1.000000   120.000000    -0.577350     0.577350     0.577350     0.000000     0.000000     0.000000
   26    -1.000000   120.000000    -0.577350     0.577350     0.577350     0.000000     0.000000     0.000000
   27     1.000000   120.000000    -0.577350     0.577350    -0.577350     0.000000     0.000000     0.000000
   28    -1.000000   120.000000    -0.577350     0.577350    -0.577350     0.000000     0.000000     0.000000
   29     1.000000   180.000000     0.000000     0.000000     1.000000     0.000000     0.000000     0.000000
   30    -1.000000   180.000000     0.000000     0.000000     1.000000     0.000000     0.000000     0.000000
   31     1.000000    90.000000    -1.000000     0.000000     0.000000     0.000000     0.000000     0.000000
   32    -1.000000    90.000000    -1.000000     0.000000     0.000000     0.000000     0.000000     0.000000
   33     1.000000   180.000000     0.707107     0.000000     0.707107     0.000000     0.000000     0.000000
   34    -1.000000   180.000000     0.707107     0.000000     0.707107     0.000000     0.000000     0.000000
   35     1.000000    90.000000     0.000000     0.000000     1.000000     0.000000     0.000000     0.000000
   36    -1.000000    90.000000     0.000000     0.000000     1.000000     0.000000     0.000000     0.000000
   37     1.000000   120.000000    -0.577350    -0.577350     0.577350     0.000000     0.000000     0.000000
   38    -1.000000   120.000000    -0.577350    -0.577350     0.577350     0.000000     0.000000     0.000000
   39     1.000000   180.000000     1.000000     0.000000     0.000000     0.000000     0.000000     0.000000
   40    -1.000000   180.000000     1.000000     0.000000     0.000000     0.000000     0.000000     0.000000
   41     1.000000   120.000000     0.577350    -0.577350     0.577350     0.000000     0.000000     0.000000
   42    -1.000000   120.000000     0.577350    -0.577350     0.577350     0.000000     0.000000     0.000000
   43     1.000000   180.000000     0.707107    -0.707107     0.000000     0.000000     0.000000     0.000000
   44    -1.000000   180.000000     0.707107    -0.707107     0.000000     0.000000     0.000000     0.000000
   45     1.000000   180.000000     0.707107     0.000000    -0.707107     0.000000     0.000000     0.000000
   46    -1.000000   180.000000     0.707107     0.000000    -0.707107     0.000000     0.000000     0.000000
   47     1.000000   180.000000     0.000000    -0.707107     0.707107     0.000000     0.000000     0.000000
   48    -1.000000   180.000000     0.000000    -0.707107     0.707107     0.000000     0.000000     0.000000


--------------------------------------------------------------------------------------------------------




 Dimension of arrays:
   k-points           NKPTS =    160   k-points in BZ     NKDIM =    160   number of bands    NBANDS=      5
   number of dos      NEDOS =    301   number of ions     NIONS =      1
   non local maximal  LDIM  =      4   non local SUM 2l+1 LMDIM =      8
   total plane-waves  NPLWV =   4096
   max r-space proj   IRMAX =      1   max aug-charges    IRDMAX=   9797
   dimension x,y,z NGX =    16 NGY =   16 NGZ =   16
   dimension x,y,z NGXF=    32 NGYF=   32 NGZF=   32
   support grid    NGXF=    32 NGYF=   32 NGZF=   32
   ions per type =               1
   NGX,Y,Z   is equivalent  to a cutoff of   9.29,  9.29,  9.29 a.u.
   NGXF,Y,Z  is equivalent  to a cutoff of  18.58, 18.58, 18.58 a.u.

 SYSTEM =  fcc Al                                  
 POSCAR =  Al fcc                                  

 Startparameter for this run:
   NWRITE =      2    write-flag & timer
   PREC   = normal    normal or accurate (medium, high low for compatibility)
   ISTART =      0    job   : 0-new  1-cont  2-samecut
   ICHARG =     11    charge: 1-file 2-atom 10-const
   ISPIN  =      1    spin polarized calculation?
   LNONCOLLINEAR =      F non collinear calculations
   LSORBIT =      F    spin-orbit coupling
   INIWAV =      1    electr: 0-lowe 1-rand  2-diag
   LASPH  =      F    aspherical Exc in radial PAW
   METAGGA=      F    non-selfconsistent MetaGGA calc.

 Electronic Relaxation 1
   ENCUT  =  500.0 eV  36.75 Ry    6.06 a.u.   5.22  5.22  5.22*2*pi/ulx,y,z
   ENINI  =  500.0     initial cutoff
   ENAUG  =  291.1 eV  augmentation charge cutoff
   NELM   =     60;   NELMIN=  2; NELMDL= -5     # of ELM steps 
   EDIFF  = 0.1E-05   stopping-criterion for ELM
   LREAL  =      F    real-space projection
   NLSPLINE    = F    spline interpolate recip. space projectors
   LCOMPAT=      F    compatible to vasp.4.4
   GGA_COMPAT  = T    GGA compatible to vasp.4.4-vasp.4.6
   LMAXPAW     = -100 max onsite density
   LMAXMIX     =    2 max onsite mixed and CHGCAR
   VOSKOWN=      0    Vosko Wilk Nusair interpolation
   ROPT   =    0.00000
 Ionic relaxation
   EDIFFG = 0.1E-04   stopping-criterion for IOM
   NSW    =      0    number of steps for IOM
   NBLOCK =      1;   KBLOCK =      1    inner block; outer block 
   IBRION =     -1    ionic relax: 0-MD 1-quasi-New 2-CG
   NFREE  =      0    steps in history (QN), initial steepest desc. (CG)
   ISIF   =      2    stress and relaxation
   IWAVPR =     10    prediction:  0-non 1-charg 2-wave 3-comb
   ISYM   =      2    0-nonsym 1-usesym 2-fastsym
   LCORR  =      T    Harris-Foulkes like correction to forces

   POTIM  = 0.5000    time-step for ionic-motion
   TEIN   =    0.0    initial temperature
   TEBEG  =    0.0;   TEEND  =   0.0 temperature during run
   SMASS  =  -3.00    Nose mass-parameter (am)
   estimated Nose-frequenzy (Omega)   =  0.10E-29 period in steps =****** mass=  -0.187E-27a.u.
   SCALEE = 1.0000    scale energy and forces
   NPACO  =    256;   APACO  = 16.0  distance and # of slots for P.C.
   PSTRESS=    0.0 pullay stress

  Mass of Ions in am
   POMASS =  26.98
  Ionic Valenz
   ZVAL   =   3.00
  Atomic Wigner-Seitz radii
   RWIGS  =  -1.00
  virtual crystal weights 
   VCA    =   1.00
   NELECT =       3.0000    total number of electrons
   NUPDOWN=      -1.0000    fix difference up-down

 DOS related values:
   EMIN   =  10.00;   EMAX   =-10.00  energy-range for DOS
   EFERMI =   0.00
   ISMEAR =     1;   SIGMA  =   0.20  broadening in eV -4-tet -1-fermi 0-gaus

 Electronic relaxation 2 (details)
   IALGO  =     38    algorithm
   LDIAG  =      T    sub-space diagonalisation (order eigenvalues)
   LSUBROT=      F    optimize rotation matrix (better conditioning)
   TURBO    =      0    0=normal 1=particle mesh
   IRESTART =      0    0=no restart 2=restart with 2 vectors
   NREBOOT  =      0    no. of reboots
   NMIN     =      0    reboot dimension
   EREF     =   0.00    reference energy to select bands
   IMIX   =      4    mixing-type and parameters
     AMIX     =   0.40;   BMIX     =  1.00
     AMIX_MAG =   1.60;   BMIX_MAG =  1.00
     AMIN     =   0.10
     WC   =   100.;   INIMIX=   1;  MIXPRE=   1;  MAXMIX= -45

 Intra band minimization:
   WEIMIN = 0.0000     energy-eigenvalue tresh-hold
   EBREAK =  0.50E-07  absolut break condition
   DEPER  =   0.30     relativ break condition  

   TIME   =   0.40     timestep for ELM

  volume/ion in A,a.u.               =      16.61       112.07
  Fermi-wavevector in a.u.,A,eV,Ry     =   0.925437  1.748822 11.652489  0.856434
  Thomas-Fermi vector in A             =   2.051291
 
 Write flags
   LWAVE        =      F    write WAVECAR
   LDOWNSAMPLE  =      F    k-point downsampling of WAVECAR
   LCHARG       =      F    write CHGCAR
   LVTOT        =      F    write LOCPOT, total local potential
   LVHAR        =      F    write LOCPOT, Hartree potential only
   LELF         =      F    write electronic localiz. function (ELF)
   LORBIT       =      0    0 simple, 1 ext, 2 COOP (PROOUT), +10 PAW based schemes


 Dipole corrections
   LMONO  =      F    monopole corrections only (constant potential shift)
   LDIPOL =      F    correct potential (dipole corrections)
   IDIPOL =      0    1-x, 2-y, 3-z, 4-all directions 
   EPSILON=  1.0000000 bulk dielectric constant

 Exchange correlation treatment:
   GGA     =    --    GGA type
   LEXCH   =     7    internal setting for exchange type
   VOSKOWN=      0    Vosko Wilk Nusair interpolation
   LHFCALC =     F    Hartree Fock is set to
   LHFONE  =     F    Hartree Fock one center treatment
   AEXX    =    0.0000 exact exchange contribution

 Linear response parameters
   LEPSILON=     F    determine dielectric tensor
   LRPA    =     F    only Hartree local field effects (RPA)
   LNABLA  =     F    use nabla operator in PAW spheres
   LVEL    =     F    velocity operator in full k-point grid
   LINTERFAST=   F  fast interpolation
   KINTER  =     0    interpolate to denser k-point grid
   CSHIFT  =0.1000    complex shift for real part using Kramers Kronig
   OMEGAMAX=  -1.0    maximum frequency
   DEG_THRESHOLD= 0.2000000E-02 threshold for treating states as degnerate
   RTIME   =   -0.100 relaxation time in fs
  (WPLASMAI=    0.000 imaginary part of plasma frequency in eV, 0.658/RTIME)
   DFIELD  = 0.0000000 0.0000000 0.0000000 field for delta impulse in time
 
 Orbital magnetization related:
   ORBITALMAG=     F  switch on orbital magnetization
   LCHIMAG   =     F  perturbation theory with respect to B field
   DQ        =  0.001000  dq finite difference perturbation B field
   LLRAUG    =     F  two centre corrections for induced B field



--------------------------------------------------------------------------------------------------------


 Static calculation
 charge density and potential remain constant during run
 non-spin polarized calculation
 Variant of blocked Davidson
 Davidson routine will perform the subspace rotation
 perform sub-space diagonalisation
    after iterative eigenvector-optimisation
 no mixing
 using additional bands            3
 reciprocal scheme for non local part
 use partial core corrections
 calculate Harris-corrections to forces 
   (improved forces if not selfconsistent)
 use gradient corrections 
 WARNING: stress and forces are not correct
  (second derivative of E(xc) not defined)
 use of overlap-Matrix (Vanderbilt PP)
 Methfessel and Paxton  Order N= 1 SIGMA  =   0.20


--------------------------------------------------------------------------------------------------------


  energy-cutoff  :      500.00
  volume of cell :       16.61
      direct lattice vectors                 reciprocal lattice vectors
     2.025000000  2.025000000  0.000000000     0.246913580  0.246913580 -0.246913580
     0.000000000  2.025000000  2.025000000    -0.246913580  0.246913580  0.246913580
     2.025000000  0.000000000  2.025000000     0.246913580 -0.246913580  0.246913580

  length of vectors
     2.863782464  2.863782464  2.863782464     0.427666866  0.427666866  0.427666866


 
 k-points in units of 2pi/SCALE and weight: K-Path Generated by VASPKIT.            
   0.50000000  0.50000000  0.50000000       0.006
   0.51315789  0.47368421  0.51315789       0.006
   0.52631579  0.44736842  0.52631579       0.006
   0.53947368  0.42105263  0.53947368       0.006
   0.55263158  0.39473684  0.55263158       0.006
   0.56578947  0.36842105  0.56578947       0.006
   0.57894737  0.34210526  0.57894737       0.006
   0.59210526  0.31578947  0.59210526       0.006
   0.60526316  0.28947368  0.60526316       0.006
   0.61842105  0.26315789  0.61842105       0.006
   0.63157895  0.23684211  0.63157895       0.006
   0.64473684  0.21052632  0.64473684       0.006
   0.65789474  0.18421053  0.65789474       0.006
   0.67105263  0.15789474  0.67105263       0.006
   0.68421053  0.13157895  0.68421053       0.006
   0.69736842  0.10526316  0.69736842       0.006
   0.71052632  0.07894737  0.71052632       0.006
   0.72368421  0.05263158  0.72368421       0.006
   0.73684211  0.02631579  0.73684211       0.006
   0.75000000  0.00000000  0.75000000       0.006
   0.75000000  0.00000000  0.75000000       0.006
   0.76315789  0.00000000  0.73684211       0.006
   0.77631579  0.00000000  0.72368421       0.006
   0.78947368  0.00000000  0.71052632       0.006
   0.80263158  0.00000000  0.69736842       0.006
   0.81578947  0.00000000  0.68421053       0.006
   0.82894737  0.00000000  0.67105263       0.006
   0.84210526  0.00000000  0.65789474       0.006
   0.85526316  0.00000000  0.64473684       0.006
   0.86842105  0.00000000  0.63157895       0.006
   0.88157895  0.00000000  0.61842105       0.006
   0.89473684  0.00000000  0.60526316       0.006
   0.90789474  0.00000000  0.59210526       0.006
   0.92105263  0.00000000  0.57894737       0.006
   0.93421053  0.00000000  0.56578947       0.006
   0.94736842  0.00000000  0.55263158       0.006
   0.96052632  0.00000000  0.53947368       0.006
   0.97368421  0.00000000  0.52631579       0.006
   0.98684211  0.00000000  0.51315789       0.006
   1.00000000  0.00000000  0.50000000       0.006
   1.00000000  0.00000000  0.50000000       0.006
   0.94736842  0.00000000  0.47368421       0.006
   0.89473684  0.00000000  0.44736842       0.006
   0.84210526  0.00000000  0.42105263       0.006
   0.78947368  0.00000000  0.39473684       0.006
   0.73684211  0.00000000  0.36842105       0.006
   0.68421053  0.00000000  0.34210526       0.006
   0.63157895  0.00000000  0.31578947       0.006
   0.57894737  0.00000000  0.28947368       0.006
   0.52631579  0.00000000  0.26315789       0.006
   0.47368421  0.00000000  0.23684211       0.006
   0.42105263 -0.00000000  0.21052632       0.006
   0.36842105  0.00000000  0.18421053       0.006
   0.31578947  0.00000000  0.15789474       0.006
   0.26315789 -0.00000000  0.13157895       0.006
   0.21052632 -0.00000000  0.10526316       0.006
   0.15789474  0.00000000  0.07894737       0.006
   0.10526316  0.00000000  0.05263158       0.006
   0.05263158  0.00000000  0.02631579       0.006
   0.00000000  0.00000000  0.00000000       0.006
   0.00000000  0.00000000  0.00000000       0.006
   0.05263158  0.00000000  0.00000000       0.006
   0.10526316  0.00000000  0.00000000       0.006
   0.15789474  0.00000000  0.00000000       0.006
   0.21052632  0.00000000  0.00000000       0.006
   0.26315789  0.00000000  0.00000000       0.006
   0.31578947  0.00000000  0.00000000       0.006
   0.36842105  0.00000000  0.00000000       0.006
   0.42105263  0.00000000  0.00000000       0.006
   0.47368421  0.00000000  0.00000000       0.006
   0.52631579  0.00000000  0.00000000       0.006
   0.57894737  0.00000000  0.00000000       0.006
   0.63157895  0.00000000  0.00000000       0.006
   0.68421053  0.00000000  0.00000000       0.006
   0.73684211  0.00000000  0.00000000       0.006
   0.78947368  0.00000000  0.00000000       0.006
   0.84210526  0.00000000  0.00000000       0.006
   0.89473684  0.00000000  0.00000000       0.006
   0.94736842  0.00000000  0.00000000       0.006
   1.00000000  0.00000000  0.00000000       0.006
   1.00000000  0.00000000  0.00000000       0.006
   1.00000000  0.00000000  0.02631579       0.006
   1.00000000  0.00000000  0.05263158       0.006
   1.00000000  0.00000000  0.07894737       0.006
   1.00000000  0.00000000  0.10526316       0.006
   1.00000000  0.00000000  0.13157895       0.006
   1.00000000  0.00000000  0.15789474       0.006
   1.00000000  0.00000000  0.18421053       0.006
   1.00000000  0.00000000  0.21052632       0.006
   1.00000000 -0.00000000  0.23684211       0.006
   1.00000000  0.00000000  0.26315789       0.006
   1.00000000  0.00000000  0.28947368       0.006
   1.00000000 -0.00000000  0.31578947       0.006
   1.00000000  0.00000000  0.34210526       0.006
   1.00000000 -0.00000000  0.36842105       0.006
   1.00000000  0.00000000  0.39473684       0.006
   1.00000000  0.00000000  0.42105263       0.006
   1.00000000  0.00000000  0.44736842       0.006
   1.00000000  0.00000000  0.47368421       0.006
   1.00000000  0.00000000  0.50000000       0.006
   1.00000000  0.00000000  0.50000000       0.006
   0.97368421  0.02631579  0.50000000       0.006
   0.94736842  0.05263158  0.50000000       0.006
   0.92105263  0.07894737  0.50000000       0.006
   0.89473684  0.10526316  0.50000000       0.006
   0.86842105  0.13157895  0.50000000       0.006
   0.84210526  0.15789474  0.50000000       0.006
   0.81578947  0.18421053  0.50000000       0.006
   0.78947368  0.21052632  0.50000000       0.006
   0.76315789  0.23684211  0.50000000       0.006
   0.73684211  0.26315789  0.50000000       0.006
   0.71052632  0.28947368  0.50000000       0.006
   0.68421053  0.31578947  0.50000000       0.006
   0.65789474  0.34210526  0.50000000       0.006
   0.63157895  0.36842105  0.50000000       0.006
   0.60526316  0.39473684  0.50000000       0.006
   0.57894737  0.42105263  0.50000000       0.006
   0.55263158  0.44736842  0.50000000       0.006
   0.52631579  0.47368421  0.50000000       0.006
   0.50000000  0.50000000  0.50000000       0.006
   0.50000000  0.50000000  0.50000000       0.006
   0.47368421  0.47368421  0.47368421       0.006
   0.44736842  0.44736842  0.44736842       0.006
   0.42105263  0.42105263  0.42105263       0.006
   0.39473684  0.39473684  0.39473684       0.006
   0.36842105  0.36842105  0.36842105       0.006
   0.34210526  0.34210526  0.34210526       0.006
   0.31578947  0.31578947  0.31578947       0.006
   0.28947368  0.28947368  0.28947368       0.006
   0.26315789  0.26315789  0.26315789       0.006
   0.23684211  0.23684211  0.23684211       0.006
   0.21052632  0.21052632  0.21052632       0.006
   0.18421053  0.18421053  0.18421053       0.006
   0.15789474  0.15789474  0.15789474       0.006
   0.13157895  0.13157895  0.13157895       0.006
   0.10526316  0.10526316  0.10526316       0.006
   0.07894737  0.07894737  0.07894737       0.006
   0.05263158  0.05263158  0.05263158       0.006
   0.02631579  0.02631579  0.02631579       0.006
   0.00000000  0.00000000  0.00000000       0.006
   0.00000000  0.00000000  0.00000000       0.006
   0.03947368  0.00000000  0.03947368       0.006
   0.07894737  0.00000000  0.07894737       0.006
   0.11842105  0.00000000  0.11842105       0.006
   0.15789474  0.00000000  0.15789474       0.006
   0.19736842  0.00000000  0.19736842       0.006
   0.23684211  0.00000000  0.23684211       0.006
   0.27631579  0.00000000  0.27631579       0.006
   0.31578947  0.00000000  0.31578947       0.006
   0.35526316  0.00000000  0.35526316       0.006
   0.39473684  0.00000000  0.39473684       0.006
   0.43421053  0.00000000  0.43421053       0.006
   0.47368421  0.00000000  0.47368421       0.006
   0.51315789  0.00000000  0.51315789       0.006
   0.55263158  0.00000000  0.55263158       0.006
   0.59210526  0.00000000  0.59210526       0.006
   0.63157895  0.00000000  0.63157895       0.006
   0.67105263  0.00000000  0.67105263       0.006
   0.71052632  0.00000000  0.71052632       0.006
   0.75000000  0.00000000  0.75000000       0.006
 
 k-points in reciprocal lattice and weights: K-Path Generated by VASPKIT.            
   0.50000000  0.50000000  0.50000000       0.006
   0.49342105  0.49342105  0.51315789       0.006
   0.48684211  0.48684211  0.52631579       0.006
   0.48026316  0.48026316  0.53947368       0.006
   0.47368421  0.47368421  0.55263158       0.006
   0.46710526  0.46710526  0.56578947       0.006
   0.46052632  0.46052632  0.57894737       0.006
   0.45394737  0.45394737  0.59210526       0.006
   0.44736842  0.44736842  0.60526316       0.006
   0.44078947  0.44078947  0.61842105       0.006
   0.43421053  0.43421053  0.63157895       0.006
   0.42763158  0.42763158  0.64473684       0.006
   0.42105263  0.42105263  0.65789474       0.006
   0.41447368  0.41447368  0.67105263       0.006
   0.40789474  0.40789474  0.68421053       0.006
   0.40131579  0.40131579  0.69736842       0.006
   0.39473684  0.39473684  0.71052632       0.006
   0.38815789  0.38815789  0.72368421       0.006
   0.38157895  0.38157895  0.73684211       0.006
   0.37500000  0.37500000  0.75000000       0.006
   0.37500000  0.37500000  0.75000000       0.006
   0.38157895  0.36842105  0.75000000       0.006
   0.38815789  0.36184211  0.75000000       0.006
   0.39473684  0.35526316  0.75000000       0.006
   0.40131579  0.34868421  0.75000000       0.006
   0.40789474  0.34210526  0.75000000       0.006
   0.41447368  0.33552632  0.75000000       0.006
   0.42105263  0.32894737  0.75000000       0.006
   0.42763158  0.32236842  0.75000000       0.006
   0.43421053  0.31578947  0.75000000       0.006
   0.44078947  0.30921053  0.75000000       0.006
   0.44736842  0.30263158  0.75000000       0.006
   0.45394737  0.29605263  0.75000000       0.006
   0.46052632  0.28947368  0.75000000       0.006
   0.46710526  0.28289474  0.75000000       0.006
   0.47368421  0.27631579  0.75000000       0.006
   0.48026316  0.26973684  0.75000000       0.006
   0.48684211  0.26315789  0.75000000       0.006
   0.49342105  0.25657895  0.75000000       0.006
   0.50000000  0.25000000  0.75000000       0.006
   0.50000000  0.25000000  0.75000000       0.006
   0.47368421  0.23684211  0.71052632       0.006
   0.44736842  0.22368421  0.67105263       0.006
   0.42105263  0.21052632  0.63157895       0.006
   0.39473684  0.19736842  0.59210526       0.006
   0.36842105  0.18421053  0.55263158       0.006
   0.34210526  0.17105263  0.51315789       0.006
   0.31578947  0.15789474  0.47368421       0.006
   0.28947368  0.14473684  0.43421053       0.006
   0.26315789  0.13157895  0.39473684       0.006
   0.23684211  0.11842105  0.35526316       0.006
   0.21052632  0.10526316  0.31578947       0.006
   0.18421053  0.09210526  0.27631579       0.006
   0.15789474  0.07894737  0.23684211       0.006
   0.13157895  0.06578947  0.19736842       0.006
   0.10526316  0.05263158  0.15789474       0.006
   0.07894737  0.03947368  0.11842105       0.006
   0.05263158  0.02631579  0.07894737       0.006
   0.02631579  0.01315789  0.03947368       0.006
   0.00000000  0.00000000  0.00000000       0.006
   0.00000000  0.00000000  0.00000000       0.006
   0.02631579  0.00000000  0.02631579       0.006
   0.05263158  0.00000000  0.05263158       0.006
   0.07894737  0.00000000  0.07894737       0.006
   0.10526316  0.00000000  0.10526316       0.006
   0.13157895  0.00000000  0.13157895       0.006
   0.15789474  0.00000000  0.15789474       0.006
   0.18421053  0.00000000  0.18421053       0.006
   0.21052632  0.00000000  0.21052632       0.006
   0.23684211  0.00000000  0.23684211       0.006
   0.26315789  0.00000000  0.26315789       0.006
   0.28947368  0.00000000  0.28947368       0.006
   0.31578947  0.00000000  0.31578947       0.006
   0.34210526  0.00000000  0.34210526       0.006
   0.36842105  0.00000000  0.36842105       0.006
   0.39473684  0.00000000  0.39473684       0.006
   0.42105263  0.00000000  0.42105263       0.006
   0.44736842  0.00000000  0.44736842       0.006
   0.47368421  0.00000000  0.47368421       0.006
   0.50000000  0.00000000  0.50000000       0.006
   0.50000000  0.00000000  0.50000000       0.006
   0.50000000  0.01315789  0.51315789       0.006
   0.50000000  0.02631579  0.52631579       0.006
   0.50000000  0.03947368  0.53947368       0.006
   0.50000000  0.05263158  0.55263158       0.006
   0.50000000  0.06578947  0.56578947       0.006
   0.50000000  0.07894737  0.57894737       0.006
   0.50000000  0.09210526  0.59210526       0.006
   0.50000000  0.10526316  0.60526316       0.006
   0.50000000  0.11842105  0.61842105       0.006
   0.50000000  0.13157895  0.63157895       0.006
   0.50000000  0.14473684  0.64473684       0.006
   0.50000000  0.15789474  0.65789474       0.006
   0.50000000  0.17105263  0.67105263       0.006
   0.50000000  0.18421053  0.68421053       0.006
   0.50000000  0.19736842  0.69736842       0.006
   0.50000000  0.21052632  0.71052632       0.006
   0.50000000  0.22368421  0.72368421       0.006
   0.50000000  0.23684211  0.73684211       0.006
   0.50000000  0.25000000  0.75000000       0.006
   0.50000000  0.25000000  0.75000000       0.006
   0.50000000  0.26315789  0.73684211       0.006
   0.50000000  0.27631579  0.72368421       0.006
   0.50000000  0.28947368  0.71052632       0.006
   0.50000000  0.30263158  0.69736842       0.006
   0.50000000  0.31578947  0.68421053       0.006
   0.50000000  0.32894737  0.67105263       0.006
   0.50000000  0.34210526  0.65789474       0.006
   0.50000000  0.35526316  0.64473684       0.006
   0.50000000  0.36842105  0.63157895       0.006
   0.50000000  0.38157895  0.61842105       0.006
   0.50000000  0.39473684  0.60526316       0.006
   0.50000000  0.40789474  0.59210526       0.006
   0.50000000  0.42105263  0.57894737       0.006
   0.50000000  0.43421053  0.56578947       0.006
   0.50000000  0.44736842  0.55263158       0.006
   0.50000000  0.46052632  0.53947368       0.006
   0.50000000  0.47368421  0.52631579       0.006
   0.50000000  0.48684211  0.51315789       0.006
   0.50000000  0.50000000  0.50000000       0.006
   0.50000000  0.50000000  0.50000000       0.006
   0.47368421  0.47368421  0.47368421       0.006
   0.44736842  0.44736842  0.44736842       0.006
   0.42105263  0.42105263  0.42105263       0.006
   0.39473684  0.39473684  0.39473684       0.006
   0.36842105  0.36842105  0.36842105       0.006
   0.34210526  0.34210526  0.34210526       0.006
   0.31578947  0.31578947  0.31578947       0.006
   0.28947368  0.28947368  0.28947368       0.006
   0.26315789  0.26315789  0.26315789       0.006
   0.23684211  0.23684211  0.23684211       0.006
   0.21052632  0.21052632  0.21052632       0.006
   0.18421053  0.18421053  0.18421053       0.006
   0.15789474  0.15789474  0.15789474       0.006
   0.13157895  0.13157895  0.13157895       0.006
   0.10526316  0.10526316  0.10526316       0.006
   0.07894737  0.07894737  0.07894737       0.006
   0.05263158  0.05263158  0.05263158       0.006
   0.02631579  0.02631579  0.02631579       0.006
   0.00000000  0.00000000  0.00000000       0.006
   0.00000000  0.00000000  0.00000000       0.006
   0.01973684  0.01973684  0.03947368       0.006
   0.03947368  0.03947368  0.07894737       0.006
   0.05921053  0.05921053  0.11842105       0.006
   0.07894737  0.07894737  0.15789474       0.006
   0.09868421  0.09868421  0.19736842       0.006
   0.11842105  0.11842105  0.23684211       0.006
   0.13815789  0.13815789  0.27631579       0.006
   0.15789474  0.15789474  0.31578947       0.006
   0.17763158  0.17763158  0.35526316       0.006
   0.19736842  0.19736842  0.39473684       0.006
   0.21710526  0.21710526  0.43421053       0.006
   0.23684211  0.23684211  0.47368421       0.006
   0.25657895  0.25657895  0.51315789       0.006
   0.27631579  0.27631579  0.55263158       0.006
   0.29605263  0.29605263  0.59210526       0.006
   0.31578947  0.31578947  0.63157895       0.006
   0.33552632  0.33552632  0.67105263       0.006
   0.35526316  0.35526316  0.71052632       0.006
   0.37500000  0.37500000  0.75000000       0.006
 
 position of ions in fractional coordinates (direct lattice) 
   0.00000000  0.00000000  0.00000000
 
 position of ions in cartesian coordinates  (Angst):
   0.00000000  0.00000000  0.00000000
 


--------------------------------------------------------------------------------------------------------


 k-point  1 :   0.5000 0.5000 0.5000  plane waves:     410
 k-point  2 :   0.4934 0.4934 0.5132  plane waves:     414
 k-point  3 :   0.4868 0.4868 0.5263  plane waves:     415
 k-point  4 :   0.4803 0.4803 0.5395  plane waves:     418
 k-point  5 :   0.4737 0.4737 0.5526  plane waves:     418
 k-point  6 :   0.4671 0.4671 0.5658  plane waves:     421
 k-point  7 :   0.4605 0.4605 0.5789  plane waves:     422
 k-point  8 :   0.4539 0.4539 0.5921  plane waves:     422
 k-point  9 :   0.4474 0.4474 0.6053  plane waves:     426
 k-point 10 :   0.4408 0.4408 0.6184  plane waves:     422
 k-point 11 :   0.4342 0.4342 0.6316  plane waves:     420
 k-point 12 :   0.4276 0.4276 0.6447  plane waves:     420
 k-point 13 :   0.4211 0.4211 0.6579  plane waves:     420
 k-point 14 :   0.4145 0.4145 0.6711  plane waves:     420
 k-point 15 :   0.4079 0.4079 0.6842  plane waves:     420
 k-point 16 :   0.4013 0.4013 0.6974  plane waves:     420
 k-point 17 :   0.3947 0.3947 0.7105  plane waves:     424
 k-point 18 :   0.3882 0.3882 0.7237  plane waves:     424
 k-point 19 :   0.3816 0.3816 0.7368  plane waves:     427
 k-point 20 :   0.3750 0.3750 0.7500  plane waves:     431
 k-point 21 :   0.3750 0.3750 0.7500  plane waves:     431
 k-point 22 :   0.3816 0.3684 0.7500  plane waves:     431
 k-point 23 :   0.3882 0.3618 0.7500  plane waves:     427
 k-point 24 :   0.3947 0.3553 0.7500  plane waves:     424
 k-point 25 :   0.4013 0.3487 0.7500  plane waves:     424
 k-point 26 :   0.4079 0.3421 0.7500  plane waves:     424
 k-point 27 :   0.4145 0.3355 0.7500  plane waves:     424
 k-point 28 :   0.4211 0.3289 0.7500  plane waves:     424
 k-point 29 :   0.4276 0.3224 0.7500  plane waves:     420
 k-point 30 :   0.4342 0.3158 0.7500  plane waves:     420
 k-point 31 :   0.4408 0.3092 0.7500  plane waves:     418
 k-point 32 :   0.4474 0.3026 0.7500  plane waves:     418
 k-point 33 :   0.4539 0.2961 0.7500  plane waves:     418
 k-point 34 :   0.4605 0.2895 0.7500  plane waves:     419
 k-point 35 :   0.4671 0.2829 0.7500  plane waves:     419
 k-point 36 :   0.4737 0.2763 0.7500  plane waves:     419
 k-point 37 :   0.4803 0.2697 0.7500  plane waves:     413
 k-point 38 :   0.4868 0.2632 0.7500  plane waves:     412
 k-point 39 :   0.4934 0.2566 0.7500  plane waves:     412
 k-point 40 :   0.5000 0.2500 0.7500  plane waves:     412
 k-point 41 :   0.5000 0.2500 0.7500  plane waves:     412
 k-point 42 :   0.4737 0.2368 0.7105  plane waves:     413
 k-point 43 :   0.4474 0.2237 0.6711  plane waves:     415
 k-point 44 :   0.4211 0.2105 0.6316  plane waves:     419
 k-point 45 :   0.3947 0.1974 0.5921  plane waves:     421
 k-point 46 :   0.3684 0.1842 0.5526  plane waves:     419
 k-point 47 :   0.3421 0.1711 0.5132  plane waves:     417
 k-point 48 :   0.3158 0.1579 0.4737  plane waves:     417
 k-point 49 :   0.2895 0.1447 0.4342  plane waves:     420
 k-point 50 :   0.2632 0.1316 0.3947  plane waves:     420
 k-point 51 :   0.2368 0.1184 0.3553  plane waves:     422
 k-point 52 :   0.2105 0.1053 0.3158  plane waves:     420
 k-point 53 :   0.1842 0.0921 0.2763  plane waves:     426
 k-point 54 :   0.1579 0.0789 0.2368  plane waves:     420
 k-point 55 :   0.1316 0.0658 0.1974  plane waves:     421
 k-point 56 :   0.1053 0.0526 0.1579  plane waves:     423
 k-point 57 :   0.0789 0.0395 0.1184  plane waves:     422
 k-point 58 :   0.0526 0.0263 0.0789  plane waves:     413
 k-point 59 :   0.0263 0.0132 0.0395  plane waves:     411
 k-point 60 :   0.0000 0.0000 0.0000  plane waves:     411
 k-point 61 :   0.0000 0.0000 0.0000  plane waves:     411
 k-point 62 :   0.0263 0.0000 0.0263  plane waves:     411
 k-point 63 :   0.0526 0.0000 0.0526  plane waves:     411
 k-point 64 :   0.0789 0.0000 0.0789  plane waves:     419
 k-point 65 :   0.1053 0.0000 0.1053  plane waves:     423
 k-point 66 :   0.1316 0.0000 0.1316  plane waves:     419
 k-point 67 :   0.1579 0.0000 0.1579  plane waves:     415
 k-point 68 :   0.1842 0.0000 0.1842  plane waves:     415
 k-point 69 :   0.2105 0.0000 0.2105  plane waves:     423
 k-point 70 :   0.2368 0.0000 0.2368  plane waves:     431
 k-point 71 :   0.2632 0.0000 0.2632  plane waves:     431
 k-point 72 :   0.2895 0.0000 0.2895  plane waves:     431
 k-point 73 :   0.3158 0.0000 0.3158  plane waves:     432
 k-point 74 :   0.3421 0.0000 0.3421  plane waves:     432
 k-point 75 :   0.3684 0.0000 0.3684  plane waves:     432
 k-point 76 :   0.3947 0.0000 0.3947  plane waves:     428
 k-point 77 :   0.4211 0.0000 0.4211  plane waves:     424
 k-point 78 :   0.4474 0.0000 0.4474  plane waves:     440
 k-point 79 :   0.4737 0.0000 0.4737  plane waves:     440
 k-point 80 :   0.5000 0.0000 0.5000  plane waves:     444
 k-point 81 :   0.5000 0.0000 0.5000  plane waves:     444
 k-point 82 :   0.5000 0.0132 0.5132  plane waves:     444
 k-point 83 :   0.5000 0.0263 0.5263  plane waves:     436
 k-point 84 :   0.5000 0.0395 0.5395  plane waves:     436
 k-point 85 :   0.5000 0.0526 0.5526  plane waves:     432
 k-point 86 :   0.5000 0.0658 0.5658  plane waves:     428
 k-point 87 :   0.5000 0.0789 0.5789  plane waves:     428
 k-point 88 :   0.5000 0.0921 0.5921  plane waves:     428
 k-point 89 :   0.5000 0.1053 0.6053  plane waves:     424
 k-point 90 :   0.5000 0.1184 0.6184  plane waves:     420
 k-point 91 :   0.5000 0.1316 0.6316  plane waves:     422
 k-point 92 :   0.5000 0.1447 0.6447  plane waves:     422
 k-point 93 :   0.5000 0.1579 0.6579  plane waves:     422
 k-point 94 :   0.5000 0.1711 0.6711  plane waves:     424
 k-point 95 :   0.5000 0.1842 0.6842  plane waves:     422
 k-point 96 :   0.5000 0.1974 0.6974  plane waves:     422
 k-point 97 :   0.5000 0.2105 0.7105  plane waves:     422
 k-point 98 :   0.5000 0.2237 0.7237  plane waves:     412
 k-point 99 :   0.5000 0.2368 0.7368  plane waves:     412
 k-point ** :   0.5000 0.2500 0.7500  plane waves:     412
 k-point ** :   0.5000 0.2500 0.7500  plane waves:     412
 k-point ** :   0.5000 0.2632 0.7368  plane waves:     412
 k-point ** :   0.5000 0.2763 0.7237  plane waves:     418
 k-point ** :   0.5000 0.2895 0.7105  plane waves:     420
 k-point ** :   0.5000 0.3026 0.6974  plane waves:     420
 k-point ** :   0.5000 0.3158 0.6842  plane waves:     418
 k-point ** :   0.5000 0.3289 0.6711  plane waves:     420
 k-point ** :   0.5000 0.3421 0.6579  plane waves:     418
 k-point ** :   0.5000 0.3553 0.6447  plane waves:     420
 k-point ** :   0.5000 0.3684 0.6316  plane waves:     418
 k-point ** :   0.5000 0.3816 0.6184  plane waves:     418
 k-point ** :   0.5000 0.3947 0.6053  plane waves:     422
 k-point ** :   0.5000 0.4079 0.5921  plane waves:     424
 k-point ** :   0.5000 0.4211 0.5789  plane waves:     424
 k-point ** :   0.5000 0.4342 0.5658  plane waves:     420
 k-point ** :   0.5000 0.4474 0.5526  plane waves:     418
 k-point ** :   0.5000 0.4605 0.5395  plane waves:     420
 k-point ** :   0.5000 0.4737 0.5263  plane waves:     418
 k-point ** :   0.5000 0.4868 0.5132  plane waves:     414
 k-point ** :   0.5000 0.5000 0.5000  plane waves:     410
 k-point ** :   0.5000 0.5000 0.5000  plane waves:     410
 k-point ** :   0.4737 0.4737 0.4737  plane waves:     416
 k-point ** :   0.4474 0.4474 0.4474  plane waves:     422
 k-point ** :   0.4211 0.4211 0.4211  plane waves:     422
 k-point ** :   0.3947 0.3947 0.3947  plane waves:     422
 k-point ** :   0.3684 0.3684 0.3684  plane waves:     422
 k-point ** :   0.3421 0.3421 0.3421  plane waves:     419
 k-point ** :   0.3158 0.3158 0.3158  plane waves:     422
 k-point ** :   0.2895 0.2895 0.2895  plane waves:     422
 k-point ** :   0.2632 0.2632 0.2632  plane waves:     423
 k-point ** :   0.2368 0.2368 0.2368  plane waves:     423
 k-point ** :   0.2105 0.2105 0.2105  plane waves:     423
 k-point ** :   0.1842 0.1842 0.1842  plane waves:     417
 k-point ** :   0.1579 0.1579 0.1579  plane waves:     414
 k-point ** :   0.1316 0.1316 0.1316  plane waves:     417
 k-point ** :   0.1053 0.1053 0.1053  plane waves:     423
 k-point ** :   0.0789 0.0789 0.0789  plane waves:     417
 k-point ** :   0.0526 0.0526 0.0526  plane waves:     411
 k-point ** :   0.0263 0.0263 0.0263  plane waves:     411
 k-point ** :   0.0000 0.0000 0.0000  plane waves:     411
 k-point ** :   0.0000 0.0000 0.0000  plane waves:     411
 k-point ** :   0.0197 0.0197 0.0395  plane waves:     411
 k-point ** :   0.0395 0.0395 0.0789  plane waves:     415
 k-point ** :   0.0592 0.0592 0.1184  plane waves:     419
 k-point ** :   0.0789 0.0789 0.1579  plane waves:     421
 k-point ** :   0.0987 0.0987 0.1974  plane waves:     423
 k-point ** :   0.1184 0.1184 0.2368  plane waves:     421
 k-point ** :   0.1382 0.1382 0.2763  plane waves:     421
 k-point ** :   0.1579 0.1579 0.3158  plane waves:     417
 k-point ** :   0.1776 0.1776 0.3553  plane waves:     417
 k-point ** :   0.1974 0.1974 0.3947  plane waves:     415
 k-point ** :   0.2171 0.2171 0.4342  plane waves:     415
 k-point ** :   0.2368 0.2368 0.4737  plane waves:     415
 k-point ** :   0.2566 0.2566 0.5132  plane waves:     421
 k-point ** :   0.2763 0.2763 0.5526  plane waves:     421
 k-point ** :   0.2961 0.2961 0.5921  plane waves:     421
 k-point ** :   0.3158 0.3158 0.6316  plane waves:     417
 k-point ** :   0.3355 0.3355 0.6711  plane waves:     417
 k-point ** :   0.3553 0.3553 0.7105  plane waves:     425
 k-point ** :   0.3750 0.3750 0.7500  plane waves:     431

 maximum and minimum number of plane-waves per node :       444      410

 maximum number of plane-waves:       444
 maximum index in each direction: 
   IXMAX=    5   IYMAX=    5   IZMAX=    5
   IXMIN=   -5   IYMIN=   -5   IZMIN=   -5


 serial   3D FFT for wavefunctions
 parallel 3D FFT for charge:
    minimum data exchange during FFTs selected (reduces bandwidth)


 total amount of memory used by VASP MPI-rank0    45317. kBytes
=======================================================================

   base      :      30000. kBytes
   nonl-proj :       4553. kBytes
   fftplans  :       2224. kBytes
   grid      :       2752. kBytes
   one-center:          3. kBytes
   wavefun   :       5785. kBytes
 
     INWAV:  cpu time    0.0001: real time    0.0002
 initial charge density was supplied:
 number of electron       3.0000000 magnetization 
 keeping initial charge density in first step


--------------------------------------------------------------------------------------------------------


 Maximum index for augmentation-charges         9405 (set IRDMAX)


--------------------------------------------------------------------------------------------------------


 First call to EWALD:  gamma=   0.695
 Maximum number of real-space cells 3x 3x 3
 Maximum number of reciprocal cells 3x 3x 3

    FEWALD:  cpu time    0.0013: real time    0.0013


--------------------------------------- Iteration      1(   1)  ---------------------------------------


    POTLOK:  cpu time    0.0207: real time    0.0220
    SETDIJ:  cpu time    0.0014: real time    0.0014
     EDDAV:  cpu time    0.1949: real time    0.1987
       DOS:  cpu time    0.0028: real time    0.0028
    --------------------------------------------
      LOOP:  cpu time    0.2207: real time    0.2250

 eigenvalue-minimisations  :  1685
 total energy-change (2. order) :-0.1221165E+01  (-0.7893751E+02)
 number of electron       3.0000000 magnetization 
 augmentation part        3.0000000 magnetization 

 Free energy of the ion-electron system (eV)
  ---------------------------------------------------
  alpha Z        PSCENC =        -0.15332662
  Ewald energy   TEWEN  =       -73.35670894
  -Hartree energ DENC   =        -0.10652442
  -exchange      EXHF   =         0.00000000
  -V(xc)+E(xc)   XCENC  =       -26.29409879
  PAW double counting   =        35.75777254       -3.72136847
  entropy T*S    EENTRO =        -0.00079016
  eigenvalues    EBANDS =        12.96317933
  atomic energy  EATOM  =        53.69070033
  Solvation  Ediel_sol  =         0.00000000
  ---------------------------------------------------
  free energy    TOTEN  =        -1.22116520 eV

  energy without entropy =       -1.22037505  energy(sigma->0) =       -1.22090182


--------------------------------------------------------------------------------------------------------




--------------------------------------- Iteration      1(   2)  ---------------------------------------


     EDDAV:  cpu time    0.2230: real time    0.2247
       DOS:  cpu time    0.0035: real time    0.0034
    --------------------------------------------
      LOOP:  cpu time    0.2257: real time    0.2282

 eigenvalue-minimisations  :  2025
 total energy-change (2. order) :-0.2134025E+01  (-0.2007243E+01)
 number of electron       3.0000000 magnetization 
 augmentation part        3.0000000 magnetization 

 Free energy of the ion-electron system (eV)
  ---------------------------------------------------
  alpha Z        PSCENC =        -0.15332662
  Ewald energy   TEWEN  =       -73.35670894
  -Hartree energ DENC   =        -0.10652442
  -exchange      EXHF   =         0.00000000
  -V(xc)+E(xc)   XCENC  =       -26.29409879
  PAW double counting   =        35.75777254       -3.72136847
  entropy T*S    EENTRO =        -0.00117588
  eigenvalues    EBANDS =        10.82953976
  atomic energy  EATOM  =        53.69070033
  Solvation  Ediel_sol  =         0.00000000
  ---------------------------------------------------
  free energy    TOTEN  =        -3.35519050 eV

  energy without entropy =       -3.35401462  energy(sigma->0) =       -3.35479854


--------------------------------------------------------------------------------------------------------




--------------------------------------- Iteration      1(   3)  ---------------------------------------


     EDDAV:  cpu time    0.2523: real time    0.2533
       DOS:  cpu time    0.0036: real time    0.0036
    --------------------------------------------
      LOOP:  cpu time    0.2560: real time    0.2569

 eigenvalue-minimisations  :  2320
 total energy-change (2. order) :-0.2304817E-01  (-0.2298055E-01)
 number of electron       3.0000000 magnetization 
 augmentation part        3.0000000 magnetization 

 Free energy of the ion-electron system (eV)
  ---------------------------------------------------
  alpha Z        PSCENC =        -0.15332662
  Ewald energy   TEWEN  =       -73.35670894
  -Hartree energ DENC   =        -0.10652442
  -exchange      EXHF   =         0.00000000
  -V(xc)+E(xc)   XCENC  =       -26.29409879
  PAW double counting   =        35.75777254       -3.72136847
  entropy T*S    EENTRO =        -0.00154723
  eigenvalues    EBANDS =        10.80686294
  atomic energy  EATOM  =        53.69070033
  Solvation  Ediel_sol  =         0.00000000
  ---------------------------------------------------
  free energy    TOTEN  =        -3.37823867 eV

  energy without entropy =       -3.37669144  energy(sigma->0) =       -3.37772293


--------------------------------------------------------------------------------------------------------




--------------------------------------- Iteration      1(   4)  ---------------------------------------


     EDDAV:  cpu time    0.2466: real time    0.2476
       DOS:  cpu time    0.0036: real time    0.0036
    --------------------------------------------
      LOOP:  cpu time    0.2502: real time    0.2512

 eigenvalue-minimisations  :  2270
 total energy-change (2. order) :-0.7838623E-04  (-0.7838511E-04)
 number of electron       3.0000000 magnetization 
 augmentation part        3.0000000 magnetization 

 Free energy of the ion-electron system (eV)
  ---------------------------------------------------
  alpha Z        PSCENC =        -0.15332662
  Ewald energy   TEWEN  =       -73.35670894
  -Hartree energ DENC   =        -0.10652442
  -exchange      EXHF   =         0.00000000
  -V(xc)+E(xc)   XCENC  =       -26.29409879
  PAW double counting   =        35.75777254       -3.72136847
  entropy T*S    EENTRO =        -0.00154723
  eigenvalues    EBANDS =        10.80678455
  atomic energy  EATOM  =        53.69070033
  Solvation  Ediel_sol  =         0.00000000
  ---------------------------------------------------
  free energy    TOTEN  =        -3.37831706 eV

  energy without entropy =       -3.37676982  energy(sigma->0) =       -3.37780131


--------------------------------------------------------------------------------------------------------




--------------------------------------- Iteration      1(   5)  ---------------------------------------


     EDDAV:  cpu time    0.2590: real time    0.2605
       DOS:  cpu time    0.0037: real time    0.0037
    --------------------------------------------
      LOOP:  cpu time    0.2626: real time    0.2642

 eigenvalue-minimisations  :  2400
 total energy-change (2. order) :-0.5154950E-06  (-0.5158102E-06)
 number of electron       3.0000000 magnetization 
 augmentation part        3.0000000 magnetization 

 Free energy of the ion-electron system (eV)
  ---------------------------------------------------
  alpha Z        PSCENC =        -0.15332662
  Ewald energy   TEWEN  =       -73.35670894
  -Hartree energ DENC   =        -0.10652442
  -exchange      EXHF   =         0.00000000
  -V(xc)+E(xc)   XCENC  =       -26.29409879
  PAW double counting   =        35.75777254       -3.72136847
  entropy T*S    EENTRO =        -0.00154724
  eigenvalues    EBANDS =        10.80678404
  atomic energy  EATOM  =        53.69070033
  Solvation  Ediel_sol  =         0.00000000
  ---------------------------------------------------
  free energy    TOTEN  =        -3.37831757 eV

  energy without entropy =       -3.37677033  energy(sigma->0) =       -3.37780183


--------------------------------------------------------------------------------------------------------




--------------------------------------- Iteration      1(   6)  ---------------------------------------


     EDDAV:  cpu time    0.2446: real time    0.2465
       DOS:  cpu time    0.0036: real time    0.0036
    --------------------------------------------
      LOOP:  cpu time    0.2482: real time    0.2501

 eigenvalue-minimisations  :  2255
 total energy-change (2. order) :-0.5159379E-08  (-0.5599129E-08)
 number of electron       3.0000000 magnetization 
 augmentation part        3.0000000 magnetization 

 Free energy of the ion-electron system (eV)
  ---------------------------------------------------
  alpha Z        PSCENC =        -0.15332662
  Ewald energy   TEWEN  =       -73.35670894
  -Hartree energ DENC   =        -0.10652442
  -exchange      EXHF   =         0.00000000
  -V(xc)+E(xc)   XCENC  =       -26.29409879
  PAW double counting   =        35.75777254       -3.72136847
  entropy T*S    EENTRO =        -0.00154724
  eigenvalues    EBANDS =        10.80678404
  atomic energy  EATOM  =        53.69070033
  Solvation  Ediel_sol  =         0.00000000
  ---------------------------------------------------
  free energy    TOTEN  =        -3.37831758 eV

  energy without entropy =       -3.37677034  energy(sigma->0) =       -3.37780183


--------------------------------------------------------------------------------------------------------




 average (electrostatic) potential at core
  the test charge radii are     1.0406
  (the norm of the test charge is              1.0000)
       1 -72.3024
 
 
 
 E-fermi :   7.1160     XC(G=0): -10.1853     alpha+bet :-14.7760


 k-point     1 :       0.5000    0.5000    0.5000
  band No.  band energies     occupation 
      1       3.3482      2.00000
      2       3.5167      2.00000
      3      19.1863      0.00000
      4      19.1864      0.00000
      5      19.3308      0.00000

 k-point     2 :       0.4934    0.4934    0.5132
  band No.  band energies     occupation 
      1       3.3568      2.00000
      2       3.5259      2.00000
      3      18.7620      0.00000
      4      18.8507      0.00000
      5      19.5685      0.00000

 k-point     3 :       0.4868    0.4868    0.5263
  band No.  band energies     occupation 
      1       3.3828      2.00000
      2       3.5534      2.00000
      3      18.1536      0.00000
      4      18.4686      0.00000
      5      19.6570      0.00000

 k-point     4 :       0.4803    0.4803    0.5395
  band No.  band energies     occupation 
      1       3.4261      2.00000
      2       3.5992      2.00000
      3      17.4767      0.00000
      4      18.1008      0.00000
      5      19.5765      0.00000

 k-point     5 :       0.4737    0.4737    0.5526
  band No.  band energies     occupation 
      1       3.4868      2.00000
      2       3.6632      2.00000
      3      16.7666      0.00000
      4      17.7487      0.00000
      5      19.3930      0.00000

 k-point     6 :       0.4671    0.4671    0.5658
  band No.  band energies     occupation 
      1       3.5647      2.00000
      2       3.7455      2.00000
      3      16.0424      0.00000
      4      17.4128      0.00000
      5      19.1545      0.00000

 k-point     7 :       0.4605    0.4605    0.5789
  band No.  band energies     occupation 
      1       3.6600      2.00000
      2       3.8457      2.00000
      3      15.3150      0.00000
      4      17.0930      0.00000
      5      18.8898      0.00000

 k-point     8 :       0.4539    0.4539    0.5921
  band No.  band energies     occupation 
      1       3.7725      2.00000
      2       3.9639      2.00000
      3      14.5909      0.00000
      4      16.7895      0.00000
      5      18.6150      0.00000

 k-point     9 :       0.4474    0.4474    0.6053
  band No.  band energies     occupation 
      1       3.9023      2.00000
      2       4.0997      2.00000
      3      13.8741      0.00000
      4      16.5022      0.00000
      5      18.3395      0.00000

 k-point    10 :       0.4408    0.4408    0.6184
  band No.  band energies     occupation 
      1       4.0492      2.00000
      2       4.2531      2.00000
      3      13.1676      0.00000
      4      16.2311      0.00000
      5      18.0689      0.00000

 k-point    11 :       0.4342    0.4342    0.6316
  band No.  band energies     occupation 
      1       4.2133      2.00000
      2       4.4235      2.00000
      3      12.4732     -0.00000
      4      15.9763      0.00000
      5      17.8068      0.00000

 k-point    12 :       0.4276    0.4276    0.6447
  band No.  band energies     occupation 
      1       4.3943      2.00000
      2       4.6108      2.00000
      3      11.7926     -0.00000
      4      15.7376      0.00000
      5      17.5556      0.00000

 k-point    13 :       0.4211    0.4211    0.6579
  band No.  band energies     occupation 
      1       4.5922      2.00000
      2       4.8141      2.00000
      3      11.1274     -0.00000
      4      15.5151      0.00000
      5      17.3170      0.00000

 k-point    14 :       0.4145    0.4145    0.6711
  band No.  band energies     occupation 
      1       4.8064      2.00000
      2       5.0328      2.00000
      3      10.4793     -0.00000
      4      15.3088      0.00000
      5      17.0921      0.00000

 k-point    15 :       0.4079    0.4079    0.6842
  band No.  band energies     occupation 
      1       5.0365      2.00000
      2       5.2654      2.00000
      3       9.8506     -0.00000
      4      15.1186      0.00000
      5      16.8819      0.00000

 k-point    16 :       0.4013    0.4013    0.6974
  band No.  band energies     occupation 
      1       5.2808      2.00000
      2       5.5099      2.00000
      3       9.2452     -0.00000
      4      14.9446      0.00000
      5      16.6868      0.00000

 k-point    17 :       0.3947    0.3947    0.7105
  band No.  band energies     occupation 
      1       5.5355      2.00000
      2       5.7625      2.00000
      3       8.6707     -0.00000
      4      14.7866      0.00000
      5      16.5075      0.00000

 k-point    18 :       0.3882    0.3882    0.7237
  band No.  band energies     occupation 
      1       5.7884      2.00000
      2       6.0181      2.00000
      3       8.1446     -0.00000
      4      14.6447      0.00000
      5      16.3441      0.00000

 k-point    19 :       0.3816    0.3816    0.7368
  band No.  band energies     occupation 
      1       5.9926      2.00000
      2       6.2768      2.00000
      3       7.7137     -0.00020
      4      14.5189      0.00000
      5      16.1970      0.00000

 k-point    20 :       0.3750    0.3750    0.7500
  band No.  band energies     occupation 
      1       6.0202      2.00000
      2       6.5591      2.00059
      3       7.4854     -0.02535
      4      14.4092      0.00000
      5      16.0662      0.00000

 k-point    21 :       0.3750    0.3750    0.7500
  band No.  band energies     occupation 
      1       6.0202      2.00000
      2       6.5591      2.00059
      3       7.4854     -0.02535
      4      14.4092      0.00000
      5      16.0662      0.00000

 k-point    22 :       0.3816    0.3684    0.7500
  band No.  band energies     occupation 
      1       6.0230      2.00000
      2       6.5618      2.00064
      3       7.4883     -0.02435
      4      14.3083      0.00000
      5      16.1717      0.00000

 k-point    23 :       0.3882    0.3618    0.7500
  band No.  band energies     occupation 
      1       6.0316      2.00000
      2       6.5699      2.00078
      3       7.4969     -0.02149
      4      14.0586      0.00000
      5      16.4355      0.00000

 k-point    24 :       0.3947    0.3553    0.7500
  band No.  band energies     occupation 
      1       6.0459      2.00000
      2       6.5833      2.00108
      3       7.5111     -0.01727
      4      13.7360      0.00000
      5      16.7814      0.00000

 k-point    25 :       0.4013    0.3487    0.7500
  band No.  band energies     occupation 
      1       6.0660      2.00000
      2       6.6021      2.00169
      3       7.5310     -0.01244
      4      13.3817      0.00000
      5      17.1685      0.00000

 k-point    26 :       0.4079    0.3421    0.7500
  band No.  band energies     occupation 
      1       6.0918      2.00000
      2       6.6261      2.00290
      3       7.5565     -0.00787
      4      13.0139      0.00000
      5      17.5784      0.00000

 k-point    27 :       0.4145    0.3355    0.7500
  band No.  band energies     occupation 
      1       6.1233      2.00000
      2       6.6553      2.00533
      3       7.5875     -0.00427
      4      12.6412      0.00000
      5      18.0026      0.00000

 k-point    28 :       0.4211    0.3289    0.7500
  band No.  band energies     occupation 
      1       6.1606      2.00000
      2       6.6895      2.01019
      3       7.6237     -0.00194
      4      12.2680     -0.00000
      5      18.4367      0.00000

 k-point    29 :       0.4276    0.3224    0.7500
  band No.  band energies     occupation 
      1       6.2036      2.00000
      2       6.7285      2.01949
      3       7.6652     -0.00072
      4      11.8971     -0.00000
      5      18.8779      0.00000

 k-point    30 :       0.4342    0.3158    0.7500
  band No.  band energies     occupation 
      1       6.2523      2.00000
      2       6.7722      2.03546
      3       7.7116     -0.00021
      4      11.5305     -0.00000
      5      19.3244      0.00000

 k-point    31 :       0.4408    0.3092    0.7500
  band No.  band energies     occupation 
      1       6.3068      2.00000
      2       6.8200      2.05709
      3       7.7624     -0.00005
      4      11.1698     -0.00000
      5      19.7748      0.00000

 k-point    32 :       0.4474    0.3026    0.7500
  band No.  band energies     occupation 
      1       6.3670      2.00000
      2       6.8715      2.07091
      3       7.8173     -0.00001
      4      10.8165     -0.00000
      5      20.2278      0.00000

 k-point    33 :       0.4539    0.2961    0.7500
  band No.  band energies     occupation 
      1       6.4330      2.00002
      2       6.9258      2.03842
      3       7.8752     -0.00000
      4      10.4730     -0.00000
      5      20.6821      0.00000

 k-point    34 :       0.4605    0.2895    0.7500
  band No.  band energies     occupation 
      1       6.5047      2.00014
      2       6.9817      1.89876
      3       7.9350     -0.00000
      4      10.1419     -0.00000
      5      21.1360      0.00000

 k-point    35 :       0.4671    0.2829    0.7500
  band No.  band energies     occupation 
      1       6.5821      2.00105
      2       7.0371      1.61335
      3       7.9942     -0.00000
      4       9.8280     -0.00000
      5      21.5875      0.00000

 k-point    36 :       0.4737    0.2763    0.7500
  band No.  band energies     occupation 
      1       6.6653      2.00649
      2       7.0884      1.23092
      3       8.0492     -0.00000
      4       9.5387     -0.00000
      5      22.0338      0.00000

 k-point    37 :       0.4803    0.2697    0.7500
  band No.  band energies     occupation 
      1       6.7543      2.02822
      2       7.1294      0.88631
      3       8.0935     -0.00000
      4       9.2866     -0.00000
      5      22.4707      0.00000

 k-point    38 :       0.4868    0.2632    0.7500
  band No.  band energies     occupation 
      1       6.8490      2.06771
      2       7.1494      0.72098
      3       8.1185     -0.00000
      4       9.0912     -0.00000
      5      22.8920      0.00000

 k-point    39 :       0.4934    0.2566    0.7500
  band No.  band energies     occupation 
      1       6.9494      1.99585
      2       7.1314      0.86991
      3       8.1205     -0.00000
      4       8.9735     -0.00000
      5      23.2885      0.00000

 k-point    40 :       0.5000    0.2500    0.7500
  band No.  band energies     occupation 
      1       7.0556      1.48557
      2       7.0556      1.48556
      3       8.1147     -0.00000
      4       8.9376     -0.00000
      5      23.6433      0.00000

 k-point    41 :       0.5000    0.2500    0.7500
  band No.  band energies     occupation 
      1       7.0556      1.48557
      2       7.0556      1.48556
      3       8.1147     -0.00000
      4       8.9376     -0.00000
      5      23.6466      0.00000

 k-point    42 :       0.4737    0.2368    0.7105
  band No.  band energies     occupation 
      1       6.4261      2.00001
      2       7.3026     -0.03345
      3       8.3995     -0.00000
      4       9.1470     -0.00000
      5      23.0275      0.00000

 k-point    43 :       0.4474    0.2237    0.6711
  band No.  band energies     occupation 
      1       5.5048      2.00000
      2       7.6071     -0.00282
      3       8.8750     -0.00000
      4       9.6230     -0.00000
      5      22.4634      0.00000

 k-point    44 :       0.4211    0.2105    0.6316
  band No.  band energies     occupation 
      1       4.5679      2.00000
      2       7.9691     -0.00000
      3       9.3385     -0.00000
      4      10.2913     -0.00000
      5      21.9549      0.00000

 k-point    45 :       0.3947    0.1974    0.5921
  band No.  band energies     occupation 
      1       3.6634      2.00000
      2       8.3889     -0.00000
      3       9.8085     -0.00000
      4      11.0846     -0.00000
      5      21.4999      0.00000

 k-point    46 :       0.3684    0.1842    0.5526
  band No.  band energies     occupation 
      1       2.8048      2.00000
      2       8.8663     -0.00000
      3      10.3113     -0.00000
      4      11.9614     -0.00000
      5      21.1002      0.00000

 k-point    47 :       0.3421    0.1711    0.5132
  band No.  band energies     occupation 
      1       1.9974      2.00000
      2       9.4015     -0.00000
      3      10.8571     -0.00000
      4      12.9040      0.00000
      5      20.7553      0.00000

 k-point    48 :       0.3158    0.1579    0.4737
  band No.  band energies     occupation 
      1       1.2442      2.00000
      2       9.9944     -0.00000
      3      11.4486     -0.00000
      4      13.9040      0.00000
      5      20.4654      0.00000

 k-point    49 :       0.2895    0.1447    0.4342
  band No.  band energies     occupation 
      1       0.5470      2.00000
      2      10.6449     -0.00000
      3      12.0856     -0.00000
      4      14.9567      0.00000
      5      20.2304      0.00000

 k-point    50 :       0.2632    0.1316    0.3947
  band No.  band energies     occupation 
      1      -0.0929      2.00000
      2      11.3528     -0.00000
      3      12.7665      0.00000
      4      16.0580      0.00000
      5      20.0497      0.00000

 k-point    51 :       0.2368    0.1184    0.3553
  band No.  band energies     occupation 
      1      -0.6745      2.00000
      2      12.1177     -0.00000
      3      13.4885      0.00000
      4      17.2040      0.00000
      5      19.9227      0.00000

 k-point    52 :       0.2105    0.1053    0.3158
  band No.  band energies     occupation 
      1      -1.1970      2.00000
      2      12.9392      0.00000
      3      14.2483      0.00000
      4      18.3887      0.00000
      5      19.8486      0.00000

 k-point    53 :       0.1842    0.0921    0.2763
  band No.  band energies     occupation 
      1      -1.6597      2.00000
      2      13.8160      0.00000
      3      15.0415      0.00000
      4      19.5991      0.00000
      5      19.8256      0.00000

 k-point    54 :       0.1579    0.0789    0.2368
  band No.  band energies     occupation 
      1      -2.0619      2.00000
      2      14.7465      0.00000
      3      15.8632      0.00000
      4      19.8514      0.00000
      5      20.7774      0.00000

 k-point    55 :       0.1316    0.0658    0.1974
  band No.  band energies     occupation 
      1      -2.4031      2.00000
      2      15.7278      0.00000
      3      16.7069      0.00000
      4      19.9220      0.00000
      5      21.4665      0.00000

 k-point    56 :       0.1053    0.0526    0.1579
  band No.  band energies     occupation 
      1      -2.6829      2.00000
      2      16.7544      0.00000
      3      17.5644      0.00000
      4      20.0305      0.00000
      5      21.6266      0.00000

 k-point    57 :       0.0789    0.0395    0.1184
  band No.  band energies     occupation 
      1      -2.9009      2.00000
      2      17.8157      0.00000
      3      18.4248      0.00000
      4      20.1653      0.00000
      5      21.7234      0.00000

 k-point    58 :       0.0526    0.0263    0.0789
  band No.  band energies     occupation 
      1      -3.0568      2.00000
      2      18.8872      0.00000
      3      19.2687      0.00000
      4      20.3059      0.00000
      5      21.8012      0.00000

 k-point    59 :       0.0263    0.0132    0.0395
  band No.  band energies     occupation 
      1      -3.1504      2.00000
      2      19.8942      0.00000
      3      20.0417      0.00000
      4      20.4187      0.00000
      5      21.8542      0.00000

 k-point    60 :       0.0000    0.0000    0.0000
  band No.  band energies     occupation 
      1      -3.1816      2.00000
      2      20.4632      0.00000
      3      20.4632      0.00000
      4      20.4632      0.00000
      5      21.8731      0.00000

 k-point    61 :       0.0000    0.0000    0.0000
  band No.  band energies     occupation 
      1      -3.1816      2.00000
      2      20.4632      0.00000
      3      20.4632      0.00000
      4      20.4632      0.00000
      5      21.8731      0.00000

 k-point    62 :       0.0263    0.0000    0.0263
  band No.  band energies     occupation 
      1      -3.1567      2.00000
      2      20.1204      0.00000
      3      20.1204      0.00000
      4      20.2646      0.00000
      5      21.8117      0.00000

 k-point    63 :       0.0526    0.0000    0.0526
  band No.  band energies     occupation 
      1      -3.0817      2.00000
      2      19.4954      0.00000
      3      19.4954      0.00000
      4      19.7767      0.00000
      5      21.6352      0.00000

 k-point    64 :       0.0789    0.0000    0.0789
  band No.  band energies     occupation 
      1      -2.9570      2.00000
      2      18.8393      0.00000
      3      18.8393      0.00000
      4      19.1613      0.00000
      5      21.3642      0.00000

 k-point    65 :       0.1053    0.0000    0.1053
  band No.  band energies     occupation 
      1      -2.7825      2.00000
      2      18.2019      0.00000
      3      18.2019      0.00000
      4      18.5093      0.00000
      5      21.0238      0.00000

 k-point    66 :       0.1316    0.0000    0.1316
  band No.  band energies     occupation 
      1      -2.5584      2.00000
      2      17.5967      0.00000
      3      17.5967      0.00000
      4      17.8622      0.00000
      5      20.6373      0.00000

 k-point    67 :       0.1579    0.0000    0.1579
  band No.  band energies     occupation 
      1      -2.2851      2.00000
      2      17.0287      0.00000
      3      17.0287      0.00000
      4      17.2396      0.00000
      5      20.2163      0.00000

 k-point    68 :       0.1842    0.0000    0.1842
  band No.  band energies     occupation 
      1      -1.9627      2.00000
      2      16.5004      0.00000
      3      16.5004      0.00000
      4      16.6513      0.00000
      5      19.3834      0.00000

 k-point    69 :       0.2105    0.0000    0.2105
  band No.  band energies     occupation 
      1      -1.5917      2.00000
      2      16.0131      0.00000
      3      16.0131      0.00000
      4      16.1029      0.00000
      5      18.0672      0.00000

 k-point    70 :       0.2368    0.0000    0.2368
  band No.  band energies     occupation 
      1      -1.1724      2.00000
      2      15.5674      0.00000
      3      15.5674      0.00000
      4      15.5976      0.00000
      5      16.7630      0.00000

 k-point    71 :       0.2632    0.0000    0.2632
  band No.  band energies     occupation 
      1      -0.7054      2.00000
      2      15.1374      0.00000
      3      15.1639      0.00000
      4      15.1639      0.00000
      5      15.4881      0.00000

 k-point    72 :       0.2895    0.0000    0.2895
  band No.  band energies     occupation 
      1      -0.1911      2.00000
      2      14.2468      0.00000
      3      14.7237      0.00000
      4      14.8027      0.00000
      5      14.8027      0.00000

 k-point    73 :       0.3158    0.0000    0.3158
  band No.  band energies     occupation 
      1       0.3697      2.00000
      2      13.0421      0.00000
      3      14.3573      0.00000
      4      14.4840      0.00000
      5      14.4840      0.00000

 k-point    74 :       0.3421    0.0000    0.3421
  band No.  band energies     occupation 
      1       0.9761      2.00000
      2      11.8760     -0.00000
      3      14.0389      0.00000
      4      14.2078      0.00000
      5      14.2078      0.00000

 k-point    75 :       0.3684    0.0000    0.3684
  band No.  band energies     occupation 
      1       1.6268      2.00000
      2      10.7508     -0.00000
      3      13.7689      0.00000
      4      13.9741      0.00000
      5      13.9741      0.00000

 k-point    76 :       0.3947    0.0000    0.3947
  band No.  band energies     occupation 
      1       2.3196      2.00000
      2       9.6691     -0.00000
      3      13.5477      0.00000
      4      13.7830      0.00000
      5      13.7830      0.00000

 k-point    77 :       0.4211    0.0000    0.4211
  band No.  band energies     occupation 
      1       3.0503      2.00000
      2       8.6356     -0.00000
      3      13.3754      0.00000
      4      13.6344      0.00000
      5      13.6344      0.00000

 k-point    78 :       0.4474    0.0000    0.4474
  band No.  band energies     occupation 
      1       3.8079      2.00000
      2       7.6616     -0.00079
      3      13.2523      0.00000
      4      13.5283      0.00000
      5      13.5283      0.00000

 k-point    79 :       0.4737    0.0000    0.4737
  band No.  band energies     occupation 
      1       4.5487      2.00000
      2       6.7909      2.04379
      3      13.1783      0.00000
      4      13.4646      0.00000
      5      13.4646      0.00000

 k-point    80 :       0.5000    0.0000    0.5000
  band No.  band energies     occupation 
      1       4.9867      2.00000
      2       6.3095      2.00000
      3      13.1537      0.00000
      4      13.4434      0.00000
      5      13.4434      0.00000

 k-point    81 :       0.5000    0.0000    0.5000
  band No.  band energies     occupation 
      1       4.9867      2.00000
      2       6.3095      2.00000
      3      13.1537      0.00000
      4      13.4434      0.00000
      5      13.4434      0.00000

 k-point    82 :       0.5000    0.0132    0.5132
  band No.  band energies     occupation 
      1       4.9924      2.00000
      2       6.3156      2.00000
      3      12.8422      0.00000
      4      13.3943      0.00000
      5      13.7664      0.00000

 k-point    83 :       0.5000    0.0263    0.5263
  band No.  band energies     occupation 
      1       5.0096      2.00000
      2       6.3338      2.00000
      3      12.4322     -0.00000
      4      13.2558      0.00000
      5      14.2110      0.00000

 k-point    84 :       0.5000    0.0395    0.5395
  band No.  band energies     occupation 
      1       5.0382      2.00000
      2       6.3641      2.00000
      3      12.0263     -0.00000
      4      13.0491      0.00000
      5      14.6746      0.00000

 k-point    85 :       0.5000    0.0526    0.5526
  band No.  band energies     occupation 
      1       5.0782      2.00000
      2       6.4064      2.00001
      3      11.6300     -0.00000
      4      12.7961      0.00000
      5      15.1516      0.00000

 k-point    86 :       0.5000    0.0658    0.5658
  band No.  band energies     occupation 
      1       5.1297      2.00000
      2       6.4608      2.00004
      3      11.2446     -0.00000
      4      12.5145     -0.00000
      5      15.6408      0.00000

 k-point    87 :       0.5000    0.0789    0.5789
  band No.  band energies     occupation 
      1       5.1927      2.00000
      2       6.5271      2.00025
      3      10.8703     -0.00000
      4      12.2164     -0.00000
      5      16.1417      0.00000

 k-point    88 :       0.5000    0.0921    0.5921
  band No.  band energies     occupation 
      1       5.2670      2.00000
      2       6.6052      2.00182
      3      10.5075     -0.00000
      4      11.9102     -0.00000
      5      16.6541      0.00000

 k-point    89 :       0.5000    0.1053    0.6053
  band No.  band energies     occupation 
      1       5.3529      2.00000
      2       6.6951      2.01124
      3      10.1562     -0.00000
      4      11.6014     -0.00000
      5      17.1778      0.00000

 k-point    90 :       0.5000    0.1184    0.6184
  band No.  band energies     occupation 
      1       5.4502      2.00000
      2       6.7964      2.04635
      3       9.8164     -0.00000
      4      11.2940     -0.00000
      5      17.7127      0.00000

 k-point    91 :       0.5000    0.1316    0.6316
  band No.  band energies     occupation 
      1       5.5590      2.00000
      2       6.9091      2.05668
      3       9.4882     -0.00000
      4      10.9905     -0.00000
      5      18.2586      0.00000

 k-point    92 :       0.5000    0.1447    0.6447
  band No.  band energies     occupation 
      1       5.6793      2.00000
      2       7.0327      1.64151
      3       9.1715     -0.00000
      4      10.6932     -0.00000
      5      18.8155      0.00000

 k-point    93 :       0.5000    0.1579    0.6579
  band No.  band energies     occupation 
      1       5.8110      2.00000
      2       7.1668      0.58481
      3       8.8665     -0.00000
      4      10.4038     -0.00000
      5      19.3832      0.00000

 k-point    94 :       0.5000    0.1711    0.6711
  band No.  band energies     occupation 
      1       5.9543      2.00000
      2       7.3107     -0.04431
      3       8.5730     -0.00000
      4      10.1240     -0.00000
      5      19.9615      0.00000

 k-point    95 :       0.5000    0.1842    0.6842
[...]
      5      21.0181      0.00000

 k-point   112 :       0.5000    0.3947    0.6053
  band No.  band energies     occupation 
      1       4.0867      2.00000
      2       4.2921      2.00000
      3      13.8697      0.00000
      4      14.2309      0.00000
      5      20.8368      0.00000

 k-point   113 :       0.5000    0.4079    0.5921
  band No.  band energies     occupation 
      1       3.9138      2.00000
      2       4.1118      2.00000
      3      14.5605      0.00000
      4      14.8777      0.00000
      5      20.6750      0.00000

 k-point   114 :       0.5000    0.4211    0.5789
  band No.  band energies     occupation 
      1       3.7639      2.00000
      2       3.9548      2.00000
      3      15.2663      0.00000
      4      15.5343      0.00000
      5      20.5227      0.00000

 k-point   115 :       0.5000    0.4342    0.5658
  band No.  band energies     occupation 
      1       3.6369      2.00000
      2       3.8214      2.00000
      3      15.9830      0.00000
      4      16.1966      0.00000
      5      20.3828      0.00000

 k-point   116 :       0.5000    0.4474    0.5526
  band No.  band energies     occupation 
      1       3.5330      2.00000
      2       3.7120      2.00000
      3      16.7036      0.00000
      4      16.8585      0.00000
      5      20.2463      0.00000

 k-point   117 :       0.5000    0.4605    0.5395
  band No.  band energies     occupation 
      1       3.4521      2.00000
      2       3.6266      2.00000
      3      17.4165      0.00000
      4      17.5114      0.00000
      5      20.1011      0.00000

 k-point   118 :       0.5000    0.4737    0.5263
  band No.  band energies     occupation 
      1       3.3944      2.00000
      2       3.5656      2.00000
      3      18.1022      0.00000
      4      18.1420      0.00000
      5      19.9173      0.00000

 k-point   119 :       0.5000    0.4868    0.5132
  band No.  band energies     occupation 
      1       3.3597      2.00000
      2       3.5289      2.00000
      3      18.7273      0.00000
      4      18.7295      0.00000
      5      19.6672      0.00000

 k-point   120 :       0.5000    0.5000    0.5000
  band No.  band energies     occupation 
      1       3.3482      2.00000
      2       3.5167      2.00000
      3      19.1863      0.00000
      4      19.1866      0.00000
      5      19.3308      0.00000

 k-point   121 :       0.5000    0.5000    0.5000
  band No.  band energies     occupation 
      1       3.3482      2.00000
      2       3.5167      2.00000
      3      19.1863      0.00000
      4      19.1874      0.00000
      5      19.3308      0.00000

 k-point   122 :       0.4737    0.4737    0.4737
  band No.  band energies     occupation 
      1       2.7624      2.00000
      2       4.1354      2.00000
      3      19.0574      0.00000
      4      19.0574      0.00000
      5      19.4912      0.00000

 k-point   123 :       0.4474    0.4474    0.4474
  band No.  band energies     occupation 
      1       2.1335      2.00000
      2       4.8631      2.00000
      3      18.9062      0.00000
      4      18.9062      0.00000
      5      19.7367      0.00000

 k-point   124 :       0.4211    0.4211    0.4211
  band No.  band energies     occupation 
      1       1.5366      2.00000
      2       5.6245      2.00000
      3      18.7826      0.00000
      4      18.7826      0.00000
      5      20.0175      0.00000

 k-point   125 :       0.3947    0.3947    0.3947
  band No.  band energies     occupation 
      1       0.9733      2.00000
      2       6.4179      2.00001
      3      18.6895      0.00000
      4      18.6895      0.00000
      5      20.3301      0.00000

 k-point   126 :       0.3684    0.3684    0.3684
  band No.  band energies     occupation 
      1       0.4444      2.00000
      2       7.2424      0.13222
      3      18.6275      0.00000
      4      18.6275      0.00000
      5      20.6736      0.00000

 k-point   127 :       0.3421    0.3421    0.3421
  band No.  band energies     occupation 
      1      -0.0498      2.00000
      2       8.0974     -0.00000
      3      18.5966      0.00000
      4      18.5966      0.00000
      5      21.0469      0.00000

 k-point   128 :       0.3158    0.3158    0.3158
  band No.  band energies     occupation 
      1      -0.5088      2.00000
      2       8.9820     -0.00000
      3      18.5968      0.00000
      4      18.5968      0.00000
      5      21.4487      0.00000

 k-point   129 :       0.2895    0.2895    0.2895
  band No.  band energies     occupation 
      1      -0.9324      2.00000
      2       9.8956     -0.00000
      3      18.6281      0.00000
      4      18.6281      0.00000
      5      21.8771      0.00000

 k-point   130 :       0.2632    0.2632    0.2632
  band No.  band energies     occupation 
      1      -1.3203      2.00000
      2      10.8371     -0.00000
      3      18.6902      0.00000
      4      18.6902      0.00000
      5      22.1804      0.00000

 k-point   131 :       0.2368    0.2368    0.2368
  band No.  band energies     occupation 
      1      -1.6721      2.00000
      2      11.8052     -0.00000
      3      18.7828      0.00000
      4      18.7828      0.00000
      5      22.2173      0.00000

 k-point   132 :       0.2105    0.2105    0.2105
  band No.  band energies     occupation 
      1      -1.9876      2.00000
      2      12.7985      0.00000
      3      18.9056      0.00000
      4      18.9056      0.00000
      5      22.2802      0.00000

 k-point   133 :       0.1842    0.1842    0.1842
  band No.  band energies     occupation 
      1      -2.2665      2.00000
      2      13.8148      0.00000
      3      19.0578      0.00000
      4      19.0578      0.00000
      5      22.3562      0.00000

 k-point   134 :       0.1579    0.1579    0.1579
  band No.  band energies     occupation 
      1      -2.5087      2.00000
      2      14.8512      0.00000
      3      19.2383      0.00000
      4      19.2383      0.00000
      5      22.4382      0.00000

 k-point   135 :       0.1316    0.1316    0.1316
  band No.  band energies     occupation 
      1      -2.7140      2.00000
      2      15.9035      0.00000
      3      19.4453      0.00000
      4      19.4453      0.00000
      5      22.5146      0.00000

 k-point   136 :       0.1053    0.1053    0.1053
  band No.  band energies     occupation 
      1      -2.8822      2.00000
      2      16.9648      0.00000
      3      19.6752      0.00000
      4      19.6752      0.00000
      5      22.5684      0.00000

 k-point   137 :       0.0789    0.0789    0.0789
  band No.  band energies     occupation 
      1      -3.0131      2.00000
      2      18.0228      0.00000
      3      19.9211      0.00000
      4      19.9211      0.00000
      5      22.5893      0.00000

 k-point   138 :       0.0526    0.0526    0.0526
  band No.  band energies     occupation 
      1      -3.1067      2.00000
      2      19.0514      0.00000
      3      20.1669      0.00000
      4      20.1669      0.00000
      5      22.2850      0.00000

 k-point   139 :       0.0263    0.0263    0.0263
  band No.  band energies     occupation 
      1      -3.1629      2.00000
      2      19.9754      0.00000
      3      20.3742      0.00000
      4      20.3742      0.00000
      5      21.9913      0.00000

 k-point   140 :       0.0000    0.0000    0.0000
  band No.  band energies     occupation 
      1      -3.1816      2.00000
      2      20.4632      0.00000
      3      20.4632      0.00000
      4      20.4632      0.00000
      5      21.8731      0.00000

 k-point   141 :       0.0000    0.0000    0.0000
  band No.  band energies     occupation 
      1      -3.1816      2.00000
      2      20.4632      0.00000
      3      20.4632      0.00000
      4      20.4632      0.00000
      5      21.8731      0.00000

 k-point   142 :       0.0197    0.0197    0.0395
  band No.  band energies     occupation 
      1      -3.1535      2.00000
      2      19.8944      0.00000
      3      20.0715      0.00000
      4      20.4905      0.00000
      5      21.8916      0.00000

 k-point   143 :       0.0395    0.0395    0.0789
  band No.  band energies     occupation 
      1      -3.0693      2.00000
      2      18.8781      0.00000
      3      19.3201      0.00000
      4      20.5725      0.00000
      5      21.9429      0.00000

 k-point   144 :       0.0592    0.0592    0.1184
  band No.  band energies     occupation 
      1      -2.9289      2.00000
      2      17.7908      0.00000
      3      18.4757      0.00000
      4      20.7090      0.00000
      5      22.0244      0.00000

 k-point   145 :       0.0789    0.0789    0.1579
  band No.  band energies     occupation 
      1      -2.7327      2.00000
      2      16.7084      0.00000
      3      17.5989      0.00000
      4      20.9000      0.00000
      5      22.1204      0.00000

 k-point   146 :       0.0987    0.0987    0.1974
  band No.  band energies     occupation 
      1      -2.4808      2.00000
      2      15.6553      0.00000
      3      16.7134      0.00000
      4      21.1453      0.00000
      5      22.1747      0.00000

 k-point   147 :       0.1184    0.1184    0.2368
  band No.  band energies     occupation 
      1      -2.1735      2.00000
      2      14.6420      0.00000
      3      15.8330      0.00000
      4      21.4448      0.00000
      5      21.9777      0.00000

 k-point   148 :       0.1382    0.1382    0.2763
  band No.  band energies     occupation 
      1      -1.8111      2.00000
      2      13.6739      0.00000
      3      14.9676      0.00000
      4      21.3694      0.00000
      5      21.7983      0.00000

 k-point   149 :       0.1579    0.1579    0.3158
  band No.  band energies     occupation 
      1      -1.3942      2.00000
      2      12.7539      0.00000
      3      14.1247      0.00000
      4      20.6096      0.00000
      5      22.2066      0.00000

 k-point   150 :       0.1776    0.1776    0.3553
  band No.  band energies     occupation 
      1      -0.9232      2.00000
      2      11.8835     -0.00000
      3      13.3099      0.00000
      4      19.8394      0.00000
      5      21.8827      0.00000

 k-point   151 :       0.1974    0.1974    0.3947
  band No.  band energies     occupation 
      1      -0.3986      2.00000
      2      11.0640     -0.00000
      3      12.5281     -0.00000
      4      19.0954      0.00000
      5      21.1347      0.00000

 k-point   152 :       0.2171    0.2171    0.4342
  band No.  band energies     occupation 
      1       0.1791      2.00000
      2      10.2958     -0.00000
      3      11.7830     -0.00000
      4      18.3895      0.00000
      5      20.4140      0.00000

 k-point   153 :       0.2368    0.2368    0.4737
  band No.  band energies     occupation 
      1       0.8090      2.00000
      2       9.5793     -0.00000
      3      11.0778     -0.00000
      4      17.7268      0.00000
      5      19.7260      0.00000

 k-point   154 :       0.2566    0.2566    0.5132
  band No.  band energies     occupation 
      1       1.4904      2.00000
      2       8.9147     -0.00000
      3      10.4152     -0.00000
      4      17.1097      0.00000
      5      19.0748      0.00000

 k-point   155 :       0.2763    0.2763    0.5526
  band No.  band energies     occupation 
      1       2.2225      2.00000
      2       8.3023     -0.00000
      3       9.7974     -0.00000
      4      16.5395      0.00000
      5      18.4634      0.00000

 k-point   156 :       0.2961    0.2961    0.5921
  band No.  band energies     occupation 
      1       3.0042      2.00000
      2       7.7419     -0.00009
      3       9.2267     -0.00000
      4      16.0170      0.00000
      5      17.8943      0.00000

 k-point   157 :       0.3158    0.3158    0.6316
  band No.  band energies     occupation 
      1       3.8339      2.00000
      2       7.2335      0.17106
      3       8.7049     -0.00000
      4      15.5426      0.00000
      5      17.3694      0.00000

 k-point   158 :       0.3355    0.3355    0.6711
  band No.  band energies     occupation 
      1       4.7096      2.00000
      2       6.7772      2.03762
      3       8.2346     -0.00000
      4      15.1164      0.00000
      5      16.8897      0.00000

 k-point   159 :       0.3553    0.3553    0.7105
  band No.  band energies     occupation 
      1       5.6262      2.00000
      2       6.3727      2.00000
      3       7.8202     -0.00001
      4      14.7386      0.00000
      5      16.4556      0.00000

 k-point   160 :       0.3750    0.3750    0.7500
  band No.  band energies     occupation 
      1       6.0202      2.00000
      2       6.5591      2.00059
      3       7.4854     -0.02535
      4      14.4092      0.00000
      5      16.0662      0.00000


--------------------------------------------------------------------------------------------------------


 soft charge-density along one line, spin component           1
         0         1         2         3         4         5         6         7         8         9
 total charge-density along one line
 
 pseudopotential strength for first ion, spin component:           1
  8.545   0.000  -0.006   0.000   0.000   0.000  -0.000   0.000  -0.000   0.000   0.000   0.000  -0.000   0.000  -0.000   0.000
 -0.006   0.000   0.000   0.000   0.000   0.000  -0.000   0.000  -0.000   0.000  -0.000   0.000   0.000   0.000   0.000   0.000
  0.000   0.000   0.000   0.000   2.015   0.000   0.000   0.000   0.000   0.000  -0.026   0.000  -0.000   0.000  -0.000   0.000
 -0.000   0.000  -0.000   0.000   0.000   0.000   2.015   0.000   0.000   0.000  -0.000   0.000  -0.026   0.000  -0.000   0.000
 -0.000   0.000  -0.000   0.000   0.000   0.000   0.000   0.000   2.015   0.000  -0.000   0.000  -0.000   0.000  -0.026   0.000
  0.000   0.000  -0.000   0.000  -0.026   0.000  -0.000   0.000  -0.000   0.000  -0.012   0.000  -0.000   0.000  -0.000   0.000
 -0.000   0.000   0.000   0.000  -0.000   0.000  -0.026   0.000  -0.000   0.000  -0.000   0.000  -0.012   0.000  -0.000   0.000
 -0.000   0.000   0.000   0.000  -0.000   0.000  -0.000   0.000  -0.026   0.000  -0.000   0.000  -0.000   0.000  -0.012   0.000
 total augmentation occupancy for first ion, spin component:           1
  2.000   0.000   0.000   0.000   0.000   0.000   0.000   0.000
  0.000   0.000   0.000   0.000   0.000   0.000   0.000   0.000
  0.000   0.000   0.333   0.000   0.000   0.000   0.000   0.000
  0.000   0.000   0.000   0.333   0.000   0.000   0.000   0.000
  0.000   0.000   0.000   0.000   0.333   0.000   0.000   0.000
  0.000   0.000   0.000   0.000   0.000   0.000   0.000   0.000
  0.000   0.000   0.000   0.000   0.000   0.000   0.000   0.000
  0.000   0.000   0.000   0.000   0.000   0.000   0.000   0.000


------------------------ aborting loop because EDIFF is reached ----------------------------------------


    CHARGE:  cpu time    0.0189: real time    0.0190
    FORLOC:  cpu time    0.0013: real time    0.0013
    FORNL :  cpu time    0.0257: real time    0.0257
    STRESS:  cpu time    0.1590: real time    0.1594
    FORCOR:  cpu time    0.0206: real time    0.0206
    FORHAR:  cpu time    0.0047: real time    0.0047
    OFIELD:  cpu time    0.0001: real time    0.0001

  FORCE on cell =-STRESS in cart. coord.  units (eV):
  Direction    XX          YY          ZZ          XY          YZ          ZX
  --------------------------------------------------------------------------------------
  Alpha Z    -0.15333    -0.15333    -0.15333
  Ewald     -24.45224   -24.45224   -24.45224     0.00000     0.00000    -0.00000
  Hartree     0.04388     0.04388     0.04388     0.00000     0.00000     0.00000
  E(xc)      -8.59915    -8.59915    -8.59915     0.00000     0.00000     0.00000
  Local       0.37582     0.37582     0.37582    -0.00000    -0.00000    -0.00000
  n-local    17.80339    19.25141    17.37907    -0.31713    -0.32216    -0.24027
  augment    -0.90855    -0.90855    -0.90855     0.00000     0.00000     0.00000
  Kinetic    21.91638    13.52952    10.43559     3.98860     4.56937     8.81987
  Fock        0.00000     0.00000     0.00000     0.00000     0.00000     0.00000
  -------------------------------------------------------------------------------------
  Total      -0.25510    -0.25510    -0.25510     0.00000     0.00000     0.00000
  in kB     -24.61054   -24.61054   -24.61054     0.00000     0.00000     0.00000
  external pressure =      -24.61 kB  Pullay stress =        0.00 kB


 VOLUME and BASIS-vectors are now :
 -----------------------------------------------------------------------------
  energy-cutoff  :      500.00
  volume of cell :       16.61
      direct lattice vectors                 reciprocal lattice vectors
     2.025000000  2.025000000  0.000000000     0.246913580  0.246913580 -0.246913580
     0.000000000  2.025000000  2.025000000    -0.246913580  0.246913580  0.246913580
     2.025000000  0.000000000  2.025000000     0.246913580 -0.246913580  0.246913580

  length of vectors
     2.863782464  2.863782464  2.863782464     0.427666866  0.427666866  0.427666866


 FORCES acting on ions
    electron-ion (+dipol)            ewald-force                    non-local-force                 convergence-correction
 -----------------------------------------------------------------------------------------------
   -.580E-15 -.102E-14 0.957E-15   -.122E-15 -.249E-16 -.758E-16   0.248E-23 0.827E-23 0.579E-23   0.771E-18 -.320E-17 0.215E-18
 -----------------------------------------------------------------------------------------------
   -.580E-15 -.102E-14 0.957E-15   -.122E-15 -.249E-16 -.758E-16   0.248E-23 0.827E-23 0.579E-23   0.771E-18 -.320E-17 0.215E-18
 
 
 POSITION                                       TOTAL-FORCE (eV/Angst)
 -----------------------------------------------------------------------------------
      0.00000      0.00000      0.00000         0.000000      0.000000      0.000000
 -----------------------------------------------------------------------------------
    total drift:                               -0.000000     -0.000000      0.000000


--------------------------------------------------------------------------------------------------------



  FREE ENERGIE OF THE ION-ELECTRON SYSTEM (eV)
  ---------------------------------------------------
  free  energy   TOTEN  =        -3.37831758 eV

  energy  without entropy=       -3.37677034  energy(sigma->0) =       -3.37780183
 


--------------------------------------------------------------------------------------------------------


    POTLOK:  cpu time    0.0211: real time    0.0211


--------------------------------------------------------------------------------------------------------


     LOOP+:  cpu time    1.7334: real time    1.7475
    4ORBIT:  cpu time    0.0000: real time    0.0000

 total amount of memory used by VASP MPI-rank0    45317. kBytes
=======================================================================

   base      :      30000. kBytes
   nonl-proj :       4553. kBytes
   fftplans  :       2224. kBytes
   grid      :       2752. kBytes
   one-center:          3. kBytes
   wavefun   :       5785. kBytes
 
  
  
 General timing and accounting informations for this job:
 ========================================================
  
                  Total CPU time used (sec):        2.033
                            User time (sec):        1.909
                          System time (sec):        0.124
                         Elapsed time (sec):        2.179
  
                   Maximum memory used (kb):       74840.
                   Average memory used (kb):           0.
  
                          Minor page faults:         7863
                          Major page faults:            0
                 Voluntary context switches:          252
