 running on    1 total cores
 distrk:  each k-point on    1 cores,    1 groups
 distr:  one band on    1 cores,    1 groups
 using from now: INCAR     
 vasp.5.4.4.18Apr17-6-g9f103f2a35 (build May 20 2018 16:52:39) complex          
  
 POSCAR found type information on POSCAR  Al
 POSCAR found :  1 types and       1 ions
 scaLAPACK will be used
 LDA part: xc-table for Ceperly-Alder, standard interpolation
 WARNING: stress and forces are not correct
 POSCAR, INCAR and KPOINTS ok, starting setup
 FFT: planning ...
 WAVECAR not read
 reading imaginary part of occupancies ...
 charge-density read from file: fcc                                     
 entering main loop
       N       E                     dE             d eps       ncg     rms          rms(c)
DAV:   1    -0.122116520088E+01   -0.12212E+01   -0.78938E+02  1685   0.298E+02
DAV:   2    -0.335519049990E+01   -0.21340E+01   -0.20072E+01  2025   0.288E+01
DAV:   3    -0.337823867212E+01   -0.23048E-01   -0.22981E-01  2320   0.363E+00
DAV:   4    -0.337831705835E+01   -0.78386E-04   -0.78385E-04  2270   0.202E-01
DAV:   5    -0.337831757384E+01   -0.51550E-06   -0.51581E-06  2400   0.126E-02
DAV:   6    -0.337831757900E+01   -0.51594E-08   -0.55991E-08  2255   0.114E-03
   1 F= -.33783176E+01 E0= -.33778018E+01  d E =-.154724E-02
