   4   4   1   0
  0.9063964E+01  0.5107186E-09  0.5107186E-09  0.5107186E-09  0.5000000E-15
  1.000000000000000E-004
  CAR 
 "NiO"                                   
     19.57390389    -61.78041246  301      5.81146537      1.00000000
    -61.780  0.0000E+00  0.0000E+00  0.0000E+00  0.0000E+00
    -61.509  0.0000E+00  0.0000E+00  0.0000E+00  0.0000E+00
    -61.238  0.0000E+00  0.0000E+00  0.0000E+00  0.0000E+00
    -60.967  0.0000E+00  0.0000E+00  0.0000E+00  0.0000E+00
    -60.696  0.0000E+00  0.0000E+00  0.0000E+00  0.0000E+00
    -60.425  0.0000E+00  0.0000E+00  0.0000E+00  0.0000E+00
    -60.153  0.0000E+00  0.0000E+00  0.0000E+00  0.0000E+00
    -59.882  0.0000E+00  0.0000E+00  0.0000E+00  0.0000E+00
    -59.611  0.0000E+00  0.0000E+00  0.0000E+00  0.0000E+00
    -59.340  0.0000E+00  0.0000E+00  0.0000E+00  0.0000E+00
    -59.069  0.0000E+00  0.0000E+00  0.0000E+00  0.0000E+00
    -58.797  0.0000E+00  0.0000E+00  0.0000E+00  0.0000E+00
    -58.526  0.0000E+00  0.0000E+00  0.0000E+00  0.0000E+00
    -58.255  0.0000E+00  0.0000E+00  0.0000E+00  0.0000E+00
    -57.984  0.0000E+00  0.0000E+00  0.3000E+01  0.3000E+01
    -57.713  0.0000E+00  0.0000E+00  0.3000E+01  0.3000E+01
    -57.442  0.0000E+00  0.0000E+00  0.3000E+01  0.3000E+01
    -57.170  0.0000E+00  0.0000E+00  0.3000E+01  0.3000E+01
    -56.899  0.0000E+00  0.0000E+00  0.3000E+01  0.3000E+01
    -56.628  0.0000E+00  0.0000E+00  0.3000E+01  0.3000E+01
    -56.357  0.0000E+00  0.0000E+00  0.3000E+01  0.3000E+01
    -56.086  0.0000E+00  0.0000E+00  0.3000E+01  0.3000E+01
    -55.814  0.0000E+00  0.0000E+00  0.6000E+01  0.6000E+01
    -55.543  0.0000E+00  0.0000E+00  0.6000E+01  0.6000E+01
    -55.272  0.0000E+00  0.0000E+00  0.6000E+01  0.6000E+01
    -55.001  0.0000E+00  0.0000E+00  0.6000E+01  0.6000E+01
    -54.730  0.0000E+00  0.0000E+00  0.6000E+01  0.6000E+01
    -54.459  0.0000E+00  0.0000E+00  0.6000E+01  0.6000E+01
    -54.187  0.0000E+00  0.0000E+00  0.6000E+01  0.6000E+01
    -53.916  0.0000E+00  0.0000E+00  0.6000E+01  0.6000E+01
    -53.645  0.0000E+00  0.0000E+00  0.6000E+01  0.6000E+01
    -53.374  0.0000E+00  0.0000E+00  0.6000E+01  0.6000E+01
    -53.103  0.0000E+00  0.0000E+00  0.6000E+01  0.6000E+01
    -52.831  0.0000E+00  0.0000E+00  0.6000E+01  0.6000E+01
    -52.560  0.0000E+00  0.0000E+00  0.6000E+01  0.6000E+01
    -52.289  0.0000E+00  0.0000E+00  0.6000E+01  0.6000E+01
    -52.018  0.0000E+00  0.0000E+00  0.6000E+01  0.6000E+01
    -51.747  0.0000E+00  0.0000E+00  0.6000E+01  0.6000E+01
    -51.476  0.0000E+00  0.0000E+00  0.6000E+01  0.6000E+01
    -51.204  0.0000E+00  0.0000E+00  0.6000E+01  0.6000E+01
    -50.933  0.0000E+00  0.0000E+00  0.6000E+01  0.6000E+01
    -50.662  0.0000E+00  0.0000E+00  0.6000E+01  0.6000E+01
    -50.391  0.0000E+00  0.0000E+00  0.6000E+01  0.6000E+01
    -50.120  0.0000E+00  0.0000E+00  0.6000E+01  0.6000E+01
    -49.848  0.0000E+00  0.0000E+00  0.6000E+01  0.6000E+01
    -49.577  0.0000E+00  0.0000E+00  0.6000E+01  0.6000E+01
    -49.306  0.0000E+00  0.0000E+00  0.6000E+01  0.6000E+01
    -49.035  0.0000E+00  0.0000E+00  0.6000E+01  0.6000E+01
    -48.764  0.0000E+00  0.0000E+00  0.6000E+01  0.6000E+01
    -48.493  0.0000E+00  0.0000E+00  0.6000E+01  0.6000E+01
    -48.221  0.0000E+00  0.0000E+00  0.6000E+01  0.6000E+01
    -47.950  0.0000E+00  0.0000E+00  0.6000E+01  0.6000E+01
    -47.679  0.0000E+00  0.0000E+00  0.6000E+01  0.6000E+01
    -47.408  0.0000E+00  0.0000E+00  0.6000E+01  0.6000E+01
    -47.137  0.0000E+00  0.0000E+00  0.6000E+01  0.6000E+01
    -46.865  0.0000E+00  0.0000E+00  0.6000E+01  0.6000E+01
    -46.594  0.0000E+00  0.0000E+00  0.6000E+01  0.6000E+01
    -46.323  0.0000E+00  0.0000E+00  0.6000E+01  0.6000E+01
    -46.052  0.0000E+00  0.0000E+00  0.6000E+01  0.6000E+01
    -45.781  0.0000E+00  0.0000E+00  0.6000E+01  0.6000E+01
    -45.510  0.0000E+00  0.0000E+00  0.6000E+01  0.6000E+01
    -45.238  0.0000E+00  0.0000E+00  0.6000E+01  0.6000E+01
    -44.967  0.0000E+00  0.0000E+00  0.6000E+01  0.6000E+01
    -44.696  0.0000E+00  0.0000E+00  0.6000E+01  0.6000E+01
    -44.425  0.0000E+00  0.0000E+00  0.6000E+01  0.6000E+01
    -44.154  0.0000E+00  0.0000E+00  0.6000E+01  0.6000E+01
    -43.882  0.0000E+00  0.0000E+00  0.6000E+01  0.6000E+01
    -43.611  0.0000E+00  0.0000E+00  0.6000E+01  0.6000E+01
    -43.340  0.0000E+00  0.0000E+00  0.6000E+01  0.6000E+01
    -43.069  0.0000E+00  0.0000E+00  0.6000E+01  0.6000E+01
    -42.798  0.0000E+00  0.0000E+00  0.6000E+01  0.6000E+01
    -42.527  0.0000E+00  0.0000E+00  0.6000E+01  0.6000E+01
    -42.255  0.0000E+00  0.0000E+00  0.6000E+01  0.6000E+01
    -41.984  0.0000E+00  0.0000E+00  0.6000E+01  0.6000E+01
    -41.713  0.0000E+00  0.0000E+00  0.6000E+01  0.6000E+01
    -41.442  0.0000E+00  0.0000E+00  0.6000E+01  0.6000E+01
    -41.171  0.0000E+00  0.0000E+00  0.6000E+01  0.6000E+01
    -40.899  0.0000E+00  0.0000E+00  0.6000E+01  0.6000E+01
    -40.628  0.0000E+00  0.0000E+00  0.6000E+01  0.6000E+01
    -40.357  0.0000E+00  0.0000E+00  0.6000E+01  0.6000E+01
    -40.086  0.0000E+00  0.0000E+00  0.6000E+01  0.6000E+01
    -39.815  0.0000E+00  0.0000E+00  0.6000E+01  0.6000E+01
    -39.544  0.0000E+00  0.0000E+00  0.6000E+01  0.6000E+01
    -39.272  0.0000E+00  0.0000E+00  0.6000E+01  0.6000E+01
    -39.001  0.0000E+00  0.0000E+00  0.6000E+01  0.6000E+01
    -38.730  0.0000E+00  0.0000E+00  0.6000E+01  0.6000E+01
    -38.459  0.0000E+00  0.0000E+00  0.6000E+01  0.6000E+01
    -38.188  0.0000E+00  0.0000E+00  0.6000E+01  0.6000E+01
    -37.916  0.0000E+00  0.0000E+00  0.6000E+01  0.6000E+01
    -37.645  0.0000E+00  0.0000E+00  0.6000E+01  0.6000E+01
    -37.374  0.0000E+00  0.0000E+00  0.6000E+01  0.6000E+01
    -37.103  0.0000E+00  0.0000E+00  0.6000E+01  0.6000E+01
    -36.832  0.0000E+00  0.0000E+00  0.6000E+01  0.6000E+01
    -36.561  0.0000E+00  0.0000E+00  0.6000E+01  0.6000E+01
    -36.289  0.0000E+00  0.0000E+00  0.6000E+01  0.6000E+01
    -36.018  0.0000E+00  0.0000E+00  0.6000E+01  0.6000E+01
    -35.747  0.0000E+00  0.0000E+00  0.6000E+01  0.6000E+01
    -35.476  0.0000E+00  0.0000E+00  0.6000E+01  0.6000E+01
    -35.205  0.0000E+00  0.0000E+00  0.6000E+01  0.6000E+01
    -34.933  0.0000E+00  0.0000E+00  0.6000E+01  0.6000E+01
    -34.662  0.0000E+00  0.0000E+00  0.6000E+01  0.6000E+01
    -34.391  0.0000E+00  0.0000E+00  0.6000E+01  0.6000E+01
    -34.120  0.0000E+00  0.0000E+00  0.6000E+01  0.6000E+01
    -33.849  0.0000E+00  0.0000E+00  0.6000E+01  0.6000E+01
    -33.578  0.0000E+00  0.0000E+00  0.6000E+01  0.6000E+01
    -33.306  0.0000E+00  0.0000E+00  0.6000E+01  0.6000E+01
    -33.035  0.0000E+00  0.0000E+00  0.6000E+01  0.6000E+01
    -32.764  0.0000E+00  0.0000E+00  0.6000E+01  0.6000E+01
    -32.493  0.0000E+00  0.0000E+00  0.6000E+01  0.6000E+01
    -32.222  0.0000E+00  0.0000E+00  0.6000E+01  0.6000E+01
    -31.950  0.0000E+00  0.0000E+00  0.6000E+01  0.6000E+01
    -31.679  0.0000E+00  0.0000E+00  0.6000E+01  0.6000E+01
    -31.408  0.0000E+00  0.0000E+00  0.6000E+01  0.6000E+01
    -31.137  0.0000E+00  0.0000E+00  0.6000E+01  0.6000E+01
    -30.866  0.0000E+00  0.0000E+00  0.6000E+01  0.6000E+01
    -30.595  0.0000E+00  0.0000E+00  0.6000E+01  0.6000E+01
    -30.323  0.0000E+00  0.0000E+00  0.6000E+01  0.6000E+01
    -30.052  0.0000E+00  0.0000E+00  0.6000E+01  0.6000E+01
    -29.781  0.0000E+00  0.0000E+00  0.6000E+01  0.6000E+01
    -29.510  0.0000E+00  0.0000E+00  0.6000E+01  0.6000E+01
    -29.239  0.0000E+00  0.0000E+00  0.6000E+01  0.6000E+01
    -28.968  0.0000E+00  0.0000E+00  0.6000E+01  0.6000E+01
    -28.696  0.0000E+00  0.0000E+00  0.6000E+01  0.6000E+01
    -28.425  0.0000E+00  0.0000E+00  0.6000E+01  0.6000E+01
    -28.154  0.0000E+00  0.0000E+00  0.6000E+01  0.6000E+01
    -27.883  0.0000E+00  0.0000E+00  0.6000E+01  0.6000E+01
    -27.612  0.0000E+00  0.0000E+00  0.6000E+01  0.6000E+01
    -27.340  0.0000E+00  0.0000E+00  0.6000E+01  0.6000E+01
    -27.069  0.0000E+00  0.0000E+00  0.6000E+01  0.6000E+01
    -26.798  0.0000E+00  0.0000E+00  0.6000E+01  0.6000E+01
    -26.527  0.0000E+00  0.0000E+00  0.6000E+01  0.6000E+01
    -26.256  0.0000E+00  0.0000E+00  0.6000E+01  0.6000E+01
    -25.985  0.0000E+00  0.0000E+00  0.6000E+01  0.6000E+01
    -25.713  0.0000E+00  0.0000E+00  0.6000E+01  0.6000E+01
    -25.442  0.0000E+00  0.0000E+00  0.6000E+01  0.6000E+01
    -25.171  0.0000E+00  0.0000E+00  0.6000E+01  0.6000E+01
    -24.900  0.0000E+00  0.0000E+00  0.6000E+01  0.6000E+01
    -24.629  0.0000E+00  0.0000E+00  0.6000E+01  0.6000E+01
    -24.357  0.0000E+00  0.0000E+00  0.6000E+01  0.6000E+01
    -24.086  0.0000E+00  0.0000E+00  0.6000E+01  0.6000E+01
    -23.815  0.0000E+00  0.0000E+00  0.6000E+01  0.6000E+01
    -23.544  0.0000E+00  0.0000E+00  0.6000E+01  0.6000E+01
    -23.273  0.0000E+00  0.0000E+00  0.6000E+01  0.6000E+01
    -23.002  0.0000E+00  0.0000E+00  0.6000E+01  0.6000E+01
    -22.730  0.0000E+00  0.0000E+00  0.6000E+01  0.6000E+01
    -22.459  0.0000E+00  0.0000E+00  0.6000E+01  0.6000E+01
    -22.188  0.0000E+00  0.0000E+00  0.6000E+01  0.6000E+01
    -21.917  0.0000E+00  0.0000E+00  0.6000E+01  0.6000E+01
    -21.646  0.0000E+00  0.0000E+00  0.6000E+01  0.6000E+01
    -21.374  0.0000E+00  0.0000E+00  0.6000E+01  0.6000E+01
    -21.103  0.0000E+00  0.0000E+00  0.6000E+01  0.6000E+01
    -20.832  0.0000E+00  0.0000E+00  0.6000E+01  0.6000E+01
    -20.561  0.0000E+00  0.0000E+00  0.6000E+01  0.6000E+01
    -20.290  0.0000E+00  0.0000E+00  0.6000E+01  0.6000E+01
    -20.019  0.0000E+00  0.0000E+00  0.6000E+01  0.6000E+01
    -19.747  0.0000E+00  0.0000E+00  0.6000E+01  0.6000E+01
    -19.476  0.0000E+00  0.0000E+00  0.6000E+01  0.6000E+01
    -19.205  0.0000E+00  0.0000E+00  0.6000E+01  0.6000E+01
    -18.934  0.0000E+00  0.0000E+00  0.6000E+01  0.6000E+01
    -18.663  0.0000E+00  0.0000E+00  0.6000E+01  0.6000E+01
    -18.391  0.0000E+00  0.0000E+00  0.6000E+01  0.6000E+01
    -18.120  0.0000E+00  0.0000E+00  0.6000E+01  0.6000E+01
    -17.849  0.0000E+00  0.0000E+00  0.6000E+01  0.6000E+01
    -17.578  0.0000E+00  0.0000E+00  0.6000E+01  0.6000E+01
    -17.307  0.0000E+00  0.0000E+00  0.6000E+01  0.6000E+01
    -17.036  0.0000E+00  0.0000E+00  0.6000E+01  0.6000E+01
    -16.764  0.0000E+00  0.0000E+00  0.6000E+01  0.6000E+01
    -16.493  0.0000E+00  0.0000E+00  0.6000E+01  0.6000E+01
    -16.222  0.0000E+00  0.0000E+00  0.6000E+01  0.6000E+01
    -15.951  0.0000E+00  0.0000E+00  0.6000E+01  0.6000E+01
    -15.680  0.0000E+00  0.0000E+00  0.6000E+01  0.6000E+01
    -15.408  0.0000E+00  0.0000E+00  0.6000E+01  0.6000E+01
    -15.137  0.0000E+00  0.0000E+00  0.6000E+01  0.6000E+01
    -14.866  0.0000E+00  0.0000E+00  0.6000E+01  0.6000E+01
    -14.595  0.0000E+00  0.0000E+00  0.6000E+01  0.6000E+01
    -14.324  0.0000E+00  0.0000E+00  0.6000E+01  0.6000E+01
    -14.053  0.0000E+00  0.0000E+00  0.6000E+01  0.6000E+01
    -13.781  0.0000E+00  0.0000E+00  0.6000E+01  0.6000E+01
    -13.510  0.0000E+00  0.0000E+00  0.6000E+01  0.6000E+01
    -13.239  0.0000E+00  0.0000E+00  0.6000E+01  0.6000E+01
    -12.968  0.0000E+00  0.0000E+00  0.6000E+01  0.6000E+01
    -12.697  0.8184E-01  0.8184E-01  0.6006E+01  0.6006E+01
    -12.425  0.3169E+00  0.3169E+00  0.6058E+01  0.6058E+01
    -12.154  0.6337E+00  0.6337E+00  0.6183E+01  0.6183E+01
    -11.883  0.9928E+00  0.9928E+00  0.6407E+01  0.6407E+01
    -11.612  0.2047E+01  0.2047E+01  0.6782E+01  0.6782E+01
    -11.341  0.2790E+01  0.2790E+01  0.7974E+01  0.7974E+01
    -11.070  0.0000E+00  0.0000E+00  0.8000E+01  0.8000E+01
    -10.798  0.0000E+00  0.0000E+00  0.8000E+01  0.8000E+01
    -10.527  0.0000E+00  0.0000E+00  0.8000E+01  0.8000E+01
    -10.256  0.0000E+00  0.0000E+00  0.8000E+01  0.8000E+01
     -9.985  0.0000E+00  0.0000E+00  0.8000E+01  0.8000E+01
     -9.714  0.0000E+00  0.0000E+00  0.8000E+01  0.8000E+01
     -9.442  0.0000E+00  0.0000E+00  0.8000E+01  0.8000E+01
     -9.171  0.0000E+00  0.0000E+00  0.8000E+01  0.8000E+01
     -8.900  0.0000E+00  0.0000E+00  0.8000E+01  0.8000E+01
     -8.629  0.0000E+00  0.0000E+00  0.8000E+01  0.8000E+01
     -8.358  0.0000E+00  0.0000E+00  0.8000E+01  0.8000E+01
     -8.087  0.0000E+00  0.0000E+00  0.8000E+01  0.8000E+01
     -7.815  0.0000E+00  0.0000E+00  0.8000E+01  0.8000E+01
     -7.544  0.0000E+00  0.0000E+00  0.8000E+01  0.8000E+01
     -7.273  0.0000E+00  0.0000E+00  0.8000E+01  0.8000E+01
     -7.002  0.0000E+00  0.0000E+00  0.8000E+01  0.8000E+01
     -6.731  0.0000E+00  0.0000E+00  0.8000E+01  0.8000E+01
     -6.459  0.0000E+00  0.0000E+00  0.8000E+01  0.8000E+01
     -6.188  0.0000E+00  0.0000E+00  0.8000E+01  0.8000E+01
     -5.917  0.0000E+00  0.0000E+00  0.8000E+01  0.8000E+01
     -5.646  0.0000E+00  0.0000E+00  0.8000E+01  0.8000E+01
     -5.375  0.0000E+00  0.0000E+00  0.8000E+01  0.8000E+01
     -5.104  0.0000E+00  0.0000E+00  0.8000E+01  0.8000E+01
     -4.832  0.0000E+00  0.0000E+00  0.8000E+01  0.8000E+01
     -4.561  0.0000E+00  0.0000E+00  0.8000E+01  0.8000E+01
     -4.290  0.0000E+00  0.0000E+00  0.8000E+01  0.8000E+01
     -4.019  0.0000E+00  0.0000E+00  0.8000E+01  0.8000E+01
     -3.748  0.0000E+00  0.0000E+00  0.8000E+01  0.8000E+01
     -3.476  0.0000E+00  0.0000E+00  0.8000E+01  0.8000E+01
     -3.205  0.0000E+00  0.0000E+00  0.8000E+01  0.8000E+01
     -2.934  0.0000E+00  0.0000E+00  0.8000E+01  0.8000E+01
     -2.663  0.0000E+00  0.0000E+00  0.8000E+01  0.8000E+01
     -2.392  0.0000E+00  0.0000E+00  0.8000E+01  0.8000E+01
     -2.121  0.0000E+00  0.0000E+00  0.8000E+01  0.8000E+01
     -1.849  0.0000E+00  0.0000E+00  0.8000E+01  0.8000E+01
     -1.578  0.0000E+00  0.0000E+00  0.8000E+01  0.8000E+01
     -1.307  0.0000E+00  0.0000E+00  0.8000E+01  0.8000E+01
     -1.036  0.8607E-01  0.8607E-01  0.8007E+01  0.8007E+01
     -0.765  0.5109E+00  0.5109E+00  0.8074E+01  0.8074E+01
     -0.493  0.2046E+01  0.2046E+01  0.8371E+01  0.8371E+01
     -0.222  0.1260E+00  0.1260E+00  0.8975E+01  0.8975E+01
      0.049  0.6660E+00  0.6660E+00  0.9035E+01  0.9035E+01
      0.320  0.3422E+01  0.3422E+01  0.9540E+01  0.9540E+01
      0.591  0.2565E+01  0.2565E+01  0.1109E+02  0.1109E+02
      0.862  0.1254E+01  0.1254E+01  0.1166E+02  0.1166E+02
      1.134  0.7511E+00  0.7511E+00  0.1191E+02  0.1191E+02
      1.405  0.1169E+01  0.1169E+01  0.1218E+02  0.1218E+02
      1.676  0.1723E+01  0.1723E+01  0.1257E+02  0.1257E+02
      1.947  0.1622E+01  0.1622E+01  0.1302E+02  0.1302E+02
      2.218  0.3140E+01  0.3140E+01  0.1371E+02  0.1371E+02
      2.489  0.1372E+01  0.1372E+01  0.1401E+02  0.1401E+02
      2.761  0.2031E+01  0.2031E+01  0.1453E+02  0.1453E+02
      3.032  0.2320E+01  0.2320E+01  0.1517E+02  0.1517E+02
      3.303  0.2440E+01  0.2440E+01  0.1591E+02  0.1591E+02
      3.574  0.2028E+01  0.2028E+01  0.1686E+02  0.1686E+02
      3.845  0.3606E+01  0.3606E+01  0.1743E+02  0.1743E+02
      4.117  0.4116E+01  0.4116E+01  0.1804E+02  0.1804E+02
      4.388  0.5244E+01  0.5244E+01  0.1911E+02  0.1911E+02
      4.659  0.1006E-01  0.1006E-01  0.2000E+02  0.2000E+02
      4.930  0.3840E+01  0.3840E+01  0.2051E+02  0.2051E+02
      5.201  0.2583E+01  0.2583E+01  0.2167E+02  0.2167E+02
      5.472  0.2093E+00  0.2093E+00  0.2199E+02  0.2199E+02
      5.744  0.0000E+00  0.0000E+00  0.2200E+02  0.2200E+02
      6.015  0.0000E+00  0.0000E+00  0.2200E+02  0.2200E+02
      6.286  0.0000E+00  0.0000E+00  0.2200E+02  0.2200E+02
      6.557  0.0000E+00  0.0000E+00  0.2200E+02  0.2200E+02
      6.828  0.0000E+00  0.0000E+00  0.2200E+02  0.2200E+02
      7.100  0.0000E+00  0.0000E+00  0.2200E+02  0.2200E+02
      7.371  0.0000E+00  0.0000E+00  0.2200E+02  0.2200E+02
      7.642  0.0000E+00  0.0000E+00  0.2200E+02  0.2200E+02
      7.913  0.0000E+00  0.0000E+00  0.2200E+02  0.2200E+02
      8.184  0.0000E+00  0.0000E+00  0.2200E+02  0.2200E+02
      8.455  0.0000E+00  0.0000E+00  0.2200E+02  0.2200E+02
      8.727  0.0000E+00  0.0000E+00  0.2200E+02  0.2200E+02
      8.998  0.8784E+00  0.8784E+00  0.2207E+02  0.2207E+02
      9.269  0.2444E+01  0.2444E+01  0.2265E+02  0.2265E+02
      9.540  0.5294E+01  0.5294E+01  0.2344E+02  0.2344E+02
      9.811  0.3991E-01  0.3991E-01  0.2400E+02  0.2400E+02
     10.083  0.1532E-01  0.1532E-01  0.2400E+02  0.2400E+02
     10.354  0.2840E-01  0.2840E-01  0.2401E+02  0.2401E+02
     10.625  0.4257E-01  0.4257E-01  0.2402E+02  0.2402E+02
     10.896  0.5784E-01  0.5784E-01  0.2403E+02  0.2403E+02
     11.167  0.7421E-01  0.7421E-01  0.2405E+02  0.2405E+02
     11.438  0.9168E-01  0.9168E-01  0.2407E+02  0.2407E+02
     11.710  0.1107E+00  0.1107E+00  0.2410E+02  0.2410E+02
     11.981  0.1375E+00  0.1375E+00  0.2413E+02  0.2413E+02
     12.252  0.1771E+00  0.1771E+00  0.2418E+02  0.2418E+02
     12.523  0.2269E+00  0.2269E+00  0.2423E+02  0.2423E+02
     12.794  0.2841E+00  0.2841E+00  0.2430E+02  0.2430E+02
     13.066  0.3419E+00  0.3419E+00  0.2438E+02  0.2438E+02
     13.337  0.4052E+00  0.4052E+00  0.2448E+02  0.2448E+02
     13.608  0.4681E+00  0.4681E+00  0.2460E+02  0.2460E+02
     13.879  0.5875E+00  0.5875E+00  0.2474E+02  0.2474E+02
     14.150  0.7823E+00  0.7823E+00  0.2493E+02  0.2493E+02
     14.421  0.9190E+00  0.9190E+00  0.2516E+02  0.2516E+02
     14.693  0.5760E+00  0.5760E+00  0.2545E+02  0.2545E+02
     14.964  0.5504E+00  0.5504E+00  0.2560E+02  0.2560E+02
     15.235  0.5954E+00  0.5954E+00  0.2575E+02  0.2575E+02
     15.506  0.6067E+00  0.6067E+00  0.2593E+02  0.2593E+02
     15.777  0.4314E-01  0.4314E-01  0.2600E+02  0.2600E+02
     16.049  0.0000E+00  0.0000E+00  0.2600E+02  0.2600E+02
     16.320  0.0000E+00  0.0000E+00  0.2600E+02  0.2600E+02
     16.591  0.0000E+00  0.0000E+00  0.2600E+02  0.2600E+02
     16.862  0.0000E+00  0.0000E+00  0.2600E+02  0.2600E+02
     17.133  0.0000E+00  0.0000E+00  0.2600E+02  0.2600E+02
     17.404  0.0000E+00  0.0000E+00  0.2600E+02  0.2600E+02
     17.676  0.0000E+00  0.0000E+00  0.2600E+02  0.2600E+02
     17.947  0.0000E+00  0.0000E+00  0.2600E+02  0.2600E+02
     18.218  0.0000E+00  0.0000E+00  0.2600E+02  0.2600E+02
     18.489  0.0000E+00  0.0000E+00  0.2600E+02  0.2600E+02
     18.760  0.0000E+00  0.0000E+00  0.2600E+02  0.2600E+02
     19.032  0.0000E+00  0.0000E+00  0.2600E+02  0.2600E+02
     19.303  0.0000E+00  0.0000E+00  0.2600E+02  0.2600E+02
     19.574  0.0000E+00  0.0000E+00  0.2600E+02  0.2600E+02
     19.57390389    -61.78041246  301      5.81146537      1.00000000
    -61.780  0.0000E+00  0.0000E+00  0.0000E+00  0.0000E+00  0.0000E+00  0.0000E+00  0.0000E+00  0.0000E+00  0.0000E+00  0.0000E+00  0.0000E+00  0.0000E+00  0.0000E+00  0.0000E+00  0.0000E+00  0.0000E+00  0.0000E+00  0.0000E+00
    -61.509  0.0000E+00  0.0000E+00  0.0000E+00  0.0000E+00  0.0000E+00  0.0000E+00  0.0000E+00  0.0000E+00  0.0000E+00  0.0000E+00  0.0000E+00  0.0000E+00  0.0000E+00  0.0000E+00  0.0000E+00  0.0000E+00  0.0000E+00  0.0000E+00
    -61.238  0.0000E+00  0.0000E+00  0.0000E+00  0.0000E+00  0.0000E+00  0.0000E+00  0.0000E+00  0.0000E+00  0.0000E+00  0.0000E+00  0.0000E+00  0.0000E+00  0.0000E+00  0.0000E+00  0.0000E+00  0.0000E+00  0.0000E+00  0.0000E+00
    -60.967  0.0000E+00  0.0000E+00  0.0000E+00  0.0000E+00  0.0000E+00  0.0000E+00  0.0000E+00  0.0000E+00  0.0000E+00  0.0000E+00  0.0000E+00  0.0000E+00  0.0000E+00  0.0000E+00  0.0000E+00  0.0000E+00  0.0000E+00  0.0000E+00
    -60.696  0.0000E+00  0.0000E+00  0.0000E+00  0.0000E+00  0.0000E+00  0.0000E+00  0.0000E+00  0.0000E+00  0.0000E+00  0.0000E+00  0.0000E+00  0.0000E+00  0.0000E+00  0.0000E+00  0.0000E+00  0.0000E+00  0.0000E+00  0.0000E+00
    -60.425  0.0000E+00  0.0000E+00  0.0000E+00  0.0000E+00  0.0000E+00  0.0000E+00  0.0000E+00  0.0000E+00  0.0000E+00  0.0000E+00  0.0000E+00  0.0000E+00  0.0000E+00  0.0000E+00  0.0000E+00  0.0000E+00  0.0000E+00  0.0000E+00
    -60.153  0.0000E+00  0.0000E+00  0.0000E+00  0.0000E+00  0.0000E+00  0.0000E+00  0.0000E+00  0.0000E+00  0.0000E+00  0.0000E+00  0.0000E+00  0.0000E+00  0.0000E+00  0.0000E+00  0.0000E+00  0.0000E+00  0.0000E+00  0.0000E+00
    -59.882  0.0000E+00  0.0000E+00  0.0000E+00  0.0000E+00  0.0000E+00  0.0000E+00  0.0000E+00  0.0000E+00  0.0000E+00  0.0000E+00  0.0000E+00  0.0000E+00  0.0000E+00  0.0000E+00  0.0000E+00  0.0000E+00  0.0000E+00  0.0000E+00
    -59.611  0.0000E+00  0.0000E+00  0.0000E+00  0.0000E+00  0.0000E+00  0.0000E+00  0.0000E+00  0.0000E+00  0.0000E+00  0.0000E+00  0.0000E+00  0.0000E+00  0.0000E+00  0.0000E+00  0.0000E+00  0.0000E+00  0.0000E+00  0.0000E+00
    -59.340  0.0000E+00  0.0000E+00  0.0000E+00  0.0000E+00  0.0000E+00  0.0000E+00  0.0000E+00  0.0000E+00  0.0000E+00  0.0000E+00  0.0000E+00  0.0000E+00  0.0000E+00  0.0000E+00  0.0000E+00  0.0000E+00  0.0000E+00  0.0000E+00
    -59.069  0.0000E+00  0.0000E+00  0.0000E+00  0.0000E+00  0.0000E+00  0.0000E+00  0.0000E+00  0.0000E+00  0.0000E+00  0.0000E+00  0.0000E+00  0.0000E+00  0.0000E+00  0.0000E+00  0.0000E+00  0.0000E+00  0.0000E+00  0.0000E+00
    -58.797  0.0000E+00  0.0000E+00  0.0000E+00  0.0000E+00  0.0000E+00  0.0000E+00  0.0000E+00  0.0000E+00  0.0000E+00  0.0000E+00  0.0000E+00  0.0000E+00  0.0000E+00  0.0000E+00  0.0000E+00  0.0000E+00  0.0000E+00  0.0000E+00
    -58.526  0.0000E+00  0.0000E+00  0.0000E+00  0.0000E+00  0.0000E+00  0.0000E+00  0.0000E+00  0.0000E+00  0.0000E+00  0.0000E+00  0.0000E+00  0.0000E+00  0.0000E+00  0.0000E+00  0.0000E+00  0.0000E+00  0.0000E+00  0.0000E+00
    -58.255  0.0000E+00  0.0000E+00  0.0000E+00  0.0000E+00  0.0000E+00  0.0000E+00  0.0000E+00  0.0000E+00  0.0000E+00  0.0000E+00  0.0000E+00  0.0000E+00  0.0000E+00  0.0000E+00  0.0000E+00  0.0000E+00  0.0000E+00  0.0000E+00
    -57.984  0.0000E+00  0.0000E+00  0.0000E+00  0.0000E+00  0.0000E+00  0.0000E+00  0.0000E+00  0.0000E+00  0.0000E+00  0.0000E+00  0.0000E+00  0.0000E+00  0.0000E+00  0.0000E+00  0.0000E+00  0.0000E+00  0.0000E+00  0.0000E+00
    -57.713  0.0000E+00  0.0000E+00  0.0000E+00  0.0000E+00  0.0000E+00  0.0000E+00  0.0000E+00  0.0000E+00  0.0000E+00  0.0000E+00  0.0000E+00  0.0000E+00  0.0000E+00  0.0000E+00  0.0000E+00  0.0000E+00  0.0000E+00  0.0000E+00
    -57.442  0.0000E+00  0.0000E+00  0.0000E+00  0.0000E+00  0.0000E+00  0.0000E+00  0.0000E+00  0.0000E+00  0.0000E+00  0.0000E+00  0.0000E+00  0.0000E+00  0.0000E+00  0.0000E+00  0.0000E+00  0.0000E+00  0.0000E+00  0.0000E+00
    -57.170  0.0000E+00  0.0000E+00  0.0000E+00  0.0000E+00  0.0000E+00  0.0000E+00  0.0000E+00  0.0000E+00  0.0000E+00  0.0000E+00  0.0000E+00  0.0000E+00  0.0000E+00  0.0000E+00  0.0000E+00  0.0000E+00  0.0000E+00  0.0000E+00
    -56.899  0.0000E+00  0.0000E+00  0.0000E+00  0.0000E+00  0.0000E+00  0.0000E+00  0.0000E+00  0.0000E+00  0.0000E+00  0.0000E+00  0.0000E+00  0.0000E+00  0.0000E+00  0.0000E+00  0.0000E+00  0.0000E+00  0.0000E+00  0.0000E+00
    -56.628  0.0000E+00  0.0000E+00  0.0000E+00  0.0000E+00  0.0000E+00  0.0000E+00  0.0000E+00  0.0000E+00  0.0000E+00  0.0000E+00  0.0000E+00  0.0000E+00  0.0000E+00  0.0000E+00  0.0000E+00  0.0000E+00  0.0000E+00  0.0000E+00
    -56.357  0.0000E+00  0.0000E+00  0.0000E+00  0.0000E+00  0.0000E+00  0.0000E+00  0.0000E+00  0.0000E+00  0.0000E+00  0.0000E+00  0.0000E+00  0.0000E+00  0.0000E+00  0.0000E+00  0.0000E+00  0.0000E+00  0.0000E+00  0.0000E+00
    -56.086  0.0000E+00  0.0000E+00  0.0000E+00  0.0000E+00  0.0000E+00  0.0000E+00  0.0000E+00  0.0000E+00  0.0000E+00  0.0000E+00  0.0000E+00  0.0000E+00  0.0000E+00  0.0000E+00  0.0000E+00  0.0000E+00  0.0000E+00  0.0000E+00
    -55.814  0.0000E+00  0.0000E+00  0.0000E+00  0.0000E+00  0.0000E+00  0.0000E+00  0.0000E+00  0.0000E+00  0.0000E+00  0.0000E+00  0.0000E+00  0.0000E+00  0.0000E+00  0.0000E+00  0.0000E+00  0.0000E+00  0.0000E+00  0.0000E+00
    -55.543  0.0000E+00  0.0000E+00  0.0000E+00  0.0000E+00  0.0000E+00  0.0000E+00  0.0000E+00  0.0000E+00  0.0000E+00  0.0000E+00  0.0000E+00  0.0000E+00  0.0000E+00  0.0000E+00  0.0000E+00  0.0000E+00  0.0000E+00  0.0000E+00
    -55.272  0.0000E+00  0.0000E+00  0.0000E+00  0.0000E+00  0.0000E+00  0.0000E+00  0.0000E+00  0.0000E+00  0.0000E+00  0.0000E+00  0.0000E+00  0.0000E+00  0.0000E+00  0.0000E+00  0.0000E+00  0.0000E+00  0.0000E+00  0.0000E+00
    -55.001  0.0000E+00  0.0000E+00  0.0000E+00  0.0000E+00  0.0000E+00  0.0000E+00  0.0000E+00  0.0000E+00  0.0000E+00  0.0000E+00  0.0000E+00  0.0000E+00  0.0000E+00  0.0000E+00  0.0000E+00  0.0000E+00  0.0000E+00  0.0000E+00
    -54.730  0.0000E+00  0.0000E+00  0.0000E+00  0.0000E+00  0.0000E+00  0.0000E+00  0.0000E+00  0.0000E+00  0.0000E+00  0.0000E+00  0.0000E+00  0.0000E+00  0.0000E+00  0.0000E+00  0.0000E+00  0.0000E+00  0.0000E+00  0.0000E+00
    -54.459  0.0000E+00  0.0000E+00  0.0000E+00  0.0000E+00  0.0000E+00  0.0000E+00  0.0000E+00  0.0000E+00  0.0000E+00  0.0000E+00  0.0000E+00  0.0000E+00  0.0000E+00  0.0000E+00  0.0000E+00  0.0000E+00  0.0000E+00  0.0000E+00
    -54.187  0.0000E+00  0.0000E+00  0.0000E+00  0.0000E+00  0.0000E+00  0.0000E+00  0.0000E+00  0.0000E+00  0.0000E+00  0.0000E+00  0.0000E+00  0.0000E+00  0.0000E+00  0.0000E+00  0.0000E+00  0.0000E+00  0.0000E+00  0.0000E+00
    -53.916  0.0000E+00  0.0000E+00  0.0000E+00  0.0000E+00  0.0000E+00  0.0000E+00  0.0000E+00  0.0000E+00  0.0000E+00  0.0000E+00  0.0000E+00  0.0000E+00  0.0000E+00  0.0000E+00  0.0000E+00  0.0000E+00  0.0000E+00  0.0000E+00
    -53.645  0.0000E+00  0.0000E+00  0.0000E+00  0.0000E+00  0.0000E+00  0.0000E+00  0.0000E+00  0.0000E+00  0.0000E+00  0.0000E+00  0.0000E+00  0.0000E+00  0.0000E+00  0.0000E+00  0.0000E+00  0.0000E+00  0.0000E+00  0.0000E+00
    -53.374  0.0000E+00  0.0000E+00  0.0000E+00  0.0000E+00  0.0000E+00  0.0000E+00  0.0000E+00  0.0000E+00  0.0000E+00  0.0000E+00  0.0000E+00  0.0000E+00  0.0000E+00  0.0000E+00  0.0000E+00  0.0000E+00  0.0000E+00  0.0000E+00
    -53.103  0.0000E+00  0.0000E+00  0.0000E+00  0.0000E+00  0.0000E+00  0.0000E+00  0.0000E+00  0.0000E+00  0.0000E+00  0.0000E+00  0.0000E+00  0.0000E+00  0.0000E+00  0.0000E+00  0.0000E+00  0.0000E+00  0.0000E+00  0.0000E+00
    -52.831  0.0000E+00  0.0000E+00  0.0000E+00  0.0000E+00  0.0000E+00  0.0000E+00  0.0000E+00  0.0000E+00  0.0000E+00  0.0000E+00  0.0000E+00  0.0000E+00  0.0000E+00  0.0000E+00  0.0000E+00  0.0000E+00  0.0000E+00  0.0000E+00
    -52.560  0.0000E+00  0.0000E+00  0.0000E+00  0.0000E+00  0.0000E+00  0.0000E+00  0.0000E+00  0.0000E+00  0.0000E+00  0.0000E+00  0.0000E+00  0.0000E+00  0.0000E+00  0.0000E+00  0.0000E+00  0.0000E+00  0.0000E+00  0.0000E+00
    -52.289  0.0000E+00  0.0000E+00  0.0000E+00  0.0000E+00  0.0000E+00  0.0000E+00  0.0000E+00  0.0000E+00  0.0000E+00  0.0000E+00  0.0000E+00  0.0000E+00  0.0000E+00  0.0000E+00  0.0000E+00  0.0000E+00  0.0000E+00  0.0000E+00
    -52.018  0.0000E+00  0.0000E+00  0.0000E+00  0.0000E+00  0.0000E+00  0.0000E+00  0.0000E+00  0.0000E+00  0.0000E+00  0.0000E+00  0.0000E+00  0.0000E+00  0.0000E+00  0.0000E+00  0.0000E+00  0.0000E+00  0.0000E+00  0.0000E+00
    -51.747  0.0000E+00  0.0000E+00  0.0000E+00  0.0000E+00  0.0000E+00  0.0000E+00  0.0000E+00  0.0000E+00  0.0000E+00  0.0000E+00  0.0000E+00  0.0000E+00  0.0000E+00  0.0000E+00  0.0000E+00  0.0000E+00  0.0000E+00  0.0000E+00
    -51.476  0.0000E+00  0.0000E+00  0.0000E+00  0.0000E+00  0.0000E+00  0.0000E+00  0.0000E+00  0.0000E+00  0.0000E+00  0.0000E+00  0.0000E+00  0.0000E+00  0.0000E+00  0.0000E+00  0.0000E+00  0.0000E+00  0.0000E+00  0.0000E+00
    -51.204  0.0000E+00  0.0000E+00  0.0000E+00  0.0000E+00  0.0000E+00  0.0000E+00  0.0000E+00  0.0000E+00  0.0000E+00  0.0000E+00  0.0000E+00  0.0000E+00  0.0000E+00  0.0000E+00  0.0000E+00  0.0000E+00  0.0000E+00  0.0000E+00
    -50.933  0.0000E+00  0.0000E+00  0.0000E+00  0.0000E+00  0.0000E+00  0.0000E+00  0.0000E+00  0.0000E+00  0.0000E+00  0.0000E+00  0.0000E+00  0.0000E+00  0.0000E+00  0.0000E+00  0.0000E+00  0.0000E+00  0.0000E+00  0.0000E+00
    -50.662  0.0000E+00  0.0000E+00  0.0000E+00  0.0000E+00  0.0000E+00  0.0000E+00  0.0000E+00  0.0000E+00  0.0000E+00  0.0000E+00  0.0000E+00  0.0000E+00  0.0000E+00  0.0000E+00  0.0000E+00  0.0000E+00  0.0000E+00  0.0000E+00
    -50.391  0.0000E+00  0.0000E+00  0.0000E+00  0.0000E+00  0.0000E+00  0.0000E+00  0.0000E+00  0.0000E+00  0.0000E+00  0.0000E+00  0.0000E+00  0.0000E+00  0.0000E+00  0.0000E+00  0.0000E+00  0.0000E+00  0.0000E+00  0.0000E+00
    -50.120  0.0000E+00  0.0000E+00  0.0000E+00  0.0000E+00  0.0000E+00  0.0000E+00  0.0000E+00  0.0000E+00  0.0000E+00  0.0000E+00  0.0000E+00  0.0000E+00  0.0000E+00  0.0000E+00  0.0000E+00  0.0000E+00  0.0000E+00  0.0000E+00
    -49.848  0.0000E+00  0.0000E+00  0.0000E+00  0.0000E+00  0.0000E+00  0.0000E+00  0.0000E+00  0.0000E+00  0.0000E+00  0.0000E+00  0.0000E+00  0.0000E+00  0.0000E+00  0.0000E+00  0.0000E+00  0.0000E+00  0.0000E+00  0.0000E+00
    -49.577  0.0000E+00  0.0000E+00  0.0000E+00  0.0000E+00  0.0000E+00  0.0000E+00  0.0000E+00  0.0000E+00  0.0000E+00  0.0000E+00  0.0000E+00  0.0000E+00  0.0000E+00  0.0000E+00  0.0000E+00  0.0000E+00  0.0000E+00  0.0000E+00
    -49.306  0.0000E+00  0.0000E+00  0.0000E+00  0.0000E+00  0.0000E+00  0.0000E+00  0.0000E+00  0.0000E+00  0.0000E+00  0.0000E+00  0.0000E+00  0.0000E+00  0.0000E+00  0.0000E+00  0.0000E+00  0.0000E+00  0.0000E+00  0.0000E+00
    -49.035  0.0000E+00  0.0000E+00  0.0000E+00  0.0000E+00  0.0000E+00  0.0000E+00  0.0000E+00  0.0000E+00  0.0000E+00  0.0000E+00  0.0000E+00  0.0000E+00  0.0000E+00  0.0000E+00  0.0000E+00  0.0000E+00  0.0000E+00  0.0000E+00
    -48.764  0.0000E+00  0.0000E+00  0.0000E+00  0.0000E+00  0.0000E+00  0.0000E+00  0.0000E+00  0.0000E+00  0.0000E+00  0.0000E+00  0.0000E+00  0.0000E+00  0.0000E+00  0.0000E+00  0.0000E+00  0.0000E+00  0.0000E+00  0.0000E+00
    -48.493  0.0000E+00  0.0000E+00  0.0000E+00  0.0000E+00  0.0000E+00  0.0000E+00  0.0000E+00  0.0000E+00  0.0000E+00  0.0000E+00  0.0000E+00  0.0000E+00  0.0000E+00  0.0000E+00  0.0000E+00  0.0000E+00  0.0000E+00  0.0000E+00
    -48.221  0.0000E+00  0.0000E+00  0.0000E+00  0.0000E+00  0.0000E+00  0.0000E+00  0.0000E+00  0.0000E+00  0.0000E+00  0.0000E+00  0.0000E+00  0.0000E+00  0.0000E+00  0.0000E+00  0.0000E+00  0.0000E+00  0.0000E+00  0.0000E+00