    4    4    1    2
  0.9063964E+01  0.5107186E-09  0.5107186E-09  0.5107186E-09  0.5000000E-15
  1.000000000000000E-004
  CAR 
 "NiO"                                   
     44     13     26
 
  0.0000000E+00  0.0000000E+00  0.0000000E+00  0.1562500E-01
    1      -58.076568    -58.076568   1.000000   1.000000
    2      -58.060233    -58.060233   1.000000   1.000000
    3      -58.060233    -58.060233   1.000000   1.000000
    4      -56.025409    -56.025409   1.000000   1.000000
    5      -56.009747    -56.009747   1.000000   1.000000
    6      -56.009747    -56.009747   1.000000   1.000000
    7      -12.920907    -12.920907   1.000000   1.000000
    8      -11.458973    -11.458973   1.000000   1.000000
    9       -1.262025     -1.262025   1.000000   1.000000
   10        0.295279      0.295279   1.000000   1.000000
   11        0.295279      0.295279   1.000000   1.000000
   12        2.272123      2.272123   1.000000   1.000000
   13        2.272123      2.272123   1.000000   1.000000
   14        2.491414      2.491414   1.000000   1.000000
   15        3.355756      3.355756   1.000000   1.000000
   16        3.355756      3.355756   1.000000   1.000000
   17        4.361620      4.361620   1.000000   1.000000
   18        4.558494      4.558494   1.000000   1.000000
   19        4.558494      4.558494   1.000000   1.000000
   20        4.561444      4.561444   1.000000   1.000000
   21        4.889157      4.889157   1.000000   1.000000
   22        4.889157      4.889157   1.000000   1.000000
   23        8.870671      8.870671   0.000000   0.000000
   24        9.554523      9.554523   0.000000   0.000000
   25        9.554523      9.554523   0.000000   0.000000
   26       12.791314     12.791314   0.000000   0.000000
 
  0.2500000E+00 -0.4163336E-16 -0.5551115E-16  0.9375000E-01
    1      -58.074985    -58.074985   1.000000   1.000000
    2      -58.071337    -58.071337   1.000000   1.000000
    3      -58.063060    -58.063060   1.000000   1.000000
    4      -56.023704    -56.023704   1.000000   1.000000
    5      -56.022274    -56.022274   1.000000   1.000000
    6      -56.012912    -56.012912   1.000000   1.000000
    7      -12.317544    -12.317544   1.000000   1.000000
    8      -11.382287    -11.382287   1.000000   1.000000
    9       -0.423747     -0.423747   1.000000   1.000000
   10        0.346173      0.346173   1.000000   1.000000
   11        0.415931      0.415931   1.000000   1.000000
   12        1.044058      1.044058   1.000000   1.000000
   13        2.036618      2.036618   1.000000   1.000000
   14        2.161334      2.161334   1.000000   1.000000
   15        2.437770      2.437770   1.000000   1.000000
   16        3.407136      3.407136   1.000000   1.000000
   17        3.539028      3.539028   1.000000   1.000000
   18        3.979188      3.979188   1.000000   1.000000
   19        4.095688      4.095688   1.000000   1.000000
   20        4.630923      4.630923   1.000000   1.000000
   21        4.939403      4.939403   1.000000   1.000000
   22        5.264862      5.264862   1.000000   1.000000
   23        9.061207      9.061207   0.000000   0.000000
   24        9.444199      9.444199   0.000000   0.000000
   25       11.932513     11.932513   0.000000   0.000000
   26       15.452129     15.452129   0.000000   0.000000
 
  0.5000000E+00 -0.8326673E-16 -0.1110223E-15  0.4687500E-01
    1      -58.082472    -58.082472   1.000000   1.000000
    2      -58.073409    -58.073409   1.000000   1.000000
    3      -58.065909    -58.065909   1.000000   1.000000
    4      -56.034878    -56.034878   1.000000   1.000000
    5      -56.022035    -56.022035   1.000000   1.000000
    6      -56.016115    -56.016115   1.000000   1.000000
    7      -11.510425    -11.510425   1.000000   1.000000
    8      -11.400756    -11.400756   1.000000   1.000000
    9       -0.349770     -0.349770   1.000000   1.000000
   10       -0.016179     -0.016179   1.000000   1.000000
   11        0.297769      0.297769   1.000000   1.000000
   12        0.417692      0.417692   1.000000   1.000000
   13        1.652830      1.652830   1.000000   1.000000
   14        2.273670      2.273670   1.000000   1.000000
   15        2.664777      2.664777   1.000000   1.000000
   16        2.740275      2.740275   1.000000   1.000000
   17        3.504869      3.504869   1.000000   1.000000
   18        3.879526      3.879526   1.000000   1.000000
   19        4.363861      4.363861   1.000000   1.000000
   20        4.523267      4.523267   1.000000   1.000000
   21        4.649405      4.649405   1.000000   1.000000
   22        5.155818      5.155818   1.000000   1.000000
   23        9.384729      9.384729   0.000000   0.000000
   24        9.417139      9.417139   0.000000   0.000000
   25       14.691273     14.691273   0.000000   0.000000
   26       14.929644     14.929644   0.000000   0.000000
 
  0.2500000E+00  0.2500000E+00  0.0000000E+00  0.9375000E-01
    1      -58.075019    -58.075019   1.000000   1.000000
    2      -58.071328    -58.071328   1.000000   1.000000
    3      -58.063065    -58.063065   1.000000   1.000000
    4      -56.023730    -56.023730   1.000000   1.000000
    5      -56.022245    -56.022245   1.000000   1.000000
    6      -56.012889    -56.012889   1.000000   1.000000
    7      -12.257571    -12.257571   1.000000   1.000000
    8      -11.456058    -11.456058   1.000000   1.000000
    9       -0.206318     -0.206318   1.000000   1.000000
   10        0.366496      0.366496   1.000000   1.000000
   11        0.450614      0.450614   1.000000   1.000000
   12        0.697798      0.697798   1.000000   1.000000
   13        2.045733      2.045733   1.000000   1.000000
   14        2.145731      2.145731   1.000000   1.000000
   15        2.556020      2.556020   1.000000   1.000000
   16        3.389942      3.389942   1.000000   1.000000
   17        3.468148      3.468148   1.000000   1.000000
   18        3.833606      3.833606   1.000000   1.000000
   19        4.079142      4.079142   1.000000   1.000000
   20        4.300691      4.300691   1.000000   1.000000
   21        5.339308      5.339308   1.000000   1.000000
   22        5.544404      5.544404   1.000000   1.000000
   23        9.349974      9.349974   0.000000   0.000000
   24        9.368550      9.368550   0.000000   0.000000
   25       11.632862     11.632862   0.000000   0.000000
   26       14.811174     14.811174   0.000000   0.000000
 
  0.5000000E+00  0.2500000E+00  0.0000000E+00  0.1875000E+00
    1      -58.078328    -58.078328   1.000000   1.000000
    2      -58.073491    -58.073491   1.000000   1.000000
    3      -58.069979    -58.069979   1.000000   1.000000
    4      -56.030162    -56.030162   1.000000   1.000000
    5      -56.022078    -56.022078   1.000000   1.000000
    6      -56.020706    -56.020706   1.000000   1.000000
    7      -11.562776    -11.562776   1.000000   1.000000
    8      -11.352121    -11.352121   1.000000   1.000000
    9       -0.421385     -0.421385   1.000000   1.000000
   10        0.251235      0.251235   1.000000   1.000000
   11        0.426251      0.426251   1.000000   1.000000
   12        0.630682      0.630682   1.000000   1.000000
   13        1.227740      1.227740   1.000000   1.000000
   14        1.755107      1.755107   1.000000   1.000000
   15        2.998641      2.998641   1.000000   1.000000
   16        3.007715      3.007715   1.000000   1.000000
   17        3.462027      3.462027   1.000000   1.000000
   18        3.857778      3.857778   1.000000   1.000000
   19        4.245058      4.245058   1.000000   1.000000
   20        4.362610      4.362610   1.000000   1.000000
   21        4.817460      4.817460   1.000000   1.000000
   22        4.978430      4.978430   1.000000   1.000000
   23        9.214702      9.214702   0.000000   0.000000
   24        9.605756      9.605756   0.000000   0.000000
   25       14.515633     14.515633   0.000000   0.000000
   26       15.499091     15.499091   0.000000   0.000000
 
 -0.2500000E+00  0.2500000E+00  0.0000000E+00  0.9375000E-01
    1      -58.078300    -58.078300   1.000000   1.000000
    2      -58.073462    -58.073462   1.000000   1.000000
    3      -58.069978    -58.069978   1.000000   1.000000
    4      -56.030169    -56.030169   1.000000   1.000000
    5      -56.022047    -56.022047   1.000000   1.000000
    6      -56.020710    -56.020710   1.000000   1.000000
    7      -11.606116    -11.606116   1.000000   1.000000
    8      -11.313026    -11.313026   1.000000   1.000000
    9       -0.462280     -0.462280   1.000000   1.000000
   10        0.621354      0.621354   1.000000   1.000000
   11        0.717952      0.717952   1.000000   1.000000
   12        0.783039      0.783039   1.000000   1.000000
   13        0.939675      0.939675   1.000000   1.000000
   14        1.191809      1.191809   1.000000   1.000000
   15        2.906823      2.906823   1.000000   1.000000
   16        3.090989      3.090989   1.000000   1.000000
   17        3.695708      3.695708   1.000000   1.000000
   18        3.809324      3.809324   1.000000   1.000000
   19        4.092577      4.092577   1.000000   1.000000
   20        4.457738      4.457738   1.000000   1.000000
   21        4.766476      4.766476   1.000000   1.000000
   22        4.833004      4.833004   1.000000   1.000000
   23        9.059470      9.059470   0.000000   0.000000
   24        9.807437      9.807437   0.000000   0.000000
   25       14.415022     14.415022   0.000000   0.000000
   26       15.875980     15.875980   0.000000   0.000000
 
  0.5000000E+00  0.5000000E+00  0.0000000E+00  0.4687500E-01
    1      -58.082489    -58.082489   1.000000   1.000000
    2      -58.073526    -58.073526   1.000000   1.000000
    3      -58.065919    -58.065919   1.000000   1.000000
    4      -56.034827    -56.034827   1.000000   1.000000
    5      -56.022044    -56.022044   1.000000   1.000000
    6      -56.016091    -56.016091   1.000000   1.000000
    7      -11.458844    -11.458844   1.000000   1.000000
    8      -11.437916    -11.437916   1.000000   1.000000
    9       -1.262839     -1.262839   1.000000   1.000000
   10        0.363103      0.363103   1.000000   1.000000
   11        0.435138      0.435138   1.000000   1.000000
   12        0.530968      0.530968   1.000000   1.000000
   13        1.739194      1.739194   1.000000   1.000000
   14        2.703485      2.703485   1.000000   1.000000
   15        2.974993      2.974993   1.000000   1.000000
   16        3.186349      3.186349   1.000000   1.000000
   17        3.188067      3.188067   1.000000   1.000000
   18        3.588827      3.588827   1.000000   1.000000
   19        3.874692      3.874692   1.000000   1.000000
   20        4.469489      4.469489   1.000000   1.000000
   21        5.032045      5.032045   1.000000   1.000000
   22        5.205635      5.205635   1.000000   1.000000
   23        9.705343      9.705343   0.000000   0.000000
   24        9.858128      9.858128   0.000000   0.000000
   25       12.791798     12.791798   0.000000   0.000000
   26       13.407792     13.407792   0.000000   0.000000
 
  0.2500000E+00  0.2500000E+00  0.2500000E+00  0.3125000E-01
    1      -58.076522    -58.076522   1.000000   1.000000
    2      -58.060218    -58.060218   1.000000   1.000000
    3      -58.060218    -58.060218   1.000000   1.000000
    4      -56.025468    -56.025468   1.000000   1.000000
    5      -56.009687    -56.009687   1.000000   1.000000
    6      -56.009687    -56.009687   1.000000   1.000000
    7      -12.736135    -12.736135   1.000000   1.000000
    8      -11.712150    -11.712150   1.000000   1.000000
    9       -0.698597     -0.698597   1.000000   1.000000
   10        0.363053      0.363053   1.000000   1.000000
   11        0.363053      0.363053   1.000000   1.000000
   12        2.112401      2.112401   1.000000   1.000000
   13        2.297934      2.297934   1.000000   1.000000
   14        2.297934      2.297934   1.000000   1.000000
   15        3.087890      3.087890   1.000000   1.000000
   16        3.087890      3.087890   1.000000   1.000000
   17        3.816359      3.816359   1.000000   1.000000
   18        4.328027      4.328027   1.000000   1.000000
   19        4.328027      4.328027   1.000000   1.000000
   20        4.368299      4.368299   1.000000   1.000000
   21        5.375491      5.375491   1.000000   1.000000
   22        5.375491      5.375491   1.000000   1.000000
   23        9.441398      9.441398   0.000000   0.000000
   24        9.441398      9.441398   0.000000   0.000000
   25        9.919422      9.919422   0.000000   0.000000
   26       12.650630     12.650630   0.000000   0.000000
 
  0.5000000E+00  0.2500000E+00  0.2500000E+00  0.9375000E-01
    1      -58.075005    -58.075005   1.000000   1.000000
    2      -58.071365    -58.071365   1.000000   1.000000
    3      -58.063064    -58.063064   1.000000   1.000000
    4      -56.023824    -56.023824   1.000000   1.000000
    5      -56.022293    -56.022293   1.000000   1.000000
    6      -56.012903    -56.012903   1.000000   1.000000
    7      -12.123328    -12.123328   1.000000   1.000000
    8      -11.605355    -11.605355   1.000000   1.000000
    9       -0.538019     -0.538019   1.000000   1.000000
   10        0.436914      0.436914   1.000000   1.000000
   11        0.558435      0.558435   1.000000   1.000000
   12        1.059478      1.059478   1.000000   1.000000
   13        2.117988      2.117988   1.000000   1.000000
   14        2.197179      2.197179   1.000000   1.000000
   15        2.451747      2.451747   1.000000   1.000000
   16        3.305340      3.305340   1.000000   1.000000
   17        3.343615      3.343615   1.000000   1.000000
   18        4.225637      4.225637   1.000000   1.000000
   19        4.381781      4.381781   1.000000   1.000000
   20        4.566694      4.566694   1.000000   1.000000
   21        4.733057      4.733057   1.000000   1.000000
   22        4.930991      4.930991   1.000000   1.000000
   23        8.760034      8.760034   0.000000   0.000000
   24        9.609696      9.609696   0.000000   0.000000
   25       12.929992     12.929992   0.000000   0.000000
   26       14.415340     14.415340   0.000000   0.000000
 
 -0.2500000E+00  0.2500000E+00  0.2500000E+00  0.9375000E-01
    1      -58.082480    -58.082480   1.000000   1.000000
    2      -58.073487    -58.073487   1.000000   1.000000
    3      -58.065921    -58.065921   1.000000   1.000000
    4      -56.034858    -56.034858   1.000000   1.000000
    5      -56.022066    -56.022066   1.000000   1.000000
    6      -56.016111    -56.016111   1.000000   1.000000
    7      -11.491344    -11.491344   1.000000   1.000000
    8      -11.412473    -11.412473   1.000000   1.000000
    9       -0.940152     -0.940152   1.000000   1.000000
   10        0.108545      0.108545   1.000000   1.000000
   11        0.389660      0.389660   1.000000   1.000000
   12        0.750094      0.750094   1.000000   1.000000
   13        1.604826      1.604826   1.000000   1.000000
   14        2.530647      2.530647   1.000000   1.000000
   15        2.699635      2.699635   1.000000   1.000000
   16        2.899690      2.899690   1.000000   1.000000
   17        3.468227      3.468227   1.000000   1.000000
   18        3.642393      3.642393   1.000000   1.000000
   19        4.176439      4.176439   1.000000   1.000000
   20        4.490596      4.490596   1.000000   1.000000
   21        4.981942      4.981942   1.000000   1.000000
   22        5.082236      5.082236   1.000000   1.000000
   23        9.547328      9.547328   0.000000   0.000000
   24        9.598242      9.598242   0.000000   0.000000
   25       13.700911     13.700911   0.000000   0.000000
   26       14.003432     14.003432   0.000000   0.000000
 
  0.5000000E+00  0.5000000E+00  0.2500000E+00  0.9375000E-01
    1      -58.075014    -58.075014   1.000000   1.000000
    2      -58.071360    -58.071360   1.000000   1.000000
    3      -58.063070    -58.063070   1.000000   1.000000
    4      -56.023820    -56.023820   1.000000   1.000000
    5      -56.022275    -56.022275   1.000000   1.000000
    6      -56.012906    -56.012906   1.000000   1.000000
    7      -11.971932    -11.971932   1.000000   1.000000
    8      -11.771125    -11.771125   1.000000   1.000000
    9       -0.352146     -0.352146   1.000000   1.000000
   10        0.354600      0.354600   1.000000   1.000000
   11        0.472196      0.472196   1.000000   1.000000
   12        1.146919      1.146919   1.000000   1.000000
   13        1.958894      1.958894   1.000000   1.000000
   14        2.180762      2.180762   1.000000   1.000000
   15        2.470285      2.470285   1.000000   1.000000
   16        3.240408      3.240408   1.000000   1.000000
   17        3.311590      3.311590   1.000000   1.000000
   18        4.088081      4.088081   1.000000   1.000000
   19        4.168683      4.168683   1.000000   1.000000
   20        4.536069      4.536069   1.000000   1.000000
   21        5.046824      5.046824   1.000000   1.000000
   22        5.249390      5.249390   1.000000   1.000000
   23        9.023971      9.023971   0.000000   0.000000
   24        9.523352      9.523352   0.000000   0.000000
   25       12.780237     12.780237   0.000000   0.000000
   26       13.877924     13.877924   0.000000   0.000000
 
 -0.2500000E+00  0.5000000E+00  0.2500000E+00  0.9375000E-01
    1      -58.078355    -58.078355   1.000000   1.000000
    2      -58.073523    -58.073523   1.000000   1.000000
    3      -58.069970    -58.069970   1.000000   1.000000
    4      -56.030154    -56.030154   1.000000   1.000000
    5      -56.022102    -56.022102   1.000000   1.000000
    6      -56.020713    -56.020713   1.000000   1.000000
    7      -11.482244    -11.482244   1.000000   1.000000
    8      -11.429498    -11.429498   1.000000   1.000000
    9       -0.259265     -0.259265   1.000000   1.000000
   10       -0.165051     -0.165051   1.000000   1.000000
   11        0.376750      0.376750   1.000000   1.000000
   12        0.441819      0.441819   1.000000   1.000000
   13        1.516139      1.516139   1.000000   1.000000
   14        2.109869      2.109869   1.000000   1.000000
   15        2.877634      2.877634   1.000000   1.000000
   16        3.236815      3.236815   1.000000   1.000000
   17        3.308232      3.308232   1.000000   1.000000
   18        3.640983      3.640983   1.000000   1.000000
   19        4.179919      4.179919   1.000000   1.000000
   20        4.394945      4.394945   1.000000   1.000000
   21        4.977693      4.977693   1.000000   1.000000
   22        5.123566      5.123566   1.000000   1.000000
   23        9.392702      9.392702   0.000000   0.000000
   24        9.406616      9.406616   0.000000   0.000000
   25       14.747794     14.747794   0.000000   0.000000
   26       14.870538     14.870538   0.000000   0.000000
 
  0.5000000E+00  0.5000000E+00  0.5000000E+00  0.1562500E-01
    1      -58.076463    -58.076463   1.000000   1.000000
    2      -58.060211    -58.060211   1.000000   1.000000
    3      -58.060211    -58.060211   1.000000   1.000000
    4      -56.025503    -56.025503   1.000000   1.000000
    5      -56.009672    -56.009672   1.000000   1.000000
    6      -56.009672    -56.009672   1.000000   1.000000
    7      -12.262487    -12.262487   1.000000   1.000000
    8      -12.252729    -12.252729   1.000000   1.000000
    9        0.437443      0.437443   1.000000   1.000000
   10        0.437443      0.437443   1.000000   1.000000
   11        0.546970      0.546970   1.000000   1.000000
   12        0.881804      0.881804   1.000000   1.000000
   13        2.326943      2.326943   1.000000   1.000000
   14        2.326943      2.326943   1.000000   1.000000
   15        2.841126      2.841126   1.000000   1.000000
   16        2.841126      2.841126   1.000000   1.000000
   17        3.485770      3.485770   1.000000   1.000000
   18        4.241007      4.241007   1.000000   1.000000
   19        4.241007      4.241007   1.000000   1.000000
   20        4.267494      4.267494   1.000000   1.000000
   21        5.691554      5.691554   1.000000   1.000000
   22        5.691554      5.691554   1.000000   1.000000
   23        9.320708      9.320708   0.000000   0.000000
   24        9.320708      9.320708   0.000000   0.000000
   25       11.566898     11.566898   0.000000   0.000000
   26       11.702391     11.702391   0.000000   0.000000
