 vasp.5.4.4.18Apr17-6-g9f103f2a35 (build May 20 2018 16:52:39) complex          
  
 executed on             LinuxIFC date 2022.11.07  01:32:15
 running on    1 total cores
 distrk:  each k-point on    1 cores,    1 groups
 distr:  one band on NCORES_PER_BAND=   1 cores,    1 groups


--------------------------------------------------------------------------------------------------------


 INCAR:
 POTCAR:    PAW_PBE Ni_pv 06Sep2000               
 POTCAR:    PAW_PBE O 08Apr2002                   
 POTCAR:    PAW_PBE Ni_pv 06Sep2000               
   VRHFIN =Ni:                                                                  
   LEXCH  = PE                                                                  
   EATOM  =  3501.1230 eV,  257.3253 Ry                                         
                                                                                
   TITEL  = PAW_PBE Ni_pv 06Sep2000                                             
   LULTRA =        F    use ultrasoft PP ?                                      
   IUNSCR =        1    unscreen: 0-lin 1-nonlin 2-no                           
   RPACOR =    1.500    partial core radius                                     
   POMASS =   58.690; ZVAL   =   16.000    mass and valenz                      
   RCORE  =    2.000    outmost cutoff radius                                   
   RWIGS  =    2.000; RWIGS  =    1.058    wigner-seitz radius (au A)           
   ENMAX  =  367.986; ENMIN  =  275.989 eV                                      
   RCLOC  =    1.301    cutoff for local pot                                    
   LCOR   =        T    correct aug charges                                     
   LPAW   =        T    paw PP                                                  
   EAUG   =  703.443                                                            
   DEXC   =    0.000                                                            
   RMAX   =    2.041    core radius for proj-oper                               
   RAUG   =    1.300    factor for augmentation sphere                          
   RDEP   =    2.103    radius for radial grids                                 
   RDEPT  =    1.618    core radius for aug-charge                              
                                                                                
   Atomic configuration                                                         
    8 entries                                                                   
     n  l   j            E        occ.                                          
     1  0  0.50     -8206.4253   2.0000                                         
     2  0  0.50      -976.1748   2.0000                                         
     2  1  1.50      -839.0571   6.0000                                         
     3  0  0.50      -105.9991   2.0000                                         
     3  1  1.50       -66.4603   6.0000                                         
     3  2  2.50        -4.6458   9.0000                                         
     4  0  0.50        -4.4926   1.0000                                         
     4  3  2.50        -1.3606   0.0000                                         
   Description                                                                  
     l       E           TYP  RCUT    TYP  RCUT                                 
     1    -66.4602962     23  1.700                                             
     1     -1.3605826     23  1.700                                             
     2     -4.6457867     23  2.000                                             
     2     -6.0063693     23  2.000                                             
     0     -4.4925576     23  1.900                                             
     0     16.3626226     23  1.900                                             
  local pseudopotential read in
  partial core-charges read in
  partial kinetic energy density read in
  atomic valenz-charges read in
  non local Contribution for L=           1  read in
    real space projection operators read in
  non local Contribution for L=           1  read in
    real space projection operators read in
  non local Contribution for L=           2  read in
    real space projection operators read in
  non local Contribution for L=           2  read in
    real space projection operators read in
  non local Contribution for L=           0  read in
    real space projection operators read in
  non local Contribution for L=           0  read in
    real space projection operators read in
    PAW grid and wavefunctions read in
 
   number of l-projection  operators is LMAX  =           6
   number of lm-projection operators is LMMAX =          18
 
 POTCAR:    PAW_PBE O 08Apr2002                   
   VRHFIN =O: s2p4                                                              
   LEXCH  = PE                                                                  
   EATOM  =   432.3788 eV,   31.7789 Ry                                         
                                                                                
   TITEL  = PAW_PBE O 08Apr2002                                                 
   LULTRA =        F    use ultrasoft PP ?                                      
   IUNSCR =        1    unscreen: 0-lin 1-nonlin 2-no                           
   RPACOR =    1.200    partial core radius                                     
   POMASS =   16.000; ZVAL   =    6.000    mass and valenz                      
   RCORE  =    1.520    outmost cutoff radius                                   
   RWIGS  =    1.550; RWIGS  =    0.820    wigner-seitz radius (au A)           
   ENMAX  =  400.000; ENMIN  =  300.000 eV                                      
   ICORE  =        2    local potential                                         
   LCOR   =        T    correct aug charges                                     
   LPAW   =        T    paw PP                                                  
   EAUG   =  605.392                                                            
   DEXC   =    0.000                                                            
   RMAX   =    1.553    core radius for proj-oper                               
   RAUG   =    1.300    factor for augmentation sphere                          
   RDEP   =    1.550    radius for radial grids                                 
   RDEPT  =    1.329    core radius for aug-charge                              
                                                                                
   Atomic configuration                                                         
    4 entries                                                                   
     n  l   j            E        occ.                                          
     1  0  0.50      -514.6923   2.0000                                         
     2  0  0.50       -23.9615   2.0000                                         
     2  1  0.50        -9.0305   4.0000                                         
     3  2  1.50        -9.5241   0.0000                                         
   Description                                                                  
     l       E           TYP  RCUT    TYP  RCUT                                 
     0    -23.9615318     23  1.200                                             
     0     -9.5240782     23  1.200                                             
     1     -9.0304911     23  1.520                                             
     1      8.1634956     23  1.520                                             
     2     -9.5240782      7  1.500                                             
  local pseudopotential read in
  partial core-charges read in
  partial kinetic energy density read in
  kinetic energy density of atom read in
  atomic valenz-charges read in
  non local Contribution for L=           0  read in
    real space projection operators read in
  non local Contribution for L=           0  read in
    real space projection operators read in
  non local Contribution for L=           1  read in
    real space projection operators read in
  non local Contribution for L=           1  read in
    real space projection operators read in
    PAW grid and wavefunctions read in
 
   number of l-projection  operators is LMAX  =           4
   number of lm-projection operators is LMMAX =           8
 
  PAW_PBE Ni_pv 06Sep2000               :
 energy of atom  1       EATOM=-3501.1230
 kinetic energy error for atom=    0.0925 (will be added to EATOM!!)
  PAW_PBE O 08Apr2002                   :
 energy of atom  2       EATOM= -432.3788
 kinetic energy error for atom=    0.0389 (will be added to EATOM!!)
 
 
 POSCAR: NiO                                     
  positions in cartesian coordinates
  No initial velocities read in
 exchange correlation table for  LEXCH =        8
   RHO(1)=    0.500       N(1)  =     2000
   RHO(2)=  100.500       N(2)  =     4000
 


--------------------------------------------------------------------------------------------------------


 ion  position               nearest neighbor table
   1  0.000  0.000  0.000-   4 2.08   4 2.08   4 2.08   3 2.08   3 2.08   3 2.08
   2  0.500  0.500  0.500-   3 2.08   3 2.08   3 2.08   4 2.08   4 2.08   4 2.08
   3  0.250  0.250  0.250-   1 2.08   1 2.08   1 2.08   2 2.08   2 2.08   2 2.08
   4  0.750  0.750  0.750-   2 2.08   2 2.08   2 2.08   1 2.08   1 2.08   1 2.08
 
  LATTYP: Found a trigonal (rhomboedric) cell.
 ALAT       =     5.1071861137
 COS(alpha) =     0.8333333333
  
  Lattice vectors:
  
 A1 = (   4.1700000000,   2.0850000000,   2.0850000000)
 A2 = (   2.0850000000,   4.1700000000,   2.0850000000)
 A3 = (   2.0850000000,   2.0850000000,   4.1700000000)


Analysis of symmetry for initial positions (statically):
=====================================================================
 Subroutine PRICEL returns following result:
 
  LATTYP: Found a face centered cubic cell.
 ALAT       =     4.1700000000
  
  Lattice vectors:
  
 A1 = (   2.0850000000,   0.0000000000,  -2.0850000000)
 A2 = (   0.0000000000,   2.0850000000,  -2.0850000000)
 A3 = (   2.0850000000,   2.0850000000,   0.0000000000)
 
   2 primitive cells build up your supercell.
 

 Routine SETGRP: Setting up the symmetry group for a 
 trigonal (rhombohedral) supercell.


 Subroutine GETGRP returns: Found 12 space group operations
 (whereof 12 operations were pure point group operations)
 out of a pool of 12 trial point group operations.


The static configuration has the point symmetry D_3d.


Analysis of symmetry for dynamics (positions and initial velocities):
=====================================================================
 Subroutine PRICEL returns following result:
 
  LATTYP: Found a face centered cubic cell.
 ALAT       =     4.1700000000
  
  Lattice vectors:
  
 A1 = (   2.0850000000,   0.0000000000,  -2.0850000000)
 A2 = (   0.0000000000,   2.0850000000,  -2.0850000000)
 A3 = (   2.0850000000,   2.0850000000,   0.0000000000)
 
   2 primitive cells build up your supercell.
 

 Routine SETGRP: Setting up the symmetry group for a 
 trigonal (rhombohedral) supercell.


 Subroutine GETGRP returns: Found 12 space group operations
 (whereof 12 operations were pure point group operations)
 out of a pool of 12 trial point group operations.


The dynamic configuration has the point symmetry D_3d.


Analysis of structural, dynamic, and magnetic symmetry:
=====================================================================
 Subroutine PRICEL returns following result:
 
  LATTYP: Found a face centered cubic cell.
 ALAT       =     4.1700000000
  
  Lattice vectors:
  
 A1 = (   2.0850000000,   0.0000000000,  -2.0850000000)
 A2 = (   0.0000000000,   2.0850000000,  -2.0850000000)
 A3 = (   2.0850000000,   2.0850000000,   0.0000000000)
 
   2 primitive cells build up your supercell.
 

 Routine SETGRP: Setting up the symmetry group for a 
 trigonal (rhombohedral) supercell.


 Subroutine GETGRP returns: Found 12 space group operations
 (whereof 12 operations were pure point group operations)
 out of a pool of 12 trial point group operations.


The magnetic configuration has the point symmetry D_3d.


 Subroutine INISYM returns: Found 12 space group operations
 (whereof 12 operations are pure point group operations),
 and found     2 'primitive' translations

 
 
 KPOINTS: k-points                                

Automatic generation of k-mesh.
Space group operators:
 irot       det(A)        alpha          n_x          n_y          n_z        tau_x        tau_y        tau_z
    1     1.000000     0.000000     1.000000     0.000000     0.000000     0.000000     0.000000     0.000000
    2    -1.000000     0.000000     1.000000     0.000000     0.000000     0.000000     0.000000     0.000000
    3     1.000000   180.000000     0.000000     0.707107    -0.707107     0.000000     0.000000     0.000000
    4    -1.000000   180.000000     0.000000     0.707107    -0.707107     0.000000     0.000000     0.000000
    5     1.000000   120.000000    -0.577350    -0.577350    -0.577350     0.000000     0.000000     0.000000
    6    -1.000000   120.000000    -0.577350    -0.577350    -0.577350     0.000000     0.000000     0.000000
    7     1.000000   180.000000     0.707107    -0.707107     0.000000     0.000000     0.000000     0.000000
    8    -1.000000   180.000000     0.707107    -0.707107     0.000000     0.000000     0.000000     0.000000
    9     1.000000   120.000000     0.577350     0.577350     0.577350     0.000000     0.000000     0.000000
   10    -1.000000   120.000000     0.577350     0.577350     0.577350     0.000000     0.000000     0.000000
   11     1.000000   180.000000     0.707107     0.000000    -0.707107     0.000000     0.000000     0.000000
   12    -1.000000   180.000000     0.707107     0.000000    -0.707107     0.000000     0.000000     0.000000
 
 Subroutine IBZKPT returns following result:
 ===========================================
 
 Found     13 irreducible k-points:
 
 Following reciprocal coordinates:
            Coordinates               Weight
  0.000000  0.000000  0.000000      1.000000
  0.250000 -0.000000 -0.000000      6.000000
  0.500000 -0.000000 -0.000000      3.000000
  0.250000  0.250000  0.000000      6.000000
  0.500000  0.250000  0.000000     12.000000
 -0.250000  0.250000  0.000000      6.000000
  0.500000  0.500000  0.000000      3.000000
  0.250000  0.250000  0.250000      2.000000
  0.500000  0.250000  0.250000      6.000000
 -0.250000  0.250000  0.250000      6.000000
  0.500000  0.500000  0.250000      6.000000
 -0.250000  0.500000  0.250000      6.000000
  0.500000  0.500000  0.500000      1.000000
 
 Following cartesian coordinates:
            Coordinates               Weight
  0.000000  0.000000  0.000000      1.000000
  0.375000 -0.125000 -0.125000      6.000000
  0.750000 -0.250000 -0.250000      3.000000
  0.250000  0.250000 -0.250000      6.000000
  0.625000  0.125000 -0.375000     12.000000
 -0.500000  0.500000  0.000000      6.000000
  0.500000  0.500000 -0.500000      3.000000
  0.125000  0.125000  0.125000      2.000000
  0.500000 -0.000000  0.000000      6.000000
 -0.625000  0.375000  0.375000      6.000000
  0.375000  0.375000 -0.125000      6.000000
 -0.750000  0.750000  0.250000      6.000000
  0.250000  0.250000  0.250000      1.000000
 
 TETIRR: Found     30 inequivalent tetrahedra from      384


--------------------------------------------------------------------------------------------------------




 Dimension of arrays:
   k-points           NKPTS =     13   k-points in BZ     NKDIM =     13   number of bands    NBANDS=     26
   number of dos      NEDOS =    301   number of ions     NIONS =      4
   non local maximal  LDIM  =      6   non local SUM 2l+1 LMDIM =     18
   total plane-waves  NPLWV =  21952
   max r-space proj   IRMAX =      1   max aug-charges    IRDMAX=  13566
   dimension x,y,z NGX =    28 NGY =   28 NGZ =   28
   dimension x,y,z NGXF=    56 NGYF=   56 NGZF=   56
   support grid    NGXF=    56 NGYF=   56 NGZF=   56
   ions per type =               2   2
   NGX,Y,Z   is equivalent  to a cutoff of   9.11,  9.11,  9.11 a.u.
   NGXF,Y,Z  is equivalent  to a cutoff of  18.23, 18.23, 18.23 a.u.

 SYSTEM =  "NiO"                                   
 POSCAR =  NiO                                     

 Startparameter for this run:
   NWRITE =      2    write-flag & timer
   PREC   = normal    normal or accurate (medium, high low for compatibility)
   ISTART =      0    job   : 0-new  1-cont  2-samecut
   ICHARG =      2    charge: 1-file 2-atom 10-const
   ISPIN  =      2    spin polarized calculation?
   LNONCOLLINEAR =      F non collinear calculations
   LSORBIT =      F    spin-orbit coupling
   INIWAV =      1    electr: 0-lowe 1-rand  2-diag
   LASPH  =      F    aspherical Exc in radial PAW
   METAGGA=      F    non-selfconsistent MetaGGA calc.

 Electronic Relaxation 1
   ENCUT  =  450.0 eV  33.07 Ry    5.75 a.u.   8.83  8.83  8.83*2*pi/ulx,y,z
   ENINI  =  450.0     initial cutoff
   ENAUG  =  703.4 eV  augmentation charge cutoff
   NELM   =     60;   NELMIN=  6; NELMDL= -5     # of ELM steps 
   EDIFF  = 0.1E-04   stopping-criterion for ELM
   LREAL  =      F    real-space projection
   NLSPLINE    = F    spline interpolate recip. space projectors
   LCOMPAT=      F    compatible to vasp.4.4
   GGA_COMPAT  = T    GGA compatible to vasp.4.4-vasp.4.6
   LMAXPAW     = -100 max onsite density
   LMAXMIX     =    4 max onsite mixed and CHGCAR
   VOSKOWN=      0    Vosko Wilk Nusair interpolation
   ROPT   =    0.00000   0.00000
 Ionic relaxation
   EDIFFG = 0.1E-03   stopping-criterion for IOM
   NSW    =      0    number of steps for IOM
   NBLOCK =      1;   KBLOCK =      1    inner block; outer block 
   IBRION =     -1    ionic relax: 0-MD 1-quasi-New 2-CG
   NFREE  =      0    steps in history (QN), initial steepest desc. (CG)
   ISIF   =      2    stress and relaxation
   IWAVPR =     10    prediction:  0-non 1-charg 2-wave 3-comb
   ISYM   =      2    0-nonsym 1-usesym 2-fastsym
   LCORR  =      T    Harris-Foulkes like correction to forces

   POTIM  = 0.5000    time-step for ionic-motion
   TEIN   =    0.0    initial temperature
   TEBEG  =    0.0;   TEEND  =   0.0 temperature during run
   SMASS  =  -3.00    Nose mass-parameter (am)
   estimated Nose-frequenzy (Omega)   =  0.10E-29 period in steps =****** mass=  -0.596E-27a.u.
   SCALEE = 1.0000    scale energy and forces
   NPACO  =    256;   APACO  = 16.0  distance and # of slots for P.C.
   PSTRESS=    0.0 pullay stress

  Mass of Ions in am
   POMASS =  58.69 16.00
  Ionic Valenz
   ZVAL   =  16.00  6.00
  Atomic Wigner-Seitz radii
   RWIGS  =  -1.00 -1.00
  virtual crystal weights 
   VCA    =   1.00  1.00
   NELECT =      44.0000    total number of electrons
   NUPDOWN=      -1.0000    fix difference up-down

 DOS related values:
   EMIN   =  10.00;   EMAX   =-10.00  energy-range for DOS
   EFERMI =   0.00
   ISMEAR =    -5;   SIGMA  =   0.20  broadening in eV -4-tet -1-fermi 0-gaus

 Electronic relaxation 2 (details)
   IALGO  =     38    algorithm
   LDIAG  =      T    sub-space diagonalisation (order eigenvalues)
   LSUBROT=      F    optimize rotation matrix (better conditioning)
   TURBO    =      0    0=normal 1=particle mesh
   IRESTART =      0    0=no restart 2=restart with 2 vectors
   NREBOOT  =      0    no. of reboots
   NMIN     =      0    reboot dimension
   EREF     =   0.00    reference energy to select bands
   IMIX   =      4    mixing-type and parameters
     AMIX     =   0.20;   BMIX     =  0.00
     AMIX_MAG =   0.80;   BMIX_MAG =  0.00
     AMIN     =   0.10
     WC   =   100.;   INIMIX=   1;  MIXPRE=   1;  MAXMIX= -45

 Intra band minimization:
   WEIMIN = 0.0000     energy-eigenvalue tresh-hold
   EBREAK =  0.96E-07  absolut break condition
   DEPER  =   0.30     relativ break condition  

   TIME   =   0.40     timestep for ELM

  volume/ion in A,a.u.               =       9.06        61.17
  Fermi-wavevector in a.u.,A,eV,Ry     =   1.746223  3.299883 41.488167  3.049294
  Thomas-Fermi vector in A             =   2.817758
 
 Write flags
   LWAVE        =      T    write WAVECAR
   LDOWNSAMPLE  =      F    k-point downsampling of WAVECAR
   LCHARG       =      T    write CHGCAR
   LVTOT        =      F    write LOCPOT, total local potential
   LVHAR        =      F    write LOCPOT, Hartree potential only
   LELF         =      F    write electronic localiz. function (ELF)
   LORBIT       =     11    0 simple, 1 ext, 2 COOP (PROOUT), +10 PAW based schemes


 Dipole corrections
   LMONO  =      F    monopole corrections only (constant potential shift)
   LDIPOL =      F    correct potential (dipole corrections)
   IDIPOL =      0    1-x, 2-y, 3-z, 4-all directions 
   EPSILON=  1.0000000 bulk dielectric constant

 LDA+U is selected, type is set to LDAUTYPE =  2
   angular momentum for each species LDAUL =     2   -1
   U (eV)           for each species LDAUU =   5.0  0.0
   J (eV)           for each species LDAUJ =   0.0  0.0
 Exchange correlation treatment:
   GGA     =    --    GGA type
   LEXCH   =     8    internal setting for exchange type
   VOSKOWN=      0    Vosko Wilk Nusair interpolation
   LHFCALC =     F    Hartree Fock is set to
   LHFONE  =     F    Hartree Fock one center treatment
   AEXX    =    0.0000 exact exchange contribution

 Linear response parameters
   LEPSILON=     F    determine dielectric tensor
   LRPA    =     F    only Hartree local field effects (RPA)
   LNABLA  =     F    use nabla operator in PAW spheres
   LVEL    =     F    velocity operator in full k-point grid
   LINTERFAST=   F  fast interpolation
   KINTER  =     0    interpolate to denser k-point grid
   CSHIFT  =0.1000    complex shift for real part using Kramers Kronig
   OMEGAMAX=  -1.0    maximum frequency
   DEG_THRESHOLD= 0.2000000E-02 threshold for treating states as degnerate
   RTIME   =   -0.100 relaxation time in fs
  (WPLASMAI=    0.000 imaginary part of plasma frequency in eV, 0.658/RTIME)
   DFIELD  = 0.0000000 0.0000000 0.0000000 field for delta impulse in time
 
 Orbital magnetization related:
   ORBITALMAG=     F  switch on orbital magnetization
   LCHIMAG   =     F  perturbation theory with respect to B field
   DQ        =  0.001000  dq finite difference perturbation B field
   LLRAUG    =     F  two centre corrections for induced B field



--------------------------------------------------------------------------------------------------------


 Static calculation
 charge density and potential will be updated during run
 spin polarized calculation
 Variant of blocked Davidson
 Davidson routine will perform the subspace rotation
 perform sub-space diagonalisation
    after iterative eigenvector-optimisation
 modified Broyden-mixing scheme, WC =      100.0
 initial mixing is a Kerker type mixing with AMIX =  0.2000 and BMIX =      0.0000
 Hartree-type preconditioning will be used
 using additional bands            4
 reciprocal scheme for non local part
 use partial core corrections
 calculate Harris-corrections to forces 
   (improved forces if not selfconsistent)
 use gradient corrections 
 use of overlap-Matrix (Vanderbilt PP)
 Fermi weights with tetrahedron method with Bloechl corrections


--------------------------------------------------------------------------------------------------------


  energy-cutoff  :      450.00
  volume of cell :       36.26
      direct lattice vectors                 reciprocal lattice vectors
     4.170000000  2.085000000  2.085000000     0.359712230 -0.119904077 -0.119904077
     2.085000000  4.170000000  2.085000000    -0.119904077  0.359712230 -0.119904077
     2.085000000  2.085000000  4.170000000    -0.119904077 -0.119904077  0.359712230

  length of vectors
     5.107186114  5.107186114  5.107186114     0.397676833  0.397676833  0.397676833


 
 k-points in units of 2pi/SCALE and weight: k-points                                
   0.00000000  0.00000000  0.00000000       0.016
   0.37500000 -0.12500000 -0.12500000       0.094
   0.75000000 -0.25000000 -0.25000000       0.047
   0.25000000  0.25000000 -0.25000000       0.094
   0.62500000  0.12500000 -0.37500000       0.188
  -0.50000000  0.50000000  0.00000000       0.094
   0.50000000  0.50000000 -0.50000000       0.047
   0.12500000  0.12500000  0.12500000       0.031
   0.50000000 -0.00000000  0.00000000       0.094
  -0.62500000  0.37500000  0.37500000       0.094
   0.37500000  0.37500000 -0.12500000       0.094
  -0.75000000  0.75000000  0.25000000       0.094
   0.25000000  0.25000000  0.25000000       0.016
 
 k-points in reciprocal lattice and weights: k-points                                
   0.00000000  0.00000000  0.00000000       0.016
   0.25000000 -0.00000000 -0.00000000       0.094
   0.50000000 -0.00000000 -0.00000000       0.047
   0.25000000  0.25000000  0.00000000       0.094
   0.50000000  0.25000000  0.00000000       0.188
  -0.25000000  0.25000000  0.00000000       0.094
   0.50000000  0.50000000  0.00000000       0.047
   0.25000000  0.25000000  0.25000000       0.031
   0.50000000  0.25000000  0.25000000       0.094
  -0.25000000  0.25000000  0.25000000       0.094
   0.50000000  0.50000000  0.25000000       0.094
  -0.25000000  0.50000000  0.25000000       0.094
   0.50000000  0.50000000  0.50000000       0.016
 
 position of ions in fractional coordinates (direct lattice) 
   0.00000000  0.00000000  0.00000000
   0.50000000  0.50000000  0.50000000
   0.25000000  0.25000000  0.25000000
   0.75000000  0.75000000  0.75000000
 
 position of ions in cartesian coordinates  (Angst):
   0.00000000  0.00000000  0.00000000
   4.17000000  4.17000000  4.17000000
   2.08500000  2.08500000  2.08500000
   6.25500000  6.25500000  6.25500000
 


--------------------------------------------------------------------------------------------------------


 k-point  1 :   0.0000 0.0000 0.0000  plane waves:     803
 k-point  2 :   0.2500-0.0000-0.0000  plane waves:     778
 k-point  3 :   0.5000-0.0000-0.0000  plane waves:     790
 k-point  4 :   0.2500 0.2500 0.0000  plane waves:     781
 k-point  5 :   0.5000 0.2500 0.0000  plane waves:     788
 k-point  6 :  -0.2500 0.2500 0.0000  plane waves:     795
 k-point  7 :   0.5000 0.5000 0.0000  plane waves:     780
 k-point  8 :   0.2500 0.2500 0.2500  plane waves:     776
 k-point  9 :   0.5000 0.2500 0.2500  plane waves:     774
 k-point 10 :  -0.2500 0.2500 0.2500  plane waves:     786
 k-point 11 :   0.5000 0.5000 0.2500  plane waves:     786
 k-point 12 :  -0.2500 0.5000 0.2500  plane waves:     790
 k-point 13 :   0.5000 0.5000 0.5000  plane waves:     772

 maximum and minimum number of plane-waves per node :       803      772

 maximum number of plane-waves:       803
 maximum index in each direction: 
   IXMAX=    9   IYMAX=    8   IZMAX=    8
   IXMIN=   -9   IYMIN=   -9   IZMIN=   -9


 serial   3D FFT for wavefunctions
 parallel 3D FFT for charge:
    minimum data exchange during FFTs selected (reduces bandwidth)


 total amount of memory used by VASP MPI-rank0    81053. kBytes
=======================================================================

   base      :      30000. kBytes
   nonl-proj :       3057. kBytes
   fftplans  :      11932. kBytes
   grid      :      26693. kBytes
   one-center:        124. kBytes
   wavefun   :       9247. kBytes
 
     INWAV:  cpu time    0.0001: real time    0.0002
 Broyden mixing: mesh for mixing (old mesh)
   NGX = 17   NGY = 17   NGZ = 17
  (NGX  = 56   NGY  = 56   NGZ  = 56)
  gives a total of   4913 points

 initial charge density was supplied:
 charge density of overlapping atoms calculated
 number of electron      44.0000000 magnetization       0.0000000
 keeping initial charge density in first step


--------------------------------------------------------------------------------------------------------


 Maximum index for augmentation-charges        12895 (set IRDMAX)


--------------------------------------------------------------------------------------------------------


 First call to EWALD:  gamma=   0.536
 Maximum number of real-space cells 3x 3x 3
 Maximum number of reciprocal cells 4x 4x 4

    FEWALD:  cpu time    0.0014: real time    0.0014


--------------------------------------- Iteration      1(   1)  ---------------------------------------


    POTLOK:  cpu time    0.2221: real time    0.2241
    SETDIJ:  cpu time    0.0248: real time    0.0249
atom =   1  type =  1  l = 2
 
 onsite density matrix
 
spin component  1
 
  0.9237  0.0000  0.0000  0.0000  0.0000      0.0000  0.0000  0.0000  0.0000  0.0000
  0.0000  0.9237  0.0000  0.0000  0.0000      0.0000  0.0000  0.0000  0.0000  0.0000
  0.0000  0.0000  0.9237  0.0000  0.0000      0.0000  0.0000  0.0000  0.0000  0.0000
  0.0000  0.0000  0.0000  0.9237  0.0000      0.0000  0.0000  0.0000  0.0000  0.0000
  0.0000  0.0000  0.0000  0.0000  0.9237      0.0000  0.0000  0.0000  0.0000  0.0000
 
spin component  2
 
  0.7184  0.0000  0.0000  0.0000  0.0000      0.0000  0.0000  0.0000  0.0000  0.0000
  0.0000  0.7184  0.0000  0.0000  0.0000      0.0000  0.0000  0.0000  0.0000  0.0000
  0.0000  0.0000  0.7184  0.0000  0.0000      0.0000  0.0000  0.0000  0.0000  0.0000
  0.0000  0.0000  0.0000  0.7184  0.0000      0.0000  0.0000  0.0000  0.0000  0.0000
  0.0000  0.0000  0.0000  0.0000  0.7184      0.0000  0.0000  0.0000  0.0000  0.0000
 
 occupancies and eigenvectors
 
  o =  0.7184  v =  0.0000  0.0000  0.0000  0.0000  0.0000  1.0000  0.0000  0.0000  0.0000  0.0000      0.0000  0.0000  0.0000  0.0000  0.0000  0.0000  0.0000  0.0000  0.0000  0.0000
  o =  0.7184  v =  0.0000  0.0000  0.0000  0.0000  0.0000  0.0000  1.0000  0.0000  0.0000  0.0000      0.0000  0.0000  0.0000  0.0000  0.0000  0.0000  0.0000  0.0000  0.0000  0.0000
  o =  0.7184  v =  0.0000  0.0000  0.0000  0.0000  0.0000  0.0000  0.0000  1.0000  0.0000  0.0000      0.0000  0.0000  0.0000  0.0000  0.0000  0.0000  0.0000  0.0000  0.0000  0.0000
  o =  0.7184  v =  0.0000  0.0000  0.0000  0.0000  0.0000  0.0000  0.0000  0.0000  1.0000  0.0000      0.0000  0.0000  0.0000  0.0000  0.0000  0.0000  0.0000  0.0000  0.0000  0.0000
  o =  0.7184  v =  0.0000  0.0000  0.0000  0.0000  0.0000  0.0000  0.0000  0.0000  0.0000  1.0000      0.0000  0.0000  0.0000  0.0000  0.0000  0.0000  0.0000  0.0000  0.0000  0.0000
  o =  0.9237  v =  1.0000  0.0000  0.0000  0.0000  0.0000  0.0000  0.0000  0.0000  0.0000  0.0000      0.0000  0.0000  0.0000  0.0000  0.0000  0.0000  0.0000  0.0000  0.0000  0.0000
  o =  0.9237  v =  0.0000  1.0000  0.0000  0.0000  0.0000  0.0000  0.0000  0.0000  0.0000  0.0000      0.0000  0.0000  0.0000  0.0000  0.0000  0.0000  0.0000  0.0000  0.0000  0.0000
  o =  0.9237  v =  0.0000  0.0000  1.0000  0.0000  0.0000  0.0000  0.0000  0.0000  0.0000  0.0000      0.0000  0.0000  0.0000  0.0000  0.0000  0.0000  0.0000  0.0000  0.0000  0.0000
  o =  0.9237  v =  0.0000  0.0000  0.0000  1.0000  0.0000  0.0000  0.0000  0.0000  0.0000  0.0000      0.0000  0.0000  0.0000  0.0000  0.0000  0.0000  0.0000  0.0000  0.0000  0.0000
  o =  0.9237  v =  0.0000  0.0000  0.0000  0.0000  1.0000  0.0000  0.0000  0.0000  0.0000  0.0000      0.0000  0.0000  0.0000  0.0000  0.0000  0.0000  0.0000  0.0000  0.0000  0.0000
atom =   2  type =  1  l = 2
 
 onsite density matrix
 
spin component  1
 
  0.7184  0.0000  0.0000  0.0000  0.0000      0.0000  0.0000  0.0000  0.0000  0.0000
  0.0000  0.7184  0.0000  0.0000  0.0000      0.0000  0.0000  0.0000  0.0000  0.0000
  0.0000  0.0000  0.7184  0.0000  0.0000      0.0000  0.0000  0.0000  0.0000  0.0000
  0.0000  0.0000  0.0000  0.7184  0.0000      0.0000  0.0000  0.0000  0.0000  0.0000
  0.0000  0.0000  0.0000  0.0000  0.7184      0.0000  0.0000  0.0000  0.0000  0.0000
 
spin component  2
 
  0.9237  0.0000  0.0000  0.0000  0.0000      0.0000  0.0000  0.0000  0.0000  0.0000
  0.0000  0.9237  0.0000  0.0000  0.0000      0.0000  0.0000  0.0000  0.0000  0.0000
  0.0000  0.0000  0.9237  0.0000  0.0000      0.0000  0.0000  0.0000  0.0000  0.0000
  0.0000  0.0000  0.0000  0.9237  0.0000      0.0000  0.0000  0.0000  0.0000  0.0000
  0.0000  0.0000  0.0000  0.0000  0.9237      0.0000  0.0000  0.0000  0.0000  0.0000
 
 occupancies and eigenvectors
 
  o =  0.7184  v =  1.0000  0.0000  0.0000  0.0000  0.0000  0.0000  0.0000  0.0000  0.0000  0.0000      0.0000  0.0000  0.0000  0.0000  0.0000  0.0000  0.0000  0.0000  0.0000  0.0000
  o =  0.7184  v =  0.0000  1.0000  0.0000  0.0000  0.0000  0.0000  0.0000  0.0000  0.0000  0.0000      0.0000  0.0000  0.0000  0.0000  0.0000  0.0000  0.0000  0.0000  0.0000  0.0000
  o =  0.7184  v =  0.0000  0.0000  1.0000  0.0000  0.0000  0.0000  0.0000  0.0000  0.0000  0.0000      0.0000  0.0000  0.0000  0.0000  0.0000  0.0000  0.0000  0.0000  0.0000  0.0000
  o =  0.7184  v =  0.0000  0.0000  0.0000  1.0000  0.0000  0.0000  0.0000  0.0000  0.0000  0.0000      0.0000  0.0000  0.0000  0.0000  0.0000  0.0000  0.0000  0.0000  0.0000  0.0000
  o =  0.7184  v =  0.0000  0.0000  0.0000  0.0000  1.0000  0.0000  0.0000  0.0000  0.0000  0.0000      0.0000  0.0000  0.0000  0.0000  0.0000  0.0000  0.0000  0.0000  0.0000  0.0000
  o =  0.9237  v =  0.0000  0.0000  0.0000  0.0000  0.0000  1.0000  0.0000  0.0000  0.0000  0.0000      0.0000  0.0000  0.0000  0.0000  0.0000  0.0000  0.0000  0.0000  0.0000  0.0000
  o =  0.9237  v =  0.0000  0.0000  0.0000  0.0000  0.0000  0.0000  1.0000  0.0000  0.0000  0.0000      0.0000  0.0000  0.0000  0.0000  0.0000  0.0000  0.0000  0.0000  0.0000  0.0000
  o =  0.9237  v =  0.0000  0.0000  0.0000  0.0000  0.0000  0.0000  0.0000  1.0000  0.0000  0.0000      0.0000  0.0000  0.0000  0.0000  0.0000  0.0000  0.0000  0.0000  0.0000  0.0000
  o =  0.9237  v =  0.0000  0.0000  0.0000  0.0000  0.0000  0.0000  0.0000  0.0000  1.0000  0.0000      0.0000  0.0000  0.0000  0.0000  0.0000  0.0000  0.0000  0.0000  0.0000  0.0000
  o =  0.9237  v =  0.0000  0.0000  0.0000  0.0000  0.0000  0.0000  0.0000  0.0000  0.0000  1.0000      0.0000  0.0000  0.0000  0.0000  0.0000  0.0000  0.0000  0.0000  0.0000  0.0000
     EDDAV:  cpu time    1.6547: real time    1.6587
 BZINTS: Fermi energy: 24.027403; 44.000000 electrons
         Band energy: -85.298934;  BLOECHL correction: -0.172135
       DOS:  cpu time    0.0025: real time    0.0025
    --------------------------------------------
      LOOP:  cpu time    1.9041: real time    1.9102

 eigenvalue-minimisations  :  1568
 total energy-change (2. order) : 0.5014781E+03  (-0.2778524E+04)
 number of electron      44.0000000 magnetization       0.0000000
 augmentation part       44.0000000 magnetization       0.0000000

 Free energy of the ion-electron system (eV)
  ---------------------------------------------------
  alpha Z        PSCENC =       311.81991378
  Ewald energy   TEWEN  =     -5345.56183988
  -Hartree energ DENC   =     -2231.97249407
  -exchange      EXHF   =         0.00000000
  -V(xc)+E(xc)   XCENC  =       234.32277935
  PAW double counting   =      6520.12304331    -6768.69497847
  entropy T*S    EENTRO =         0.00000000
  eigenvalues    EBANDS =       -85.29893434
  atomic energy  EATOM  =      7866.74061565
  Solvation  Ediel_sol  =         0.00000000
  ---------------------------------------------------
  free energy    TOTEN  =       501.47810533 eV

  energy without entropy =      501.47810533  energy(sigma->0) =      501.47810533


--------------------------------------------------------------------------------------------------------




--------------------------------------- Iteration      1(   2)  ---------------------------------------


     EDDAV:  cpu time    1.5178: real time    1.5216
 BZINTS: Fermi energy:  9.088674; 44.000000 electrons
         Band energy:-572.211696;  BLOECHL correction: -0.076408
       DOS:  cpu time    0.0025: real time    0.0025
    --------------------------------------------
      LOOP:  cpu time    1.5202: real time    1.5241

 eigenvalue-minimisations  :  1408
 total energy-change (2. order) :-0.4869128E+03  (-0.4773535E+03)
 number of electron      44.0000000 magnetization       0.0000000
 augmentation part       44.0000000 magnetization       0.0000000

 Free energy of the ion-electron system (eV)
  ---------------------------------------------------
  alpha Z        PSCENC =       311.81991378
  Ewald energy   TEWEN  =     -5345.56183988
  -Hartree energ DENC   =     -2231.97249407
  -exchange      EXHF   =         0.00000000
  -V(xc)+E(xc)   XCENC  =       234.32277935
  PAW double counting   =      6520.12304331    -6768.69497847
  entropy T*S    EENTRO =         0.00000000
  eigenvalues    EBANDS =      -572.21169640
  atomic energy  EATOM  =      7866.74061565
  Solvation  Ediel_sol  =         0.00000000
  ---------------------------------------------------
  free energy    TOTEN  =        14.56534327 eV

  energy without entropy =       14.56534327  energy(sigma->0) =       14.56534327


--------------------------------------------------------------------------------------------------------




--------------------------------------- Iteration      1(   3)  ---------------------------------------


     EDDAV:  cpu time    1.5323: real time    1.5361
 BZINTS: Fermi energy:  8.198560; 44.000000 electrons
         Band energy:-605.351471;  BLOECHL correction: -0.000178
       DOS:  cpu time    0.0021: real time    0.0021
    --------------------------------------------
      LOOP:  cpu time    1.5344: real time    1.5382

 eigenvalue-minimisations  :  1442
 total energy-change (2. order) :-0.3313977E+02  (-0.3263661E+02)
 number of electron      44.0000000 magnetization       0.0000000
 augmentation part       44.0000000 magnetization       0.0000000

 Free energy of the ion-electron system (eV)
  ---------------------------------------------------
  alpha Z        PSCENC =       311.81991378
  Ewald energy   TEWEN  =     -5345.56183988
  -Hartree energ DENC   =     -2231.97249407
  -exchange      EXHF   =         0.00000000
  -V(xc)+E(xc)   XCENC  =       234.32277935
  PAW double counting   =      6520.12304331    -6768.69497847
  entropy T*S    EENTRO =         0.00000000
  eigenvalues    EBANDS =      -605.35147080
  atomic energy  EATOM  =      7866.74061565
  Solvation  Ediel_sol  =         0.00000000
  ---------------------------------------------------
  free energy    TOTEN  =       -18.57443113 eV

  energy without entropy =      -18.57443113  energy(sigma->0) =      -18.57443113


--------------------------------------------------------------------------------------------------------




--------------------------------------- Iteration      1(   4)  ---------------------------------------


     EDDAV:  cpu time    1.5220: real time    1.5257
 BZINTS: Fermi energy:  8.157107; 44.000000 electrons
         Band energy:-606.328008;  BLOECHL correction:  0.000000
       DOS:  cpu time    0.0010: real time    0.0008
    --------------------------------------------
      LOOP:  cpu time    1.5229: real time    1.5266

 eigenvalue-minimisations  :  1440
 total energy-change (2. order) :-0.9765372E+00  (-0.9704194E+00)
 number of electron      44.0000000 magnetization       0.0000000
 augmentation part       44.0000000 magnetization       0.0000000

 Free energy of the ion-electron system (eV)
  ---------------------------------------------------
  alpha Z        PSCENC =       311.81991378
  Ewald energy   TEWEN  =     -5345.56183988
  -Hartree energ DENC   =     -2231.97249407
  -exchange      EXHF   =         0.00000000
  -V(xc)+E(xc)   XCENC  =       234.32277935
  PAW double counting   =      6520.12304331    -6768.69497847
  entropy T*S    EENTRO =         0.00000000
  eigenvalues    EBANDS =      -606.32800805
  atomic energy  EATOM  =      7866.74061565
  Solvation  Ediel_sol  =         0.00000000
  ---------------------------------------------------
  free energy    TOTEN  =       -19.55096838 eV

  energy without entropy =      -19.55096838  energy(sigma->0) =      -19.55096838


--------------------------------------------------------------------------------------------------------




--------------------------------------- Iteration      1(   5)  ---------------------------------------


     EDDAV:  cpu time    1.4972: real time    1.5011
 BZINTS: Fermi energy:  8.158594; 44.000000 electrons
         Band energy:-606.349795;  BLOECHL correction:  0.000000
       DOS:  cpu time    0.0010: real time    0.0006
    CHARGE:  cpu time    0.2004: real time    0.2012
    MIXING:  cpu time    0.0060: real time    0.0060
    --------------------------------------------
      LOOP:  cpu time    1.7046: real time    1.7090

 eigenvalue-minimisations  :  1434
 total energy-change (2. order) :-0.2178717E-01  (-0.2177093E-01)
 number of electron      44.0000078 magnetization      -0.0000000
 augmentation part       19.8247359 magnetization      -0.0000000

 Broyden mixing:
  rms(total) = 0.20897E+01    rms(broyden)= 0.20746E+01
  rms(prec ) = 0.32941E+01
  weight for this iteration     100.00

 Free energy of the ion-electron system (eV)
  ---------------------------------------------------
  alpha Z        PSCENC =       311.81991378
  Ewald energy   TEWEN  =     -5345.56183988
  -Hartree energ DENC   =     -2231.97249407
  -exchange      EXHF   =         0.00000000
  -V(xc)+E(xc)   XCENC  =       234.32277935
  PAW double counting   =      6520.12304331    -6768.69497847
  entropy T*S    EENTRO =         0.00000000
  eigenvalues    EBANDS =      -606.34979522
  atomic energy  EATOM  =      7866.74061565
  Solvation  Ediel_sol  =         0.00000000
  ---------------------------------------------------
  free energy    TOTEN  =       -19.57275555 eV

  energy without entropy =      -19.57275555  energy(sigma->0) =      -19.57275555


--------------------------------------------------------------------------------------------------------




--------------------------------------- Iteration      1(   6)  ---------------------------------------


    POTLOK:  cpu time    0.2098: real time    0.2105
    SETDIJ:  cpu time    0.0240: real time    0.0241
atom =   1  type =  1  l = 2
 
 onsite density matrix
 
spin component  1
 
  0.8740  0.0001 -0.0042  0.0001 -0.0000     -0.0000 -0.0000  0.0000  0.0000  0.0000
  0.0001  0.8740  0.0021  0.0001 -0.0037      0.0000 -0.0000 -0.0000 -0.0000  0.0000
 -0.0042  0.0021  1.1158  0.0021 -0.0000     -0.0000  0.0000  0.0000  0.0000  0.0000
  0.0001  0.0001  0.0021  0.8740  0.0037     -0.0000  0.0000 -0.0000 -0.0000 -0.0000
 -0.0000 -0.0037 -0.0000  0.0037  1.1158     -0.0000 -0.0000 -0.0000  0.0000  0.0000
 
spin component  2
 
  0.8074 -0.0001  0.0069 -0.0001  0.0000     -0.0000  0.0000 -0.0000 -0.0000 -0.0000
 -0.0001  0.8074 -0.0035 -0.0001  0.0060     -0.0000 -0.0000  0.0000  0.0000 -0.0000
  0.0069 -0.0035  0.4136 -0.0035 -0.0000      0.0000 -0.0000 -0.0000 -0.0000 -0.0000
 -0.0001 -0.0001 -0.0035  0.8074 -0.0060      0.0000 -0.0000  0.0000 -0.0000  0.0000
  0.0000  0.0060 -0.0000 -0.0060  0.4136      0.0000  0.0000  0.0000 -0.0000 -0.0000
 
 occupancies and eigenvectors
 
  o =  0.4134  v =  0.0000  0.0000  0.0000  0.0000  0.0000  0.0001  0.0151 -0.0036 -0.0152 -0.9998      0.0000  0.0000  0.0000  0.0000  0.0000  0.0000  0.0000  0.0000 -0.0000 -0.0011
  o =  0.4134  v =  0.0000  0.0000  0.0000  0.0000  0.0000 -0.0175  0.0088  0.9998  0.0087 -0.0036      0.0000  0.0000  0.0000  0.0000  0.0000  0.0000  0.0000 -0.0002 -0.0000 -0.0000
  o =  0.8071  v =  0.0000  0.0000  0.0000  0.0000  0.0000  0.5774  0.5774 -0.0000  0.5774  0.0000      0.0000  0.0000  0.0000  0.0000  0.0000  0.0000  0.0000 -0.0000  0.0000 -0.0000
  o =  0.8077  v =  0.0000  0.0000  0.0000  0.0000  0.0000 -0.2902  0.8059 -0.0076 -0.5157  0.0201      0.0000  0.0000  0.0000  0.0000  0.0000  0.0000  0.0004  0.0000 -0.0004  0.0000
  o =  0.8077  v =  0.0000  0.0000  0.0000  0.0000  0.0000 -0.7630  0.1302 -0.0201  0.6328 -0.0076      0.0000  0.0000  0.0000  0.0000  0.0000  0.0000 -0.0001  0.0000  0.0001 -0.0000
  o =  0.8737  v = -0.7841  0.1954 -0.0206  0.5887 -0.0060  0.0000  0.0000  0.0000  0.0000  0.0000      0.0000 -0.0001  0.0000  0.0001 -0.0000  0.0000  0.0000  0.0000  0.0000  0.0000
  o =  0.8737  v = -0.2271  0.7926 -0.0060 -0.5655  0.0206  0.0000  0.0000  0.0000  0.0000  0.0000      0.0000  0.0002  0.0000 -0.0002  0.0000  0.0000  0.0000  0.0000  0.0000  0.0000
  o =  0.8742  v =  0.5774  0.5774 -0.0000  0.5774  0.0000  0.0000  0.0000  0.0000  0.0000  0.0000      0.0000  0.0000  0.0000 -0.0000 -0.0000  0.0000  0.0000  0.0000  0.0000  0.0000
  o =  1.1159  v = -0.0175  0.0087  0.9998  0.0087 -0.0000  0.0000  0.0000  0.0000  0.0000  0.0000      0.0000 -0.0000 -0.0003 -0.0000 -0.0000  0.0000  0.0000  0.0000  0.0000  0.0000
  o =  1.1159  v =  0.0000  0.0151 -0.0000 -0.0151 -0.9998  0.0000  0.0000  0.0000  0.0000  0.0000      0.0000 -0.0000  0.0000  0.0000  0.0010  0.0000  0.0000  0.0000  0.0000  0.0000
atom =   2  type =  1  l = 2
 
 onsite density matrix
 
spin component  1
 
  0.8074 -0.0001  0.0069 -0.0001 -0.0000     -0.0000 -0.0000 -0.0000 -0.0000  0.0000
 -0.0001  0.8074 -0.0035 -0.0001  0.0060      0.0000 -0.0000  0.0000 -0.0000 -0.0000
  0.0069 -0.0035  0.4136 -0.0035  0.0000      0.0000 -0.0000 -0.0000 -0.0000 -0.0000
 -0.0001 -0.0001 -0.0035  0.8074 -0.0060      0.0000  0.0000  0.0000 -0.0000  0.0000
 -0.0000  0.0060  0.0000 -0.0060  0.4136     -0.0000  0.0000  0.0000 -0.0000 -0.0000
 
spin component  2
 
  0.8740  0.0001 -0.0042  0.0001  0.0000     -0.0000  0.0000  0.0000  0.0000 -0.0000
  0.0001  0.8740  0.0021  0.0001 -0.0037     -0.0000 -0.0000 -0.0000  0.0000  0.0000
 -0.0042  0.0021  1.1158  0.0021 -0.0000     -0.0000  0.0000  0.0000  0.0000  0.0000
  0.0001  0.0001  0.0021  0.8740  0.0037     -0.0000 -0.0000 -0.0000 -0.0000 -0.0000
  0.0000 -0.0037 -0.0000  0.0037  1.1158      0.0000 -0.0000 -0.0000  0.0000  0.0000
 
 occupancies and eigenvectors
 
  o =  0.4134  v = -0.0000  0.0152  0.0026 -0.0152 -0.9998  0.0000  0.0000  0.0000  0.0000  0.0000      0.0000 -0.0000 -0.0000  0.0000  0.0024  0.0000  0.0000  0.0000  0.0000  0.0000
  o =  0.4134  v = -0.0175  0.0087  0.9998  0.0088  0.0026  0.0000  0.0000  0.0000  0.0000  0.0000      0.0000  0.0000 -0.0002 -0.0000 -0.0000  0.0000  0.0000  0.0000  0.0000  0.0000
  o =  0.8071  v =  0.5774  0.5774  0.0000  0.5774 -0.0000  0.0000  0.0000  0.0000  0.0000  0.0000      0.0000  0.0000 -0.0000  0.0000 -0.0000  0.0000  0.0000  0.0000  0.0000  0.0000
  o =  0.8077  v =  0.1799  0.5996  0.0047 -0.7795  0.0209  0.0000  0.0000  0.0000  0.0000  0.0000      0.0000  0.0003 -0.0000 -0.0003  0.0000  0.0000  0.0000  0.0000  0.0000  0.0000
  o =  0.8077  v =  0.7962 -0.5539  0.0209 -0.2423 -0.0047  0.0000  0.0000  0.0000  0.0000  0.0000      0.0000 -0.0001 -0.0000  0.0001 -0.0000  0.0000  0.0000  0.0000  0.0000  0.0000
  o =  0.8737  v =  0.0000  0.0000  0.0000  0.0000  0.0000  0.2370  0.5580  0.0062 -0.7950  0.0205      0.0000  0.0000  0.0000  0.0000  0.0000  0.0000 -0.0000 -0.0000  0.0000 -0.0000
  o =  0.8737  v =  0.0000  0.0000  0.0000  0.0000  0.0000 -0.7811  0.5958 -0.0205  0.1853  0.0062      0.0000  0.0000  0.0000  0.0000  0.0000  0.0000 -0.0000  0.0000  0.0000 -0.0000
  o =  0.8742  v =  0.0000  0.0000  0.0000  0.0000  0.0000 -0.5774 -0.5774  0.0000 -0.5774 -0.0000      0.0000  0.0000  0.0000  0.0000  0.0000  0.0000 -0.0000 -0.0000 -0.0000  0.0000
  o =  1.1159  v =  0.0000  0.0000  0.0000  0.0000  0.0000  0.0175 -0.0087 -0.9998 -0.0087  0.0000      0.0000  0.0000  0.0000  0.0000  0.0000  0.0000  0.0000  0.0003  0.0000 -0.0000
  o =  1.1159  v =  0.0000  0.0000  0.0000  0.0000  0.0000  0.0000  0.0151 -0.0000 -0.0151 -0.9997      0.0000  0.0000  0.0000  0.0000  0.0000  0.0000  0.0001 -0.0000 -0.0001 -0.0092
     EDDAV:  cpu time    1.7126: real time    1.7167
 BZINTS: Fermi energy:  5.780672; 44.000000 electrons
         Band energy:-647.985843;  BLOECHL correction:  0.000000
       DOS:  cpu time    0.0007: real time    0.0007
    CHARGE:  cpu time    0.1975: real time    0.1979
    MIXING:  cpu time    0.0068: real time    0.0068
    --------------------------------------------
      LOOP:  cpu time    2.1514: real time    2.1567

 eigenvalue-minimisations  :  1818
 total energy-change (2. order) : 0.9005025E+00  (-0.1371176E+01)
 number of electron      44.0000077 magnetization       0.0000000
 augmentation part       20.2929324 magnetization       0.0000000

 Broyden mixing:
  rms(total) = 0.17837E+01    rms(broyden)= 0.17827E+01
  rms(prec ) = 0.19909E+01
  weight for this iteration     100.00

 eigenvalues of (default mixing * dielectric matrix)
  average eigenvalue GAMMA=   0.8471
  0.8471

 Free energy of the ion-electron system (eV)
  ---------------------------------------------------
  alpha Z        PSCENC =       311.81991378
  Ewald energy   TEWEN  =     -5345.56183988
  -Hartree energ DENC   =     -2194.52100495
  -exchange      EXHF   =         0.00000000
  -V(xc)+E(xc)   XCENC  =       233.85751681
  PAW double counting   =      6554.09403816    -6797.11564922
  entropy T*S    EENTRO =         0.00000000
  eigenvalues    EBANDS =      -647.98584340
  atomic energy  EATOM  =      7866.74061565
  Solvation  Ediel_sol  =         0.00000000
  ---------------------------------------------------
  free energy    TOTEN  =       -18.67225304 eV

  energy without entropy =      -18.67225304  energy(sigma->0) =      -18.67225304


--------------------------------------------------------------------------------------------------------




--------------------------------------- Iteration      1(   7)  ---------------------------------------


    POTLOK:  cpu time    0.2096: real time    0.2103
    SETDIJ:  cpu time    0.0242: real time    0.0243
atom =   1  type =  1  l = 2
 
 onsite density matrix
 
spin component  1
 
  0.8705 -0.0000 -0.0028 -0.0000  0.0000     -0.0000 -0.0000  0.0000 -0.0000  0.0000
 -0.0000  0.8705  0.0014 -0.0000 -0.0024      0.0000 -0.0000 -0.0000 -0.0000  0.0000
 -0.0028  0.0014  1.1280  0.0014  0.0000     -0.0000  0.0000 -0.0000  0.0000  0.0000
 -0.0000 -0.0000  0.0014  0.8705  0.0024      0.0000  0.0000 -0.0000 -0.0000 -0.0000
  0.0000 -0.0024  0.0000  0.0024  1.1280     -0.0000 -0.0000 -0.0000  0.0000 -0.0000
 
spin component  2
 
  0.8603  0.0000  0.0069  0.0000 -0.0000      0.0000  0.0000 -0.0000  0.0000 -0.0000
  0.0000  0.8603 -0.0034  0.0000  0.0060     -0.0000  0.0000  0.0000  0.0000 -0.0000
  0.0069 -0.0034  0.2978 -0.0034  0.0000      0.0000 -0.0000 -0.0000 -0.0000 -0.0000
  0.0000  0.0000 -0.0034  0.8603 -0.0060     -0.0000 -0.0000  0.0000  0.0000  0.0000
 -0.0000  0.0060  0.0000 -0.0060  0.2978      0.0000  0.0000  0.0000 -0.0000 -0.0000
 
 occupancies and eigenvectors
 
  o =  0.2977  v =  0.0000  0.0000  0.0000  0.0000  0.0000 -0.0122  0.0068  0.9977  0.0054 -0.0663      0.0000  0.0000  0.0000  0.0000  0.0000  0.0000 -0.0000 -0.0008  0.0000  0.0001
  o =  0.2977  v =  0.0000  0.0000  0.0000  0.0000  0.0000  0.0008  0.0102 -0.0663 -0.0110 -0.9977      0.0000  0.0000  0.0000  0.0000  0.0000  0.0000 -0.0000  0.0001  0.0000  0.0012
  o =  0.8603  v =  0.0000  0.0000  0.0000  0.0000  0.0000  0.5774  0.5774  0.0000  0.5774 -0.0000      0.0000  0.0000  0.0000  0.0000  0.0000  0.0000 -0.0000 -0.0000 -0.0000  0.0000
  o =  0.8604  v =  0.0000  0.0000  0.0000  0.0000  0.0000  0.4374  0.3783  0.0080 -0.8157  0.0127      0.0000  0.0000  0.0000  0.0000  0.0000  0.0000  0.0001 -0.0000 -0.0001 -0.0000
  o =  0.8604  v =  0.0000  0.0000  0.0000  0.0000  0.0000  0.6893 -0.7235  0.0127  0.0341 -0.0080      0.0000  0.0000  0.0000  0.0000  0.0000  0.0000 -0.0000 -0.0000  0.0000  0.0000
  o =  0.8704  v =  0.5774  0.5774 -0.0000  0.5774  0.0000  0.0000  0.0000  0.0000  0.0000  0.0000      0.0000  0.0000  0.0000  0.0000  0.0000  0.0000  0.0000  0.0000  0.0000  0.0000
  o =  0.8705  v =  0.0071 -0.7105  0.0001  0.7035 -0.0131  0.0000  0.0000  0.0000  0.0000  0.0000      0.0000 -0.0063 -0.0000  0.0063 -0.0001  0.0000  0.0000  0.0000  0.0000  0.0000
  o =  0.8705  v = -0.8164  0.4021 -0.0131  0.4143 -0.0001  0.0000  0.0000  0.0000  0.0000  0.0000      0.0000 -0.0001  0.0000  0.0001 -0.0000  0.0000  0.0000  0.0000  0.0000  0.0000
  o =  1.1280  v =  0.0000 -0.0093  0.0000  0.0093  0.9999  0.0000  0.0000  0.0000  0.0000  0.0000      0.0000 -0.0000 -0.0000  0.0000 -0.0019  0.0000  0.0000  0.0000  0.0000  0.0000
  o =  1.1280  v = -0.0107  0.0053  0.9999  0.0053 -0.0000  0.0000  0.0000  0.0000  0.0000  0.0000      0.0000 -0.0000 -0.0019  0.0000 -0.0000  0.0000  0.0000  0.0000  0.0000  0.0000
atom =   2  type =  1  l = 2
 
 onsite density matrix
 
spin component  1
 
  0.8603  0.0000  0.0069  0.0000 -0.0000      0.0000  0.0000 -0.0000 -0.0000 -0.0000
  0.0000  0.8603 -0.0034  0.0000  0.0060     -0.0000  0.0000  0.0000 -0.0000 -0.0000
  0.0069 -0.0034  0.2978 -0.0034  0.0000      0.0000 -0.0000 -0.0000 -0.0000 -0.0000
  0.0000  0.0000 -0.0034  0.8603 -0.0060      0.0000  0.0000  0.0000  0.0000  0.0000
 -0.0000  0.0060  0.0000 -0.0060  0.2978      0.0000  0.0000  0.0000 -0.0000 -0.0000
 
spin component  2
 
  0.8705 -0.0000 -0.0028 -0.0000  0.0000     -0.0000  0.0000  0.0000  0.0000  0.0000
 -0.0000  0.8705  0.0014 -0.0000 -0.0024     -0.0000 -0.0000 -0.0000  0.0000  0.0000
 -0.0028  0.0014  1.1280  0.0014 -0.0000     -0.0000  0.0000 -0.0000  0.0000  0.0000
 -0.0000 -0.0000  0.0014  0.8705  0.0024     -0.0000 -0.0000 -0.0000 -0.0000 -0.0000
  0.0000 -0.0024 -0.0000  0.0024  1.1280     -0.0000 -0.0000 -0.0000  0.0000 -0.0000
 
 occupancies and eigenvectors
 
  o =  0.2977  v = -0.0122  0.0063  0.9998  0.0060 -0.0132  0.0000  0.0000  0.0000  0.0000  0.0000      0.0000 -0.0000 -0.0008  0.0000  0.0000  0.0000  0.0000  0.0000  0.0000  0.0000
  o =  0.2977  v =  0.0002  0.0105 -0.0132 -0.0107 -0.9998  0.0000  0.0000  0.0000  0.0000  0.0000      0.0000 -0.0000  0.0000  0.0000  0.0012  0.0000  0.0000  0.0000  0.0000  0.0000
  o =  0.8603  v =  0.5774  0.5774  0.0000  0.5774 -0.0000  0.0000  0.0000  0.0000  0.0000  0.0000      0.0000 -0.0000 -0.0000  0.0000  0.0000  0.0000  0.0000  0.0000  0.0000  0.0000
  o =  0.8604  v =  0.4620  0.3519  0.0085 -0.8139  0.0124  0.0000  0.0000  0.0000  0.0000  0.0000      0.0000  0.0000 -0.0000 -0.0000 -0.0000  0.0000  0.0000  0.0000  0.0000  0.0000
  o =  0.8604  v =  0.6731 -0.7367  0.0124  0.0636 -0.0085  0.0000  0.0000  0.0000  0.0000  0.0000      0.0000 -0.0000 -0.0000  0.0000  0.0000  0.0000  0.0000  0.0000  0.0000  0.0000
  o =  0.8704  v =  0.0000  0.0000  0.0000  0.0000  0.0000 -0.5774 -0.5774  0.0000 -0.5774 -0.0000      0.0000  0.0000  0.0000  0.0000  0.0000  0.0000 -0.0000 -0.0000  0.0000  0.0000
  o =  0.8705  v =  0.0000  0.0000  0.0000  0.0000  0.0000  0.4144 -0.8164  0.0066  0.4020 -0.0113      0.0000  0.0000  0.0000  0.0000  0.0000  0.0000 -0.0004 -0.0000  0.0004  0.0000
  o =  0.8705  v =  0.0000  0.0000  0.0000  0.0000  0.0000 -0.7034 -0.0072 -0.0113  0.7106 -0.0066      0.0000  0.0000  0.0000  0.0000  0.0000  0.0000 -0.0003  0.0000  0.0003  0.0000
  o =  1.1280  v =  0.0000  0.0000  0.0000  0.0000  0.0000  0.0000  0.0093 -0.0000 -0.0093 -0.9999      0.0000  0.0000  0.0000  0.0000  0.0000  0.0000 -0.0000  0.0000  0.0000  0.0058
  o =  1.1280  v =  0.0000  0.0000  0.0000  0.0000  0.0000 -0.0107  0.0053  0.9999  0.0053 -0.0000      0.0000  0.0000  0.0000  0.0000  0.0000  0.0000 -0.0000 -0.0019 -0.0000 -0.0000
     EDDAV:  cpu time    1.7588: real time    1.7630
 BZINTS: Fermi energy:  5.524004; 44.000000 electrons
         Band energy:-656.203774;  BLOECHL correction:  0.000000
       DOS:  cpu time    0.0010: real time    0.0006
    CHARGE:  cpu time    0.1965: real time    0.1973
    MIXING:  cpu time    0.0073: real time    0.0073
    --------------------------------------------
      LOOP:  cpu time    2.1974: real time    2.2028

 eigenvalue-minimisations  :  1832
 total energy-change (2. order) :-0.2853898E+00  (-0.3092829E+00)
 number of electron      44.0000076 magnetization       0.0000000
 augmentation part       20.3665091 magnetization       0.0000000

 Broyden mixing:
  rms(total) = 0.15097E+01    rms(broyden)= 0.15096E+01
  rms(prec ) = 0.15445E+01
  weight for this iteration     100.00

 eigenvalues of (default mixing * dielectric matrix)
  average eigenvalue GAMMA=   1.5037
  1.5037  1.5037

 Free energy of the ion-electron system (eV)
  ---------------------------------------------------
  alpha Z        PSCENC =       311.81991378
  Ewald energy   TEWEN  =     -5345.56183988
  -Hartree energ DENC   =     -2185.75432055
  -exchange      EXHF   =         0.00000000
  -V(xc)+E(xc)   XCENC  =       233.99144544
  PAW double counting   =      6691.67704616    -6935.66672973
  entropy T*S    EENTRO =         0.00000000
  eigenvalues    EBANDS =      -656.20377369
  atomic energy  EATOM  =      7866.74061565
  Solvation  Ediel_sol  =         0.00000000
  ---------------------------------------------------
  free energy    TOTEN  =       -18.95764282 eV

  energy without entropy =      -18.95764282  energy(sigma->0) =      -18.95764282


--------------------------------------------------------------------------------------------------------




--------------------------------------- Iteration      1(   8)  ---------------------------------------


    POTLOK:  cpu time    0.2105: real time    0.2112
    SETDIJ:  cpu time    0.0243: real time    0.0244
atom =   1  type =  1  l = 2
 
 onsite density matrix
 
spin component  1
 
  0.9067  0.0000  0.0007  0.0000 -0.0000      0.0000  0.0000 -0.0000  0.0000 -0.0000
  0.0000  0.9067 -0.0004  0.0000  0.0006     -0.0000  0.0000  0.0000 -0.0000 -0.0000
  0.0007 -0.0004  1.0393 -0.0004 -0.0000      0.0000 -0.0000  0.0000 -0.0000 -0.0000
  0.0000  0.0000 -0.0004  0.9067 -0.0006     -0.0000  0.0000  0.0000  0.0000  0.0000
 -0.0000  0.0006 -0.0000 -0.0006  1.0393      0.0000  0.0000  0.0000 -0.0000  0.0000
 
spin component  2
 
  0.8917 -0.0000  0.0039 -0.0000 -0.0000     -0.0000 -0.0000  0.0000 -0.0000  0.0000
 -0.0000  0.8917 -0.0020 -0.0000  0.0034      0.0000 -0.0000 -0.0000  0.0000  0.0000
  0.0039 -0.0020  0.2693 -0.0020 -0.0000     -0.0000  0.0000 -0.0000  0.0000 -0.0000
 -0.0000 -0.0000 -0.0020  0.8917 -0.0034      0.0000 -0.0000 -0.0000 -0.0000 -0.0000
 -0.0000  0.0034 -0.0000 -0.0034  0.2693     -0.0000 -0.0000  0.0000  0.0000 -0.0000
 
 occupancies and eigenvectors
 
  o =  0.2693  v =  0.0000  0.0000  0.0000  0.0000  0.0000 -0.0063  0.0030  0.9998  0.0032  0.0158      0.0000  0.0000  0.0000  0.0000  0.0000  0.0000 -0.0000  0.0001  0.0000  0.0000
  o =  0.2693  v =  0.0000  0.0000  0.0000  0.0000  0.0000  0.0001 -0.0055 -0.0158  0.0054  0.9998      0.0000  0.0000  0.0000  0.0000  0.0000  0.0000 -0.0000 -0.0000  0.0000  0.0001
  o =  0.8917  v =  0.0000  0.0000  0.0000  0.0000  0.0000  0.5774  0.5774 -0.0000  0.5774  0.0000      0.0000  0.0000  0.0000  0.0000  0.0000  0.0000  0.0000 -0.0000  0.0000  0.0000
  o =  0.8918  v =  0.0000  0.0000  0.0000  0.0000  0.0000 -0.1176  0.7585 -0.0011 -0.6409  0.0076      0.0000  0.0000  0.0000  0.0000  0.0000  0.0000 -0.0000 -0.0000  0.0000  0.0000
  o =  0.8918  v =  0.0000  0.0000  0.0000  0.0000  0.0000 -0.8080  0.3021 -0.0076  0.5058 -0.0011      0.0000  0.0000  0.0000  0.0000  0.0000  0.0000  0.0000 -0.0000 -0.0000 -0.0000
  o =  0.9067  v =  0.7349 -0.0595 -0.0062 -0.6755 -0.0030  0.0000  0.0000  0.0000  0.0000  0.0000      0.0000  0.0001  0.0000 -0.0001  0.0000  0.0000  0.0000  0.0000  0.0000  0.0000
  o =  0.9067  v = -0.3557  0.8143  0.0030 -0.4587 -0.0062  0.0000  0.0000  0.0000  0.0000  0.0000      0.0000  0.0001 -0.0000 -0.0001  0.0000  0.0000  0.0000  0.0000  0.0000  0.0000
  o =  0.9067  v = -0.5774 -0.5774 -0.0000 -0.5774  0.0000  0.0000  0.0000  0.0000  0.0000  0.0000      0.0000 -0.0000  0.0000  0.0000 -0.0000  0.0000  0.0000  0.0000  0.0000  0.0000
  o =  1.0393  v =  0.0000 -0.0049 -0.0000  0.0049 -1.0000  0.0000  0.0000  0.0000  0.0000  0.0000      0.0000 -0.0000  0.0000  0.0000  0.0037  0.0000  0.0000  0.0000  0.0000  0.0000
  o =  1.0393  v =  0.0057 -0.0028  1.0000 -0.0028 -0.0000  0.0000  0.0000  0.0000  0.0000  0.0000      0.0000 -0.0000 -0.0037 -0.0000 -0.0000  0.0000  0.0000  0.0000  0.0000  0.0000
atom =   2  type =  1  l = 2
 
 onsite density matrix
 
spin component  1
 
  0.8917 -0.0000  0.0039 -0.0000  0.0000     -0.0000  0.0000  0.0000  0.0000  0.0000
 -0.0000  0.8917 -0.0020 -0.0000  0.0034     -0.0000 -0.0000 -0.0000 -0.0000  0.0000
  0.0039 -0.0020  0.2693 -0.0020 -0.0000     -0.0000  0.0000 -0.0000  0.0000 -0.0000
 -0.0000 -0.0000 -0.0020  0.8917 -0.0034     -0.0000  0.0000 -0.0000 -0.0000 -0.0000
  0.0000  0.0034 -0.0000 -0.0034  0.2693     -0.0000 -0.0000  0.0000  0.0000 -0.0000
 
spin component  2
 
  0.9067  0.0000  0.0007  0.0000 -0.0000      0.0000 -0.0000 -0.0000 -0.0000 -0.0000
  0.0000  0.9067 -0.0004  0.0000  0.0006      0.0000  0.0000  0.0000  0.0000 -0.0000
  0.0007 -0.0004  1.0393 -0.0004 -0.0000      0.0000 -0.0000  0.0000 -0.0000  0.0000
  0.0000  0.0000 -0.0004  0.9067 -0.0006      0.0000 -0.0000  0.0000  0.0000  0.0000
 -0.0000  0.0006 -0.0000 -0.0006  1.0393      0.0000  0.0000 -0.0000 -0.0000  0.0000
 
 occupancies and eigenvectors
 
  o =  0.2693  v = -0.0063  0.0031  1.0000  0.0031  0.0012  0.0000  0.0000  0.0000  0.0000  0.0000      0.0000 -0.0000  0.0001  0.0000  0.0000  0.0000  0.0000  0.0000  0.0000  0.0000
  o =  0.2693  v =  0.0000 -0.0054 -0.0012  0.0054  1.0000  0.0000  0.0000  0.0000  0.0000  0.0000      0.0000 -0.0000 -0.0000  0.0000  0.0001  0.0000  0.0000  0.0000  0.0000  0.0000
  o =  0.8917  v =  0.5774  0.5774 -0.0000  0.5774  0.0000  0.0000  0.0000  0.0000  0.0000  0.0000      0.0000 -0.0000 -0.0000 -0.0000 -0.0000  0.0000  0.0000  0.0000  0.0000  0.0000
  o =  0.8918  v = -0.1913  0.7830 -0.0018 -0.5918  0.0075  0.0000  0.0000  0.0000  0.0000  0.0000      0.0000 -0.0001 -0.0000  0.0001 -0.0000  0.0000  0.0000  0.0000  0.0000  0.0000
  o =  0.8918  v =  0.7938 -0.2312  0.0075 -0.5625  0.0018  0.0000  0.0000  0.0000  0.0000  0.0000      0.0000 -0.0000  0.0000  0.0000 -0.0000  0.0000  0.0000  0.0000  0.0000  0.0000
  o =  0.9067  v =  0.0000  0.0000  0.0000  0.0000  0.0000  0.8148 -0.4521 -0.0069 -0.3628  0.0004      0.0000  0.0000  0.0000  0.0000  0.0000  0.0000 -0.0001  0.0000  0.0001 -0.0000
  o =  0.9067  v =  0.0000  0.0000  0.0000  0.0000  0.0000  0.0515  0.6799 -0.0004 -0.7314 -0.0069      0.0000  0.0000  0.0000  0.0000  0.0000  0.0000  0.0014  0.0000 -0.0014  0.0000
  o =  0.9067  v =  0.0000  0.0000  0.0000  0.0000  0.0000 -0.5774 -0.5774 -0.0000 -0.5774 -0.0000      0.0000  0.0000  0.0000  0.0000  0.0000  0.0000  0.0000  0.0000 -0.0000  0.0000
  o =  1.0393  v =  0.0000  0.0000  0.0000  0.0000  0.0000  0.0057 -0.0028  1.0000 -0.0028 -0.0000      0.0000  0.0000  0.0000  0.0000  0.0000  0.0000  0.0000 -0.0037 -0.0000 -0.0000
  o =  1.0393  v =  0.0000  0.0000  0.0000  0.0000  0.0000  0.0000 -0.0049 -0.0000  0.0049 -1.0000      0.0000  0.0000  0.0000  0.0000  0.0000  0.0000  0.0000  0.0000 -0.0000  0.0038
     EDDAV:  cpu time    1.4829: real time    1.4864
 BZINTS: Fermi energy:  5.586899; 44.000000 electrons
         Band energy:-648.367057;  BLOECHL correction:  0.000000
       DOS:  cpu time    0.0007: real time    0.0007
    CHARGE:  cpu time    0.1977: real time    0.1981
    MIXING:  cpu time    0.0079: real time    0.0079
    --------------------------------------------
      LOOP:  cpu time    1.9240: real time    1.9288

 eigenvalue-minimisations  :  1412
 total energy-change (2. order) :-0.3619653E+00  (-0.4565314E-01)
 number of electron      44.0000076 magnetization      -0.0000000
 augmentation part       20.2518277 magnetization      -0.0000000

 Broyden mixing:
  rms(total) = 0.73295E+00    rms(broyden)= 0.73294E+00
  rms(prec ) = 0.78442E+00
  weight for this iteration     100.00

 eigenvalues of (default mixing * dielectric matrix)
  average eigenvalue GAMMA=   2.0194
  3.1929  1.4326  1.4326

 Free energy of the ion-electron system (eV)
  ---------------------------------------------------
  alpha Z        PSCENC =       311.81991378
  Ewald energy   TEWEN  =     -5345.56183988
  -Hartree energ DENC   =     -2188.27188024
  -exchange      EXHF   =         0.00000000
  -V(xc)+E(xc)   XCENC  =       234.07880315
  PAW double counting   =      6936.26780448    -7186.02596813
  entropy T*S    EENTRO =         0.00000000
  eigenvalues    EBANDS =      -648.36705692
  atomic energy  EATOM  =      7866.74061565
  Solvation  Ediel_sol  =         0.00000000
  ---------------------------------------------------
  free energy    TOTEN  =       -19.31960811 eV

  energy without entropy =      -19.31960811  energy(sigma->0) =      -19.31960811


--------------------------------------------------------------------------------------------------------




--------------------------------------- Iteration      1(   9)  ---------------------------------------


    POTLOK:  cpu time    0.2100: real time    0.2106
    SETDIJ:  cpu time    0.0242: real time    0.0243
atom =   1  type =  1  l = 2
 
 onsite density matrix
 
spin component  1
 
  0.9275 -0.0000  0.0017 -0.0000 -0.0000     -0.0000 -0.0000 -0.0000 -0.0000 -0.0000
 -0.0000  0.9275 -0.0008 -0.0000  0.0015      0.0000 -0.0000  0.0000  0.0000 -0.0000
  0.0017 -0.0008  1.0315 -0.0008 -0.0000      0.0000 -0.0000  0.0000 -0.0000 -0.0000
 -0.0000 -0.0000 -0.0008  0.9275 -0.0015      0.0000 -0.0000  0.0000 -0.0000  0.0000
 -0.0000  0.0015 -0.0000 -0.0015  1.0315      0.0000  0.0000  0.0000 -0.0000  0.0000
 
spin component  2
 
  0.9340  0.0000  0.0022  0.0000  0.0000      0.0000  0.0000 -0.0000  0.0000  0.0000
  0.0000  0.9340 -0.0011  0.0000  0.0019     -0.0000  0.0000  0.0000 -0.0000 -0.0000
  0.0022 -0.0011  0.1578 -0.0011 -0.0000      0.0000 -0.0000  0.0000 -0.0000  0.0000
  0.0000  0.0000 -0.0011  0.9340 -0.0019     -0.0000  0.0000  0.0000  0.0000  0.0000
  0.0000  0.0019 -0.0000 -0.0019  0.1578     -0.0000  0.0000 -0.0000 -0.0000  0.0000
 
 occupancies and eigenvectors
 
  o =  0.1578  v =  0.0000  0.0000  0.0000  0.0000  0.0000  0.0000  0.0025 -0.0002 -0.0025 -1.0000      0.0000  0.0000  0.0000  0.0000  0.0000  0.0000 -0.0000  0.0000  0.0000  0.0012
  o =  0.1578  v =  0.0000  0.0000  0.0000  0.0000  0.0000 -0.0029  0.0014  1.0000  0.0014 -0.0002      0.0000  0.0000  0.0000  0.0000  0.0000  0.0000 -0.0000 -0.0002  0.0000  0.0000
  o =  0.9275  v =  0.5774  0.5774  0.0000  0.5774  0.0000  0.0000  0.0000  0.0000  0.0000  0.0000      0.0000  0.0000 -0.0000  0.0000 -0.0000  0.0000  0.0000  0.0000  0.0000  0.0000
  o =  0.9275  v =  0.0065  0.7037 -0.0002 -0.7102 -0.0198  0.0000  0.0000  0.0000  0.0000  0.0000      0.0000 -0.0071  0.0000  0.0071  0.0002  0.0000  0.0000  0.0000  0.0000  0.0000
  o =  0.9275  v = -0.8163  0.4138  0.0198  0.4025 -0.0002  0.0000  0.0000  0.0000  0.0000  0.0000      0.0000 -0.0001 -0.0000  0.0001  0.0000  0.0000  0.0000  0.0000  0.0000  0.0000
  o =  0.9340  v =  0.0000  0.0000  0.0000  0.0000  0.0000  0.3526 -0.8141  0.0015  0.4614 -0.0032      0.0000  0.0000  0.0000  0.0000  0.0000  0.0000  0.0006 -0.0000 -0.0006  0.0000
  o =  0.9340  v =  0.0000  0.0000  0.0000  0.0000  0.0000  0.7364 -0.0628  0.0032 -0.6736  0.0015      0.0000  0.0000  0.0000  0.0000  0.0000  0.0000 -0.0003 -0.0000  0.0003 -0.0000
  o =  0.9341  v =  0.0000  0.0000  0.0000  0.0000  0.0000 -0.5774 -0.5774 -0.0000 -0.5774  0.0000      0.0000  0.0000  0.0000  0.0000  0.0000  0.0000 -0.0000  0.0000 -0.0000 -0.0000
  o =  1.0315  v =  0.0162 -0.0080  0.9998 -0.0082  0.0044  0.0000  0.0000  0.0000  0.0000  0.0000      0.0000  0.0000 -0.0006 -0.0000 -0.0000  0.0000  0.0000  0.0000  0.0000  0.0000
  o =  1.0315  v =  0.0001 -0.0141  0.0044  0.0140 -0.9998  0.0000  0.0000  0.0000  0.0000  0.0000      0.0000 -0.0000 -0.0000  0.0000  0.0004  0.0000  0.0000  0.0000  0.0000  0.0000
atom =   2  type =  1  l = 2
 
 onsite density matrix
 
spin component  1
 
  0.9340  0.0000  0.0022  0.0000 -0.0000      0.0000  0.0000 -0.0000  0.0000 -0.0000
  0.0000  0.9340 -0.0011  0.0000  0.0019     -0.0000  0.0000  0.0000 -0.0000 -0.0000
  0.0022 -0.0011  0.1578 -0.0011  0.0000      0.0000 -0.0000  0.0000 -0.0000  0.0000
  0.0000  0.0000 -0.0011  0.9340 -0.0019     -0.0000  0.0000  0.0000  0.0000  0.0000
 -0.0000  0.0019  0.0000 -0.0019  0.1578      0.0000  0.0000 -0.0000 -0.0000  0.0000
 
spin component  2
 
  0.9275 -0.0000  0.0017 -0.0000  0.0000     -0.0000  0.0000 -0.0000 -0.0000  0.0000
 -0.0000  0.9275 -0.0008 -0.0000  0.0015     -0.0000 -0.0000  0.0000  0.0000 -0.0000
  0.0017 -0.0008  1.0315 -0.0008 -0.0000      0.0000 -0.0000  0.0000 -0.0000 -0.0000
 -0.0000 -0.0000 -0.0008  0.9275 -0.0015      0.0000 -0.0000  0.0000 -0.0000  0.0000
  0.0000  0.0015 -0.0000 -0.0015  1.0315     -0.0000  0.0000  0.0000 -0.0000  0.0000
 
 occupancies and eigenvectors
 
  o =  0.1578  v = -0.0000  0.0025  0.0026 -0.0025 -1.0000  0.0000  0.0000  0.0000  0.0000  0.0000      0.0000  0.0000 -0.0000 -0.0000 -0.0005  0.0000  0.0000  0.0000  0.0000  0.0000
  o =  0.1578  v = -0.0029  0.0014  1.0000  0.0014  0.0026  0.0000  0.0000  0.0000  0.0000  0.0000      0.0000 -0.0000 -0.0002  0.0000  0.0000  0.0000  0.0000  0.0000  0.0000  0.0000
  o =  0.9275  v =  0.0000  0.0000  0.0000  0.0000  0.0000 -0.5774 -0.5774 -0.0000 -0.5774  0.0000      0.0000  0.0000  0.0000  0.0000  0.0000  0.0000 -0.0000  0.0000  0.0000 -0.0000
  o =  0.9275  v =  0.0000  0.0000  0.0000  0.0000  0.0000 -0.1293  0.7627  0.0031 -0.6334 -0.0196      0.0000  0.0000  0.0000  0.0000  0.0000  0.0000  0.0001 -0.0000 -0.0001  0.0000
  o =  0.9275  v =  0.0000  0.0000  0.0000  0.0000  0.0000  0.8060 -0.2910 -0.0196 -0.5150 -0.0031      0.0000  0.0000  0.0000  0.0000  0.0000  0.0000  0.0000  0.0000 -0.0000  0.0000
  o =  0.9340  v =  0.3303 -0.8118  0.0014  0.4815 -0.0032  0.0000  0.0000  0.0000  0.0000  0.0000      0.0000  0.0001 -0.0000 -0.0001  0.0000  0.0000  0.0000  0.0000  0.0000  0.0000
  o =  0.9340  v =  0.7467 -0.0873  0.0032 -0.6594  0.0014  0.0000  0.0000  0.0000  0.0000  0.0000      0.0000 -0.0000 -0.0000  0.0000 -0.0000  0.0000  0.0000  0.0000  0.0000  0.0000
  o =  0.9341  v = -0.5774 -0.5774 -0.0000 -0.5774  0.0000  0.0000  0.0000  0.0000  0.0000  0.0000      0.0000 -0.0000  0.0000  0.0000 -0.0000  0.0000  0.0000  0.0000  0.0000  0.0000
  o =  1.0315  v =  0.0000  0.0000  0.0000  0.0000  0.0000  0.0162 -0.0081  0.9998 -0.0081  0.0000      0.0000  0.0000  0.0000  0.0000  0.0000  0.0000  0.0000 -0.0006  0.0000  0.0000
  o =  1.0315  v =  0.0000  0.0000  0.0000  0.0000  0.0000  0.0000 -0.0140  0.0000  0.0140 -0.9998      0.0000  0.0000  0.0000  0.0000  0.0000  0.0000 -0.0000 -0.0000  0.0000  0.0003
     EDDAV:  cpu time    1.8113: real time    1.8156
 BZINTS: Fermi energy:  5.812939; 44.000000 electrons
         Band energy:-658.166491;  BLOECHL correction:  0.000000
       DOS:  cpu time    0.0007: real time    0.0007
    CHARGE:  cpu time    0.1962: real time    0.1967
    MIXING:  cpu time    0.0084: real time    0.0084
    --------------------------------------------
      LOOP:  cpu time    2.2507: real time    2.2563

 eigenvalue-minimisations  :  1908
 total energy-change (2. order) :-0.1712074E+00  (-0.3339620E-01)
 number of electron      44.0000076 magnetization      -0.0000000
 augmentation part       20.3137315 magnetization      -0.0000000

 Broyden mixing:
  rms(total) = 0.33226E+00    rms(broyden)= 0.33225E+00
  rms(prec ) = 0.34393E+00
  weight for this iteration     100.00

 eigenvalues of (default mixing * dielectric matrix)
  average eigenvalue GAMMA=   2.0784
  4.8558  1.1702  1.1702  1.1175

 Free energy of the ion-electron system (eV)
  ---------------------------------------------------
  alpha Z        PSCENC =       311.81991378
  Ewald energy   TEWEN  =     -5345.56183988
  -Hartree energ DENC   =     -2177.68544525
  -exchange      EXHF   =         0.00000000
  -V(xc)+E(xc)   XCENC  =       234.04818188
  PAW double counting   =      7122.25711010    -7372.94286085
  entropy T*S    EENTRO =         0.00000000
  eigenvalues    EBANDS =      -658.16649092
  atomic energy  EATOM  =      7866.74061565
  Solvation  Ediel_sol  =         0.00000000
  ---------------------------------------------------
  free energy    TOTEN  =       -19.49081548 eV

  energy without entropy =      -19.49081548  energy(sigma->0) =      -19.49081548


--------------------------------------------------------------------------------------------------------




--------------------------------------- Iteration      1(  10)  ---------------------------------------


    POTLOK:  cpu time    0.2094: real time    0.2101
    SETDIJ:  cpu time    0.0240: real time    0.0240
atom =   1  type =  1  l = 2
 
 onsite density matrix
 
spin component  1
 
  0.9450  0.0000  0.0019  0.0000 -0.0000     -0.0000  0.0000 -0.0000  0.0000  0.0000
  0.0000  0.9450 -0.0009  0.0000  0.0016     -0.0000 -0.0000  0.0000  0.0000 -0.0000
  0.0019 -0.0009  0.9921 -0.0009 -0.0000      0.0000 -0.0000  0.0000 -0.0000 -0.0000
  0.0000  0.0000 -0.0009  0.9450 -0.0016     -0.0000 -0.0000  0.0000 -0.0000  0.0000
 -0.0000  0.0016 -0.0000 -0.0016  0.9921     -0.0000  0.0000  0.0000 -0.0000  0.0000
 
spin component  2
 
  0.9429  0.0000  0.0012  0.0000 -0.0000     -0.0000 -0.0000  0.0000 -0.0000 -0.0000
  0.0000  0.9429 -0.0006  0.0000  0.0011      0.0000 -0.0000 -0.0000 -0.0000  0.0000
  0.0012 -0.0006  0.1512 -0.0006 -0.0000     -0.0000  0.0000 -0.0000  0.0000  0.0000
  0.0000  0.0000 -0.0006  0.9429 -0.0011      0.0000  0.0000 -0.0000 -0.0000 -0.0000
 -0.0000  0.0011 -0.0000 -0.0011  0.1512      0.0000 -0.0000 -0.0000  0.0000 -0.0000
 
 occupancies and eigenvectors
 
  o =  0.1512  v =  0.0000  0.0000  0.0000  0.0000  0.0000 -0.0000 -0.0013  0.0221  0.0014  0.9998      0.0000  0.0000  0.0000  0.0000  0.0000  0.0000  0.0000  0.0000 -0.0000 -0.0001
  o =  0.1512  v =  0.0000  0.0000  0.0000  0.0000  0.0000  0.0016 -0.0008 -0.9998 -0.0008  0.0221      0.0000  0.0000  0.0000  0.0000  0.0000  0.0000  0.0000 -0.0001 -0.0000 -0.0000
  o =  0.9429  v =  0.0000  0.0000  0.0000  0.0000  0.0000  0.0574 -0.7340  0.0001  0.6767 -0.0019      0.0000  0.0000  0.0000  0.0000  0.0000  0.0000  0.0016  0.0000 -0.0016  0.0000
  o =  0.9429  v =  0.0000  0.0000  0.0000  0.0000  0.0000 -0.8145  0.3576 -0.0019  0.4569 -0.0001      0.0000  0.0000  0.0000  0.0000  0.0000  0.0000  0.0001 -0.0000 -0.0001  0.0000
  o =  0.9429  v =  0.0000  0.0000  0.0000  0.0000  0.0000  0.5774  0.5774 -0.0000  0.5774 -0.0000      0.0000  0.0000  0.0000  0.0000  0.0000  0.0000 -0.0000  0.0000 -0.0000  0.0000
  o =  0.9449  v = -0.1109  0.7551  0.0066 -0.6443 -0.0481  0.0000  0.0000  0.0000  0.0000  0.0000      0.0000  0.0004 -0.0000 -0.0004  0.0000  0.0000  0.0000  0.0000  0.0000  0.0000
  o =  0.9449  v =  0.8080 -0.3080 -0.0481 -0.5000 -0.0066  0.0000  0.0000  0.0000  0.0000  0.0000      0.0000  0.0001  0.0000 -0.0001  0.0000  0.0000  0.0000  0.0000  0.0000  0.0000
  o =  0.9450  v = -0.5774 -0.5774  0.0000 -0.5774 -0.0000  0.0000  0.0000  0.0000  0.0000  0.0000      0.0000  0.0000 -0.0000 -0.0000  0.0000  0.0000  0.0000  0.0000  0.0000  0.0000
  o =  0.9922  v =  0.0397 -0.0198  0.9988 -0.0198  0.0000  0.0000  0.0000  0.0000  0.0000  0.0000      0.0000 -0.0000 -0.0008  0.0000 -0.0000  0.0000  0.0000  0.0000  0.0000  0.0000
  o =  0.9922  v =  0.0000 -0.0343  0.0000  0.0343 -0.9988  0.0000  0.0000  0.0000  0.0000  0.0000      0.0000 -0.0000 -0.0000  0.0000  0.0005  0.0000  0.0000  0.0000  0.0000  0.0000
atom =   2  type =  1  l = 2
 
 onsite density matrix
 
spin component  1
 
  0.9429  0.0000  0.0012  0.0000 -0.0000     -0.0000 -0.0000  0.0000 -0.0000 -0.0000
  0.0000  0.9429 -0.0006  0.0000  0.0011      0.0000 -0.0000 -0.0000 -0.0000  0.0000
  0.0012 -0.0006  0.1512 -0.0006  0.0000     -0.0000  0.0000 -0.0000  0.0000  0.0000
  0.0000  0.0000 -0.0006  0.9429 -0.0011      0.0000  0.0000 -0.0000 -0.0000 -0.0000
 -0.0000  0.0011  0.0000 -0.0011  0.1512      0.0000 -0.0000 -0.0000  0.0000 -0.0000
 
spin component  2
 
  0.9450  0.0000  0.0019  0.0000  0.0000     -0.0000  0.0000 -0.0000 -0.0000  0.0000
  0.0000  0.9450 -0.0009  0.0000  0.0016     -0.0000 -0.0000  0.0000  0.0000 -0.0000
  0.0019 -0.0009  0.9921 -0.0009 -0.0000      0.0000 -0.0000  0.0000 -0.0000 -0.0000
  0.0000  0.0000 -0.0009  0.9450 -0.0016      0.0000 -0.0000  0.0000 -0.0000  0.0000
  0.0000  0.0016 -0.0000 -0.0016  0.9921     -0.0000  0.0000  0.0000 -0.0000  0.0000
 
 occupancies and eigenvectors
 
  o =  0.1512  v = -0.0016  0.0008  1.0000  0.0008 -0.0015  0.0000  0.0000  0.0000  0.0000  0.0000      0.0000  0.0000  0.0001 -0.0000 -0.0000  0.0000  0.0000  0.0000  0.0000  0.0000
  o =  0.1512  v = -0.0000 -0.0014  0.0015  0.0014  1.0000  0.0000  0.0000  0.0000  0.0000  0.0000      0.0000 -0.0000  0.0000  0.0000  0.0004  0.0000  0.0000  0.0000  0.0000  0.0000
  o =  0.9429  v = -0.0166  0.7152 -0.0000 -0.6987  0.0019  0.0000  0.0000  0.0000  0.0000  0.0000      0.0000 -0.0025 -0.0000  0.0025 -0.0000  0.0000  0.0000  0.0000  0.0000  0.0000
  o =  0.9429  v =  0.8163 -0.3938  0.0019 -0.4225  0.0000  0.0000  0.0000  0.0000  0.0000  0.0000      0.0000 -0.0000  0.0000  0.0000 -0.0000  0.0000  0.0000  0.0000  0.0000  0.0000
  o =  0.9429  v = -0.5774 -0.5774 -0.0000 -0.5774  0.0000  0.0000  0.0000  0.0000  0.0000  0.0000      0.0000  0.0000 -0.0000  0.0000 -0.0000  0.0000  0.0000  0.0000  0.0000  0.0000
  o =  0.9449  v =  0.0000  0.0000  0.0000  0.0000  0.0000  0.4074  0.4081 -0.0243 -0.8155 -0.0421      0.0000  0.0000  0.0000  0.0000  0.0000  0.0000 -0.0003  0.0000  0.0003  0.0001
  o =  0.9449  v =  0.0000  0.0000  0.0000  0.0000  0.0000  0.7065 -0.7061 -0.0421 -0.0004  0.0243      0.0000  0.0000  0.0000  0.0000  0.0000  0.0000  0.0001  0.0000 -0.0001 -0.0000
  o =  0.9450  v =  0.0000  0.0000  0.0000  0.0000  0.0000  0.5774  0.5774 -0.0000  0.5774 -0.0000      0.0000  0.0000  0.0000  0.0000  0.0000  0.0000 -0.0000  0.0000  0.0000  0.0000
  o =  0.9922  v =  0.0000  0.0000  0.0000  0.0000  0.0000 -0.0397  0.0198 -0.9988  0.0198  0.0000      0.0000  0.0000  0.0000  0.0000  0.0000  0.0000 -0.0000  0.0008 -0.0000 -0.0000
  o =  0.9922  v =  0.0000  0.0000  0.0000  0.0000  0.0000  0.0000 -0.0343  0.0000  0.0343 -0.9988      0.0000  0.0000  0.0000  0.0000  0.0000  0.0000  0.0000 -0.0000 -0.0000  0.0011
     EDDAV:  cpu time    1.4400: real time    1.4434
 BZINTS: Fermi energy:  5.816098; 44.000000 electrons
         Band energy:-657.192081;  BLOECHL correction:  0.000000
       DOS:  cpu time    0.0007: real time    0.0006
    CHARGE:  cpu time    0.1953: real time    0.1957
    MIXING:  cpu time    0.0087: real time    0.0087
    --------------------------------------------
      LOOP:  cpu time    1.8780: real time    1.8826

 eigenvalue-minimisations  :  1390
 total energy-change (2. order) :-0.4391637E-01  (-0.8521914E-02)
 number of electron      44.0000076 magnetization       0.0000000
 augmentation part       20.2972032 magnetization       0.0000000

 Broyden mixing:
  rms(total) = 0.59658E-01    rms(broyden)= 0.59652E-01
  rms(prec ) = 0.80213E-01
  weight for this iteration     100.00

 eigenvalues of (default mixing * dielectric matrix)
  average eigenvalue GAMMA=   1.9002
  4.8941  1.3669  1.1413  1.1413  0.9572

 Free energy of the ion-electron system (eV)
  ---------------------------------------------------
  alpha Z        PSCENC =       311.81991378
  Ewald energy   TEWEN  =     -5345.56183988
  -Hartree energ DENC   =     -2176.91178728
  -exchange      EXHF   =         0.00000000
  -V(xc)+E(xc)   XCENC  =       234.02906405
  PAW double counting   =      7213.06291956    -7465.52153652
  entropy T*S    EENTRO =         0.00000000
  eigenvalues    EBANDS =      -657.19208121
  atomic energy  EATOM  =      7866.74061565
  Solvation  Ediel_sol  =         0.00000000
  ---------------------------------------------------
  free energy    TOTEN  =       -19.53473185 eV

  energy without entropy =      -19.53473185  energy(sigma->0) =      -19.53473185


[...]
     10       0.3546      1.00000
     11       0.4722      1.00000
     12       1.1469      1.00000
     13       1.9589      1.00000
     14       2.1808      1.00000
     15       2.4703      1.00000
     16       3.2404      1.00000
     17       3.3116      1.00000
     18       4.0881      1.00000
     19       4.1687      1.00000
     20       4.5361      1.00000
     21       5.0468      1.00000
     22       5.2494      1.00000
     23       9.0240      0.00000
     24       9.5234      0.00000
     25      12.7802      0.00000
     26      13.8779      0.00000

 k-point    12 :      -0.2500    0.5000    0.2500
  band No.  band energies     occupation 
      1     -58.0784      1.00000
      2     -58.0735      1.00000
      3     -58.0700      1.00000
      4     -56.0302      1.00000
      5     -56.0221      1.00000
      6     -56.0207      1.00000
      7     -11.4822      1.00000
      8     -11.4295      1.00000
      9      -0.2593      1.00000
     10      -0.1651      1.00000
     11       0.3767      1.00000
     12       0.4418      1.00000
     13       1.5161      1.00000
     14       2.1099      1.00000
     15       2.8776      1.00000
     16       3.2368      1.00000
     17       3.3082      1.00000
     18       3.6410      1.00000
     19       4.1799      1.00000
     20       4.3949      1.00000
     21       4.9777      1.00000
     22       5.1236      1.00000
     23       9.3927      0.00000
     24       9.4066      0.00000
     25      14.7478      0.00000
     26      14.8705      0.00000

 k-point    13 :       0.5000    0.5000    0.5000
  band No.  band energies     occupation 
      1     -58.0765      1.00000
      2     -58.0602      1.00000
      3     -58.0602      1.00000
      4     -56.0255      1.00000
      5     -56.0097      1.00000
      6     -56.0097      1.00000
      7     -12.2625      1.00000
      8     -12.2527      1.00000
      9       0.4374      1.00000
     10       0.4374      1.00000
     11       0.5470      1.00000
     12       0.8818      1.00000
     13       2.3269      1.00000
     14       2.3269      1.00000
     15       2.8411      1.00000
     16       2.8411      1.00000
     17       3.4858      1.00000
     18       4.2410      1.00000
     19       4.2410      1.00000
     20       4.2675      1.00000
     21       5.6916      1.00000
     22       5.6916      1.00000
     23       9.3207      0.00000
     24       9.3207      0.00000
     25      11.5669      0.00000
     26      11.7024      0.00000


--------------------------------------------------------------------------------------------------------


 soft charge-density along one line, spin component           1
         0         1         2         3         4         5         6         7         8         9
 total charge-density along one line
 
 soft charge-density along one line, spin component           2
         0         1         2         3         4         5         6         7         8         9
 total charge-density along one line
 
 pseudopotential strength for first ion, spin component:           1
-61.856   0.000  -0.001   0.000  -0.001   0.000  10.518   0.000   0.000   0.000   0.000   0.000   0.000   0.000  -0.000   0.000
 -0.001   0.000 -61.856   0.000  -0.001   0.000   0.000   0.000  10.518   0.000   0.000   0.000   0.000   0.000  -0.000   0.000
 -0.001   0.000  -0.001   0.000 -61.856   0.000   0.000   0.000   0.000   0.000  10.518   0.000  -0.000   0.000   0.000   0.000
 10.518   0.000   0.000   0.000   0.000   0.000   5.356   0.000  -0.000   0.000  -0.000   0.000  -0.000   0.000   0.000   0.000
  0.000   0.000  10.518   0.000   0.000   0.000  -0.000   0.000   5.356   0.000  -0.000   0.000  -0.000   0.000   0.000   0.000
  0.000   0.000   0.000   0.000  10.518   0.000  -0.000   0.000  -0.000   0.000   5.356   0.000   0.000   0.000  -0.000   0.000
  0.000   0.000   0.000   0.000  -0.000   0.000  -0.000   0.000  -0.000   0.000   0.000   0.000  -9.006   0.000  -0.000   0.000
 -0.000   0.000  -0.000   0.000   0.000   0.000   0.000   0.000   0.000   0.000  -0.000   0.000  -0.000  -0.000  -9.006   0.000
  0.000   0.000  -0.000   0.000  -0.000   0.000  -0.000   0.000   0.000   0.000   0.000   0.000   0.001   0.000  -0.000  -0.000
  0.000   0.000   0.000   0.000  -0.000   0.000  -0.000   0.000  -0.000   0.000   0.000   0.000  -0.000  -0.000  -0.000   0.000
  0.000   0.000   0.000   0.000   0.000   0.000  -0.000   0.000  -0.000   0.000  -0.000   0.000  -0.000  -0.000   0.001   0.000
  0.000   0.000   0.000   0.000  -0.000   0.000  -0.000   0.000  -0.000   0.000   0.000   0.000  -9.643   0.000  -0.000   0.000
 -0.000   0.000  -0.000   0.000   0.000   0.000   0.000   0.000   0.000   0.000  -0.000   0.000  -0.000  -0.000  -9.643   0.000
  0.000   0.000  -0.000   0.000  -0.000   0.000  -0.000   0.000   0.000   0.000   0.000   0.000   0.001   0.000  -0.000  -0.000
  0.000   0.000   0.000   0.000  -0.000   0.000  -0.000   0.000  -0.000   0.000   0.000   0.000  -0.000  -0.000  -0.000   0.000
  0.000   0.000   0.000   0.000   0.000   0.000  -0.000   0.000  -0.000   0.000  -0.000   0.000  -0.000  -0.000   0.001   0.000
  0.000   0.000   0.000   0.000  -0.000   0.000   0.000   0.000   0.000   0.000  -0.000   0.000   0.000   0.000   0.000   0.000
  0.000   0.000   0.000   0.000  -0.000   0.000   0.000   0.000   0.000   0.000  -0.000   0.000   0.000   0.000   0.000   0.000
 pseudopotential strength for first ion, spin component:           2
-60.447   0.000  -0.000   0.000  -0.000   0.000   9.877   0.000   0.000   0.000   0.000   0.000   0.000   0.000  -0.000   0.000
 -0.000   0.000 -60.447   0.000  -0.000   0.000   0.000   0.000   9.877   0.000   0.000   0.000   0.000   0.000  -0.000   0.000
 -0.000   0.000  -0.000   0.000 -60.447   0.000   0.000   0.000   0.000   0.000   9.877   0.000  -0.000   0.000   0.000   0.000
  9.877   0.000   0.000   0.000   0.000   0.000   5.575   0.000  -0.000   0.000  -0.000   0.000  -0.000   0.000   0.000   0.000
  0.000   0.000   9.877   0.000   0.000   0.000  -0.000   0.000   5.575   0.000  -0.000   0.000  -0.000   0.000   0.000   0.000
  0.000   0.000   0.000   0.000   9.877   0.000  -0.000   0.000  -0.000   0.000   5.575   0.000   0.000   0.000  -0.000   0.000
  0.000   0.000   0.000   0.000  -0.000   0.000  -0.000   0.000  -0.000   0.000   0.000   0.000  -8.051  -0.000  -0.000  -0.000
 -0.000   0.000  -0.000   0.000   0.000   0.000   0.000   0.000   0.000   0.000  -0.000   0.000  -0.000   0.000  -8.051  -0.000
  0.000   0.000  -0.000   0.000  -0.000   0.000  -0.000   0.000   0.000   0.000   0.000   0.000  -0.002   0.000   0.001  -0.000
  0.000   0.000   0.000   0.000  -0.000   0.000  -0.000   0.000  -0.000   0.000   0.000   0.000  -0.000   0.000  -0.000  -0.000
  0.000   0.000   0.000   0.000   0.000   0.000  -0.000   0.000  -0.000   0.000  -0.000   0.000  -0.000   0.000  -0.002   0.000
  0.000   0.000   0.000   0.000  -0.000   0.000  -0.000   0.000  -0.000   0.000   0.000   0.000  -8.698  -0.000  -0.000  -0.000
 -0.000   0.000  -0.000   0.000   0.000   0.000   0.000   0.000   0.000   0.000  -0.000   0.000  -0.000   0.000  -8.698  -0.000
  0.000   0.000  -0.000   0.000  -0.000   0.000  -0.000   0.000   0.000   0.000   0.000   0.000  -0.002   0.000   0.001  -0.000
  0.000   0.000   0.000   0.000  -0.000   0.000  -0.000   0.000  -0.000   0.000   0.000   0.000  -0.000   0.000  -0.000  -0.000
  0.000   0.000   0.000   0.000   0.000   0.000  -0.000   0.000  -0.000   0.000  -0.000   0.000  -0.000   0.000  -0.002   0.000
  0.000   0.000   0.000   0.000  -0.000   0.000   0.000   0.000   0.000   0.000  -0.000   0.000   0.000   0.000   0.000   0.000
  0.000   0.000   0.000   0.000  -0.000   0.000   0.000   0.000   0.000   0.000  -0.000   0.000   0.000   0.000   0.000   0.000
 total augmentation occupancy for first ion, spin component:           1
  1.996  -0.000  -0.000  -0.019  -0.000  -0.000   0.000  -0.000   0.000  -0.000  -0.000   0.000   0.000  -0.000   0.000  -0.000
 -0.000   1.996  -0.000  -0.000  -0.019  -0.000  -0.000   0.000   0.000  -0.000   0.000  -0.000  -0.000  -0.000   0.000   0.000
 -0.000  -0.000   1.996  -0.000  -0.000  -0.019   0.000   0.000   0.000   0.000  -0.000  -0.000  -0.000  -0.000   0.000  -0.000
 -0.019  -0.000  -0.000   0.094  -0.000  -0.000  -0.000   0.000  -0.000   0.000   0.000   0.000   0.000   0.000  -0.000   0.000
 -0.000  -0.019  -0.000  -0.000   0.094  -0.000  -0.000   0.000   0.000   0.000   0.000   0.000  -0.000   0.000  -0.000   0.000
 -0.000  -0.000  -0.019  -0.000  -0.000   0.094   0.000  -0.000   0.000   0.000   0.000   0.000   0.000   0.000  -0.000  -0.000
  0.000   0.000   0.000   0.000   0.000  -0.000   5.132   0.001   0.001   0.001  -0.000  -2.468  -0.001  -0.000  -0.001   0.000
  0.000  -0.000  -0.000  -0.000  -0.000   0.000   0.001   5.132  -0.000   0.001   0.000  -0.001  -2.468   0.000  -0.001  -0.000
  0.000   0.000   0.000   0.000   0.000  -0.000   0.001  -0.000   8.054  -0.000   0.000  -0.000   0.000  -6.301   0.000   0.000
  0.000   0.000  -0.000   0.000   0.000   0.000   0.001   0.001  -0.000   5.132  -0.000  -0.001  -0.001   0.000  -2.468   0.000
 -0.000   0.000   0.000  -0.000   0.000  -0.000   0.000   0.000   0.000  -0.000   8.054   0.000  -0.000   0.000   0.000  -6.301
  0.000   0.000  -0.000   0.000   0.000  -0.000  -2.468  -0.001  -0.000  -0.001  -0.000   1.903   0.001   0.000   0.001   0.000
 -0.000  -0.000   0.000  -0.000   0.000  -0.000  -0.001  -2.468   0.000  -0.001  -0.000   0.001   1.903  -0.000   0.001   0.000
  0.000   0.000   0.000   0.000   0.000   0.000  -0.000   0.000  -6.301   0.000   0.000   0.000  -0.000   5.776  -0.000   0.000
  0.000   0.000   0.000   0.000  -0.000   0.000  -0.001  -0.001   0.000  -2.468   0.000   0.001   0.001  -0.000   1.903  -0.000
  0.000   0.000   0.000   0.000   0.000   0.000   0.000  -0.000   0.000   0.000  -6.301   0.000   0.000   0.000  -0.000   5.776
  0.000  -0.000   0.000  -0.000   0.000   0.000  -0.001  -0.001  -0.000  -0.001   0.000   0.000   0.000   0.000   0.000   0.000
  0.000  -0.000   0.000   0.000   0.000   0.000   0.001   0.001   0.000   0.001   0.000  -0.000  -0.000  -0.000  -0.000  -0.000
 total augmentation occupancy for first ion, spin component:           2
 -0.001  -0.000  -0.000  -0.006  -0.000  -0.000   0.000   0.000   0.000   0.000  -0.000   0.000   0.000  -0.000  -0.000   0.000
 -0.000  -0.001  -0.000  -0.000  -0.006  -0.000   0.000   0.000  -0.000  -0.000   0.000   0.000   0.000  -0.000   0.000   0.000
 -0.000  -0.000  -0.001  -0.000  -0.000  -0.006   0.000   0.000  -0.000   0.000  -0.000   0.000   0.000   0.000   0.000   0.000
 -0.006  -0.000  -0.000  -0.001  -0.000  -0.000   0.000   0.000   0.000   0.000   0.000   0.000   0.000   0.000   0.000  -0.000
 -0.000  -0.006  -0.000  -0.000  -0.001  -0.000   0.000   0.000   0.000   0.000  -0.000   0.000   0.000   0.000   0.000  -0.000
 -0.000  -0.000  -0.006  -0.000  -0.000  -0.001   0.000  -0.000   0.000   0.000   0.000  -0.000   0.000   0.000   0.000  -0.000
 -0.000   0.000   0.000   0.000   0.000  -0.000   0.790   0.000  -0.012   0.000  -0.000  -0.478   0.000   0.009   0.000   0.000
  0.000   0.000   0.000   0.000   0.000   0.000   0.000   0.790   0.006   0.000  -0.010   0.000  -0.478  -0.005   0.000   0.008
 -0.000   0.000   0.000  -0.000   0.000   0.000  -0.012   0.006   6.377   0.006  -0.000   0.010  -0.005  -4.106  -0.005   0.000
 -0.000   0.000  -0.000   0.000   0.000   0.000   0.000   0.000   0.006   0.790   0.010   0.000   0.000  -0.005  -0.478  -0.008
  0.000   0.000   0.000  -0.000   0.000  -0.000   0.000  -0.010  -0.000   0.010   6.377   0.000   0.008   0.000  -0.008  -4.106
  0.000   0.000  -0.000  -0.000   0.000   0.000  -0.478   0.000   0.010   0.000  -0.000   0.187  -0.000  -0.008  -0.000  -0.000
  0.000   0.000   0.000   0.000   0.000  -0.000   0.000  -0.478  -0.005   0.000   0.008  -0.000   0.187   0.004  -0.000  -0.007
 -0.000  -0.000   0.000  -0.000   0.000   0.000   0.009  -0.005  -4.106  -0.005   0.000  -0.008   0.004   2.798   0.004   0.000
  0.000   0.000   0.000   0.000  -0.000  -0.000   0.000   0.000  -0.005  -0.478  -0.008  -0.000  -0.000   0.004   0.187   0.007
 -0.000   0.000  -0.000  -0.000   0.000  -0.000   0.000   0.008  -0.000  -0.008  -4.106   0.000  -0.007   0.000   0.007   2.798
  0.000   0.000   0.000   0.000   0.000   0.000  -0.001  -0.001   0.000  -0.001  -0.000   0.000   0.000   0.000   0.000   0.000
 -0.000   0.000   0.000   0.000   0.000  -0.000   0.001   0.001   0.000   0.001   0.000  -0.001  -0.001   0.000  -0.001   0.000


------------------------ aborting loop because EDIFF is reached ----------------------------------------


 


 total charge     
 
# of ion       s       p       d       tot
------------------------------------------
    1        0.214   6.184   7.926  14.324
    2        0.214   6.184   7.926  14.324
    3        1.562   3.475   0.000   5.037
    4        1.562   3.475   0.000   5.037
--------------------------------------------------
tot          3.550  19.318  15.852  38.720
 


 magnetization (x)
 
# of ion       s       p       d       tot
------------------------------------------
    1       -0.001  -0.003   1.677   1.672
    2        0.001   0.003  -1.677  -1.672
    3        0.000   0.000   0.000   0.000
    4       -0.000   0.000   0.000   0.000
--------------------------------------------------
tot         -0.000   0.000   0.000   0.000
 
    CHARGE:  cpu time    0.1960: real time    0.1965
    FORLOC:  cpu time    0.0156: real time    0.0156
    FORNL :  cpu time    0.2772: real time    0.2779
    STRESS:  cpu time    0.3884: real time    0.3894
    FORCOR:  cpu time    0.2236: real time    0.2241
    FORHAR:  cpu time    0.0372: real time    0.0373
    MIXING:  cpu time    0.0128: real time    0.0128
    OFIELD:  cpu time    0.0001: real time    0.0001

  FORCE on cell =-STRESS in cart. coord.  units (eV):
  Direction    XX          YY          ZZ          XY          YZ          ZX
  --------------------------------------------------------------------------------------
  Alpha Z   311.81991   311.81991   311.81991
  Ewald   -1781.85627 -1781.85627 -1781.85627     0.00000     0.00000     0.00000
  Hartree   725.50964   725.50964   725.50964    -0.01369    -0.01369    -0.01369
  E(xc)    -297.86692  -297.86692  -297.86692    -0.00053    -0.00053    -0.00053
  Local     190.20560   190.20560   190.20560     0.00011     0.00011     0.00011
  n-local  -227.31617  -229.93582  -228.34842     0.10829     0.63463    -0.72005
  augment   370.83447   370.83447   370.83447    -0.01430    -0.01430    -0.01430
  Kinetic   708.09522   714.04192   710.63870    -0.47631    -0.80450     1.27111
  Fock        0.00000     0.00000     0.00000     0.00000     0.00000     0.00000
  -------------------------------------------------------------------------------------
  Total       1.03825     1.03825     1.03825    -0.04415    -0.04415    -0.04415
  in kB      45.88101    45.88101    45.88101    -1.95110    -1.95110    -1.95110
  external pressure =       45.88 kB  Pullay stress =        0.00 kB


 VOLUME and BASIS-vectors are now :
 -----------------------------------------------------------------------------
  energy-cutoff  :      450.00
  volume of cell :       36.26
      direct lattice vectors                 reciprocal lattice vectors
     4.170000000  2.085000000  2.085000000     0.359712230 -0.119904077 -0.119904077
     2.085000000  4.170000000  2.085000000    -0.119904077  0.359712230 -0.119904077
     2.085000000  2.085000000  4.170000000    -0.119904077 -0.119904077  0.359712230

  length of vectors
     5.107186114  5.107186114  5.107186114     0.397676833  0.397676833  0.397676833


 FORCES acting on ions
    electron-ion (+dipol)            ewald-force                    non-local-force                 convergence-correction
 -----------------------------------------------------------------------------------------------
   -.198E-12 -.189E-12 -.210E-12   -.227E-12 -.853E-13 -.114E-12   0.529E-22 -.106E-21 -.106E-21   -.906E-13 -.888E-13 -.773E-13
   0.451E-11 0.714E-11 0.710E-11   -.284E-13 0.853E-13 0.568E-13   -.529E-22 0.265E-21 0.000E+00   0.550E-14 -.162E-12 -.124E-12
   -.120E-11 0.105E-11 0.103E-11   0.996E-13 -.131E-13 0.169E-13   0.119E-21 0.132E-22 0.794E-22   -.600E-13 -.691E-13 -.634E-13
   0.428E-11 -.280E-11 -.280E-11   0.127E-12 0.134E-13 0.426E-13   0.728E-22 -.199E-22 0.000E+00   0.107E-12 0.945E-13 0.892E-13
 -----------------------------------------------------------------------------------------------
   0.740E-11 0.520E-11 0.512E-11   -.293E-13 0.280E-15 0.262E-14   0.192E-21 0.152E-21 -.265E-22   -.379E-13 -.226E-12 -.176E-12
 
 
 POSITION                                       TOTAL-FORCE (eV/Angst)
 -----------------------------------------------------------------------------------
      0.00000      0.00000      0.00000         0.000000     -0.000000      0.000000
      4.17000      4.17000      4.17000        -0.000000      0.000000      0.000000
      2.08500      2.08500      2.08500         0.000000     -0.000000     -0.000000
      6.25500      6.25500      6.25500        -0.000000      0.000000      0.000000
 -----------------------------------------------------------------------------------
    total drift:                                0.000000      0.000000      0.000000


--------------------------------------------------------------------------------------------------------



  FREE ENERGIE OF THE ION-ELECTRON SYSTEM (eV)
  ---------------------------------------------------
  free  energy   TOTEN  =       -19.53759768 eV

  energy  without entropy=      -19.53759768  energy(sigma->0) =      -19.53759768
 


--------------------------------------------------------------------------------------------------------


    POTLOK:  cpu time    0.2299: real time    0.2305


--------------------------------------------------------------------------------------------------------


 writing wavefunctions
     LOOP+:  cpu time   30.3155: real time   30.3955
    4ORBIT:  cpu time    0.0000: real time    0.0000
 


 total charge     
 
# of ion       s       p       d       tot
------------------------------------------
    1        0.214   6.184   7.926  14.324
    2        0.214   6.184   7.926  14.324
    3        1.562   3.475   0.000   5.037
    4        1.562   3.475   0.000   5.037
--------------------------------------------------
tot          3.550  19.318  15.852  38.720
 


 magnetization (x)
 
# of ion       s       p       d       tot
------------------------------------------
    1       -0.001  -0.003   1.677   1.672
    2        0.001   0.003  -1.677  -1.672
    3        0.000   0.000   0.000   0.000
    4       -0.000   0.000   0.000   0.000
--------------------------------------------------
tot         -0.000   0.000   0.000   0.000
 
 BZINTS: Fermi energy:  5.811465; 44.000000 electrons
         Band energy:-657.547306;  BLOECHL correction:  0.000000

 total amount of memory used by VASP MPI-rank0    81053. kBytes
=======================================================================

   base      :      30000. kBytes
   nonl-proj :       3057. kBytes
   fftplans  :      11932. kBytes
   grid      :      26693. kBytes
   one-center:        124. kBytes
   wavefun   :       9247. kBytes
 
  
  
 General timing and accounting informations for this job:
 ========================================================
  
                  Total CPU time used (sec):       32.414
                            User time (sec):       30.972
                          System time (sec):        1.442
                         Elapsed time (sec):       32.612
  
                   Maximum memory used (kb):      139728.
                   Average memory used (kb):           0.
  
                          Minor page faults:        73317
                          Major page faults:            0
                 Voluntary context switches:          307
