<?xml version="1.0" encoding="ISO-8859-1"?>
<modeling>
 <generator>
  <i name="program" type="string">vasp </i>
  <i name="version" type="string">5.4.4.18Apr17-6-g9f103f2a35  </i>
  <i name="subversion" type="string">(build May 20 2018 16:52:39) complex            parallel </i>
  <i name="platform" type="string">LinuxIFC </i>
  <i name="date" type="string">2022 11 07 </i>
  <i name="time" type="string">01:32:15 </i>
 </generator>
 <incar>
  <i type="string" name="SYSTEM"> "NiO"</i>
  <i type="int" name="ISTART">     0</i>
  <i type="string" name="PREC">normal</i>
  <i type="int" name="ISPIN">     2</i>
  <i name="AMIX">      0.20000000</i>
  <i name="BMIX">      0.00001000</i>
  <i name="AMIX_MAG">      0.80000000</i>
  <i name="BMIX_MAG">      0.00001000</i>
  <i type="int" name="NELMIN">     6</i>
  <i name="EDIFF">      0.00001000</i>
  <i name="ENCUT">    450.00000000</i>
  <v name="MAGMOM">      2.00000000     -2.00000000      0.00000000      0.00000000</v>
  <i type="logical" name="LREAL"> F  </i>
  <i type="int" name="ISMEAR">    -5</i>
  <i type="int" name="LMAXMIX">     4</i>
  <i type="int" name="LORBIT">    11</i>
  <v type="int" name="KPOINT_BSE">    -1     0     0     0</v>
  <i type="logical" name="LDAU"> T  </i>
  <v type="int" name="LDAUTYPE">     2</v>
  <v type="int" name="LDAUL">     2    -1</v>
  <v name="LDAUU">      5.00000000      0.00000000</v>
  <v name="LDAUJ">      0.00000000      0.00000000</v>
  <i type="int" name="LDAUPRINT">     2</i>
 </incar>
 <structure name="primitive_cell" >
  <crystal>
   <varray name="basis" >
    <v>       2.08500000       0.00000000      -2.08500000 </v>
    <v>       0.00000000       2.08500000      -2.08500000 </v>
    <v>       2.08500000       2.08500000       0.00000000 </v>
   </varray>
   <i name="volume">     18.12792825 </i>
   <varray name="rec_basis" >
    <v>       0.23980815      -0.23980815      -0.23980815 </v>
    <v>      -0.23980815       0.23980815      -0.23980815 </v>
    <v>       0.23980815       0.23980815       0.23980815 </v>
   </varray>
  </crystal>
  <varray name="positions" >
   <v>       0.00000000       0.00000000       0.00000000 </v>
   <v>      -0.50000000      -0.50000000      -0.50000000 </v>
  </varray>
 </structure>
 <varray name="primitive_index" >
  <v type="int" >        1 </v>
  <v type="int" >        3 </v>
 </varray>
 <kpoints>
  <generation param="Gamma">
   <v type="int" name="divisions">       4        4        4 </v>
   <v name="usershift">      0.00000000       0.00000000       0.00000000 </v>
   <v name="genvec1">      0.25000000       0.00000000       0.00000000 </v>
   <v name="genvec2">      0.00000000       0.25000000       0.00000000 </v>
   <v name="genvec3">      0.00000000       0.00000000       0.25000000 </v>
   <v name="shift">      0.00000000       0.00000000       0.00000000 </v>
  </generation>
  <varray name="kpointlist" >
   <v>       0.00000000       0.00000000       0.00000000 </v>
   <v>       0.25000000      -0.00000000      -0.00000000 </v>
   <v>       0.50000000      -0.00000000      -0.00000000 </v>
   <v>       0.25000000       0.25000000       0.00000000 </v>
   <v>       0.50000000       0.25000000       0.00000000 </v>
   <v>      -0.25000000       0.25000000       0.00000000 </v>
   <v>       0.50000000       0.50000000       0.00000000 </v>
   <v>       0.25000000       0.25000000       0.25000000 </v>
   <v>       0.50000000       0.25000000       0.25000000 </v>
   <v>      -0.25000000       0.25000000       0.25000000 </v>
   <v>       0.50000000       0.50000000       0.25000000 </v>
   <v>      -0.25000000       0.50000000       0.25000000 </v>
   <v>       0.50000000       0.50000000       0.50000000 </v>
  </varray>
  <varray name="weights" >
   <v>       0.01562500 </v>
   <v>       0.09375000 </v>
   <v>       0.04687500 </v>
   <v>       0.09375000 </v>
   <v>       0.18750000 </v>
   <v>       0.09375000 </v>
   <v>       0.04687500 </v>
   <v>       0.03125000 </v>
   <v>       0.09375000 </v>
   <v>       0.09375000 </v>
   <v>       0.09375000 </v>
   <v>       0.09375000 </v>
   <v>       0.01562500 </v>
  </varray>
  <varray name="tetrahedronlist"  type="int" >
   <v type="int" >       12        1        2        4        8 </v>
   <v type="int" >       12        2        4        5        9 </v>
   <v type="int" >       12        2        3        5        9 </v>
   <v type="int" >       12        2        4        8        9 </v>
   <v type="int" >       12        3        5        6       10 </v>
   <v type="int" >       12        2        3        6       10 </v>
   <v type="int" >       12        3        5        9       10 </v>
   <v type="int" >       12        2        2        4        6 </v>
   <v type="int" >       12        1        2        2        4 </v>
   <v type="int" >       12        2        4        6       10 </v>
   <v type="int" >       12        4        5        7       11 </v>
   <v type="int" >       12        4        5        9       11 </v>
   <v type="int" >       12        4        8        9       11 </v>
   <v type="int" >       12        5        5        7       12 </v>
   <v type="int" >       24        5        5        6       12 </v>
   <v type="int" >       24        5        6       10       12 </v>
   <v type="int" >       12        5        7       11       12 </v>
   <v type="int" >       12        5        9       11       12 </v>
   <v type="int" >       12        5        9       10       12 </v>
   <v type="int" >       12        3        5        5        6 </v>
   <v type="int" >       12        2        3        5        6 </v>
   <v type="int" >       12        2        4        5        6 </v>
   <v type="int" >       12        4        5        6       10 </v>
   <v type="int" >       12        4        5        7       10 </v>
   <v type="int" >       12        5        7       10       12 </v>
   <v type="int" >       12        7       10       11       12 </v>
   <v type="int" >       12        8        9       11       13 </v>
   <v type="int" >       12        9       11       11       12 </v>
   <v type="int" >       12        9       10       11       12 </v>
   <v type="int" >       12        9       11       11       13 </v>
  </varray>
  <i name="volumeweight">      0.00260417 </i>
 </kpoints>
 <parameters>
  <separator name="general" >
   <i type="string" name="SYSTEM">"NiO"</i>
   <i type="logical" name="LCOMPAT"> F  </i>
  </separator>
  <separator name="electronic" >
   <i type="string" name="PREC">normal</i>
   <i name="ENMAX">    450.00000000</i>
   <i name="ENAUG">    703.44300000</i>
   <i name="EDIFF">      0.00001000</i>
   <i type="int" name="IALGO">    38</i>
   <i type="int" name="IWAVPR">    10</i>
   <i type="int" name="NBANDS">    26</i>
   <i name="NELECT">     44.00000000</i>
   <i type="int" name="TURBO">     0</i>
   <i type="int" name="IRESTART">     0</i>
   <i type="int" name="NREBOOT">     0</i>
   <i type="int" name="NMIN">     0</i>
   <i name="EREF">      0.00000000</i>
   <separator name="electronic smearing" >
    <i type="int" name="ISMEAR">    -5</i>
    <i name="SIGMA">      0.20000000</i>
    <i name="KSPACING">      0.50000000</i>
    <i type="logical" name="KGAMMA"> T  </i>
   </separator>
   <separator name="electronic projectors" >
    <i type="logical" name="LREAL"> F  </i>
    <v name="ROPT">      0.00000000      0.00000000</v>
    <i type="int" name="LMAXPAW">  -100</i>
    <i type="int" name="LMAXMIX">     4</i>
    <i type="logical" name="NLSPLINE"> F  </i>
   </separator>
   <separator name="electronic startup" >
    <i type="int" name="ISTART">     0</i>
    <i type="int" name="ICHARG">     2</i>
    <i type="int" name="INIWAV">     1</i>
   </separator>
   <separator name="electronic spin" >
    <i type="int" name="ISPIN">     2</i>
    <i type="logical" name="LNONCOLLINEAR"> F  </i>
    <v name="MAGMOM">      2.00000000     -2.00000000      0.00000000      0.00000000</v>
    <i name="NUPDOWN">     -1.00000000</i>
    <i type="logical" name="LSORBIT"> F  </i>
    <v name="SAXIS">      0.00000000      0.00000000      1.00000000</v>
    <i type="logical" name="LSPIRAL"> F  </i>
    <v name="QSPIRAL">      0.00000000      0.00000000      0.00000000</v>
    <i type="logical" name="LZEROZ"> F  </i>
   </separator>
   <separator name="electronic exchange-correlation" >
    <i type="logical" name="LASPH"> F  </i>
    <i type="logical" name="LMETAGGA"> F  </i>
   </separator>
   <separator name="electronic convergence" >
    <i type="int" name="NELM">    60</i>
    <i type="int" name="NELMDL">    -5</i>
    <i type="int" name="NELMIN">     6</i>
    <i name="ENINI">    450.00000000</i>
    <separator name="electronic convergence detail" >
     <i type="logical" name="LDIAG"> T  </i>
     <i type="logical" name="LSUBROT"> F  </i>
     <i name="WEIMIN">      0.00000000</i>
     <i name="EBREAK">      0.00000010</i>
     <i name="DEPER">      0.30000000</i>
     <i type="int" name="NRMM">     4</i>
     <i name="TIME">      0.40000000</i>
    </separator>
   </separator>
   <separator name="electronic mixer" >
    <i name="AMIX">      0.20000000</i>
    <i name="BMIX">      0.00001000</i>
    <i name="AMIN">      0.10000000</i>
    <i name="AMIX_MAG">      0.80000000</i>
    <i name="BMIX_MAG">      0.00001000</i>
    <separator name="electronic mixer details" >
     <i type="int" name="IMIX">     4</i>
     <i type="logical" name="MIXFIRST"> F  </i>
     <i type="int" name="MAXMIX">   -45</i>
     <i name="WC">    100.00000000</i>
     <i type="int" name="INIMIX">     1</i>
     <i type="int" name="MIXPRE">     1</i>
     <i type="int" name="MREMOVE">     5</i>
    </separator>
   </separator>
   <separator name="electronic dipolcorrection" >
    <i type="logical" name="LDIPOL"> F  </i>
    <i type="logical" name="LMONO"> F  </i>
    <i type="int" name="IDIPOL">     0</i>
    <i name="EPSILON">      1.00000000</i>
    <v name="DIPOL">   -100.00000000   -100.00000000   -100.00000000</v>
    <i name="EFIELD">      0.00000000</i>
   </separator>
  </separator>
  <separator name="grids" >
   <i type="int" name="NGX">    28</i>
   <i type="int" name="NGY">    28</i>
   <i type="int" name="NGZ">    28</i>
   <i type="int" name="NGXF">    56</i>
   <i type="int" name="NGYF">    56</i>
   <i type="int" name="NGZF">    56</i>
   <i type="logical" name="ADDGRID"> F  </i>
  </separator>
  <separator name="ionic" >
   <i type="int" name="NSW">     0</i>
   <i type="int" name="IBRION">    -1</i>
   <i type="int" name="MDALGO">     0</i>
   <i type="int" name="ISIF">     2</i>
   <i name="PSTRESS">      0.00000000</i>
   <i name="EDIFFG">      0.00010000</i>
   <i type="int" name="NFREE">     0</i>
   <i name="POTIM">      0.50000000</i>
   <i name="SMASS">     -3.00000000</i>
   <i name="SCALEE">      1.00000000</i>
  </separator>
  <separator name="ionic md" >
   <i name="TEBEG">      0.00010000</i>
   <i name="TEEND">      0.00010000</i>
   <i type="int" name="NBLOCK">     1</i>
   <i type="int" name="KBLOCK">     1</i>
   <i type="int" name="NPACO">   256</i>
   <i name="APACO">     16.00000000</i>
  </separator>
  <separator name="symmetry" >
   <i type="int" name="ISYM">     2</i>
   <i name="SYMPREC">      0.00001000</i>
  </separator>
  <separator name="dos" >
   <i type="int" name="LORBIT">    11</i>
   <v name="RWIGS">     -1.00000000     -1.00000000</v>
   <i type="int" name="NEDOS">   301</i>
   <i name="EMIN">     10.00000000</i>
   <i name="EMAX">    -10.00000000</i>
   <i name="EFERMI">      0.00000000</i>
  </separator>
  <separator name="writing" >
   <i type="int" name="NWRITE">     2</i>
   <i type="logical" name="LWAVE"> T  </i>
   <i type="logical" name="LDOWNSAMPLE"> F  </i>
   <i type="logical" name="LCHARG"> T  </i>
   <i type="logical" name="LPARD"> F  </i>
   <i type="logical" name="LVTOT"> F  </i>
   <i type="logical" name="LVHAR"> F  </i>
   <i type="logical" name="LELF"> F  </i>
   <i type="logical" name="LOPTICS"> F  </i>
   <v name="STM">      0.00000000      0.00000000      0.00000000      0.00000000      0.00000000      0.00000000      0.00000000</v>
  </separator>
  <separator name="performance" >
   <i type="int" name="NPAR">     1</i>
   <i type="int" name="NSIM">     4</i>
   <i type="int" name="NBLK">    -1</i>
   <i type="logical" name="LPLANE"> T  </i>
   <i type="logical" name="LSCALAPACK"> T  </i>
   <i type="logical" name="LSCAAWARE"> F  </i>
   <i type="logical" name="LSCALU"> F  </i>
   <i type="logical" name="LASYNC"> F  </i>
   <i type="logical" name="LORBITALREAL"> F  </i>
  </separator>
  <separator name="miscellaneous" >
   <i type="int" name="IDIOT">     3</i>
   <i type="int" name="ISPECIAL">     0</i>
   <i type="logical" name="LMUSIC"> F  </i>
   <v name="POMASS">     58.69000000     16.00000000</v>
   <v name="DARWINR">      0.00000000      0.00000000</v>
   <v name="DARWINV">      1.00000000      1.00000000</v>
   <i type="logical" name="LCORR"> T  </i>
  </separator>
  <i type="logical" name="GGA_COMPAT"> T  </i>
  <i type="logical" name="LBERRY"> F  </i>
  <i type="int" name="ICORELEVEL">     0</i>
  <i type="logical" name="LDAU"> T  </i>
  <v type="int" name="LDAUTYPE">     2</v>
  <v type="int" name="LDAUL">     2</v>
  <v name="LDAUU">      5.00000000</v>
  <v name="LDAUJ">      0.00000000</v>
  <i type="int" name="LDAUPRINT">     2</i>
  <i type="int" name="I_CONSTRAINED_M">     0</i>
  <separator name="electronic exchange-correlation" >
   <i type="string" name="GGA">--</i>
   <i type="int" name="VOSKOWN">     0</i>
   <i type="logical" name="LHFCALC"> F  </i>
   <i type="string" name="PRECFOCK"></i>
   <i type="logical" name="LSYMGRAD"> F  </i>
   <i type="logical" name="LHFONE"> F  </i>
   <i type="logical" name="LRHFCALC"> F  </i>
   <i type="logical" name="LTHOMAS"> F  </i>
   <i type="logical" name="LMODELHF"> F  </i>
   <i name="ENCUT4O">     -1.00000000</i>
   <i type="int" name="EXXOEP">     0</i>
   <i type="int" name="FOURORBIT">     0</i>
   <i name="AEXX">      0.00000000</i>
   <i name="HFALPHA">      0.00000000</i>
   <i name="MCALPHA">      0.00000000</i>
   <i name="ALDAX">      1.00000000</i>
   <i name="AGGAX">      1.00000000</i>
   <i name="ALDAC">      1.00000000</i>
   <i name="AGGAC">      1.00000000</i>
   <i type="int" name="NKREDX">     1</i>
   <i type="int" name="NKREDY">     1</i>
   <i type="int" name="NKREDZ">     1</i>
   <i type="logical" name="SHIFTRED"> F  </i>
   <i type="logical" name="ODDONLY"> F  </i>
   <i type="logical" name="EVENONLY"> F  </i>
   <i type="int" name="LMAXFOCK">     0</i>
   <i type="int" name="NMAXFOCKAE">     0</i>
   <i type="logical" name="LFOCKAEDFT"> F  </i>
   <i name="HFSCREEN">      0.00000000</i>
   <i name="HFSCREENC">      0.00000000</i>
   <i type="int" name="NBANDSGWLOW">     0</i>
  </separator>
  <separator name="vdW DFT" >
   <i type="logical" name="LUSE_VDW"> F  </i>
   <i name="Zab_VDW">     -0.84910000</i>
   <i name="PARAM1">      0.12340000</i>
   <i name="PARAM2">      1.00000000</i>
   <i name="PARAM3">      0.00000000</i>
  </separator>
  <separator name="model GW" >
   <i type="int" name="MODEL_GW">     0</i>
   <i name="MODEL_EPS0">      5.43837847</i>
   <i name="MODEL_ALPHA">      1.00000000</i>
  </separator>
  <separator name="linear response parameters" >
   <i type="logical" name="LEPSILON"> F  </i>
   <i type="logical" name="LRPA"> F  </i>
   <i type="logical" name="LNABLA"> F  </i>
   <i type="logical" name="LVEL"> F  </i>
   <i type="int" name="KINTER">     0</i>
   <i name="CSHIFT">      0.10000000</i>
   <i name="OMEGAMAX">     -1.00000000</i>
   <i name="DEG_THRESHOLD">      0.00200000</i>
   <i name="RTIME">     -0.10000000</i>
   <i name="WPLASMAI">      0.00000000</i>
   <v name="DFIELD">      0.00000000      0.00000000      0.00000000</v>
   <v name="WPLASMA">      0.00000000      0.00000000      0.00000000      0.00000000      0.00000000      0.00000000      0.00000000      0.00000000      0.00000000</v>
  </separator>
  <separator name="orbital magnetization" >
   <i type="logical" name="NUCIND"> F  </i>
   <v name="MAGPOS">      0.00000000      0.00000000      0.00000000</v>
   <i type="logical" name="LNICSALL"> T  </i>
   <i type="logical" name="ORBITALMAG"> F  </i>
   <i type="logical" name="LMAGBLOCH"> F  </i>
   <i type="logical" name="LCHIMAG"> F  </i>
   <i type="logical" name="LGAUGE"> T  </i>
   <i type="int" name="MAGATOM">     0</i>
   <v name="MAGDIPOL">      0.00000000      0.00000000      0.00000000</v>
   <v name="AVECCONST">      0.00000000      0.00000000      0.00000000</v>
  </separator>
  <separator name="response functions" >
   <i type="logical" name="LADDER"> F  </i>
   <i type="logical" name="LRPAFORCE"> F  </i>
   <i type="logical" name="LFXC"> F  </i>
   <i type="logical" name="LHARTREE"> T  </i>
   <i type="int" name="IBSE">     0</i>
   <v type="int" name="KPOINT">    -1     0     0     0</v>
   <i type="logical" name="LTCTE"> F  </i>
   <i type="logical" name="LTETE"> F  </i>
   <i type="logical" name="LTRIPLET"> F  </i>
   <i type="logical" name="LFXCEPS"> F  </i>
   <i type="logical" name="LFXHEG"> F  </i>
   <i type="int" name="NATURALO">     2</i>
   <i type="logical" name="L2ORDER"> F  </i>
   <i type="logical" name="LMP2LT"> F  </i>
   <i type="logical" name="LUSEW"> F  </i>
   <i name="ENCUTGW">     -2.00000000</i>
   <i name="ENCUTGWSOFT">     -2.00000000</i>
   <i name="ENCUTLF">     -1.00000000</i>
   <i type="int" name="LMAXMP2">    -1</i>
   <i name="SCISSOR">      0.00000000</i>
   <i type="int" name="NOMEGA">     0</i>
   <i type="int" name="NOMEGAR">     0</i>
   <i type="int" name="NBANDSGW">    -1</i>
   <i type="int" name="NBANDSO">    -1</i>
   <i type="int" name="NBANDSV">    -1</i>
   <i type="int" name="NELM">     1</i>
   <i type="int" name="NELMHF">     1</i>
   <i type="int" name="DIM">     3</i>
   <i type="int" name="ANTIRES">     0</i>
   <i name="OMEGAMAX">    -30.00000000</i>
   <i name="OMEGAMIN">    -30.00000000</i>
   <i name="OMEGATL">   -200.00000000</i>
   <i type="int" name="OMEGAGRID">   140</i>
   <i name="CSHIFT">     -0.10000000</i>
   <i type="logical" name="SELFENERGY"> F  </i>
   <i type="logical" name="LSPECTRAL"> F  </i>
   <i type="logical" name="LSPECTRALGW"> F  </i>
   <i type="logical" name="LSINGLES"> F  </i>
   <i type="logical" name="LFERMIGW"> F  </i>
   <i type="logical" name="ODDONLYGW"> F  </i>
   <i type="logical" name="EVENONLYGW"> F  </i>
   <i type="int" name="NKREDLFX">     1</i>
   <i type="int" name="NKREDLFY">     1</i>
   <i type="int" name="NKREDLFZ">     1</i>
   <i type="int" name="MAXMEM">  2800</i>
   <i type="int" name="TELESCOPE">     0</i>
   <i type="int" name="TAUPAR">     1</i>
   <i type="int" name="OMEGAPAR">    -1</i>
   <i name="LAMBDA">      1.00000000</i>
  </separator>
  <separator name="External order field" >
   <i name="OFIELD_KAPPA">      0.00000000</i>
   <v name="OFIELD_K">      0.00000000      0.00000000      0.00000000</v>
   <i name="OFIELD_Q6_NEAR">      0.00000000</i>
   <i name="OFIELD_Q6_FAR">      0.00000000</i>
   <i name="OFIELD_A">      0.00000000</i>
  </separator>
 </parameters>
 <atominfo>
  <atoms>       4 </atoms>
  <types>       2 </types>
  <array name="atoms" >
   <dimension dim="1">ion</dimension>
   <field type="string">element</field>
   <field type="int">atomtype</field>
   <set>
    <rc><c>Ni</c><c>   1</c></rc>
    <rc><c>Ni</c><c>   1</c></rc>
    <rc><c>O </c><c>   2</c></rc>
    <rc><c>O </c><c>   2</c></rc>
   </set>
  </array>
  <array name="atomtypes" >
   <dimension dim="1">type</dimension>
   <field type="int">atomspertype</field>
   <field type="string">element</field>
   <field>mass</field>
   <field>valence</field>
   <field type="string">pseudopotential</field>
   <set>
    <rc><c>   2</c><c>Ni</c><c>     58.69000000</c><c>     16.00000000</c><c>  PAW_PBE Ni_pv 06Sep2000               </c></rc>
    <rc><c>   2</c><c>O </c><c>     16.00000000</c><c>      6.00000000</c><c>  PAW_PBE O 08Apr2002                   </c></rc>
   </set>
  </array>
 </atominfo>
 <structure name="initialpos" >
  <crystal>
   <varray name="basis" >
    <v>       4.17000000       2.08500000       2.08500000 </v>
    <v>       2.08500000       4.17000000       2.08500000 </v>
    <v>       2.08500000       2.08500000       4.17000000 </v>
   </varray>
   <i name="volume">     36.25585650 </i>
   <varray name="rec_basis" >
    <v>       0.35971223      -0.11990408      -0.11990408 </v>
    <v>      -0.11990408       0.35971223      -0.11990408 </v>
    <v>      -0.11990408      -0.11990408       0.35971223 </v>
   </varray>
  </crystal>
  <varray name="positions" >
   <v>       0.00000000       0.00000000       0.00000000 </v>
   <v>       0.50000000       0.50000000       0.50000000 </v>
   <v>       0.25000000       0.25000000       0.25000000 </v>
   <v>       0.75000000       0.75000000       0.75000000 </v>
  </varray>
 </structure>
 <calculation>
  <scstep>
   <time name="dav">    1.65    1.66</time>
   <time name="total">    1.90    1.91</time>
   <energy>
    <i name="alphaZ">    311.81991378 </i>
    <i name="ewald">  -5345.56183988 </i>
    <i name="hartreedc">  -2231.97249407 </i>
    <i name="XCdc">    234.32277935 </i>
    <i name="pawpsdc">   6520.12304331 </i>
    <i name="pawaedc">  -6768.69497847 </i>
    <i name="eentropy">      0.00000000 </i>
    <i name="bandstr">    -85.29893434 </i>
    <i name="atom">   7866.74061565 </i>
    <i name="e_fr_energy">    501.47810533 </i>
    <i name="e_wo_entrp">    501.47810533 </i>
    <i name="e_0_energy">    501.47810533 </i>
   </energy>
  </scstep>
  <scstep>
   <time name="dav">    1.52    1.52</time>
   <time name="total">    1.52    1.52</time>
   <energy>
    <i name="e_fr_energy">     14.56534327 </i>
    <i name="e_wo_entrp">     14.56534327 </i>
    <i name="e_0_energy">     14.56534327 </i>
   </energy>
  </scstep>
  <scstep>
   <time name="dav">    1.53    1.54</time>
   <time name="total">    1.53    1.54</time>
   <energy>
    <i name="e_fr_energy">    -18.57443113 </i>
    <i name="e_wo_entrp">    -18.57443113 </i>
    <i name="e_0_energy">    -18.57443113 </i>
   </energy>
  </scstep>
  <scstep>
   <time name="dav">    1.52    1.53</time>
   <time name="total">    1.52    1.53</time>
   <energy>
    <i name="e_fr_energy">    -19.55096838 </i>
    <i name="e_wo_entrp">    -19.55096838 </i>
    <i name="e_0_energy">    -19.55096838 </i>
   </energy>
  </scstep>
  <scstep>
   <time name="dav">    1.50    1.50</time>
   <time name="total">    1.70    1.71</time>
   <energy>
    <i name="e_fr_energy">    -19.57275555 </i>
    <i name="e_wo_entrp">    -19.57275555 </i>
    <i name="e_0_energy">    -19.57275555 </i>
   </energy>
  </scstep>
  <scstep>
   <time name="dav">    1.71    1.72</time>
   <time name="total">    2.15    2.16</time>
   <energy>
    <i name="e_fr_energy">    -18.67225304 </i>
    <i name="e_wo_entrp">    -18.67225304 </i>
    <i name="e_0_energy">    -18.67225304 </i>
   </energy>
  </scstep>
  <scstep>
   <time name="dav">    1.76    1.76</time>
   <time name="total">    2.20    2.20</time>
   <energy>
    <i name="e_fr_energy">    -18.95764282 </i>
    <i name="e_wo_entrp">    -18.95764282 </i>
    <i name="e_0_energy">    -18.95764282 </i>
   </energy>
  </scstep>
  <scstep>
   <time name="dav">    1.48    1.49</time>
   <time name="total">    1.92    1.93</time>
   <energy>
    <i name="e_fr_energy">    -19.31960811 </i>
    <i name="e_wo_entrp">    -19.31960811 </i>
    <i name="e_0_energy">    -19.31960811 </i>
   </energy>
  </scstep>
  <scstep>
   <time name="dav">    1.81    1.82</time>
   <time name="total">    2.25    2.26</time>
   <energy>
    <i name="e_fr_energy">    -19.49081548 </i>
    <i name="e_wo_entrp">    -19.49081548 </i>
    <i name="e_0_energy">    -19.49081548 </i>
   </energy>
  </scstep>
  <scstep>
   <time name="dav">    1.44    1.44</time>
   <time name="total">    1.88    1.88</time>
   <energy>
    <i name="e_fr_energy">    -19.53473185 </i>
    <i name="e_wo_entrp">    -19.53473185 </i>
    <i name="e_0_energy">    -19.53473185 </i>
   </energy>
  </scstep>
  <scstep>
   <time name="dav">    1.72    1.72</time>
   <time name="total">    2.16    2.16</time>
   <energy>
    <i name="e_fr_energy">    -19.53573512 </i>
    <i name="e_wo_entrp">    -19.53573512 </i>
    <i name="e_0_energy">    -19.53573512 </i>
   </energy>
  </scstep>
  <scstep>
   <time name="dav">    1.47    1.47</time>
   <time name="total">    1.91    1.91</time>
   <energy>
    <i name="e_fr_energy">    -19.53713733 </i>
    <i name="e_wo_entrp">    -19.53713733 </i>
    <i name="e_0_energy">    -19.53713733 </i>
   </energy>
  </scstep>
  <scstep>
   <time name="dav">    1.72    1.73</time>
   <time name="total">    2.16    2.17</time>
   <energy>
    <i name="e_fr_energy">    -19.53749265 </i>
    <i name="e_wo_entrp">    -19.53749265 </i>
    <i name="e_0_energy">    -19.53749265 </i>
   </energy>
  </scstep>
  <scstep>
   <time name="dav">    1.51    1.52</time>
   <time name="total">    1.95    1.96</time>
   <energy>
    <i name="e_fr_energy">    -19.53760082 </i>
    <i name="e_wo_entrp">    -19.53760082 </i>
    <i name="e_0_energy">    -19.53760082 </i>
   </energy>
  </scstep>
  <scstep>
   <time name="dav">    1.23    1.23</time>
   <time name="total">    1.46    1.46</time>
   <energy>
    <i name="alphaZ">    311.81991378 </i>
    <i name="ewald">  -5345.56183988 </i>
    <i name="hartreedc">  -2176.48877687 </i>
    <i name="XCdc">    233.98730128 </i>
    <i name="pawpsdc">   7229.27183054 </i>
    <i name="pawaedc">  -7481.75933613 </i>
    <i name="eentropy">      0.00000000 </i>
    <i name="bandstr">   -657.54730605 </i>
    <i name="atom">   7866.74061565 </i>
    <i name="e_fr_energy">    -19.53759768 </i>
    <i name="e_wo_entrp">    -19.53759768 </i>
    <i name="e_0_energy">    -19.53759768 </i>
   </energy>
  </scstep>
  <structure>
   <crystal>
    <varray name="basis" >
     <v>       4.17000000       2.08500000       2.08500000 </v>
     <v>       2.08500000       4.17000000       2.08500000 </v>
     <v>       2.08500000       2.08500000       4.17000000 </v>
    </varray>
    <i name="volume">     36.25585650 </i>
    <varray name="rec_basis" >
     <v>       0.35971223      -0.11990408      -0.11990408 </v>
     <v>      -0.11990408       0.35971223      -0.11990408 </v>
     <v>      -0.11990408      -0.11990408       0.35971223 </v>
    </varray>
   </crystal>
   <varray name="positions" >
    <v>       0.00000000       0.00000000       0.00000000 </v>
    <v>       0.50000000       0.50000000       0.50000000 </v>
    <v>       0.25000000       0.25000000       0.25000000 </v>
    <v>       0.75000000       0.75000000       0.75000000 </v>
   </varray>
  </structure>
  <varray name="forces" >
   <v>       0.00000000      -0.00000000       0.00000000 </v>
   <v>      -0.00000000       0.00000000       0.00000000 </v>
   <v>       0.00000000      -0.00000000      -0.00000000 </v>
   <v>      -0.00000000       0.00000000       0.00000000 </v>
  </varray>
  <varray name="stress" >
   <v>      45.88101072      -1.95110088      -1.95110088 </v>
   <v>      -1.95110088      45.88101072      -1.95110088 </v>
   <v>      -1.95110088      -1.95110088      45.88101072 </v>
  </varray>
  <energy>
   <i name="e_fr_energy">    -19.53759768 </i>
   <i name="e_wo_entrp">    -19.53759768 </i>
   <i name="e_0_energy">      0.00000000 </i>
  </energy>
  <time name="totalsc">   30.32   30.40</time>
  <eigenvalues>
   <array>
    <dimension dim="1">band</dimension>
    <dimension dim="2">kpoint</dimension>
    <dimension dim="3">spin</dimension>
    <field>eigene</field>
    <field>occ</field>
    <set>
     <set comment="spin 1">
      <set comment="kpoint 1">
       <r>  -58.0766    1.0000 </r>
       <r>  -58.0602    1.0000 </r>
       <r>  -58.0602    1.0000 </r>
       <r>  -56.0254    1.0000 </r>
       <r>  -56.0097    1.0000 </r>
       <r>  -56.0097    1.0000 </r>
       <r>  -12.9209    1.0000 </r>
       <r>  -11.4590    1.0000 </r>
       <r>   -1.2620    1.0000 </r>
       <r>    0.2953    1.0000 </r>
       <r>    0.2953    1.0000 </r>
       <r>    2.2721    1.0000 </r>
       <r>    2.2721    1.0000 </r>
       <r>    2.4914    1.0000 </r>
       <r>    3.3558    1.0000 </r>
       <r>    3.3558    1.0000 </r>
       <r>    4.3616    1.0000 </r>
       <r>    4.5585    1.0000 </r>
       <r>    4.5585    1.0000 </r>
       <r>    4.5614    1.0000 </r>
       <r>    4.8892    1.0000 </r>
       <r>    4.8892    1.0000 </r>
       <r>    8.8707    0.0000 </r>
       <r>    9.5545    0.0000 </r>
       <r>    9.5545    0.0000 </r>
       <r>   12.7913    0.0000 </r>
      </set>
      <set comment="kpoint 2">
       <r>  -58.0750    1.0000 </r>
       <r>  -58.0713    1.0000 </r>
       <r>  -58.0631    1.0000 </r>
       <r>  -56.0237    1.0000 </r>
       <r>  -56.0223    1.0000 </r>
       <r>  -56.0129    1.0000 </r>
       <r>  -12.3175    1.0000 </r>
       <r>  -11.3823    1.0000 </r>
       <r>   -0.4237    1.0000 </r>
       <r>    0.3462    1.0000 </r>
       <r>    0.4159    1.0000 </r>
       <r>    1.0441    1.0000 </r>
       <r>    2.0366    1.0000 </r>
       <r>    2.1613    1.0000 </r>
       <r>    2.4378    1.0000 </r>
       <r>    3.4071    1.0000 </r>
       <r>    3.5390    1.0000 </r>
       <r>    3.9792    1.0000 </r>
       <r>    4.0957    1.0000 </r>
       <r>    4.6309    1.0000 </r>
       <r>    4.9394    1.0000 </r>
       <r>    5.2649    1.0000 </r>
       <r>    9.0612    0.0000 </r>
       <r>    9.4442    0.0000 </r>
       <r>   11.9325    0.0000 </r>
       <r>   15.4521    0.0000 </r>
      </set>
      <set comment="kpoint 3">
       <r>  -58.0825    1.0000 </r>
       <r>  -58.0734    1.0000 </r>
       <r>  -58.0659    1.0000 </r>
       <r>  -56.0349    1.0000 </r>
       <r>  -56.0220    1.0000 </r>
       <r>  -56.0161    1.0000 </r>
       <r>  -11.5104    1.0000 </r>
       <r>  -11.4008    1.0000 </r>
       <r>   -0.3498    1.0000 </r>
       <r>   -0.0162    1.0000 </r>
       <r>    0.2978    1.0000 </r>
       <r>    0.4177    1.0000 </r>
       <r>    1.6528    1.0000 </r>
       <r>    2.2737    1.0000 </r>
       <r>    2.6648    1.0000 </r>
       <r>    2.7403    1.0000 </r>
       <r>    3.5049    1.0000 </r>
       <r>    3.8795    1.0000 </r>
       <r>    4.3639    1.0000 </r>
       <r>    4.5233    1.0000 </r>
       <r>    4.6494    1.0000 </r>
       <r>    5.1558    1.0000 </r>
       <r>    9.3847    0.0000 </r>
       <r>    9.4171    0.0000 </r>
       <r>   14.6913    0.0000 </r>
       <r>   14.9296    0.0000 </r>
      </set>
      <set comment="kpoint 4">
       <r>  -58.0750    1.0000 </r>
       <r>  -58.0713    1.0000 </r>
       <r>  -58.0631    1.0000 </r>
       <r>  -56.0237    1.0000 </r>
       <r>  -56.0222    1.0000 </r>
       <r>  -56.0129    1.0000 </r>
       <r>  -12.2576    1.0000 </r>
       <r>  -11.4561    1.0000 </r>
       <r>   -0.2063    1.0000 </r>
       <r>    0.3665    1.0000 </r>
       <r>    0.4506    1.0000 </r>
       <r>    0.6978    1.0000 </r>
       <r>    2.0457    1.0000 </r>
       <r>    2.1457    1.0000 </r>
       <r>    2.5560    1.0000 </r>
       <r>    3.3899    1.0000 </r>
       <r>    3.4681    1.0000 </r>
       <r>    3.8336    1.0000 </r>
       <r>    4.0791    1.0000 </r>
       <r>    4.3007    1.0000 </r>
       <r>    5.3393    1.0000 </r>
       <r>    5.5444    1.0000 </r>
       <r>    9.3500    0.0000 </r>
       <r>    9.3685    0.0000 </r>
       <r>   11.6329    0.0000 </r>
       <r>   14.8112    0.0000 </r>
      </set>
      <set comment="kpoint 5">
       <r>  -58.0783    1.0000 </r>
       <r>  -58.0735    1.0000 </r>
       <r>  -58.0700    1.0000 </r>
       <r>  -56.0302    1.0000 </r>
       <r>  -56.0221    1.0000 </r>
       <r>  -56.0207    1.0000 </r>
       <r>  -11.5628    1.0000 </r>
       <r>  -11.3521    1.0000 </r>
       <r>   -0.4214    1.0000 </r>
       <r>    0.2512    1.0000 </r>
       <r>    0.4263    1.0000 </r>
       <r>    0.6307    1.0000 </r>
       <r>    1.2277    1.0000 </r>
       <r>    1.7551    1.0000 </r>
       <r>    2.9986    1.0000 </r>
       <r>    3.0077    1.0000 </r>
       <r>    3.4620    1.0000 </r>
       <r>    3.8578    1.0000 </r>
       <r>    4.2451    1.0000 </r>
       <r>    4.3626    1.0000 </r>
       <r>    4.8175    1.0000 </r>
       <r>    4.9784    1.0000 </r>
       <r>    9.2147    0.0000 </r>
       <r>    9.6058    0.0000 </r>
       <r>   14.5156    0.0000 </r>
       <r>   15.4991    0.0000 </r>
      </set>
      <set comment="kpoint 6">
       <r>  -58.0783    1.0000 </r>
       <r>  -58.0735    1.0000 </r>
       <r>  -58.0700    1.0000 </r>
       <r>  -56.0302    1.0000 </r>
       <r>  -56.0220    1.0000 </r>
       <r>  -56.0207    1.0000 </r>
       <r>  -11.6061    1.0000 </r>
       <r>  -11.3130    1.0000 </r>
       <r>   -0.4623    1.0000 </r>
       <r>    0.6214    1.0000 </r>
       <r>    0.7180    1.0000 </r>
       <r>    0.7830    1.0000 </r>
       <r>    0.9397    1.0000 </r>
       <r>    1.1918    1.0000 </r>
       <r>    2.9068    1.0000 </r>
       <r>    3.0910    1.0000 </r>
       <r>    3.6957    1.0000 </r>
       <r>    3.8093    1.0000 </r>
       <r>    4.0926    1.0000 </r>
       <r>    4.4577    1.0000 </r>
       <r>    4.7665    1.0000 </r>
       <r>    4.8330    1.0000 </r>
       <r>    9.0595    0.0000 </r>
       <r>    9.8074    0.0000 </r>
       <r>   14.4150    0.0000 </r>
       <r>   15.8760    0.0000 </r>
      </set>
      <set comment="kpoint 7">
       <r>  -58.0825    1.0000 </r>
       <r>  -58.0735    1.0000 </r>
       <r>  -58.0659    1.0000 </r>
       <r>  -56.0348    1.0000 </r>
       <r>  -56.0220    1.0000 </r>
       <r>  -56.0161    1.0000 </r>
       <r>  -11.4588    1.0000 </r>
       <r>  -11.4379    1.0000 </r>
       <r>   -1.2628    1.0000 </r>
       <r>    0.3631    1.0000 </r>
       <r>    0.4351    1.0000 </r>
       <r>    0.5310    1.0000 </r>
       <r>    1.7392    1.0000 </r>
       <r>    2.7035    1.0000 </r>
       <r>    2.9750    1.0000 </r>
       <r>    3.1863    1.0000 </r>
       <r>    3.1881    1.0000 </r>
       <r>    3.5888    1.0000 </r>
       <r>    3.8747    1.0000 </r>
       <r>    4.4695    1.0000 </r>
       <r>    5.0320    1.0000 </r>
       <r>    5.2056    1.0000 </r>
       <r>    9.7053    0.0000 </r>
       <r>    9.8581    0.0000 </r>
       <r>   12.7918    0.0000 </r>
       <r>   13.4078    0.0000 </r>
      </set>
      <set comment="kpoint 8">
       <r>  -58.0765    1.0000 </r>
       <r>  -58.0602    1.0000 </r>
       <r>  -58.0602    1.0000 </r>
       <r>  -56.0255    1.0000 </r>
       <r>  -56.0097    1.0000 </r>
       <r>  -56.0097    1.0000 </r>
       <r>  -12.7361    1.0000 </r>
       <r>  -11.7121    1.0000 </r>
       <r>   -0.6986    1.0000 </r>
       <r>    0.3631    1.0000 </r>
       <r>    0.3631    1.0000 </r>
       <r>    2.1124    1.0000 </r>
       <r>    2.2979    1.0000 </r>
       <r>    2.2979    1.0000 </r>
       <r>    3.0879    1.0000 </r>
       <r>    3.0879    1.0000 </r>
       <r>    3.8164    1.0000 </r>
       <r>    4.3280    1.0000 </r>
       <r>    4.3280    1.0000 </r>
       <r>    4.3683    1.0000 </r>
       <r>    5.3755    1.0000 </r>
       <r>    5.3755    1.0000 </r>
       <r>    9.4414    0.0000 </r>
       <r>    9.4414    0.0000 </r>
       <r>    9.9194    0.0000 </r>
       <r>   12.6506    0.0000 </r>
      </set>
      <set comment="kpoint 9">
       <r>  -58.0750    1.0000 </r>
       <r>  -58.0714    1.0000 </r>
       <r>  -58.0631    1.0000 </r>
       <r>  -56.0238    1.0000 </r>
       <r>  -56.0223    1.0000 </r>
       <r>  -56.0129    1.0000 </r>
       <r>  -12.1233    1.0000 </r>
       <r>  -11.6054    1.0000 </r>
       <r>   -0.5380    1.0000 </r>
       <r>    0.4369    1.0000 </r>
       <r>    0.5584    1.0000 </r>
       <r>    1.0595    1.0000 </r>
       <r>    2.1180    1.0000 </r>
       <r>    2.1972    1.0000 </r>
       <r>    2.4517    1.0000 </r>
       <r>    3.3053    1.0000 </r>
       <r>    3.3436    1.0000 </r>
       <r>    4.2256    1.0000 </r>
       <r>    4.3818    1.0000 </r>
       <r>    4.5667    1.0000 </r>
       <r>    4.7331    1.0000 </r>
       <r>    4.9310    1.0000 </r>
       <r>    8.7600    0.0000 </r>
       <r>    9.6097    0.0000 </r>
       <r>   12.9300    0.0000 </r>
       <r>   14.4153    0.0000 </r>
      </set>
      <set comment="kpoint 10">
       <r>  -58.0825    1.0000 </r>
       <r>  -58.0735    1.0000 </r>
       <r>  -58.0659    1.0000 </r>
       <r>  -56.0349    1.0000 </r>
       <r>  -56.0221    1.0000 </r>
       <r>  -56.0161    1.0000 </r>
       <r>  -11.4913    1.0000 </r>
       <r>  -11.4125    1.0000 </r>
       <r>   -0.9402    1.0000 </r>
       <r>    0.1085    1.0000 </r>
       <r>    0.3897    1.0000 </r>
       <r>    0.7501    1.0000 </r>
       <r>    1.6048    1.0000 </r>
       <r>    2.5306    1.0000 </r>
       <r>    2.6996    1.0000 </r>
       <r>    2.8997    1.0000 </r>
       <r>    3.4682    1.0000 </r>
       <r>    3.6424    1.0000 </r>
       <r>    4.1764    1.0000 </r>
       <r>    4.4906    1.0000 </r>
       <r>    4.9819    1.0000 </r>
       <r>    5.0822    1.0000 </r>
       <r>    9.5473    0.0000 </r>
       <r>    9.5982    0.0000 </r>
       <r>   13.7009    0.0000 </r>
       <r>   14.0034    0.0000 </r>
      </set>
      <set comment="kpoint 11">
       <r>  -58.0750    1.0000 </r>
       <r>  -58.0714    1.0000 </r>
       <r>  -58.0631    1.0000 </r>
       <r>  -56.0238    1.0000 </r>
       <r>  -56.0223    1.0000 </r>
       <r>  -56.0129    1.0000 </r>
       <r>  -11.9719    1.0000 </r>
       <r>  -11.7711    1.0000 </r>
       <r>   -0.3521    1.0000 </r>
       <r>    0.3546    1.0000 </r>
       <r>    0.4722    1.0000 </r>
       <r>    1.1469    1.0000 </r>
       <r>    1.9589    1.0000 </r>
       <r>    2.1808    1.0000 </r>
       <r>    2.4703    1.0000 </r>
       <r>    3.2404    1.0000 </r>
       <r>    3.3116    1.0000 </r>
       <r>    4.0881    1.0000 </r>
       <r>    4.1687    1.0000 </r>
       <r>    4.5361    1.0000 </r>
       <r>    5.0468    1.0000 </r>
       <r>    5.2494    1.0000 </r>
       <r>    9.0240    0.0000 </r>
       <r>    9.5234    0.0000 </r>
       <r>   12.7802    0.0000 </r>
       <r>   13.8779    0.0000 </r>
      </set>
      <set comment="kpoint 12">
       <r>  -58.0784    1.0000 </r>
       <r>  -58.0735    1.0000 </r>
       <r>  -58.0700    1.0000 </r>
       <r>  -56.0302    1.0000 </r>
       <r>  -56.0221    1.0000 </r>
       <r>  -56.0207    1.0000 </r>
       <r>  -11.4822    1.0000 </r>
       <r>  -11.4295    1.0000 </r>
       <r>   -0.2593    1.0000 </r>
       <r>   -0.1651    1.0000 </r>
       <r>    0.3767    1.0000 </r>
       <r>    0.4418    1.0000 </r>
       <r>    1.5161    1.0000 </r>
       <r>    2.1099    1.0000 </r>
       <r>    2.8776    1.0000 </r>
       <r>    3.2368    1.0000 </r>
       <r>    3.3082    1.0000 </r>
       <r>    3.6410    1.0000 </r>
       <r>    4.1799    1.0000 </r>
       <r>    4.3949    1.0000 </r>
       <r>    4.9777    1.0000 </r>
       <r>    5.1236    1.0000 </r>
       <r>    9.3927    0.0000 </r>
       <r>    9.4066    0.0000 </r>
       <r>   14.7478    0.0000 </r>
       <r>   14.8705    0.0000 </r>
      </set>
      <set comment="kpoint 13">
       <r>  -58.0765    1.0000 </r>
       <r>  -58.0602    1.0000 </r>
       <r>  -58.0602    1.0000 </r>
       <r>  -56.0255    1.0000 </r>
       <r>  -56.0097    1.0000 </r>
       <r>  -56.0097    1.0000 </r>
       <r>  -12.2625    1.0000 </r>
       <r>  -12.2527    1.0000 </r>
       <r>    0.4374    1.0000 </r>
       <r>    0.4374    1.0000 </r>
       <r>    0.5470    1.0000 </r>
       <r>    0.8818    1.0000 </r>
       <r>    2.3269    1.0000 </r>
       <r>    2.3269    1.0000 </r>
       <r>    2.8411    1.0000 </r>
       <r>    2.8411    1.0000 </r>
       <r>    3.4858    1.0000 </r>
       <r>    4.2410    1.0000 </r>
       <r>    4.2410    1.0000 </r>
       <r>    4.2675    1.0000 </r>
       <r>    5.6916    1.0000 </r>
       <r>    5.6916    1.0000 </r>
       <r>    9.3207    0.0000 </r>
       <r>    9.3207    0.0000 </r>
       <r>   11.5669    0.0000 </r>
       <r>   11.7024    0.0000 </r>
      </set>
     </set>
     <set comment="spin 2">
      <set comment="kpoint 1">
       <r>  -58.0766    1.0000 </r>
       <r>  -58.0602    1.0000 </r>
       <r>  -58.0602    1.0000 </r>
       <r>  -56.0254    1.0000 </r>
       <r>  -56.0097    1.0000 </r>
       <r>  -56.0097    1.0000 </r>
       <r>  -12.9209    1.0000 </r>
       <r>  -11.4590    1.0000 </r>
       <r>   -1.2620    1.0000 </r>
       <r>    0.2953    1.0000 </r>
       <r>    0.2953    1.0000 </r>
       <r>    2.2721    1.0000 </r>
       <r>    2.2721    1.0000 </r>
       <r>    2.4914    1.0000 </r>
       <r>    3.3558    1.0000 </r>
       <r>    3.3558    1.0000 </r>
       <r>    4.3616    1.0000 </r>
       <r>    4.5585    1.0000 </r>
       <r>    4.5585    1.0000 </r>
       <r>    4.5614    1.0000 </r>
       <r>    4.8892    1.0000 </r>
       <r>    4.8892    1.0000 </r>
       <r>    8.8707    0.0000 </r>
       <r>    9.5545    0.0000 </r>
       <r>    9.5545    0.0000 </r>
       <r>   12.7913    0.0000 </r>
      </set>
      <set comment="kpoint 2">
       <r>  -58.0750    1.0000 </r>
       <r>  -58.0713    1.0000 </r>
       <r>  -58.0631    1.0000 </r>
       <r>  -56.0237    1.0000 </r>
       <r>  -56.0223    1.0000 </r>
       <r>  -56.0129    1.0000 </r>
       <r>  -12.3175    1.0000 </r>
       <r>  -11.3823    1.0000 </r>
       <r>   -0.4237    1.0000 </r>
       <r>    0.3462    1.0000 </r>
       <r>    0.4159    1.0000 </r>
       <r>    1.0441    1.0000 </r>
       <r>    2.0366    1.0000 </r>
       <r>    2.1613    1.0000 </r>
       <r>    2.4378    1.0000 </r>
       <r>    3.4071    1.0000 </r>
       <r>    3.5390    1.0000 </r>
       <r>    3.9792    1.0000 </r>
       <r>    4.0957    1.0000 </r>
       <r>    4.6309    1.0000 </r>
       <r>    4.9394    1.0000 </r>
       <r>    5.2649    1.0000 </r>
       <r>    9.0612    0.0000 </r>
       <r>    9.4442    0.0000 </r>
       <r>   11.9325    0.0000 </r>
       <r>   15.4521    0.0000 </r>
      </set>
      <set comment="kpoint 3">
       <r>  -58.0825    1.0000 </r>
       <r>  -58.0734    1.0000 </r>
       <r>  -58.0659    1.0000 </r>
       <r>  -56.0349    1.0000 </r>
       <r>  -56.0220    1.0000 </r>
       <r>  -56.0161    1.0000 </r>
       <r>  -11.5104    1.0000 </r>
       <r>  -11.4008    1.0000 </r>
       <r>   -0.3498    1.0000 </r>
       <r>   -0.0162    1.0000 </r>
       <r>    0.2978    1.0000 </r>
       <r>    0.4177    1.0000 </r>
       <r>    1.6528    1.0000 </r>
       <r>    2.2737    1.0000 </r>
       <r>    2.6648    1.0000 </r>
       <r>    2.7403    1.0000 </r>
       <r>    3.5049    1.0000 </r>
       <r>    3.8795    1.0000 </r>
       <r>    4.3639    1.0000 </r>
       <r>    4.5233    1.0000 </r>
       <r>    4.6494    1.0000 </r>
       <r>    5.1558    1.0000 </r>
       <r>    9.3847    0.0000 </r>
       <r>    9.4171    0.0000 </r>
       <r>   14.6913    0.0000 </r>
       <r>   14.9296    0.0000 </r>
      </set>
      <set comment="kpoint 4">
       <r>  -58.0750    1.0000 </r>
       <r>  -58.0713    1.0000 </r>
       <r>  -58.0631    1.0000 </r>
       <r>  -56.0237    1.0000 </r>
       <r>  -56.0222    1.0000 </r>
       <r>  -56.0129    1.0000 </r>
       <r>  -12.2576    1.0000 </r>
       <r>  -11.4561    1.0000 </r>
       <r>   -0.2063    1.0000 </r>
       <r>    0.3665    1.0000 </r>
       <r>    0.4506    1.0000 </r>
       <r>    0.6978    1.0000 </r>
       <r>    2.0457    1.0000 </r>
       <r>    2.1457    1.0000 </r>
       <r>    2.5560    1.0000 </r>
       <r>    3.3899    1.0000 </r>
       <r>    3.4681    1.0000 </r>
       <r>    3.8336    1.0000 </r>
       <r>    4.0791    1.0000 </r>
       <r>    4.3007    1.0000 </r>
       <r>    5.3393    1.0000 </r>
       <r>    5.5444    1.0000 </r>
       <r>    9.3500    0.0000 </r>
       <r>    9.3685    0.0000 </r>
       <r>   11.6329    0.0000 </r>
       <r>   14.8112    0.0000 </r>
      </set>
      <set comment="kpoint 5">
       <r>  -58.0783    1.0000 </r>
       <r>  -58.0735    1.0000 </r>
       <r>  -58.0700    1.0000 </r>
       <r>  -56.0302    1.0000 </r>
       <r>  -56.0221    1.0000 </r>
       <r>  -56.0207    1.0000 </r>
       <r>  -11.5628    1.0000 </r>
       <r>  -11.3521    1.0000 </r>
       <r>   -0.4214    1.0000 </r>
       <r>    0.2512    1.0000 </r>
       <r>    0.4263    1.0000 </r>
       <r>    0.6307    1.0000 </r>
       <r>    1.2277    1.0000 </r>
       <r>    1.7551    1.0000 </r>
       <r>    2.9986    1.0000 </r>
       <r>    3.0077    1.0000 </r>
       <r>    3.4620    1.0000 </r>
       <r>    3.8578    1.0000 </r>
       <r>    4.2451    1.0000 </r>
       <r>    4.3626    1.0000 </r>
       <r>    4.8175    1.0000 </r>
       <r>    4.9784    1.0000 </r>
       <r>    9.2147    0.0000 </r>
       <r>    9.6058    0.0000 </r>
       <r>   14.5156    0.0000 </r>
       <r>   15.4991    0.0000 </r>
      </set>
      <set comment="kpoint 6">
       <r>  -58.0783    1.0000 </r>
       <r>  -58.0735    1.0000 </r>
       <r>  -58.0700    1.0000 </r>
       <r>  -56.0302    1.0000 </r>
       <r>  -56.0220    1.0000 </r>
       <r>  -56.0207    1.0000 </r>
       <r>  -11.6061    1.0000 </r>
       <r>  -11.3130    1.0000 </r>
       <r>   -0.4623    1.0000 </r>
       <r>    0.6214    1.0000 </r>
       <r>    0.7180    1.0000 </r>
       <r>    0.7830    1.0000 </r>
       <r>    0.9397    1.0000 </r>
       <r>    1.1918    1.0000 </r>
       <r>    2.9068    1.0000 </r>
       <r>    3.0910    1.0000 </r>
       <r>    3.6957    1.0000 </r>
       <r>    3.8093    1.0000 </r>
       <r>    4.0926    1.0000 </r>
       <r>    4.4577    1.0000 </r>
       <r>    4.7665    1.0000 </r>
       <r>    4.8330    1.0000 </r>
       <r>    9.0595    0.0000 </r>
       <r>    9.8074    0.0000 </r>
       <r>   14.4150    0.0000 </r>
       <r>   15.8760    0.0000 </r>
      </set>
      <set comment="kpoint 7">
       <r>  -58.0825    1.0000 </r>
       <r>  -58.0735    1.0000 </r>
       <r>  -58.0659    1.0000 </r>
       <r>  -56.0348    1.0000 </r>
       <r>  -56.0220    1.0000 </r>
       <r>  -56.0161    1.0000 </r>
       <r>  -11.4588    1.0000 </r>
       <r>  -11.4379    1.0000 </r>
       <r>   -1.2628    1.0000 </r>
       <r>    0.3631    1.0000 </r>
       <r>    0.4351    1.0000 </r>
       <r>    0.5310    1.0000 </r>
       <r>    1.7392    1.0000 </r>
       <r>    2.7035    1.0000 </r>
       <r>    2.9750    1.0000 </r>
       <r>    3.1863    1.0000 </r>
       <r>    3.1881    1.0000 </r>
       <r>    3.5888    1.0000 </r>
       <r>    3.8747    1.0000 </r>
       <r>    4.4695    1.0000 </r>
       <r>    5.0320    1.0000 </r>
       <r>    5.2056    1.0000 </r>
       <r>    9.7053    0.0000 </r>
       <r>    9.8581    0.0000 </r>
       <r>   12.7918    0.0000 </r>
       <r>   13.4078    0.0000 </r>
      </set>
      <set comment="kpoint 8">
       <r>  -58.0765    1.0000 </r>
       <r>  -58.0602    1.0000 </r>
       <r>  -58.0602    1.0000 </r>
       <r>  -56.0255    1.0000 </r>
       <r>  -56.0097    1.0000 </r>
       <r>  -56.0097    1.0000 </r>
       <r>  -12.7361    1.0000 </r>
       <r>  -11.7121    1.0000 </r>
       <r>   -0.6986    1.0000 </r>
       <r>    0.3631    1.0000 </r>
       <r>    0.3631    1.0000 </r>
       <r>    2.1124    1.0000 </r>
       <r>    2.2979    1.0000 </r>
       <r>    2.2979    1.0000 </r>
       <r>    3.0879    1.0000 </r>
       <r>    3.0879    1.0000 </r>
       <r>    3.8164    1.0000 </r>
       <r>    4.3280    1.0000 </r>
       <r>    4.3280    1.0000 </r>
       <r>    4.3683    1.0000 </r>
       <r>    5.3755    1.0000 </r>
       <r>    5.3755    1.0000 </r>
       <r>    9.4414    0.0000 </r>
       <r>    9.4414    0.0000 </r>
       <r>    9.9194    0.0000 </r>
       <r>   12.6506    0.0000 </r>
      </set>
      <set comment="kpoint 9">
       <r>  -58.0750    1.0000 </r>
       <r>  -58.0714    1.0000 </r>
       <r>  -58.0631    1.0000 </r>
       <r>  -56.0238    1.0000 </r>
       <r>  -56.0223    1.0000 </r>
       <r>  -56.0129    1.0000 </r>
       <r>  -12.1233    1.0000 </r>
       <r>  -11.6054    1.0000 </r>
       <r>   -0.5380    1.0000 </r>
       <r>    0.4369    1.0000 </r>
       <r>    0.5584    1.0000 </r>
       <r>    1.0595    1.0000 </r>
       <r>    2.1180    1.0000 </r>
       <r>    2.1972    1.0000 </r>
       <r>    2.4517    1.0000 </r>
       <r>    3.3053    1.0000 </r>
       <r>    3.3436    1.0000 </r>
       <r>    4.2256    1.0000 </r>
       <r>    4.3818    1.0000 </r>
       <r>    4.5667    1.0000 </r>
       <r>    4.7331    1.0000 </r>
       <r>    4.9310    1.0000 </r>
       <r>    8.7600    0.0000 </r>
       <r>    9.6097    0.0000 </r>
       <r>   12.9300    0.0000 </r>
       <r>   14.4153    0.0000 </r>
      </set>
      <set comment="kpoint 10">
       <r>  -58.0825    1.0000 </r>
       <r>  -58.0735    1.0000 </r>
       <r>  -58.0659    1.0000 </r>
       <r>  -56.0349    1.0000 </r>
       <r>  -56.0221    1.0000 </r>
       <r>  -56.0161    1.0000 </r>
       <r>  -11.4913    1.0000 </r>
       <r>  -11.4125    1.0000 </r>
       <r>   -0.9402    1.0000 </r>
       <r>    0.1085    1.0000 </r>
       <r>    0.3897    1.0000 </r>
       <r>    0.7501    1.0000 </r>
       <r>    1.6048    1.0000 </r>
       <r>    2.5306    1.0000 </r>
       <r>    2.6996    1.0000 </r>
       <r>    2.8997    1.0000 </r>
       <r>    3.4682    1.0000 </r>
       <r>    3.6424    1.0000 </r>
       <r>    4.1764    1.0000 </r>
       <r>    4.4906    1.0000 </r>
       <r>    4.9819    1.0000 </r>
       <r>    5.0822    1.0000 </r>
       <r>    9.5473    0.0000 </r>
       <r>    9.5982    0.0000 </r>
       <r>   13.7009    0.0000 </r>
       <r>   14.0034    0.0000 </r>
      </set>
      <set comment="kpoint 11">
       <r>  -58.0750    1.0000 </r>
       <r>  -58.0714    1.0000 </r>
       <r>  -58.0631    1.0000 </r>
       <r>  -56.0238    1.0000 </r>
       <r>  -56.0223    1.0000 </r>
       <r>  -56.0129    1.0000 </r>
       <r>  -11.9719    1.0000 </r>
       <r>  -11.7711    1.0000 </r>
       <r>   -0.3521    1.0000 </r>
       <r>    0.3546    1.0000 </r>
       <r>    0.4722    1.0000 </r>
       <r>    1.1469    1.0000 </r>
       <r>    1.9589    1.0000 </r>
       <r>    2.1808    1.0000 </r>
       <r>    2.4703    1.0000 </r>
       <r>    3.2404    1.0000 </r>
       <r>    3.3116    1.0000 </r>
       <r>    4.0881    1.0000 </r>
       <r>    4.1687    1.0000 </r>
       <r>    4.5361    1.0000 </r>
       <r>    5.0468    1.0000 </r>
       <r>    5.2494    1.0000 </r>
       <r>    9.0240    0.0000 </r>
       <r>    9.5234    0.0000 </r>
       <r>   12.7802    0.0000 </r>
       <r>   13.8779    0.0000 </r>
      </set>
      <set comment="kpoint 12">
       <r>  -58.0784    1.0000 </r>
       <r>  -58.0735    1.0000 </r>
       <r>  -58.0700    1.0000 </r>
       <r>  -56.0302    1.0000 </r>
       <r>  -56.0221    1.0000 </r>
       <r>  -56.0207    1.0000 </r>
       <r>  -11.4822    1.0000 </r>
       <r>  -11.4295    1.0000 </r>
       <r>   -0.2593    1.0000 </r>
       <r>   -0.1651    1.0000 </r>
       <r>    0.3767    1.0000 </r>
       <r>    0.4418    1.0000 </r>
       <r>    1.5161    1.0000 </r>
       <r>    2.1099    1.0000 </r>
       <r>    2.8776    1.0000 </r>
       <r>    3.2368    1.0000 </r>
       <r>    3.3082    1.0000 </r>
       <r>    3.6410    1.0000 </r>
       <r>    4.1799    1.0000 </r>
       <r>    4.3949    1.0000 </r>
       <r>    4.9777    1.0000 </r>
       <r>    5.1236    1.0000 </r>
       <r>    9.3927    0.0000 </r>
       <r>    9.4066    0.0000 </r>
       <r>   14.7478    0.0000 </r>
       <r>   14.8705    0.0000 </r>
      </set>
      <set comment="kpoint 13">
       <r>  -58.0765    1.0000 </r>
       <r>  -58.0602    1.0000 </r>
       <r>  -58.0602    1.0000 </r>
       <r>  -56.0255    1.0000 </r>
       <r>  -56.0097    1.0000 </r>
       <r>  -56.0097    1.0000 </r>
       <r>  -12.2625    1.0000 </r>
       <r>  -12.2527    1.0000 </r>
       <r>    0.4374    1.0000 </r>
       <r>    0.4374    1.0000 </r>
       <r>    0.5470    1.0000 </r>
       <r>    0.8818    1.0000 </r>
       <r>    2.3269    1.0000 </r>
       <r>    2.3269    1.0000 </r>
       <r>    2.8411    1.0000 </r>
       <r>    2.8411    1.0000 </r>
       <r>    3.4858    1.0000 </r>
       <r>    4.2410    1.0000 </r>
       <r>    4.2410    1.0000 </r>
       <r>    4.2675    1.0000 </r>
       <r>    5.6916    1.0000 </r>
       <r>    5.6916    1.0000 </r>
       <r>    9.3207    0.0000 </r>
       <r>    9.3207    0.0000 </r>
       <r>   11.5669    0.0000 </r>
       <r>   11.7024    0.0000 </r>
      </set>
     </set>
    </set>
   </array>
  </eigenvalues>
  <separator name="orbital magnetization" >
   <v name="MAGDIPOLOUT">      0.00000000      0.00000000      0.00000000</v>
  </separator>
  <dos>
   <i name="efermi">      5.81146537 </i>
   <total>
    <array>
     <dimension dim="1">gridpoints</dimension>
     <dimension dim="2">spin</dimension>
     <field>energy</field>
     <field>total</field>
     <field>integrated</field>
     <set>
      <set comment="spin 1">
       <r>   -61.7804     0.0000     0.0000 </r>
       <r>   -61.5092     0.0000     0.0000 </r>
       <r>   -61.2381     0.0000     0.0000 </r>
       <r>   -60.9669     0.0000     0.0000 </r>
       <r>   -60.6957     0.0000     0.0000 </r>
       <r>   -60.4245     0.0000     0.0000 </r>
       <r>   -60.1533     0.0000     0.0000 </r>
       <r>   -59.8821     0.0000     0.0000 </r>
       <r>   -59.6110     0.0000     0.0000 </r>
       <r>   -59.3398     0.0000     0.0000 </r>
       <r>   -59.0686     0.0000     0.0000 </r>
       <r>   -58.7974     0.0000     0.0000 </r>
       <r>   -58.5262     0.0000     0.0000 </r>
       <r>   -58.2551     0.0000     0.0000 </r>
       <r>   -57.9839     0.0000     3.0000 </r>
       <r>   -57.7127     0.0000     3.0000 </r>
       <r>   -57.4415     0.0000     3.0000 </r>
       <r>   -57.1703     0.0000     3.0000 </r>
       <r>   -56.8992     0.0000     3.0000 </r>
       <r>   -56.6280     0.0000     3.0000 </r>
       <r>   -56.3568     0.0000     3.0000 </r>
       <r>   -56.0856     0.0000     3.0000 </r>
       <r>   -55.8144     0.0000     6.0000 </r>
       <r>   -55.5432     0.0000     6.0000 </r>
       <r>   -55.2721     0.0000     6.0000 </r>
       <r>   -55.0009     0.0000     6.0000 </r>
       <r>   -54.7297     0.0000     6.0000 </r>
       <r>   -54.4585     0.0000     6.0000 </r>
       <r>   -54.1873     0.0000     6.0000 </r>
       <r>   -53.9162     0.0000     6.0000 </r>
       <r>   -53.6450     0.0000     6.0000 </r>
       <r>   -53.3738     0.0000     6.0000 </r>
       <r>   -53.1026     0.0000     6.0000 </r>
       <r>   -52.8314     0.0000     6.0000 </r>
       <r>   -52.5603     0.0000     6.0000 </r>
       <r>   -52.2891     0.0000     6.0000 </r>
       <r>   -52.0179     0.0000     6.0000 </r>
       <r>   -51.7467     0.0000     6.0000 </r>
       <r>   -51.4755     0.0000     6.0000 </r>
       <r>   -51.2044     0.0000     6.0000 </r>
       <r>   -50.9332     0.0000     6.0000 </r>
       <r>   -50.6620     0.0000     6.0000 </r>
       <r>   -50.3908     0.0000     6.0000 </r>
       <r>   -50.1196     0.0000     6.0000 </r>
       <r>   -49.8484     0.0000     6.0000 </r>
       <r>   -49.5773     0.0000     6.0000 </r>
       <r>   -49.3061     0.0000     6.0000 </r>
       <r>   -49.0349     0.0000     6.0000 </r>
       <r>   -48.7637     0.0000     6.0000 </r>
       <r>   -48.4925     0.0000     6.0000 </r>
       <r>   -48.2214     0.0000     6.0000 </r>
       <r>   -47.9502     0.0000     6.0000 </r>
       <r>   -47.6790     0.0000     6.0000 </r>
       <r>   -47.4078     0.0000     6.0000 </r>
       <r>   -47.1366     0.0000     6.0000 </r>
       <r>   -46.8655     0.0000     6.0000 </r>
       <r>   -46.5943     0.0000     6.0000 </r>
       <r>   -46.3231     0.0000     6.0000 </r>
       <r>   -46.0519     0.0000     6.0000 </r>
       <r>   -45.7807     0.0000     6.0000 </r>
       <r>   -45.5095     0.0000     6.0000 </r>
       <r>   -45.2384     0.0000     6.0000 </r>
       <r>   -44.9672     0.0000     6.0000 </r>
       <r>   -44.6960     0.0000     6.0000 </r>
       <r>   -44.4248     0.0000     6.0000 </r>
       <r>   -44.1536     0.0000     6.0000 </r>
       <r>   -43.8825     0.0000     6.0000 </r>
       <r>   -43.6113     0.0000     6.0000 </r>
       <r>   -43.3401     0.0000     6.0000 </r>
       <r>   -43.0689     0.0000     6.0000 </r>
       <r>   -42.7977     0.0000     6.0000 </r>
       <r>   -42.5266     0.0000     6.0000 </r>
       <r>   -42.2554     0.0000     6.0000 </r>
       <r>   -41.9842     0.0000     6.0000 </r>
       <r>   -41.7130     0.0000     6.0000 </r>
       <r>   -41.4418     0.0000     6.0000 </r>
       <r>   -41.1707     0.0000     6.0000 </r>
       <r>   -40.8995     0.0000     6.0000 </r>
       <r>   -40.6283     0.0000     6.0000 </r>
       <r>   -40.3571     0.0000     6.0000 </r>
       <r>   -40.0859     0.0000     6.0000 </r>
       <r>   -39.8147     0.0000     6.0000 </r>
       <r>   -39.5436     0.0000     6.0000 </r>
       <r>   -39.2724     0.0000     6.0000 </r>
       <r>   -39.0012     0.0000     6.0000 </r>
       <r>   -38.7300     0.0000     6.0000 </r>
       <r>   -38.4588     0.0000     6.0000 </r>
       <r>   -38.1877     0.0000     6.0000 </r>
       <r>   -37.9165     0.0000     6.0000 </r>
       <r>   -37.6453     0.0000     6.0000 </r>
       <r>   -37.3741     0.0000     6.0000 </r>
       <r>   -37.1029     0.0000     6.0000 </r>
       <r>   -36.8318     0.0000     6.0000 </r>
       <r>   -36.5606     0.0000     6.0000 </r>
       <r>   -36.2894     0.0000     6.0000 </r>
       <r>   -36.0182     0.0000     6.0000 </r>
       <r>   -35.7470     0.0000     6.0000 </r>
       <r>   -35.4759     0.0000     6.0000 </r>
       <r>   -35.2047     0.0000     6.0000 </r>
       <r>   -34.9335     0.0000     6.0000 </r>
       <r>   -34.6623     0.0000     6.0000 </r>
       <r>   -34.3911     0.0000     6.0000 </r>
       <r>   -34.1199     0.0000     6.0000 </r>
       <r>   -33.8488     0.0000     6.0000 </r>
       <r>   -33.5776     0.0000     6.0000 </r>
       <r>   -33.3064     0.0000     6.0000 </r>
       <r>   -33.0352     0.0000     6.0000 </r>
       <r>   -32.7640     0.0000     6.0000 </r>
       <r>   -32.4929     0.0000     6.0000 </r>
       <r>   -32.2217     0.0000     6.0000 </r>
       <r>   -31.9505     0.0000     6.0000 </r>
       <r>   -31.6793     0.0000     6.0000 </r>
       <r>   -31.4081     0.0000     6.0000 </r>
       <r>   -31.1370     0.0000     6.0000 </r>
       <r>   -30.8658     0.0000     6.0000 </r>
       <r>   -30.5946     0.0000     6.0000 </r>
       <r>   -30.3234     0.0000     6.0000 </r>
       <r>   -30.0522     0.0000     6.0000 </r>
       <r>   -29.7810     0.0000     6.0000 </r>
       <r>   -29.5099     0.0000     6.0000 </r>
       <r>   -29.2387     0.0000     6.0000 </r>
       <r>   -28.9675     0.0000     6.0000 </r>
       <r>   -28.6963     0.0000     6.0000 </r>
       <r>   -28.4251     0.0000     6.0000 </r>
       <r>   -28.1540     0.0000     6.0000 </r>
       <r>   -27.8828     0.0000     6.0000 </r>
       <r>   -27.6116     0.0000     6.0000 </r>
       <r>   -27.3404     0.0000     6.0000 </r>
       <r>   -27.0692     0.0000     6.0000 </r>
       <r>   -26.7981     0.0000     6.0000 </r>
       <r>   -26.5269     0.0000     6.0000 </r>
       <r>   -26.2557     0.0000     6.0000 </r>
       <r>   -25.9845     0.0000     6.0000 </r>
       <r>   -25.7133     0.0000     6.0000 </r>
       <r>   -25.4422     0.0000     6.0000 </r>
       <r>   -25.1710     0.0000     6.0000 </r>
       <r>   -24.8998     0.0000     6.0000 </r>
       <r>   -24.6286     0.0000     6.0000 </r>
       <r>   -24.3574     0.0000     6.0000 </r>
       <r>   -24.0862     0.0000     6.0000 </r>
       <r>   -23.8151     0.0000     6.0000 </r>
       <r>   -23.5439     0.0000     6.0000 </r>
       <r>   -23.2727     0.0000     6.0000 </r>
       <r>   -23.0015     0.0000     6.0000 </r>
       <r>   -22.7303     0.0000     6.0000 </r>
       <r>   -22.4592     0.0000     6.0000 </r>
       <r>   -22.1880     0.0000     6.0000 </r>
       <r>   -21.9168     0.0000     6.0000 </r>
       <r>   -21.6456     0.0000     6.0000 </r>
       <r>   -21.3744     0.0000     6.0000 </r>
       <r>   -21.1033     0.0000     6.0000 </r>
       <r>   -20.8321     0.0000     6.0000 </r>
       <r>   -20.5609     0.0000     6.0000 </r>
       <r>   -20.2897     0.0000     6.0000 </r>
       <r>   -20.0185     0.0000     6.0000 </r>
       <r>   -19.7473     0.0000     6.0000 </r>
       <r>   -19.4762     0.0000     6.0000 </r>
       <r>   -19.2050     0.0000     6.0000 </r>
       <r>   -18.9338     0.0000     6.0000 </r>
       <r>   -18.6626     0.0000     6.0000 </r>
       <r>   -18.3914     0.0000     6.0000 </r>
       <r>   -18.1203     0.0000     6.0000 </r>
       <r>   -17.8491     0.0000     6.0000 </r>
       <r>   -17.5779     0.0000     6.0000 </r>
       <r>   -17.3067     0.0000     6.0000 </r>
       <r>   -17.0355     0.0000     6.0000 </r>
       <r>   -16.7644     0.0000     6.0000 </r>
       <r>   -16.4932     0.0000     6.0000 </r>
       <r>   -16.2220     0.0000     6.0000 </r>
       <r>   -15.9508     0.0000     6.0000 </r>
       <r>   -15.6796     0.0000     6.0000 </r>
       <r>   -15.4085     0.0000     6.0000 </r>
       <r>   -15.1373     0.0000     6.0000 </r>
       <r>   -14.8661     0.0000     6.0000 </r>
       <r>   -14.5949     0.0000     6.0000 </r>
       <r>   -14.3237     0.0000     6.0000 </r>
       <r>   -14.0525     0.0000     6.0000 </r>
       <r>   -13.7814     0.0000     6.0000 </r>
       <r>   -13.5102     0.0000     6.0000 </r>
       <r>   -13.2390     0.0000     6.0000 </r>
       <r>   -12.9678     0.0000     6.0000 </r>
       <r>   -12.6966     0.0818     6.0062 </r>
       <r>   -12.4255     0.3169     6.0579 </r>
       <r>   -12.1543     0.6337     6.1828 </r>
       <r>   -11.8831     0.9928     6.4074 </r>
       <r>   -11.6119     2.0466     6.7817 </r>
       <r>   -11.3407     2.7900     7.9742 </r>
       <r>   -11.0696     0.0000     8.0000 </r>
       <r>   -10.7984     0.0000     8.0000 </r>
       <r>   -10.5272     0.0000     8.0000 </r>
       <r>   -10.2560     0.0000     8.0000 </r>
       <r>    -9.9848     0.0000     8.0000 </r>
       <r>    -9.7136     0.0000     8.0000 </r>
       <r>    -9.4425     0.0000     8.0000 </r>
       <r>    -9.1713     0.0000     8.0000 </r>
       <r>    -8.9001     0.0000     8.0000 </r>
       <r>    -8.6289     0.0000     8.0000 </r>
       <r>    -8.3577     0.0000     8.0000 </r>
       <r>    -8.0866     0.0000     8.0000 </r>
       <r>    -7.8154     0.0000     8.0000 </r>
       <r>    -7.5442     0.0000     8.0000 </r>
       <r>    -7.2730     0.0000     8.0000 </r>
       <r>    -7.0018     0.0000     8.0000 </r>
       <r>    -6.7307     0.0000     8.0000 </r>
       <r>    -6.4595     0.0000     8.0000 </r>
       <r>    -6.1883     0.0000     8.0000 </r>
       <r>    -5.9171     0.0000     8.0000 </r>
       <r>    -5.6459     0.0000     8.0000 </r>
       <r>    -5.3748     0.0000     8.0000 </r>
       <r>    -5.1036     0.0000     8.0000 </r>
       <r>    -4.8324     0.0000     8.0000 </r>
       <r>    -4.5612     0.0000     8.0000 </r>
       <r>    -4.2900     0.0000     8.0000 </r>
       <r>    -4.0188     0.0000     8.0000 </r>
       <r>    -3.7477     0.0000     8.0000 </r>
       <r>    -3.4765     0.0000     8.0000 </r>
       <r>    -3.2053     0.0000     8.0000 </r>
       <r>    -2.9341     0.0000     8.0000 </r>
       <r>    -2.6629     0.0000     8.0000 </r>
       <r>    -2.3918     0.0000     8.0000 </r>
       <r>    -2.1206     0.0000     8.0000 </r>
       <r>    -1.8494     0.0000     8.0000 </r>
       <r>    -1.5782     0.0000     8.0000 </r>
       <r>    -1.3070     0.0000     8.0000 </r>
       <r>    -1.0359     0.0861     8.0065 </r>
       <r>    -0.7647     0.5109     8.0745 </r>
       <r>    -0.4935     2.0460     8.3709 </r>
       <r>    -0.2223     0.1260     8.9749 </r>
       <r>     0.0489     0.6660     9.0355 </r>
       <r>     0.3200     3.4216     9.5398 </r>
       <r>     0.5912     2.5651    11.0913 </r>
       <r>     0.8624     1.2540    11.6641 </r>
       <r>     1.1336     0.7511    11.9123 </r>
       <r>     1.4048     1.1694    12.1781 </r>
       <r>     1.6760     1.7226    12.5682 </r>
       <r>     1.9471     1.6218    13.0200 </r>
       <r>     2.2183     3.1403    13.7147 </r>
       <r>     2.4895     1.3715    14.0128 </r>
       <r>     2.7607     2.0309    14.5288 </r>
       <r>     3.0319     2.3196    15.1726 </r>
       <r>     3.3030     2.4403    15.9143 </r>
       <r>     3.5742     2.0275    16.8583 </r>
       <r>     3.8454     3.6065    17.4282 </r>
       <r>     4.1166     4.1161    18.0422 </r>
       <r>     4.3878     5.2437    19.1071 </r>
       <r>     4.6589     0.0101    20.0000 </r>
       <r>     4.9301     3.8396    20.5087 </r>
       <r>     5.2013     2.5826    21.6741 </r>
       <r>     5.4725     0.2093    21.9897 </r>
       <r>     5.7437     0.0000    22.0000 </r>
       <r>     6.0149     0.0000    22.0000 </r>
       <r>     6.2860     0.0000    22.0000 </r>
       <r>     6.5572     0.0000    22.0000 </r>
       <r>     6.8284     0.0000    22.0000 </r>
       <r>     7.0996     0.0000    22.0000 </r>
       <r>     7.3708     0.0000    22.0000 </r>
       <r>     7.6419     0.0000    22.0000 </r>
       <r>     7.9131     0.0000    22.0000 </r>
       <r>     8.1843     0.0000    22.0000 </r>
       <r>     8.4555     0.0000    22.0000 </r>
       <r>     8.7267     0.0000    22.0000 </r>
       <r>     8.9978     0.8784    22.0653 </r>
       <r>     9.2690     2.4445    22.6471 </r>
       <r>     9.5402     5.2935    23.4370 </r>
       <r>     9.8114     0.0399    23.9998 </r>
       <r>    10.0826     0.0153    24.0029 </r>
       <r>    10.3537     0.0284    24.0088 </r>
       <r>    10.6249     0.0426    24.0184 </r>
       <r>    10.8961     0.0578    24.0320 </r>
       <r>    11.1673     0.0742    24.0498 </r>
       <r>    11.4385     0.0917    24.0723 </r>
       <r>    11.7097     0.1107    24.0997 </r>
       <r>    11.9808     0.1375    24.1330 </r>
       <r>    12.2520     0.1771    24.1755 </r>
       <r>    12.5232     0.2269    24.2300 </r>
       <r>    12.7944     0.2841    24.2995 </r>
       <r>    13.0656     0.3419    24.3826 </r>
       <r>    13.3367     0.4052    24.4843 </r>
       <r>    13.6079     0.4681    24.6018 </r>
       <r>    13.8791     0.5875    24.7432 </r>
       <r>    14.1503     0.7823    24.9300 </r>
       <r>    14.4215     0.9190    25.1617 </r>
       <r>    14.6926     0.5760    25.4524 </r>
       <r>    14.9638     0.5504    25.6001 </r>
       <r>    15.2350     0.5954    25.7546 </r>
       <r>    15.5062     0.6067    25.9252 </r>
       <r>    15.7774     0.0431    25.9986 </r>
       <r>    16.0486     0.0000    26.0000 </r>
       <r>    16.3197     0.0000    26.0000 </r>
       <r>    16.5909     0.0000    26.0000 </r>
       <r>    16.8621     0.0000    26.0000 </r>
       <r>    17.1333     0.0000    26.0000 </r>
       <r>    17.4045     0.0000    26.0000 </r>
       <r>    17.6756     0.0000    26.0000 </r>
       <r>    17.9468     0.0000    26.0000 </r>
       <r>    18.2180     0.0000    26.0000 </r>
       <r>    18.4892     0.0000    26.0000 </r>
       <r>    18.7604     0.0000    26.0000 </r>
       <r>    19.0315     0.0000    26.0000 </r>
       <r>    19.3027     0.0000    26.0000 </r>
       <r>    19.5739     0.0000    26.0000 </r>
      </set>
      <set comment="spin 2">
       <r>   -61.7804     0.0000     0.0000 </r>
       <r>   -61.5092     0.0000     0.0000 </r>
       <r>   -61.2381     0.0000     0.0000 </r>
       <r>   -60.9669     0.0000     0.0000 </r>
       <r>   -60.6957     0.0000     0.0000 </r>
       <r>   -60.4245     0.0000     0.0000 </r>
       <r>   -60.1533     0.0000     0.0000 </r>
       <r>   -59.8821     0.0000     0.0000 </r>
       <r>   -59.6110     0.0000     0.0000 </r>
       <r>   -59.3398     0.0000     0.0000 </r>
       <r>   -59.0686     0.0000     0.0000 </r>
       <r>   -58.7974     0.0000     0.0000 </r>
       <r>   -58.5262     0.0000     0.0000 </r>
       <r>   -58.2551     0.0000     0.0000 </r>
       <r>   -57.9839     0.0000     3.0000 </r>
       <r>   -57.7127     0.0000     3.0000 </r>
       <r>   -57.4415     0.0000     3.0000 </r>
       <r>   -57.1703     0.0000     3.0000 </r>
       <r>   -56.8992     0.0000     3.0000 </r>
       <r>   -56.6280     0.0000     3.0000 </r>
       <r>   -56.3568     0.0000     3.0000 </r>
       <r>   -56.0856     0.0000     3.0000 </r>
       <r>   -55.8144     0.0000     6.0000 </r>
       <r>   -55.5432     0.0000     6.0000 </r>
       <r>   -55.2721     0.0000     6.0000 </r>
       <r>   -55.0009     0.0000     6.0000 </r>
       <r>   -54.7297     0.0000     6.0000 </r>
       <r>   -54.4585     0.0000     6.0000 </r>
       <r>   -54.1873     0.0000     6.0000 </r>
       <r>   -53.9162     0.0000     6.0000 </r>
       <r>   -53.6450     0.0000     6.0000 </r>
       <r>   -53.3738     0.0000     6.0000 </r>
       <r>   -53.1026     0.0000     6.0000 </r>
       <r>   -52.8314     0.0000     6.0000 </r>
       <r>   -52.5603     0.0000     6.0000 </r>
       <r>   -52.2891     0.0000     6.0000 </r>
       <r>   -52.0179     0.0000     6.0000 </r>
       <r>   -51.7467     0.0000     6.0000 </r>
       <r>   -51.4755     0.0000     6.0000 </r>
       <r>   -51.2044     0.0000     6.0000 </r>
       <r>   -50.9332     0.0000     6.0000 </r>
       <r>   -50.6620     0.0000     6.0000 </r>
       <r>   -50.3908     0.0000     6.0000 </r>
       <r>   -50.1196     0.0000     6.0000 </r>
       <r>   -49.8484     0.0000     6.0000 </r>
       <r>   -49.5773     0.0000     6.0000 </r>
       <r>   -49.3061     0.0000     6.0000 </r>
       <r>   -49.0349     0.0000     6.0000 </r>
       <r>   -48.7637     0.0000     6.0000 </r>
       <r>   -48.4925     0.0000     6.0000 </r>
       <r>   -48.2214     0.0000     6.0000 </r>
       <r>   -47.9502     0.0000     6.0000 </r>
       <r>   -47.6790     0.0000     6.0000 </r>
       <r>   -47.4078     0.0000     6.0000 </r>
       <r>   -47.1366     0.0000     6.0000 </r>
       <r>   -46.8655     0.0000     6.0000 </r>
       <r>   -46.5943     0.0000     6.0000 </r>
       <r>   -46.3231     0.0000     6.0000 </r>
       <r>   -46.0519     0.0000     6.0000 </r>
       <r>   -45.7807     0.0000     6.0000 </r>
       <r>   -45.5095     0.0000     6.0000 </r>
       <r>   -45.2384     0.0000     6.0000 </r>
       <r>   -44.9672     0.0000     6.0000 </r>
       <r>   -44.6960     0.0000     6.0000 </r>
       <r>   -44.4248     0.0000     6.0000 </r>
       <r>   -44.1536     0.0000     6.0000 </r>
       <r>   -43.8825     0.0000     6.0000 </r>
       <r>   -43.6113     0.0000     6.0000 </r>
       <r>   -43.3401     0.0000     6.0000 </r>
       <r>   -43.0689     0.0000     6.0000 </r>
       <r>   -42.7977     0.0000     6.0000 </r>
       <r>   -42.5266     0.0000     6.0000 </r>
       <r>   -42.2554     0.0000     6.0000 </r>
       <r>   -41.9842     0.0000     6.0000 </r>
       <r>   -41.7130     0.0000     6.0000 </r>
       <r>   -41.4418     0.0000     6.0000 </r>
       <r>   -41.1707     0.0000     6.0000 </r>
       <r>   -40.8995     0.0000     6.0000 </r>
       <r>   -40.6283     0.0000     6.0000 </r>
       <r>   -40.3571     0.0000     6.0000 </r>
       <r>   -40.0859     0.0000     6.0000 </r>
       <r>   -39.8147     0.0000     6.0000 </r>
       <r>   -39.5436     0.0000     6.0000 </r>
       <r>   -39.2724     0.0000     6.0000 </r>
       <r>   -39.0012     0.0000     6.0000 </r>
       <r>   -38.7300     0.0000     6.0000 </r>
       <r>   -38.4588     0.0000     6.0000 </r>
       <r>   -38.1877     0.0000     6.0000 </r>
       <r>   -37.9165     0.0000     6.0000 </r>
       <r>   -37.6453     0.0000     6.0000 </r>
       <r>   -37.3741     0.0000     6.0000 </r>
       <r>   -37.1029     0.0000     6.0000 </r>
       <r>   -36.8318     0.0000     6.0000 </r>
       <r>   -36.5606     0.0000     6.0000 </r>
       <r>   -36.2894     0.0000     6.0000 </r>
       <r>   -36.0182     0.0000     6.0000 </r>
       <r>   -35.7470     0.0000     6.0000 </r>
       <r>   -35.4759     0.0000     6.0000 </r>
       <r>   -35.2047     0.0000     6.0000 </r>
       <r>   -34.9335     0.0000     6.0000 </r>
       <r>   -34.6623     0.0000     6.0000 </r>
       <r>   -34.3911     0.0000     6.0000 </r>
       <r>   -34.1199     0.0000     6.0000 </r>
       <r>   -33.8488     0.0000     6.0000 </r>
       <r>   -33.5776     0.0000     6.0000 </r>
       <r>   -33.3064     0.0000     6.0000 </r>
       <r>   -33.0352     0.0000     6.0000 </r>
       <r>   -32.7640     0.0000     6.0000 </r>
       <r>   -32.4929     0.0000     6.0000 </r>
       <r>   -32.2217     0.0000     6.0000 </r>
       <r>   -31.9505     0.0000     6.0000 </r>
       <r>   -31.6793     0.0000     6.0000 </r>
       <r>   -31.4081     0.0000     6.0000 </r>
       <r>   -31.1370     0.0000     6.0000 </r>
       <r>   -30.8658     0.0000     6.0000 </r>
       <r>   -30.5946     0.0000     6.0000 </r>
       <r>   -30.3234     0.0000     6.0000 </r>
       <r>   -30.0522     0.0000     6.0000 </r>
       <r>   -29.7810     0.0000     6.0000 </r>
       <r>   -29.5099     0.0000     6.0000 </r>
       <r>   -29.2387     0.0000     6.0000 </r>
       <r>   -28.9675     0.0000     6.0000 </r>
       <r>   -28.6963     0.0000     6.0000 </r>
       <r>   -28.4251     0.0000     6.0000 </r>
       <r>   -28.1540     0.0000     6.0000 </r>
       <r>   -27.8828     0.0000     6.0000 </r>
       <r>   -27.6116     0.0000     6.0000 </r>
       <r>   -27.3404     0.0000     6.0000 </r>
       <r>   -27.0692     0.0000     6.0000 </r>
       <r>   -26.7981     0.0000     6.0000 </r>
       <r>   -26.5269     0.0000     6.0000 </r>
       <r>   -26.2557     0.0000     6.0000 </r>
       <r>   -25.9845     0.0000     6.0000 </r>
       <r>   -25.7133     0.0000     6.0000 </r>
       <r>   -25.4422     0.0000     6.0000 </r>
       <r>   -25.1710     0.0000     6.0000 </r>
       <r>   -24.8998     0.0000     6.0000 </r>
       <r>   -24.6286     0.0000     6.0000 </r>
       <r>   -24.3574     0.0000     6.0000 </r>
       <r>   -24.0862     0.0000     6.0000 </r>
       <r>   -23.8151     0.0000     6.0000 </r>
       <r>   -23.5439     0.0000     6.0000 </r>
       <r>   -23.2727     0.0000     6.0000 </r>
       <r>   -23.0015     0.0000     6.0000 </r>
       <r>   -22.7303     0.0000     6.0000 </r>
       <r>   -22.4592     0.0000     6.0000 </r>
       <r>   -22.1880     0.0000     6.0000 </r>
       <r>   -21.9168     0.0000     6.0000 </r>
       <r>   -21.6456     0.0000     6.0000 </r>
       <r>   -21.3744     0.0000     6.0000 </r>
       <r>   -21.1033     0.0000     6.0000 </r>
       <r>   -20.8321     0.0000     6.0000 </r>
       <r>   -20.5609     0.0000     6.0000 </r>
       <r>   -20.2897     0.0000     6.0000 </r>
       <r>   -20.0185     0.0000     6.0000 </r>
       <r>   -19.7473     0.0000     6.0000 </r>
       <r>   -19.4762     0.0000     6.0000 </r>
       <r>   -19.2050     0.0000     6.0000 </r>
       <r>   -18.9338     0.0000     6.0000 </r>
       <r>   -18.6626     0.0000     6.0000 </r>
       <r>   -18.3914     0.0000     6.0000 </r>
       <r>   -18.1203     0.0000     6.0000 </r>
       <r>   -17.8491     0.0000     6.0000 </r>
       <r>   -17.5779     0.0000     6.0000 </r>
       <r>   -17.3067     0.0000     6.0000 </r>
       <r>   -17.0355     0.0000     6.0000 </r>
       <r>   -16.7644     0.0000     6.0000 </r>
       <r>   -16.4932     0.0000     6.0000 </r>
       <r>   -16.2220     0.0000     6.0000 </r>
       <r>   -15.9508     0.0000     6.0000 </r>
       <r>   -15.6796     0.0000     6.0000 </r>
       <r>   -15.4085     0.0000     6.0000 </r>
       <r>   -15.1373     0.0000     6.0000 </r>
       <r>   -14.8661     0.0000     6.0000 </r>
       <r>   -14.5949     0.0000     6.0000 </r>
       <r>   -14.3237     0.0000     6.0000 </r>
       <r>   -14.0525     0.0000     6.0000 </r>
       <r>   -13.7814     0.0000     6.0000 </r>
       <r>   -13.5102     0.0000     6.0000 </r>
       <r>   -13.2390     0.0000     6.0000 </r>
       <r>   -12.9678     0.0000     6.0000 </r>
       <r>   -12.6966     0.0818     6.0062 </r>
       <r>   -12.4255     0.3169     6.0579 </r>
       <r>   -12.1543     0.6337     6.1828 </r>
       <r>   -11.8831     0.9928     6.4074 </r>
       <r>   -11.6119     2.0466     6.7817 </r>
       <r>   -11.3407     2.7900     7.9742 </r>
       <r>   -11.0696     0.0000     8.0000 </r>
       <r>   -10.7984     0.0000     8.0000 </r>
       <r>   -10.5272     0.0000     8.0000 </r>
       <r>   -10.2560     0.0000     8.0000 </r>
       <r>    -9.9848     0.0000     8.0000 </r>
       <r>    -9.7136     0.0000     8.0000 </r>
       <r>    -9.4425     0.0000     8.0000 </r>
       <r>    -9.1713     0.0000     8.0000 </r>
       <r>    -8.9001     0.0000     8.0000 </r>
       <r>    -8.6289     0.0000     8.0000 </r>
       <r>    -8.3577     0.0000     8.0000 </r>
       <r>    -8.0866     0.0000     8.0000 </r>
       <r>    -7.8154     0.0000     8.0000 </r>
       <r>    -7.5442     0.0000     8.0000 </r>
       <r>    -7.2730     0.0000     8.0000 </r>
       <r>    -7.0018     0.0000     8.0000 </r>
       <r>    -6.7307     0.0000     8.0000 </r>
       <r>    -6.4595     0.0000     8.0000 </r>
       <r>    -6.1883     0.0000     8.0000 </r>
       <r>    -5.9171     0.0000     8.0000 </r>
       <r>    -5.6459     0.0000     8.0000 </r>
       <r>    -5.3748     0.0000     8.0000 </r>
       <r>    -5.1036     0.0000     8.0000 </r>
       <r>    -4.8324     0.0000     8.0000 </r>
       <r>    -4.5612     0.0000     8.0000 </r>
       <r>    -4.2900     0.0000     8.0000 </r>
       <r>    -4.0188     0.0000     8.0000 </r>
       <r>    -3.7477     0.0000     8.0000 </r>
       <r>    -3.4765     0.0000     8.0000 </r>
       <r>    -3.2053     0.0000     8.0000 </r>
       <r>    -2.9341     0.0000     8.0000 </r>
       <r>    -2.6629     0.0000     8.0000 </r>
       <r>    -2.3918     0.0000     8.0000 </r>
       <r>    -2.1206     0.0000     8.0000 </r>
       <r>    -1.8494     0.0000     8.0000 </r>
       <r>    -1.5782     0.0000     8.0000 </r>
       <r>    -1.3070     0.0000     8.0000 </r>
       <r>    -1.0359     0.0861     8.0065 </r>
       <r>    -0.7647     0.5109     8.0745 </r>
       <r>    -0.4935     2.0460     8.3709 </r>
       <r>    -0.2223     0.1260     8.9749 </r>
       <r>     0.0489     0.6660     9.0355 </r>
       <r>     0.3200     3.4216     9.5398 </r>
       <r>     0.5912     2.5651    11.0913 </r>
       <r>     0.8624     1.2540    11.6641 </r>
[...]
        <r>  0.0000  0.0000  0.0000  0.0000  0.0000  0.0000  0.0000  0.0000  0.0000 </r>
       </set>
       <set comment="band 6">
        <r>  0.0000  0.5602  0.2181  0.2181  0.0000  0.0000  0.0000  0.0000  0.0000 </r>
        <r>  0.0000  0.0000  0.0000  0.0000  0.0000  0.0000  0.0000  0.0000  0.0000 </r>
        <r>  0.0000  0.0000  0.0000  0.0000  0.0000  0.0000  0.0000  0.0000  0.0000 </r>
        <r>  0.0000  0.0000  0.0000  0.0000  0.0000  0.0000  0.0000  0.0000  0.0000 </r>
       </set>
       <set comment="band 7">
        <r>  0.0041  0.0000  0.0039  0.0039  0.0000  0.0000  0.0009  0.0000  0.0026 </r>
        <r>  0.0000  0.0037  0.0000  0.0000  0.0000  0.0000  0.0159  0.0000  0.0053 </r>
        <r>  0.3806  0.0000  0.0001  0.0001  0.0000  0.0000  0.0000  0.0000  0.0000 </r>
        <r>  0.3806  0.0000  0.0001  0.0001  0.0000  0.0000  0.0000  0.0000  0.0000 </r>
       </set>
       <set comment="band 8">
        <r>  0.0000  0.0036  0.0000  0.0000  0.0000  0.0000  0.0080  0.0000  0.0027 </r>
        <r>  0.0044  0.0000  0.0041  0.0041  0.0000  0.0000  0.0018  0.0000  0.0054 </r>
        <r>  0.3834  0.0000  0.0001  0.0001  0.0000  0.0000  0.0000  0.0000  0.0000 </r>
        <r>  0.3834  0.0000  0.0001  0.0001  0.0000  0.0000  0.0000  0.0000  0.0000 </r>
       </set>
       <set comment="band 9">
        <r>  0.0475  0.0000  0.0045  0.0045  0.0006  0.0006  0.0001  0.0341  0.0004 </r>
        <r>  0.0000  0.0024  0.0101  0.0101  0.0598  0.0598  0.0815  0.0000  0.0272 </r>
        <r>  0.0002  0.0262  0.0676  0.0676  0.0000  0.0000  0.0000  0.0000  0.0000 </r>
        <r>  0.0002  0.0262  0.0676  0.0676  0.0000  0.0000  0.0000  0.0000  0.0000 </r>
       </set>
       <set comment="band 10">
        <r>  0.0000  0.0012  0.0119  0.0119  0.0324  0.0324  0.0019  0.0000  0.0006 </r>
        <r>  0.0553  0.0000  0.0026  0.0026  0.0001  0.0001  0.0195  0.0891  0.0586 </r>
        <r>  0.0011  0.0103  0.0786  0.0786  0.0000  0.0000  0.0000  0.0000  0.0000 </r>
        <r>  0.0011  0.0103  0.0786  0.0786  0.0000  0.0000  0.0000  0.0000  0.0000 </r>
       </set>
       <set comment="band 11">
        <r>  0.0116  0.0000  0.0053  0.0053  0.0185  0.0185  0.0000  0.0055  0.0001 </r>
        <r>  0.0000  0.0034  0.0004  0.0004  0.0489  0.0489  0.3020  0.0000  0.1007 </r>
        <r>  0.0039  0.0197  0.0473  0.0473  0.0000  0.0000  0.0000  0.0000  0.0000 </r>
        <r>  0.0039  0.0197  0.0473  0.0473  0.0000  0.0000  0.0000  0.0000  0.0000 </r>
       </set>
       <set comment="band 12">
        <r>  0.0000  0.0096  0.0000  0.0000  0.0305  0.0305  0.0000  0.0000  0.0000 </r>
        <r>  0.0115  0.0000  0.0003  0.0003  0.0058  0.0058  0.1291  0.0000  0.3874 </r>
        <r>  0.0022  0.1064  0.0008  0.0008  0.0000  0.0000  0.0000  0.0000  0.0000 </r>
        <r>  0.0022  0.1064  0.0008  0.0008  0.0000  0.0000  0.0000  0.0000  0.0000 </r>
       </set>
       <set comment="band 13">
        <r>  0.0000  0.0001  0.0001  0.0001  0.0119  0.0119  0.0302  0.0000  0.0101 </r>
        <r>  0.0002  0.0000  0.0101  0.0101  0.2127  0.2127  0.0128  0.0005  0.0383 </r>
        <r>  0.0012  0.0001  0.0583  0.0583  0.0000  0.0000  0.0000  0.0000  0.0000 </r>
        <r>  0.0012  0.0001  0.0583  0.0583  0.0000  0.0000  0.0000  0.0000  0.0000 </r>
       </set>
       <set comment="band 14">
        <r>  0.0026  0.0000  0.0006  0.0006  0.0127  0.0127  0.0134  0.0865  0.0402 </r>
        <r>  0.0000  0.0075  0.0054  0.0054  0.1203  0.1203  0.0612  0.0000  0.0204 </r>
        <r>  0.0030  0.0636  0.0406  0.0406  0.0000  0.0000  0.0000  0.0000  0.0000 </r>
        <r>  0.0030  0.0636  0.0406  0.0406  0.0000  0.0000  0.0000  0.0000  0.0000 </r>
       </set>
       <set comment="band 15">
        <r>  0.0000  0.0009  0.0001  0.0001  0.0441  0.0441  0.0041  0.0000  0.0014 </r>
        <r>  0.0015  0.0000  0.0011  0.0011  0.0041  0.0041  0.0131  0.7428  0.0393 </r>
        <r>  0.0001  0.0054  0.0085  0.0085  0.0000  0.0000  0.0000  0.0000  0.0000 </r>
        <r>  0.0001  0.0054  0.0085  0.0085  0.0000  0.0000  0.0000  0.0000  0.0000 </r>
       </set>
       <set comment="band 16">
        <r>  0.0000  0.0010  0.0001  0.0001  0.0046  0.0046  0.0385  0.0000  0.0128 </r>
        <r>  0.0043  0.0000  0.0077  0.0077  0.2397  0.2397  0.0045  0.0203  0.0134 </r>
        <r>  0.0001  0.0100  0.0625  0.0625  0.0000  0.0000  0.0000  0.0000  0.0000 </r>
        <r>  0.0001  0.0100  0.0625  0.0625  0.0000  0.0000  0.0000  0.0000  0.0000 </r>
       </set>
       <set comment="band 17">
        <r>  0.0081  0.0000  0.0008  0.0008  0.2040  0.2040  0.0089  0.0107  0.0266 </r>
        <r>  0.0000  0.0074  0.0002  0.0002  0.0423  0.0423  0.0555  0.0000  0.0185 </r>
        <r>  0.0028  0.1068  0.0039  0.0039  0.0000  0.0000  0.0000  0.0000  0.0000 </r>
        <r>  0.0028  0.1068  0.0039  0.0039  0.0000  0.0000  0.0000  0.0000  0.0000 </r>
       </set>
       <set comment="band 18">
        <r>  0.0116  0.0000  0.0013  0.0013  0.1253  0.1253  0.0045  0.0201  0.0134 </r>
        <r>  0.0000  0.0051  0.0000  0.0000  0.1909  0.1909  0.0488  0.0000  0.0163 </r>
        <r>  0.0007  0.0661  0.0064  0.0064  0.0000  0.0000  0.0000  0.0000  0.0000 </r>
        <r>  0.0007  0.0661  0.0064  0.0064  0.0000  0.0000  0.0000  0.0000  0.0000 </r>
       </set>
       <set comment="band 19">
        <r>  0.0000  0.0001  0.0028  0.0028  0.2935  0.2935  0.0020  0.0000  0.0007 </r>
        <r>  0.0213  0.0000  0.0000  0.0000  0.0082  0.0082  0.0083  0.0947  0.0248 </r>
        <r>  0.0016  0.0021  0.0370  0.0370  0.0000  0.0000  0.0000  0.0000  0.0000 </r>
        <r>  0.0016  0.0021  0.0370  0.0370  0.0000  0.0000  0.0000  0.0000  0.0000 </r>
       </set>
       <set comment="band 20">
        <r>  0.0065  0.0000  0.0007  0.0007  0.0176  0.0176  0.0023  0.7855  0.0070 </r>
        <r>  0.0000  0.0001  0.0019  0.0019  0.0085  0.0085  0.0065  0.0000  0.0022 </r>
        <r>  0.0007  0.0006  0.0203  0.0203  0.0000  0.0000  0.0000  0.0000  0.0000 </r>
        <r>  0.0007  0.0006  0.0203  0.0203  0.0000  0.0000  0.0000  0.0000  0.0000 </r>
       </set>
       <set comment="band 21">
        <r>  0.0025  0.0000  0.0123  0.0123  0.0905  0.0905  0.0012  0.0253  0.0035 </r>
        <r>  0.0000  0.0001  0.0000  0.0000  0.0002  0.0002  0.1681  0.0000  0.0560 </r>
        <r>  0.0061  0.0013  0.0957  0.0957  0.0000  0.0000  0.0000  0.0000  0.0000 </r>
        <r>  0.0061  0.0013  0.0957  0.0957  0.0000  0.0000  0.0000  0.0000  0.0000 </r>
       </set>
       <set comment="band 22">
        <r>  0.0000  0.0173  0.0036  0.0036  0.0495  0.0495  0.0015  0.0000  0.0005 </r>
        <r>  0.0021  0.0000  0.0000  0.0000  0.0014  0.0014  0.0572  0.0221  0.1715 </r>
        <r>  0.0019  0.1829  0.0247  0.0247  0.0000  0.0000  0.0000  0.0000  0.0000 </r>
        <r>  0.0019  0.1829  0.0247  0.0247  0.0000  0.0000  0.0000  0.0000  0.0000 </r>
       </set>
       <set comment="band 23">
        <r>  0.0000  0.0000  0.0000  0.0000  0.0000  0.0000  0.2076  0.0007  0.6227 </r>
        <r>  0.0000  0.0081  0.0017  0.0017  0.0002  0.0002  0.0000  0.0000  0.0000 </r>
        <r>  0.0048  0.0338  0.0064  0.0064  0.0000  0.0000  0.0000  0.0000  0.0000 </r>
        <r>  0.0048  0.0338  0.0064  0.0064  0.0000  0.0000  0.0000  0.0000  0.0000 </r>
       </set>
       <set comment="band 24">
        <r>  0.0000  0.0001  0.0000  0.0000  0.0001  0.0001  0.6236  0.0000  0.2079 </r>
        <r>  0.0000  0.0000  0.0068  0.0068  0.0008  0.0008  0.0000  0.0000  0.0000 </r>
        <r>  0.0144  0.0001  0.0165  0.0165  0.0000  0.0000  0.0000  0.0000  0.0000 </r>
        <r>  0.0144  0.0001  0.0165  0.0165  0.0000  0.0000  0.0000  0.0000  0.0000 </r>
       </set>
       <set comment="band 25">
        <r>  0.0000  0.0395  0.0037  0.0037  0.0015  0.0015  0.0121  0.0000  0.0040 </r>
        <r>  0.2563  0.0000  0.0188  0.0188  0.0035  0.0035  0.0005  0.0005  0.0014 </r>
        <r>  0.0261  0.0067  0.0451  0.0451  0.0000  0.0000  0.0000  0.0000  0.0000 </r>
        <r>  0.0261  0.0067  0.0451  0.0451  0.0000  0.0000  0.0000  0.0000  0.0000 </r>
       </set>
       <set comment="band 26">
        <r>  0.2188  0.0000  0.0233  0.0233  0.0049  0.0049  0.0014  0.0007  0.0043 </r>
        <r>  0.0000  0.0451  0.0036  0.0036  0.0016  0.0016  0.0047  0.0000  0.0016 </r>
        <r>  0.0298  0.0033  0.0445  0.0445  0.0000  0.0000  0.0000  0.0000  0.0000 </r>
        <r>  0.0298  0.0033  0.0445  0.0445  0.0000  0.0000  0.0000  0.0000  0.0000 </r>
       </set>
      </set>
      <set comment="kpoint 13">
       <set comment="band 1">
        <r>  0.0000  0.0000  0.0000  0.0000  0.0000  0.0000  0.0000  0.0000  0.0000 </r>
        <r>  0.0000  0.3320  0.3320  0.3320  0.0000  0.0000  0.0000  0.0000  0.0000 </r>
        <r>  0.0000  0.0000  0.0000  0.0000  0.0000  0.0000  0.0000  0.0000  0.0000 </r>
        <r>  0.0000  0.0000  0.0000  0.0000  0.0000  0.0000  0.0000  0.0000  0.0000 </r>
       </set>
       <set comment="band 2">
        <r>  0.0000  0.0000  0.0000  0.0000  0.0000  0.0000  0.0000  0.0000  0.0000 </r>
        <r>  0.0000  0.0759  0.3846  0.5359  0.0000  0.0000  0.0000  0.0000  0.0000 </r>
        <r>  0.0000  0.0000  0.0000  0.0000  0.0000  0.0000  0.0000  0.0000  0.0000 </r>
        <r>  0.0000  0.0000  0.0000  0.0000  0.0000  0.0000  0.0000  0.0000  0.0000 </r>
       </set>
       <set comment="band 3">
        <r>  0.0000  0.0000  0.0000  0.0000  0.0000  0.0000  0.0000  0.0000  0.0000 </r>
        <r>  0.0000  0.5883  0.2797  0.1283  0.0000  0.0000  0.0000  0.0000  0.0000 </r>
        <r>  0.0000  0.0000  0.0000  0.0000  0.0000  0.0000  0.0000  0.0000  0.0000 </r>
        <r>  0.0000  0.0000  0.0000  0.0000  0.0000  0.0000  0.0000  0.0000  0.0000 </r>
       </set>
       <set comment="band 4">
        <r>  0.0000  0.3321  0.3321  0.3321  0.0000  0.0000  0.0000  0.0000  0.0000 </r>
        <r>  0.0000  0.0000  0.0000  0.0000  0.0000  0.0000  0.0000  0.0000  0.0000 </r>
        <r>  0.0000  0.0000  0.0000  0.0000  0.0000  0.0000  0.0000  0.0000  0.0000 </r>
        <r>  0.0000  0.0000  0.0000  0.0000  0.0000  0.0000  0.0000  0.0000  0.0000 </r>
       </set>
       <set comment="band 5">
        <r>  0.0000  0.6345  0.2421  0.1202  0.0000  0.0000  0.0000  0.0000  0.0000 </r>
        <r>  0.0000  0.0000  0.0000  0.0000  0.0000  0.0000  0.0000  0.0000  0.0000 </r>
        <r>  0.0000  0.0000  0.0000  0.0000  0.0000  0.0000  0.0000  0.0000  0.0000 </r>
        <r>  0.0000  0.0000  0.0000  0.0000  0.0000  0.0000  0.0000  0.0000  0.0000 </r>
       </set>
       <set comment="band 6">
        <r>  0.0000  0.0301  0.4224  0.5443  0.0000  0.0000  0.0000  0.0000  0.0000 </r>
        <r>  0.0000  0.0000  0.0000  0.0000  0.0000  0.0000  0.0000  0.0000  0.0000 </r>
        <r>  0.0000  0.0000  0.0000  0.0000  0.0000  0.0000  0.0000  0.0000  0.0000 </r>
        <r>  0.0000  0.0000  0.0000  0.0000  0.0000  0.0000  0.0000  0.0000  0.0000 </r>
       </set>
       <set comment="band 7">
        <r>  0.0000  0.0034  0.0034  0.0034  0.0000  0.0000  0.0000  0.0000  0.0000 </r>
        <r>  0.0366  0.0000  0.0000  0.0000  0.0000  0.0000  0.0000  0.0000  0.0000 </r>
        <r>  0.3520  0.0003  0.0003  0.0003  0.0000  0.0000  0.0000  0.0000  0.0000 </r>
        <r>  0.3520  0.0003  0.0003  0.0003  0.0000  0.0000  0.0000  0.0000  0.0000 </r>
       </set>
       <set comment="band 8">
        <r>  0.0350  0.0000  0.0000  0.0000  0.0000  0.0000  0.0000  0.0000  0.0000 </r>
        <r>  0.0000  0.0036  0.0036  0.0036  0.0000  0.0000  0.0000  0.0000  0.0000 </r>
        <r>  0.3527  0.0002  0.0002  0.0002  0.0000  0.0000  0.0000  0.0000  0.0000 </r>
        <r>  0.3527  0.0002  0.0002  0.0002  0.0000  0.0000  0.0000  0.0000  0.0000 </r>
       </set>
       <set comment="band 9">
        <r>  0.0000  0.0001  0.0005  0.0003  0.0000  0.0000  0.0000  0.0000  0.0000 </r>
        <r>  0.0000  0.0000  0.0000  0.0000  0.0213  0.0104  0.6202  0.0049  0.0902 </r>
        <r>  0.0000  0.0097  0.0424  0.0207  0.0000  0.0000  0.0000  0.0000  0.0000 </r>
        <r>  0.0000  0.0097  0.0424  0.0207  0.0000  0.0000  0.0000  0.0000  0.0000 </r>
       </set>
       <set comment="band 10">
        <r>  0.0000  0.0005  0.0001  0.0003  0.0000  0.0000  0.0000  0.0000  0.0000 </r>
        <r>  0.0000  0.0000  0.0000  0.0000  0.0031  0.0140  0.0902  0.0195  0.6202 </r>
        <r>  0.0000  0.0388  0.0062  0.0278  0.0000  0.0000  0.0000  0.0000  0.0000 </r>
        <r>  0.0000  0.0388  0.0062  0.0278  0.0000  0.0000  0.0000  0.0000  0.0000 </r>
       </set>
       <set comment="band 11">
        <r>  0.0000  0.0017  0.0017  0.0017  0.0000  0.0000  0.0000  0.0000  0.0000 </r>
        <r>  0.0525  0.0000  0.0000  0.0000  0.1331  0.1331  0.0000  0.1331  0.0000 </r>
        <r>  0.0118  0.0431  0.0431  0.0431  0.0000  0.0000  0.0000  0.0000  0.0000 </r>
        <r>  0.0118  0.0431  0.0431  0.0431  0.0000  0.0000  0.0000  0.0000  0.0000 </r>
       </set>
       <set comment="band 12">
        <r>  0.0670  0.0000  0.0000  0.0000  0.0841  0.0841  0.0000  0.0841  0.0000 </r>
        <r>  0.0000  0.0020  0.0020  0.0020  0.0000  0.0000  0.0000  0.0000  0.0000 </r>
        <r>  0.0148  0.0569  0.0569  0.0569  0.0000  0.0000  0.0000  0.0000  0.0000 </r>
        <r>  0.0148  0.0569  0.0569  0.0569  0.0000  0.0000  0.0000  0.0000  0.0000 </r>
       </set>
       <set comment="band 13">
        <r>  0.0000  0.0002  0.0002  0.0000  0.0000  0.0000  0.0000  0.0000  0.0000 </r>
        <r>  0.0000  0.0000  0.0000  0.0000  0.4053  0.0308  0.0456  0.4400  0.0201 </r>
        <r>  0.0000  0.0005  0.0004  0.0000  0.0000  0.0000  0.0000  0.0000  0.0000 </r>
        <r>  0.0000  0.0005  0.0004  0.0000  0.0000  0.0000  0.0000  0.0000  0.0000 </r>
       </set>
       <set comment="band 14">
        <r>  0.0000  0.0001  0.0001  0.0003  0.0000  0.0000  0.0000  0.0000  0.0000 </r>
        <r>  0.0000  0.0000  0.0000  0.0000  0.1788  0.5533  0.0201  0.1441  0.0456 </r>
        <r>  0.0000  0.0002  0.0002  0.0006  0.0000  0.0000  0.0000  0.0000  0.0000 </r>
        <r>  0.0000  0.0002  0.0002  0.0006  0.0000  0.0000  0.0000  0.0000  0.0000 </r>
       </set>
       <set comment="band 15">
        <r>  0.0000  0.0000  0.0000  0.0000  0.0487  0.2709  0.0102  0.1656  0.0576 </r>
        <r>  0.0000  0.0015  0.0005  0.0025  0.0000  0.0000  0.0000  0.0000  0.0000 </r>
        <r>  0.0000  0.0480  0.0141  0.0785  0.0000  0.0000  0.0000  0.0000  0.0000 </r>
        <r>  0.0000  0.0480  0.0141  0.0785  0.0000  0.0000  0.0000  0.0000  0.0000 </r>
       </set>
       <set comment="band 16">
        <r>  0.0000  0.0000  0.0000  0.0000  0.2748  0.0526  0.0576  0.1579  0.0102 </r>
        <r>  0.0000  0.0015  0.0026  0.0005  0.0000  0.0000  0.0000  0.0000  0.0000 </r>
        <r>  0.0000  0.0458  0.0797  0.0153  0.0000  0.0000  0.0000  0.0000  0.0000 </r>
        <r>  0.0000  0.0458  0.0797  0.0153  0.0000  0.0000  0.0000  0.0000  0.0000 </r>
       </set>
       <set comment="band 17">
        <r>  0.0000  0.0002  0.0002  0.0002  0.0000  0.0000  0.0000  0.0000  0.0000 </r>
        <r>  0.0556  0.0000  0.0000  0.0000  0.1777  0.1777  0.0000  0.1777  0.0000 </r>
        <r>  0.0131  0.0402  0.0402  0.0402  0.0000  0.0000  0.0000  0.0000  0.0000 </r>
        <r>  0.0131  0.0402  0.0402  0.0402  0.0000  0.0000  0.0000  0.0000  0.0000 </r>
       </set>
       <set comment="band 18">
        <r>  0.0000  0.0000  0.0000  0.0000  0.2143  0.2111  0.0742  0.0288  0.0306 </r>
        <r>  0.0000  0.0002  0.0012  0.0012  0.0000  0.0000  0.0000  0.0000  0.0000 </r>
        <r>  0.0000  0.0102  0.0756  0.0744  0.0000  0.0000  0.0000  0.0000  0.0000 </r>
        <r>  0.0000  0.0102  0.0756  0.0744  0.0000  0.0000  0.0000  0.0000  0.0000 </r>
       </set>
       <set comment="band 19">
        <r>  0.0000  0.0000  0.0000  0.0000  0.0885  0.0917  0.0306  0.2740  0.0742 </r>
        <r>  0.0000  0.0016  0.0005  0.0005  0.0000  0.0000  0.0000  0.0000  0.0000 </r>
        <r>  0.0000  0.0966  0.0312  0.0324  0.0000  0.0000  0.0000  0.0000  0.0000 </r>
        <r>  0.0000  0.0966  0.0312  0.0324  0.0000  0.0000  0.0000  0.0000  0.0000 </r>
       </set>
       <set comment="band 20">
        <r>  0.0370  0.0000  0.0000  0.0000  0.2235  0.2235  0.0000  0.2235  0.0000 </r>
        <r>  0.0000  0.0000  0.0000  0.0000  0.0000  0.0000  0.0000  0.0000  0.0000 </r>
        <r>  0.0092  0.0272  0.0272  0.0272  0.0000  0.0000  0.0000  0.0000  0.0000 </r>
        <r>  0.0092  0.0272  0.0272  0.0272  0.0000  0.0000  0.0000  0.0000  0.0000 </r>
       </set>
       <set comment="band 21">
        <r>  0.0000  0.0051  0.0016  0.0038  0.0000  0.0000  0.0000  0.0000  0.0000 </r>
        <r>  0.0000  0.0000  0.0000  0.0000  0.0050  0.0120  0.0455  0.0160  0.1559 </r>
        <r>  0.0000  0.1479  0.0458  0.1106  0.0000  0.0000  0.0000  0.0000  0.0000 </r>
        <r>  0.0000  0.1479  0.0458  0.1106  0.0000  0.0000  0.0000  0.0000  0.0000 </r>
       </set>
       <set comment="band 22">
        <r>  0.0000  0.0019  0.0054  0.0032  0.0000  0.0000  0.0000  0.0000  0.0000 </r>
        <r>  0.0000  0.0000  0.0000  0.0000  0.0170  0.0100  0.1559  0.0060  0.0455 </r>
        <r>  0.0000  0.0550  0.1571  0.0923  0.0000  0.0000  0.0000  0.0000  0.0000 </r>
        <r>  0.0000  0.0550  0.1571  0.0923  0.0000  0.0000  0.0000  0.0000  0.0000 </r>
       </set>
       <set comment="band 23">
        <r>  0.0000  0.0000  0.0000  0.0000  0.0009  0.0002  0.5798  0.0008  0.1910 </r>
        <r>  0.0000  0.0034  0.0041  0.0007  0.0000  0.0000  0.0000  0.0000  0.0000 </r>
        <r>  0.0000  0.0332  0.0398  0.0064  0.0000  0.0000  0.0000  0.0000  0.0000 </r>
        <r>  0.0000  0.0332  0.0398  0.0064  0.0000  0.0000  0.0000  0.0000  0.0000 </r>
       </set>
       <set comment="band 24">
        <r>  0.0000  0.0000  0.0000  0.0000  0.0003  0.0011  0.1910  0.0005  0.5798 </r>
        <r>  0.0000  0.0020  0.0013  0.0048  0.0000  0.0000  0.0000  0.0000  0.0000 </r>
        <r>  0.0000  0.0197  0.0131  0.0466  0.0000  0.0000  0.0000  0.0000  0.0000 </r>
        <r>  0.0000  0.0197  0.0131  0.0466  0.0000  0.0000  0.0000  0.0000  0.0000 </r>
       </set>
       <set comment="band 25">
        <r>  0.0000  0.0239  0.0239  0.0239  0.0000  0.0000  0.0000  0.0000  0.0000 </r>
        <r>  0.1722  0.0000  0.0000  0.0000  0.0019  0.0019  0.0000  0.0019  0.0000 </r>
        <r>  0.0799  0.0336  0.0336  0.0336  0.0000  0.0000  0.0000  0.0000  0.0000 </r>
        <r>  0.0799  0.0336  0.0336  0.0336  0.0000  0.0000  0.0000  0.0000  0.0000 </r>
       </set>
       <set comment="band 26">
        <r>  0.1622  0.0000  0.0000  0.0000  0.0023  0.0023  0.0000  0.0023  0.0000 </r>
        <r>  0.0000  0.0263  0.0263  0.0263  0.0000  0.0000  0.0000  0.0000  0.0000 </r>
        <r>  0.0809  0.0328  0.0328  0.0328  0.0000  0.0000  0.0000  0.0000  0.0000 </r>
        <r>  0.0809  0.0328  0.0328  0.0328  0.0000  0.0000  0.0000  0.0000  0.0000 </r>
       </set>
      </set>
     </set>
    </set>
   </array>
  </projected>
 </calculation>
 <structure name="finalpos" >
  <crystal>
   <varray name="basis" >
    <v>       4.17000000       2.08500000       2.08500000 </v>
    <v>       2.08500000       4.17000000       2.08500000 </v>
    <v>       2.08500000       2.08500000       4.17000000 </v>
   </varray>
   <i name="volume">     36.25585650 </i>
   <varray name="rec_basis" >
    <v>       0.35971223      -0.11990408      -0.11990408 </v>
    <v>      -0.11990408       0.35971223      -0.11990408 </v>
    <v>      -0.11990408      -0.11990408       0.35971223 </v>
   </varray>
  </crystal>
  <varray name="positions" >
   <v>       0.00000000       0.00000000       0.00000000 </v>
   <v>       0.50000000       0.50000000       0.50000000 </v>
   <v>       0.25000000       0.25000000       0.25000000 </v>
   <v>       0.75000000       0.75000000       0.75000000 </v>
  </varray>
 </structure>
</modeling>
