   4   4   1   0
  0.9063964E+01  0.5107186E-09  0.5107186E-09  0.5107186E-09  0.5000000E-15
  1.000000000000000E-004
  CAR 
 NiO_af2                                 
     16.44123235    -17.11023558  301      4.83064640      1.00000000
    -17.110  0.0000E+00  0.0000E+00  0.0000E+00  0.0000E+00
    -16.998  0.0000E+00  0.0000E+00  0.0000E+00  0.0000E+00
    -16.887  0.0000E+00  0.0000E+00  0.0000E+00  0.0000E+00
    -16.775 -0.6450E-30 -0.6450E-30 -0.7214E-31 -0.7214E-31
    -16.663 -0.5026E-26 -0.5026E-26 -0.5622E-27 -0.5622E-27
    -16.551 -0.2079E-22 -0.2079E-22 -0.2326E-23 -0.2326E-23
    -16.439 -0.4586E-19 -0.4586E-19 -0.5131E-20 -0.5131E-20
    -16.327 -0.5391E-16 -0.5391E-16 -0.6035E-17 -0.6035E-17
    -16.216 -0.3268E-13 -0.3268E-13 -0.3661E-14 -0.3661E-14
    -16.104 -0.1080E-10 -0.1080E-10 -0.1211E-11 -0.1211E-11
    -15.992 -0.1889E-08 -0.1889E-08 -0.2125E-09 -0.2125E-09
    -15.880 -0.1741E-06 -0.1741E-06 -0.1968E-07 -0.1968E-07
    -15.768 -0.8384E-05 -0.8384E-05 -0.9573E-06 -0.9573E-06
    -15.656 -0.2077E-03 -0.2077E-03 -0.2419E-04 -0.2419E-04
    -15.545 -0.2560E-02 -0.2560E-02 -0.3105E-03 -0.3105E-03
    -15.433 -0.1427E-01 -0.1427E-01 -0.1906E-02 -0.1906E-02
    -15.321 -0.2202E-01 -0.2202E-01 -0.4369E-02 -0.4369E-02
    -15.209  0.8655E-01  0.8655E-01  0.5311E-02  0.5311E-02
    -15.097  0.3787E+00  0.3787E+00  0.4766E-01  0.4766E-01
    -14.985  0.5773E+00  0.5773E+00  0.1122E+00  0.1122E+00
    -14.873  0.4908E+00  0.4908E+00  0.1671E+00  0.1671E+00
    -14.762  0.3332E+00  0.3332E+00  0.2044E+00  0.2044E+00
    -14.650  0.2831E+00  0.2831E+00  0.2360E+00  0.2360E+00
    -14.538  0.4362E+00  0.4362E+00  0.2848E+00  0.2848E+00
    -14.426  0.7286E+00  0.7286E+00  0.3663E+00  0.3663E+00
    -14.314  0.8305E+00  0.8305E+00  0.4592E+00  0.4592E+00
    -14.202  0.7033E+00  0.7033E+00  0.5378E+00  0.5378E+00
    -14.091  0.5614E+00  0.5614E+00  0.6006E+00  0.6006E+00
    -13.979  0.4576E+00  0.4576E+00  0.6518E+00  0.6518E+00
    -13.867  0.8970E+00  0.8970E+00  0.7521E+00  0.7521E+00
    -13.755  0.2806E+01  0.2806E+01  0.1066E+01  0.1066E+01
    -13.643  0.4520E+01  0.4520E+01  0.1571E+01  0.1571E+01
    -13.531  0.3248E+01  0.3248E+01  0.1935E+01  0.1935E+01
    -13.420  0.8434E+00  0.8434E+00  0.2029E+01  0.2029E+01
    -13.308 -0.1156E+00 -0.1156E+00  0.2016E+01  0.2016E+01
    -13.196 -0.1137E+00 -0.1137E+00  0.2003E+01  0.2003E+01
    -13.084 -0.2654E-01 -0.2654E-01  0.2000E+01  0.2000E+01
    -12.972 -0.3030E-02 -0.3030E-02  0.2000E+01  0.2000E+01
    -12.860 -0.1840E-03 -0.1840E-03  0.2000E+01  0.2000E+01
    -12.749 -0.6009E-05 -0.6009E-05  0.2000E+01  0.2000E+01
    -12.637 -0.1051E-06 -0.1051E-06  0.2000E+01  0.2000E+01
    -12.525 -0.9808E-09 -0.9808E-09  0.2000E+01  0.2000E+01
    -12.413 -0.4880E-11 -0.4880E-11  0.2000E+01  0.2000E+01
    -12.301 -0.1290E-13 -0.1290E-13  0.2000E+01  0.2000E+01
    -12.189  0.0000E+00  0.0000E+00  0.2000E+01  0.2000E+01
    -12.078  0.0000E+00  0.0000E+00  0.2000E+01  0.2000E+01
    -11.966  0.0000E+00  0.0000E+00  0.2000E+01  0.2000E+01
    -11.854  0.0000E+00  0.0000E+00  0.2000E+01  0.2000E+01
    -11.742  0.0000E+00  0.0000E+00  0.2000E+01  0.2000E+01
    -11.630  0.0000E+00  0.0000E+00  0.2000E+01  0.2000E+01
    -11.518  0.0000E+00  0.0000E+00  0.2000E+01  0.2000E+01
    -11.406  0.0000E+00  0.0000E+00  0.2000E+01  0.2000E+01
    -11.295  0.0000E+00  0.0000E+00  0.2000E+01  0.2000E+01
    -11.183  0.0000E+00  0.0000E+00  0.2000E+01  0.2000E+01
    -11.071  0.0000E+00  0.0000E+00  0.2000E+01  0.2000E+01
    -10.959  0.0000E+00  0.0000E+00  0.2000E+01  0.2000E+01
    -10.847  0.0000E+00  0.0000E+00  0.2000E+01  0.2000E+01
    -10.735  0.0000E+00  0.0000E+00  0.2000E+01  0.2000E+01
    -10.624  0.0000E+00  0.0000E+00  0.2000E+01  0.2000E+01
    -10.512  0.0000E+00  0.0000E+00  0.2000E+01  0.2000E+01
    -10.400  0.0000E+00  0.0000E+00  0.2000E+01  0.2000E+01
    -10.288  0.0000E+00  0.0000E+00  0.2000E+01  0.2000E+01
    -10.176  0.0000E+00  0.0000E+00  0.2000E+01  0.2000E+01
    -10.064  0.0000E+00  0.0000E+00  0.2000E+01  0.2000E+01
     -9.953  0.0000E+00  0.0000E+00  0.2000E+01  0.2000E+01
     -9.841  0.0000E+00  0.0000E+00  0.2000E+01  0.2000E+01
     -9.729  0.0000E+00  0.0000E+00  0.2000E+01  0.2000E+01
     -9.617  0.0000E+00  0.0000E+00  0.2000E+01  0.2000E+01
     -9.505  0.0000E+00  0.0000E+00  0.2000E+01  0.2000E+01
     -9.393  0.0000E+00  0.0000E+00  0.2000E+01  0.2000E+01
     -9.282  0.0000E+00  0.0000E+00  0.2000E+01  0.2000E+01
     -9.170  0.0000E+00  0.0000E+00  0.2000E+01  0.2000E+01
     -9.058  0.0000E+00  0.0000E+00  0.2000E+01  0.2000E+01
     -8.946  0.0000E+00  0.0000E+00  0.2000E+01  0.2000E+01
     -8.834  0.0000E+00  0.0000E+00  0.2000E+01  0.2000E+01
     -8.722  0.0000E+00  0.0000E+00  0.2000E+01  0.2000E+01
     -8.611  0.0000E+00  0.0000E+00  0.2000E+01  0.2000E+01
     -8.499  0.0000E+00  0.0000E+00  0.2000E+01  0.2000E+01
     -8.387  0.0000E+00  0.0000E+00  0.2000E+01  0.2000E+01
     -8.275  0.0000E+00  0.0000E+00  0.2000E+01  0.2000E+01
     -8.163  0.0000E+00  0.0000E+00  0.2000E+01  0.2000E+01
     -8.051  0.0000E+00  0.0000E+00  0.2000E+01  0.2000E+01
     -7.940  0.0000E+00  0.0000E+00  0.2000E+01  0.2000E+01
     -7.828  0.0000E+00  0.0000E+00  0.2000E+01  0.2000E+01
     -7.716  0.0000E+00  0.0000E+00  0.2000E+01  0.2000E+01
     -7.604  0.0000E+00  0.0000E+00  0.2000E+01  0.2000E+01
     -7.492  0.0000E+00  0.0000E+00  0.2000E+01  0.2000E+01
     -7.380  0.0000E+00  0.0000E+00  0.2000E+01  0.2000E+01
     -7.268  0.0000E+00  0.0000E+00  0.2000E+01  0.2000E+01
     -7.157  0.0000E+00  0.0000E+00  0.2000E+01  0.2000E+01
     -7.045  0.0000E+00  0.0000E+00  0.2000E+01  0.2000E+01
     -6.933  0.0000E+00  0.0000E+00  0.2000E+01  0.2000E+01
     -6.821  0.0000E+00  0.0000E+00  0.2000E+01  0.2000E+01
     -6.709  0.0000E+00  0.0000E+00  0.2000E+01  0.2000E+01
     -6.597  0.0000E+00  0.0000E+00  0.2000E+01  0.2000E+01
     -6.486  0.0000E+00  0.0000E+00  0.2000E+01  0.2000E+01
     -6.374  0.0000E+00  0.0000E+00  0.2000E+01  0.2000E+01
     -6.262  0.0000E+00  0.0000E+00  0.2000E+01  0.2000E+01
     -6.150  0.0000E+00  0.0000E+00  0.2000E+01  0.2000E+01
     -6.038  0.0000E+00  0.0000E+00  0.2000E+01  0.2000E+01
     -5.926  0.0000E+00  0.0000E+00  0.2000E+01  0.2000E+01
     -5.815  0.0000E+00  0.0000E+00  0.2000E+01  0.2000E+01
     -5.703  0.0000E+00  0.0000E+00  0.2000E+01  0.2000E+01
     -5.591  0.0000E+00  0.0000E+00  0.2000E+01  0.2000E+01
     -5.479  0.0000E+00  0.0000E+00  0.2000E+01  0.2000E+01
     -5.367  0.0000E+00  0.0000E+00  0.2000E+01  0.2000E+01
     -5.255  0.0000E+00  0.0000E+00  0.2000E+01  0.2000E+01
     -5.144  0.0000E+00  0.0000E+00  0.2000E+01  0.2000E+01
     -5.032  0.0000E+00  0.0000E+00  0.2000E+01  0.2000E+01
     -4.920  0.0000E+00  0.0000E+00  0.2000E+01  0.2000E+01
     -4.808  0.0000E+00  0.0000E+00  0.2000E+01  0.2000E+01
     -4.696  0.0000E+00  0.0000E+00  0.2000E+01  0.2000E+01
     -4.584 -0.5885E-28 -0.5885E-28  0.2000E+01  0.2000E+01
     -4.473 -0.3516E-24 -0.3516E-24  0.2000E+01  0.2000E+01
     -4.361 -0.1121E-20 -0.1121E-20  0.2000E+01  0.2000E+01
     -4.249 -0.1906E-17 -0.1906E-17  0.2000E+01  0.2000E+01
     -4.137 -0.1685E-14 -0.1685E-14  0.2000E+01  0.2000E+01
     -4.025 -0.8042E-12 -0.8042E-12  0.2000E+01  0.2000E+01
     -3.913 -0.2045E-09 -0.2045E-09  0.2000E+01  0.2000E+01
     -3.801 -0.2748E-07 -0.2748E-07  0.2000E+01  0.2000E+01
     -3.690 -0.1941E-05 -0.1941E-05  0.2000E+01  0.2000E+01
     -3.578 -0.7130E-04 -0.7130E-04  0.2000E+01  0.2000E+01
     -3.466 -0.1335E-02 -0.1335E-02  0.2000E+01  0.2000E+01
     -3.354 -0.1212E-01 -0.1212E-01  0.1998E+01  0.1998E+01
     -3.242 -0.4542E-01 -0.4542E-01  0.1993E+01  0.1993E+01
     -3.130 -0.3303E-02 -0.3303E-02  0.1993E+01  0.1993E+01
     -3.019  0.4070E+00  0.4070E+00  0.2039E+01  0.2039E+01
     -2.907  0.1057E+01  0.1057E+01  0.2157E+01  0.2157E+01
     -2.795  0.1216E+01  0.1216E+01  0.2293E+01  0.2293E+01
     -2.683  0.8510E+00  0.8510E+00  0.2388E+01  0.2388E+01
     -2.571  0.5406E+00  0.5406E+00  0.2448E+01  0.2448E+01
     -2.459  0.4345E+00  0.4345E+00  0.2497E+01  0.2497E+01
     -2.348  0.4022E+00  0.4022E+00  0.2542E+01  0.2542E+01
     -2.236  0.3793E+00  0.3793E+00  0.2584E+01  0.2584E+01
     -2.124  0.3657E+00  0.3657E+00  0.2625E+01  0.2625E+01
     -2.012  0.3866E+00  0.3866E+00  0.2668E+01  0.2668E+01
     -1.900  0.5961E+00  0.5961E+00  0.2735E+01  0.2735E+01
     -1.788  0.1347E+01  0.1347E+01  0.2886E+01  0.2886E+01
     -1.677  0.2155E+01  0.2155E+01  0.3127E+01  0.3127E+01
     -1.565  0.1762E+01  0.1762E+01  0.3324E+01  0.3324E+01
     -1.453  0.7477E+00  0.7477E+00  0.3407E+01  0.3407E+01
     -1.341  0.3299E+00  0.3299E+00  0.3444E+01  0.3444E+01
     -1.229  0.3467E+00  0.3467E+00  0.3483E+01  0.3483E+01
     -1.117  0.4598E+00  0.4598E+00  0.3535E+01  0.3535E+01
     -1.006  0.6972E+00  0.6972E+00  0.3613E+01  0.3613E+01
     -0.894  0.9292E+00  0.9292E+00  0.3716E+01  0.3716E+01
     -0.782  0.8273E+00  0.8273E+00  0.3809E+01  0.3809E+01
     -0.670  0.5612E+00  0.5612E+00  0.3872E+01  0.3872E+01
     -0.558  0.5614E+00  0.5614E+00  0.3935E+01  0.3935E+01
     -0.446  0.1080E+01  0.1080E+01  0.4055E+01  0.4055E+01
     -0.335  0.2635E+01  0.2635E+01  0.4350E+01  0.4350E+01
     -0.223  0.4370E+01  0.4370E+01  0.4839E+01  0.4839E+01
     -0.111  0.4127E+01  0.4127E+01  0.5300E+01  0.5300E+01
      0.001  0.2545E+01  0.2545E+01  0.5585E+01  0.5585E+01
      0.113  0.1490E+01  0.1490E+01  0.5752E+01  0.5752E+01
      0.225  0.1221E+01  0.1221E+01  0.5888E+01  0.5888E+01
      0.337  0.1308E+01  0.1308E+01  0.6035E+01  0.6035E+01
      0.448  0.1258E+01  0.1258E+01  0.6175E+01  0.6175E+01
      0.560  0.1027E+01  0.1027E+01  0.6290E+01  0.6290E+01
      0.672  0.1107E+01  0.1107E+01  0.6414E+01  0.6414E+01
      0.784  0.2004E+01  0.2004E+01  0.6638E+01  0.6638E+01
      0.896  0.3157E+01  0.3157E+01  0.6991E+01  0.6991E+01
      1.008  0.2883E+01  0.2883E+01  0.7314E+01  0.7314E+01
      1.119  0.1340E+01  0.1340E+01  0.7463E+01  0.7463E+01
      1.231  0.3868E+00  0.3868E+00  0.7507E+01  0.7507E+01
      1.343  0.2884E+00  0.2884E+00  0.7539E+01  0.7539E+01
      1.455  0.3561E+00  0.3561E+00  0.7579E+01  0.7579E+01
      1.567  0.3666E+00  0.3666E+00  0.7620E+01  0.7620E+01
      1.679  0.3490E+00  0.3490E+00  0.7659E+01  0.7659E+01
      1.790  0.4364E+00  0.4364E+00  0.7708E+01  0.7708E+01
      1.902  0.8339E+00  0.8339E+00  0.7801E+01  0.7801E+01
      2.014  0.1356E+01  0.1356E+01  0.7953E+01  0.7953E+01
      2.126  0.1512E+01  0.1512E+01  0.8122E+01  0.8122E+01
      2.238  0.1240E+01  0.1240E+01  0.8260E+01  0.8260E+01
      2.350  0.7712E+00  0.7712E+00  0.8347E+01  0.8347E+01
      2.461  0.4067E+00  0.4067E+00  0.8392E+01  0.8392E+01
      2.573  0.5700E+00  0.5700E+00  0.8456E+01  0.8456E+01
      2.685  0.1569E+01  0.1569E+01  0.8631E+01  0.8631E+01
      2.797  0.2672E+01  0.2672E+01  0.8930E+01  0.8930E+01
      2.909  0.2475E+01  0.2475E+01  0.9207E+01  0.9207E+01
      3.021  0.1542E+01  0.1542E+01  0.9379E+01  0.9379E+01
      3.132  0.1542E+01  0.1542E+01  0.9552E+01  0.9552E+01
      3.244  0.2813E+01  0.2813E+01  0.9866E+01  0.9866E+01
      3.356  0.4231E+01  0.4231E+01  0.1034E+02  0.1034E+02
      3.468  0.4207E+01  0.4207E+01  0.1081E+02  0.1081E+02
      3.580  0.2786E+01  0.2786E+01  0.1112E+02  0.1112E+02
      3.692  0.1900E+01  0.1900E+01  0.1133E+02  0.1133E+02
      3.804  0.2915E+01  0.2915E+01  0.1166E+02  0.1166E+02
      3.915  0.4687E+01  0.4687E+01  0.1218E+02  0.1218E+02
      4.027  0.5123E+01  0.5123E+01  0.1276E+02  0.1276E+02
      4.139  0.4083E+01  0.4083E+01  0.1321E+02  0.1321E+02
      4.251  0.3210E+01  0.3210E+01  0.1357E+02  0.1357E+02
      4.363  0.4095E+01  0.4095E+01  0.1403E+02  0.1403E+02
      4.475  0.5858E+01  0.5858E+01  0.1469E+02  0.1469E+02
      4.586  0.5976E+01  0.5976E+01  0.1535E+02  0.1535E+02
      4.698  0.4023E+01  0.4023E+01  0.1580E+02  0.1580E+02
      4.810  0.1636E+01  0.1636E+01  0.1599E+02  0.1599E+02
      4.922  0.2758E+00  0.2758E+00  0.1602E+02  0.1602E+02
      5.034 -0.8095E-01 -0.8095E-01  0.1601E+02  0.1601E+02
      5.146 -0.7144E-01 -0.7144E-01  0.1600E+02  0.1600E+02
      5.257 -0.3422E-01 -0.3422E-01  0.1600E+02  0.1600E+02
      5.369  0.3350E-01  0.3350E-01  0.1600E+02  0.1600E+02
      5.481  0.2272E+00  0.2272E+00  0.1603E+02  0.1603E+02
      5.593  0.4379E+00  0.4379E+00  0.1608E+02  0.1608E+02
      5.705  0.5336E+00  0.5336E+00  0.1613E+02  0.1613E+02
      5.817  0.8576E+00  0.8576E+00  0.1623E+02  0.1623E+02
      5.928  0.1560E+01  0.1560E+01  0.1641E+02  0.1641E+02
      6.040  0.1888E+01  0.1888E+01  0.1662E+02  0.1662E+02
      6.152  0.1630E+01  0.1630E+01  0.1680E+02  0.1680E+02
      6.264  0.1436E+01  0.1436E+01  0.1696E+02  0.1696E+02
      6.376  0.1730E+01  0.1730E+01  0.1715E+02  0.1715E+02
      6.488  0.2574E+01  0.2574E+01  0.1744E+02  0.1744E+02
      6.599  0.2974E+01  0.2974E+01  0.1777E+02  0.1777E+02
      6.711  0.1834E+01  0.1834E+01  0.1798E+02  0.1798E+02
      6.823  0.4204E+00  0.4204E+00  0.1803E+02  0.1803E+02
      6.935  0.5603E-01  0.5603E-01  0.1803E+02  0.1803E+02
      7.047  0.1677E+00  0.1677E+00  0.1805E+02  0.1805E+02
      7.159  0.1758E+00  0.1758E+00  0.1807E+02  0.1807E+02
      7.270  0.1310E+00  0.1310E+00  0.1808E+02  0.1808E+02
      7.382  0.1098E+00  0.1098E+00  0.1810E+02  0.1810E+02
      7.494  0.1014E+00  0.1014E+00  0.1811E+02  0.1811E+02
      7.606  0.9538E-01  0.9538E-01  0.1812E+02  0.1812E+02
      7.718  0.9039E-01  0.9039E-01  0.1813E+02  0.1813E+02
      7.830  0.8694E-01  0.8694E-01  0.1814E+02  0.1814E+02
      7.942  0.8471E-01  0.8471E-01  0.1815E+02  0.1815E+02
      8.053  0.8276E-01  0.8276E-01  0.1816E+02  0.1816E+02
      8.165  0.8082E-01  0.8082E-01  0.1817E+02  0.1817E+02
      8.277  0.7968E-01  0.7968E-01  0.1818E+02  0.1818E+02
      8.389  0.7900E-01  0.7900E-01  0.1818E+02  0.1818E+02
      8.501  0.7819E-01  0.7819E-01  0.1819E+02  0.1819E+02
      8.613  0.7720E-01  0.7720E-01  0.1820E+02  0.1820E+02
      8.724  0.7732E-01  0.7732E-01  0.1821E+02  0.1821E+02
      8.836  0.7771E-01  0.7771E-01  0.1822E+02  0.1822E+02
      8.948  0.7832E-01  0.7832E-01  0.1823E+02  0.1823E+02
      9.060  0.7840E-01  0.7840E-01  0.1824E+02  0.1824E+02
      9.172  0.7773E-01  0.7773E-01  0.1825E+02  0.1825E+02
      9.284  0.7457E-01  0.7457E-01  0.1825E+02  0.1825E+02
      9.395  0.8101E-01  0.8101E-01  0.1826E+02  0.1826E+02
      9.507  0.1299E+00  0.1299E+00  0.1828E+02  0.1828E+02
      9.619  0.2266E+00  0.2266E+00  0.1830E+02  0.1830E+02
      9.731  0.2945E+00  0.2945E+00  0.1834E+02  0.1834E+02
      9.843  0.2789E+00  0.2789E+00  0.1837E+02  0.1837E+02
      9.955  0.2295E+00  0.2295E+00  0.1839E+02  0.1839E+02
     10.066  0.2036E+00  0.2036E+00  0.1842E+02  0.1842E+02
     10.178  0.1977E+00  0.1977E+00  0.1844E+02  0.1844E+02
     10.290  0.1996E+00  0.1996E+00  0.1846E+02  0.1846E+02
     10.402  0.2035E+00  0.2035E+00  0.1848E+02  0.1848E+02
     10.514  0.2062E+00  0.2062E+00  0.1851E+02  0.1851E+02
     10.626  0.2140E+00  0.2140E+00  0.1853E+02  0.1853E+02
     10.737  0.3150E+00  0.3150E+00  0.1856E+02  0.1856E+02
     10.849  0.6152E+00  0.6152E+00  0.1863E+02  0.1863E+02
     10.961  0.8727E+00  0.8727E+00  0.1873E+02  0.1873E+02
     11.073  0.7564E+00  0.7564E+00  0.1882E+02  0.1882E+02
     11.185  0.4950E+00  0.4950E+00  0.1887E+02  0.1887E+02
     11.297  0.3715E+00  0.3715E+00  0.1891E+02  0.1891E+02
     11.409  0.3972E+00  0.3972E+00  0.1896E+02  0.1896E+02
     11.520  0.6447E+00  0.6447E+00  0.1903E+02  0.1903E+02
     11.632  0.1081E+01  0.1081E+01  0.1915E+02  0.1915E+02
     11.744  0.1293E+01  0.1293E+01  0.1929E+02  0.1929E+02
     11.856  0.1051E+01  0.1051E+01  0.1941E+02  0.1941E+02
     11.968  0.6125E+00  0.6125E+00  0.1948E+02  0.1948E+02
     12.080  0.3319E+00  0.3319E+00  0.1952E+02  0.1952E+02
     12.191  0.2727E+00  0.2727E+00  0.1955E+02  0.1955E+02
     12.303  0.2850E+00  0.2850E+00  0.1958E+02  0.1958E+02
     12.415  0.2951E+00  0.2951E+00  0.1961E+02  0.1961E+02
     12.527  0.3109E+00  0.3109E+00  0.1965E+02  0.1965E+02
     12.639  0.3589E+00  0.3589E+00  0.1969E+02  0.1969E+02
     12.751  0.4342E+00  0.4342E+00  0.1974E+02  0.1974E+02
     12.862  0.4399E+00  0.4399E+00  0.1979E+02  0.1979E+02
     12.974  0.3019E+00  0.3019E+00  0.1982E+02  0.1982E+02
     13.086  0.1219E+00  0.1219E+00  0.1983E+02  0.1983E+02
     13.198  0.3683E-01  0.3684E-01  0.1984E+02  0.1984E+02
     13.310  0.3080E-01  0.3083E-01  0.1984E+02  0.1984E+02
     13.422  0.3862E-01  0.3861E-01  0.1984E+02  0.1984E+02
     13.533  0.3841E-01  0.3815E-01  0.1985E+02  0.1985E+02
     13.645  0.3205E-01  0.3182E-01  0.1985E+02  0.1985E+02
     13.757  0.3626E-01  0.3645E-01  0.1986E+02  0.1986E+02
     13.869  0.1087E+00  0.1088E+00  0.1987E+02  0.1987E+02
     13.981  0.2557E+00  0.2550E+00  0.1990E+02  0.1990E+02
     14.093  0.3378E+00  0.3368E+00  0.1994E+02  0.1994E+02
     14.204  0.2899E+00  0.2866E+00  0.1997E+02  0.1997E+02
     14.316  0.1830E+00  0.1754E+00  0.1999E+02  0.1999E+02
     14.428  0.8818E-01  0.8648E-01  0.2000E+02  0.2000E+02
     14.540  0.2421E-01  0.3271E-01  0.2000E+02  0.2000E+02
     14.652 -0.2880E-02  0.3340E-02  0.2000E+02  0.2000E+02
     14.764 -0.4042E-02 -0.3478E-02  0.2000E+02  0.2000E+02
     14.875 -0.1025E-02 -0.1527E-02  0.2000E+02  0.2000E+02
     14.987 -0.1126E-03 -0.2547E-03  0.2000E+02  0.2000E+02
     15.099 -0.6030E-05 -0.2045E-04  0.2000E+02  0.2000E+02
     15.211 -0.1643E-06 -0.8375E-06  0.2000E+02  0.2000E+02
     15.323 -0.2321E-08 -0.1788E-07  0.2000E+02  0.2000E+02
     15.435 -0.1719E-10 -0.2007E-09  0.2000E+02  0.2000E+02
     15.547 -0.6706E-13 -0.1190E-11  0.2000E+02  0.2000E+02
     15.658 -0.1489E-15 -0.3733E-14  0.2000E+02  0.2000E+02
     15.770  0.0000E+00 -0.9927E-17  0.2000E+02  0.2000E+02
     15.882  0.0000E+00  0.0000E+00  0.2000E+02  0.2000E+02
     15.994  0.0000E+00  0.0000E+00  0.2000E+02  0.2000E+02
     16.106  0.0000E+00  0.0000E+00  0.2000E+02  0.2000E+02
     16.218  0.0000E+00  0.0000E+00  0.2000E+02  0.2000E+02
     16.329  0.0000E+00  0.0000E+00  0.2000E+02  0.2000E+02
     16.441  0.0000E+00  0.0000E+00  0.2000E+02  0.2000E+02
     16.44123235    -17.11023558  301      4.83064640      1.00000000
    -17.110  0.0000E+00  0.0000E+00  0.0000E+00  0.0000E+00  0.0000E+00  0.0000E+00  0.0000E+00  0.0000E+00  0.0000E+00  0.0000E+00  0.0000E+00  0.0000E+00  0.0000E+00  0.0000E+00  0.0000E+00  0.0000E+00  0.0000E+00  0.0000E+00
    -16.998  0.0000E+00  0.0000E+00  0.0000E+00  0.0000E+00  0.0000E+00  0.0000E+00  0.0000E+00  0.0000E+00  0.0000E+00  0.0000E+00  0.0000E+00  0.0000E+00  0.0000E+00  0.0000E+00  0.0000E+00  0.0000E+00  0.0000E+00  0.0000E+00
    -16.887  0.0000E+00  0.0000E+00  0.0000E+00  0.0000E+00  0.0000E+00  0.0000E+00  0.0000E+00  0.0000E+00  0.0000E+00  0.0000E+00  0.0000E+00  0.0000E+00  0.0000E+00  0.0000E+00  0.0000E+00  0.0000E+00  0.0000E+00  0.0000E+00
    -16.775 -0.3852E-31 -0.3806E-31 -0.1595E-34 -0.1617E-34 -0.2701E-34 -0.2710E-34 -0.2701E-34 -0.2710E-34 -0.5473E-38 -0.4981E-38 -0.5469E-38 -0.4985E-38 -0.8078E-38 -0.7557E-38 -0.5993E-38 -0.8662E-38 -0.2424E-37 -0.2265E-37
    -16.663 -0.3000E-27 -0.2964E-27 -0.1422E-30 -0.1442E-30 -0.2382E-30 -0.2391E-30 -0.2382E-30 -0.2391E-30 -0.4964E-34 -0.4053E-34 -0.4960E-34 -0.4053E-34 -0.8400E-34 -0.7853E-34 -0.5694E-34 -0.7507E-34 -0.2521E-33 -0.2353E-33
    -16.551 -0.1241E-23 -0.1226E-23 -0.6368E-27 -0.6455E-27 -0.1066E-26 -0.1070E-26 -0.1066E-26 -0.1070E-26 -0.2219E-30 -0.1700E-30 -0.2218E-30 -0.1700E-30 -0.4050E-30 -0.3785E-30 -0.2605E-30 -0.3300E-30 -0.1215E-29 -0.1134E-29
    -16.439 -0.2736E-20 -0.2703E-20 -0.1530E-23 -0.1551E-23 -0.2561E-23 -0.2571E-23 -0.2561E-23 -0.2571E-23 -0.5346E-27 -0.3832E-27 -0.5343E-27 -0.3831E-27 -0.1054E-26 -0.9848E-27 -0.6435E-27 -0.7828E-27 -0.3163E-26 -0.2951E-26
    -16.327 -0.3215E-17 -0.3176E-17 -0.1973E-20 -0.2000E-20 -0.3303E-20 -0.3315E-20 -0.3303E-20 -0.3315E-20 -0.6947E-24 -0.4655E-24 -0.6943E-24 -0.4651E-24 -0.1482E-23 -0.1385E-23 -0.8597E-24 -0.1003E-23 -0.4449E-23 -0.4150E-23
    -16.216 -0.1948E-14 -0.1924E-14 -0.1326E-17 -0.1344E-17 -0.2218E-17 -0.2227E-17 -0.2218E-17 -0.2227E-17 -0.4737E-21 -0.2966E-21 -0.4735E-21 -0.2963E-21 -0.1097E-20 -0.1024E-20 -0.6045E-21 -0.6765E-21 -0.3291E-20 -0.3069E-20
    -16.104 -0.6432E-12 -0.6355E-12 -0.4894E-15 -0.4962E-15 -0.8193E-15 -0.8225E-15 -0.8193E-15 -0.8225E-15 -0.1785E-18 -0.1049E-18 -0.1784E-18 -0.1048E-18 -0.4493E-18 -0.4195E-18 -0.2355E-18 -0.2534E-18 -0.1349E-17 -0.1257E-17
    -15.992 -0.1124E-09 -0.1111E-09 -0.9700E-13 -0.9836E-13 -0.1624E-12 -0.1630E-12 -0.1624E-12 -0.1630E-12 -0.3649E-16 -0.2029E-16 -0.3648E-16 -0.2025E-16 -0.1001E-15 -0.9339E-16 -0.4991E-16 -0.5171E-16 -0.3004E-15 -0.2799E-15
    -15.880 -0.1035E-07 -0.1023E-07 -0.1030E-10 -0.1045E-10 -0.1724E-10 -0.1731E-10 -0.1724E-10 -0.1731E-10 -0.4048E-14 -0.2157E-14 -0.4047E-14 -0.2152E-14 -0.1212E-13 -0.1131E-13 -0.5758E-14 -0.5762E-14 -0.3638E-13 -0.3390E-13
    -15.768 -0.4978E-06 -0.4918E-06 -0.5847E-09 -0.5931E-09 -0.9785E-09 -0.9825E-09 -0.9785E-09 -0.9825E-09 -0.2442E-12 -0.1271E-12 -0.2441E-12 -0.1269E-12 -0.8004E-12 -0.7461E-12 -0.3623E-12 -0.3517E-12 -0.2402E-11 -0.2237E-11
    -15.656 -0.1231E-04 -0.1216E-04 -0.1765E-07 -0.1790E-07 -0.2952E-07 -0.2965E-07 -0.2952E-07 -0.2965E-07 -0.8018E-11 -0.4192E-11 -0.8016E-11 -0.4184E-11 -0.2886E-10 -0.2688E-10 -0.1245E-10 -0.1179E-10 -0.8659E-10 -0.8061E-10
    -15.545 -0.1512E-03 -0.1494E-03 -0.2794E-06 -0.2836E-06 -0.4674E-06 -0.4695E-06 -0.4674E-06 -0.4695E-06 -0.1431E-09 -0.7772E-10 -0.1431E-09 -0.7760E-10 -0.5680E-09 -0.5288E-09 -0.2332E-09 -0.2170E-09 -0.1704E-08 -0.1586E-08
    -15.433 -0.8378E-03 -0.8274E-03 -0.2243E-05 -0.2278E-05 -0.3751E-05 -0.3769E-05 -0.3751E-05 -0.3769E-05 -0.1373E-08 -0.8054E-09 -0.1373E-08 -0.8046E-09 -0.6064E-08 -0.5642E-08 -0.2359E-08 -0.2175E-08 -0.1819E-07 -0.1692E-07
    -15.321 -0.1257E-02 -0.1240E-02 -0.8112E-05 -0.8250E-05 -0.1355E-04 -0.1363E-04 -0.1355E-04 -0.1363E-04 -0.6772E-08 -0.4500E-08 -0.6771E-08 -0.4499E-08 -0.3414E-07 -0.3174E-07 -0.1239E-07 -0.1141E-07 -0.1024E-06 -0.9522E-07
    -15.209  0.5221E-02  0.5160E-02 -0.4564E-05 -0.4725E-05 -0.7567E-05 -0.7695E-05 -0.7567E-05 -0.7695E-05 -0.1367E-07 -0.1157E-07 -0.1368E-07 -0.1158E-07 -0.8910E-07 -0.8276E-07 -0.2788E-07 -0.2599E-07 -0.2673E-06 -0.2483E-06
    -15.097  0.2227E-01  0.2199E-01  0.5518E-04  0.5576E-04  0.9247E-04  0.9263E-04  0.9247E-04  0.9263E-04  0.1467E-07  0.1468E-08  0.1460E-07  0.1401E-08 -0.8868E-08 -0.8305E-08  0.1795E-07  0.1533E-07 -0.2662E-07 -0.2500E-07
    -14.985  0.3311E-01  0.3269E-01  0.1917E-03  0.1940E-03  0.3218E-03  0.3227E-03  0.3217E-03  0.3226E-03  0.1429E-06  0.9166E-07  0.1421E-06  0.9092E-07  0.6095E-06  0.5611E-06  0.2626E-06  0.2434E-06  0.1828E-05  0.1683E-05
    -14.873  0.2681E-01  0.2644E-01  0.3320E-03  0.3356E-03  0.5683E-03  0.5692E-03  0.5676E-03  0.5687E-03  0.3588E-06  0.2675E-06  0.3494E-06  0.2587E-06  0.1827E-05  0.1644E-05  0.7382E-06  0.6969E-06  0.5480E-05  0.4931E-05
    -14.762  0.1676E-01  0.1645E-01  0.3903E-03  0.4017E-03  0.7109E-03  0.7187E-03  0.7065E-03  0.7152E-03  0.5691E-06  0.4389E-06  0.5090E-06  0.3820E-06  0.2035E-05  0.1687E-05  0.1320E-05  0.1244E-05  0.6106E-05  0.5061E-05
    -14.650  0.1278E-01  0.1214E-01  0.5321E-03  0.5932E-03  0.9202E-03  0.9770E-03  0.9108E-03  0.9675E-03  0.1228E-05  0.9376E-06  0.1077E-05  0.7915E-06  0.3603E-06  0.3908E-06  0.2419E-05  0.2177E-05  0.1081E-05  0.1171E-05
    -14.538  0.1679E-01  0.1558E-01  0.1410E-02  0.1534E-02  0.1862E-02  0.1981E-02  0.1877E-02  0.1987E-02  0.3665E-05  0.3047E-05  0.3794E-05  0.3160E-05  0.1510E-04  0.1620E-04  0.5346E-05  0.4767E-05  0.4529E-04  0.4860E-04
    -14.426  0.2472E-01  0.2397E-01  0.2965E-02  0.3000E-02  0.3484E-02  0.3513E-02  0.3597E-02  0.3605E-02  0.6907E-05  0.6242E-05  0.8482E-05  0.7732E-05  0.9080E-04  0.8922E-04  0.9120E-05  0.8480E-05  0.2724E-03  0.2677E-03
    -14.314  0.2528E-01  0.2572E-01  0.3666E-02  0.3530E-02  0.4251E-02  0.4109E-02  0.4507E-02  0.4349E-02  0.7311E-05  0.6993E-05  0.1126E-04  0.1078E-04  0.2377E-03  0.2243E-03  0.1009E-04  0.9771E-05  0.7132E-03  0.6732E-03
    -14.202  0.1857E-01  0.1924E-01  0.3211E-02  0.3057E-02  0.3869E-02  0.3707E-02  0.4223E-02  0.4064E-02  0.5345E-05  0.5210E-05  0.1123E-04  0.1088E-04  0.3944E-03  0.3668E-03  0.8701E-05  0.8547E-05  0.1187E-02  0.1104E-02
    -14.091  0.1293E-01  0.1321E-01  0.2592E-02  0.2495E-02  0.3344E-02  0.3238E-02  0.3707E-02  0.3616E-02  0.3930E-05  0.3779E-05  0.1071E-04  0.1032E-04  0.4110E-03  0.3882E-03  0.7884E-05  0.7693E-05  0.1288E-02  0.1215E-02
    -13.979  0.9707E-02  0.9781E-02  0.2198E-02  0.2145E-02  0.3111E-02  0.3048E-02  0.3380E-02  0.3348E-02  0.3295E-05  0.3142E-05  0.1033E-04  0.9909E-05  0.1430E-03  0.1318E-03  0.7858E-05  0.7639E-05  0.7954E-03  0.7332E-03
    -13.867  0.8532E-02  0.8413E-02  0.5216E-02  0.5323E-02  0.6404E-02  0.6497E-02  0.6583E-02  0.6778E-02  0.3552E-05  0.3270E-05  0.9894E-05  0.9530E-05  0.1335E-02  0.1080E-02  0.8694E-05  0.8307E-05  0.4943E-02  0.4103E-02
    -13.755  0.1176E-01  0.1135E-01  0.1659E-01  0.1679E-01  0.1765E-01  0.1784E-01  0.1816E-01  0.1848E-01  0.6344E-05  0.5873E-05  0.9652E-05  0.9575E-05  0.8638E-02  0.7645E-02  0.1156E-04  0.1091E-04  0.2454E-01  0.2166E-01
    -13.643  0.1475E-01  0.1445E-01  0.2609E-01  0.2584E-01  0.2540E-01  0.2516E-01  0.2646E-01  0.2613E-01  0.9033E-05  0.8893E-05  0.8373E-05  0.8697E-05  0.1883E-01  0.1735E-01  0.1294E-04  0.1255E-04  0.4448E-01  0.4099E-01
    -13.531  0.9235E-02  0.9304E-02  0.1879E-01  0.1818E-01  0.1581E-01  0.1524E-01  0.1666E-01  0.1584E-01  0.6367E-05  0.6679E-05  0.4724E-05  0.5069E-05  0.1854E-01  0.1745E-01  0.7964E-05  0.8067E-05  0.3329E-01  0.3176E-01
    -13.420  0.1566E-02  0.1679E-02  0.5383E-02  0.5090E-02  0.2749E-02  0.2488E-02  0.2939E-02  0.2567E-02  0.1619E-05  0.1820E-05  0.1125E-05  0.1215E-05  0.8193E-02  0.7749E-02  0.1674E-05  0.1799E-05  0.8329E-02  0.8270E-02
    -13.308 -0.6921E-03 -0.6776E-03 -0.3768E-03 -0.3760E-03 -0.1053E-02 -0.1044E-02 -0.1106E-02 -0.1093E-02 -0.2588E-06 -0.2541E-06 -0.1970E-06 -0.2170E-06  0.6643E-03  0.6124E-03 -0.4557E-06 -0.4487E-06 -0.1486E-02 -0.1368E-02
    -13.196 -0.3154E-03 -0.3223E-03 -0.6591E-03 -0.6314E-03 -0.5199E-03 -0.4939E-03 -0.5494E-03 -0.5124E-03 -0.2293E-06 -0.2461E-06 -0.1827E-06 -0.1945E-06 -0.7279E-03 -0.6887E-03 -0.2889E-06 -0.2969E-06 -0.1167E-02 -0.1129E-02
    -13.084 -0.4697E-04 -0.4883E-04 -0.1804E-03 -0.1739E-03 -0.8739E-04 -0.8209E-04 -0.9196E-04 -0.8449E-04 -0.5059E-07 -0.5407E-07 -0.4343E-07 -0.4511E-07 -0.2674E-03 -0.2502E-03 -0.5537E-07 -0.5663E-07 -0.2402E-03 -0.2326E-03
    -12.972 -0.3232E-05 -0.3396E-05 -0.2305E-04 -0.2242E-04 -0.7359E-05 -0.6922E-05 -0.7675E-05 -0.7067E-05 -0.5367E-08 -0.5630E-08 -0.4897E-08 -0.4984E-08 -0.3821E-04 -0.3551E-04 -0.5099E-08 -0.5125E-08 -0.2429E-04 -0.2329E-04
    -12.860 -0.1115E-06 -0.1180E-06 -0.1512E-05 -0.1480E-05 -0.3387E-06 -0.3213E-06 -0.3495E-06 -0.3257E-06 -0.2998E-09 -0.3081E-09 -0.2849E-09 -0.2857E-09 -0.2636E-05 -0.2441E-05 -0.2454E-09 -0.2415E-09 -0.1336E-05 -0.1266E-05
    -12.749 -0.1992E-08 -0.2115E-08 -0.5184E-07 -0.5096E-07 -0.8700E-08 -0.8346E-08 -0.8887E-08 -0.8415E-08 -0.8971E-11 -0.9067E-11 -0.8732E-11 -0.8675E-11 -0.9268E-07 -0.8561E-07 -0.6309E-11 -0.6086E-11 -0.4066E-07 -0.3811E-07
    -12.637 -0.1872E-10 -0.1990E-10 -0.9350E-09 -0.9212E-09 -0.1243E-09 -0.1204E-09 -0.1259E-09 -0.1209E-09 -0.1440E-12 -0.1439E-12 -0.1420E-12 -0.1403E-12 -0.1694E-08 -0.1563E-08 -0.8708E-13 -0.8263E-13 -0.6795E-09 -0.6324E-09
    -12.525 -0.9337E-13 -0.9917E-13 -0.8902E-11 -0.8781E-11 -0.9765E-12 -0.9529E-12 -0.9844E-12 -0.9554E-12 -0.1238E-14 -0.1228E-14 -0.1229E-14 -0.1210E-14 -0.1626E-10 -0.1499E-10 -0.6448E-15 -0.6043E-15 -0.6170E-11 -0.5716E-11
    -12.413 -0.2498E-15 -0.2639E-15 -0.4487E-13 -0.4429E-13 -0.4182E-14 -0.4102E-14 -0.4202E-14 -0.4108E-14 -0.5692E-17 -0.5620E-17 -0.5674E-17 -0.5570E-17 -0.8243E-13 -0.7597E-13 -0.2559E-17 -0.2376E-17 -0.3019E-13 -0.2790E-13
    -12.301 -0.3361E-19 -0.3304E-19 -0.1201E-15 -0.1186E-15 -0.9577E-17 -0.9461E-17 -0.9577E-17 -0.9461E-17 -0.1400E-19 -0.1375E-19 -0.1400E-19 -0.1371E-19 -0.2214E-15 -0.2040E-15 -0.5442E-20 -0.4982E-20 -0.7832E-16 -0.7216E-16
    -12.189  0.0000E+00  0.0000E+00  0.0000E+00  0.0000E+00  0.0000E+00  0.0000E+00  0.0000E+00  0.0000E+00  0.0000E+00  0.0000E+00  0.0000E+00  0.0000E+00  0.0000E+00  0.0000E+00  0.0000E+00  0.0000E+00  0.0000E+00  0.0000E+00
    -12.078  0.0000E+00  0.0000E+00  0.0000E+00  0.0000E+00  0.0000E+00  0.0000E+00  0.0000E+00  0.0000E+00  0.0000E+00  0.0000E+00  0.0000E+00  0.0000E+00  0.0000E+00  0.0000E+00  0.0000E+00  0.0000E+00  0.0000E+00  0.0000E+00
    -11.966  0.0000E+00  0.0000E+00  0.0000E+00  0.0000E+00  0.0000E+00  0.0000E+00  0.0000E+00  0.0000E+00  0.0000E+00  0.0000E+00  0.0000E+00  0.0000E+00  0.0000E+00  0.0000E+00  0.0000E+00  0.0000E+00  0.0000E+00  0.0000E+00
    -11.854  0.0000E+00  0.0000E+00  0.0000E+00  0.0000E+00  0.0000E+00  0.0000E+00  0.0000E+00  0.0000E+00  0.0000E+00  0.0000E+00  0.0000E+00  0.0000E+00  0.0000E+00  0.0000E+00  0.0000E+00  0.0000E+00  0.0000E+00  0.0000E+00
    -11.742  0.0000E+00  0.0000E+00  0.0000E+00  0.0000E+00  0.0000E+00  0.0000E+00  0.0000E+00  0.0000E+00  0.0000E+00  0.0000E+00  0.0000E+00  0.0000E+00  0.0000E+00  0.0000E+00  0.0000E+00  0.0000E+00  0.0000E+00  0.0000E+00
    -11.630  0.0000E+00  0.0000E+00  0.0000E+00  0.0000E+00  0.0000E+00  0.0000E+00  0.0000E+00  0.0000E+00  0.0000E+00  0.0000E+00  0.0000E+00  0.0000E+00  0.0000E+00  0.0000E+00  0.0000E+00  0.0000E+00  0.0000E+00  0.0000E+00
    -11.518  0.0000E+00  0.0000E+00  0.0000E+00  0.0000E+00  0.0000E+00  0.0000E+00  0.0000E+00  0.0000E+00  0.0000E+00  0.0000E+00  0.0000E+00  0.0000E+00  0.0000E+00  0.0000E+00  0.0000E+00  0.0000E+00  0.0000E+00  0.0000E+00