    4    4    1    2
  0.9063964E+01  0.5107186E-09  0.5107186E-09  0.5107186E-09  0.5000000E-15
  1.000000000000000E-004
  CAR 
 NiO_af2                                 
     32    200     20
 
  0.3437500E+00  0.0000000E+00 -0.3437500E+00  0.5000000E-02
    1      -13.593539    -13.593539   1.000000   1.000000
    2      -13.575363    -13.575363   1.000000   1.000000
    3       -1.864140     -1.864140   1.000000   1.000000
    4       -1.466117     -1.466117   1.000000   1.000000
    5       -1.110162     -1.110162   1.000000   1.000000
    6       -0.705302     -0.705302   1.000000   1.000000
    7       -0.145139     -0.145139   1.000000   1.000000
    8        0.061342      0.061342   1.000000   1.000000
    9        3.103603      3.103603   1.000000   1.000000
   10        3.279055      3.279055   1.000000   1.000000
   11        3.309838      3.309838   1.000000   1.000000
   12        4.030601      4.030601   1.000000   1.000000
   13        4.271140      4.271140   1.000277   1.000277
   14        4.316245      4.316245   1.000834   1.000834
   15        4.513650      4.513650   1.023761   1.023761
   16        4.655138      4.655138   1.007312   1.007312
   17        5.972312      5.972312  -0.000000  -0.000000
   18        6.009091      6.009091  -0.000000  -0.000000
   19       13.906056     13.905629   0.000000   0.000000
   20       14.094655     14.115174   0.000000   0.000000
 
  0.3349359E+00  0.0000000E+00 -0.3349359E+00  0.5000000E-02
    1      -13.583645    -13.583645   1.000000   1.000000
    2      -13.581106    -13.581106   1.000000   1.000000
    3       -1.754740     -1.754740   1.000000   1.000000
    4       -1.571586     -1.571586   1.000000   1.000000
    5       -1.046212     -1.046212   1.000000   1.000000
    6       -0.735703     -0.735703   1.000000   1.000000
    7       -0.156274     -0.156274   1.000000   1.000000
    8        0.018144      0.018145   1.000000   1.000000
    9        3.137498      3.137498   1.000000   1.000000
   10        3.277552      3.277552   1.000000   1.000000
   11        3.318094      3.318094   1.000000   1.000000
   12        4.033141      4.033141   1.000000   1.000000
   13        4.260081      4.260080   1.000208   1.000208
   14        4.292085      4.292085   1.000469   1.000469
   15        4.518832      4.518832   1.024960   1.024960
   16        4.623733      4.623733   1.028352   1.028352
   17        5.916570      5.916570  -0.000000  -0.000000
   18        6.078058      6.078058  -0.000000  -0.000000
   19       14.099777     14.097214   0.000000   0.000000
   20       14.345101     14.355431   0.000000   0.000000
 
  0.3261218E+00  0.0000000E+00 -0.3261218E+00  0.5000000E-02
    1      -13.590784    -13.590784   1.000000   1.000000
    2      -13.576132    -13.576132   1.000000   1.000000
    3       -1.678618     -1.678618   1.000000   1.000000
    4       -1.634658     -1.634659   1.000000   1.000000
    5       -0.979346     -0.979346   1.000000   1.000000
    6       -0.764683     -0.764683   1.000000   1.000000
    7       -0.174904     -0.174904   1.000000   1.000000
    8       -0.021826     -0.021826   1.000000   1.000000
    9        3.157228      3.157228   1.000000   1.000000
   10        3.283853      3.283853   1.000000   1.000000
   11        3.327519      3.327519   1.000000   1.000000
   12        4.032951      4.032951   1.000000   1.000000
   13        4.245256      4.245256   1.000140   1.000140
   14        4.268631      4.268631   1.000260   1.000260
   15        4.523298      4.523298   1.025988   1.025988
   16        4.590292      4.590292   1.035374   1.035374
   17        5.862374      5.862374  -0.000000  -0.000000
   18        6.151230      6.151230  -0.000000  -0.000000
   19       14.229235     14.220429   0.000000   0.000000
   20       14.362883     14.441232   0.000000   0.000000
 
  0.3173077E+00  0.0000000E+00 -0.3173077E+00  0.5000000E-02
    1      -13.605359    -13.605359   1.000000   1.000000
    2      -13.568500    -13.568500   1.000000   1.000000
    3       -1.756674     -1.756674   1.000000   1.000000
    4       -1.532890     -1.532890   1.000000   1.000000
    5       -0.914153     -0.914153   1.000000   1.000000
    6       -0.786751     -0.786751   1.000000   1.000000
    7       -0.199220     -0.199221   1.000000   1.000000
    8       -0.055515     -0.055515   1.000000   1.000000
    9        3.164407      3.164407   1.000000   1.000000
   10        3.297925      3.297925   1.000000   1.000000
   11        3.338162      3.338162   1.000000   1.000000
   12        4.029664      4.029664   1.000000   1.000000
   13        4.227218      4.227218   1.000085   1.000085
   14        4.246453      4.246453   1.000144   1.000144
   15        4.528425      4.528425   1.027153   1.027153
   16        4.558391      4.558391   1.033089   1.033089
   17        5.811097      5.811097  -0.000000  -0.000000
   18        6.224461      6.224461  -0.000000  -0.000000
   19       14.156043     14.153093   0.000000   0.000000
   20       14.200399     14.206961   0.000000   0.000000
 
  0.3084936E+00  0.0000000E+00 -0.3084936E+00  0.5000000E-02
    1      -13.623574    -13.623574   1.000000   1.000000
    2      -13.561551    -13.561551   1.000000   1.000000
    3       -1.826820     -1.826820   1.000000   1.000000
    4       -1.424747     -1.424747   1.000000   1.000000
    5       -0.864454     -0.864454   1.000000   1.000000
    6       -0.788224     -0.788224   1.000000   1.000000
    7       -0.229866     -0.229866   1.000000   1.000000
    8       -0.084822     -0.084822   1.000000   1.000000
    9        3.163254      3.163254   1.000000   1.000000
   10        3.315294      3.315294   1.000000   1.000000
   11        3.349630      3.349630   1.000000   1.000000
   12        4.023540      4.023540   1.000000   1.000000
   13        4.206115      4.206115   1.000046   1.000046
   14        4.225702      4.225702   1.000081   1.000081
   15        4.529247      4.529247   1.027338   1.027338
   16        4.534417      4.534417   1.028484   1.028484
   17        5.763555      5.763555  -0.000000  -0.000000
   18        6.293635      6.293635  -0.000000  -0.000000
   19       13.923074     13.923854   0.000000   0.000000
   20       14.144928     14.143403   0.000000   0.000000
 
  0.2996795E+00  0.0000000E+00 -0.2996795E+00  0.5000000E-02
    1      -13.645004    -13.645004   1.000000   1.000000
    2      -13.554985    -13.554985   1.000000   1.000000
    3       -1.883519     -1.883519   1.000000   1.000000
    4       -1.317761     -1.317761   1.000000   1.000000
    5       -0.859752     -0.859752   1.000000   1.000000
    6       -0.738226     -0.738226   1.000000   1.000000
    7       -0.266614     -0.266614   1.000000   1.000000
    8       -0.106935     -0.106935   1.000000   1.000000
    9        3.157772      3.157772   1.000000   1.000000
   10        3.332482      3.332482   1.000000   1.000000
   11        3.361576      3.361576   1.000000   1.000000
   12        4.014846      4.014846   1.000000   1.000000
   13        4.183784      4.183785   1.000024   1.000024
   14        4.206511      4.206511   1.000047   1.000047
   15        4.503871      4.503871   1.021507   1.021507
   16        4.541397      4.541397   1.029967   1.029967
   17        5.720595      5.720595  -0.000000  -0.000000
   18        6.359845      6.359845  -0.000000  -0.000000
   19       13.689831     13.690171   0.000000   0.000000
   20       14.097339     14.095825   0.000000   0.000000
 
  0.2908654E+00  0.0000000E+00 -0.2908654E+00  0.5000000E-02
    1      -13.670820    -13.670820   1.000000   1.000000
    2      -13.549995    -13.549995   1.000000   1.000000
    3       -1.926750     -1.926750   1.000000   1.000000
    4       -1.214975     -1.214975   1.000000   1.000000
    5       -0.872821     -0.872821   1.000000   1.000000
    6       -0.665227     -0.665227   1.000000   1.000000
    7       -0.310199     -0.310199   1.000000   1.000000
    8       -0.122918     -0.122918   1.000000   1.000000
    9        3.149803      3.149803   1.000000   1.000000
   10        3.347128      3.347128   1.000000   1.000000
   11        3.373198      3.373198   1.000000   1.000000
   12        4.003611      4.003611   1.000000   1.000000
   13        4.161292      4.161292   1.000012   1.000012
   14        4.188542      4.188542   1.000027   1.000027
   15        4.481671      4.481671   1.016637   1.016637
   16        4.548689      4.548689   1.031409   1.031409
   17        5.681787      5.681787  -0.000000  -0.000000
   18        6.419503      6.419503  -0.000000  -0.000000
   19       13.453861     13.453489   0.000000   0.000000
   20       14.045408     14.045172   0.000000   0.000000
 
  0.2820513E+00  0.0000000E+00 -0.2820513E+00  0.5000000E-02
    1      -13.700425    -13.700425   1.000000   1.000000
    2      -13.545971    -13.545970   1.000000   1.000000
    3       -1.954874     -1.954874   1.000000   1.000000
    4       -1.118236     -1.118236   1.000000   1.000000
    5       -0.886525     -0.886525   1.000000   1.000000
    6       -0.585781     -0.585781   1.000000   1.000000
    7       -0.357830     -0.357830   1.000000   1.000000
    8       -0.132570     -0.132570   1.000000   1.000000
    9        3.140232      3.140232   1.000000   1.000000
   10        3.359506      3.359506   1.000000   1.000000
   11        3.383700      3.383700   1.000000   1.000000
   12        3.990852      3.990852   1.000000   1.000000
   13        4.140829      4.140829   1.000006   1.000006
   14        4.171677      4.171677   1.000016   1.000016
   15        4.462472      4.462472   1.012910   1.012910
   16        4.556664      4.556664   1.032814   1.032814
   17        5.648341      5.648341  -0.000000  -0.000000
   18        6.471152      6.471152  -0.000000  -0.000000
   19       13.220229     13.220210   0.000000   0.000000
   20       14.005723     14.005697   0.000000   0.000000
 
  0.2732372E+00  0.0000000E+00 -0.2732372E+00  0.5000000E-02
    1      -13.734125    -13.734125   1.000000   1.000000
    2      -13.542277    -13.542277   1.000000   1.000000
    3       -1.968252     -1.968252   1.000000   1.000000
    4       -1.030529     -1.030529   1.000000   1.000000
    5       -0.896689     -0.896689   1.000000   1.000000
    6       -0.502724     -0.502724   1.000000   1.000000
    7       -0.406949     -0.406949   1.000000   1.000000
    8       -0.135732     -0.135732   1.000000   1.000000
    9        3.129219      3.129219   1.000000   1.000000
   10        3.369467      3.369467   1.000000   1.000000
   11        3.393228      3.393228   1.000000   1.000000
   12        3.977135      3.977135   1.000000   1.000000
   13        4.124158      4.124158   1.000004   1.000004
   14        4.155744      4.155744   1.000010   1.000010
   15        4.445884      4.445884   1.010146   1.010146
   16        4.564735      4.564735   1.033996   1.033996
   17        5.620639      5.620639  -0.000000  -0.000000
   18        6.513546      6.513546  -0.000000  -0.000000
   19       12.987867     12.987868   0.000000   0.000000
   20       13.976339     13.976331   0.000000   0.000000
 
  0.2644231E+00  0.0000000E+00 -0.2644231E+00  0.5000000E-02
    1      -13.771849    -13.771849   1.000000   1.000000
    2      -13.539997    -13.539997   1.000000   1.000000
    3       -1.966769     -1.966769   1.000000   1.000000
    4       -0.958415     -0.958415   1.000000   1.000000
    5       -0.904342     -0.904342   1.000000   1.000000
    6       -0.452571     -0.452571   1.000000   1.000000
    7       -0.416907     -0.416907   1.000000   1.000000
    8       -0.132306     -0.132306   1.000000   1.000000
    9        3.116711      3.116710   1.000000   1.000000
   10        3.377273      3.377273   1.000000   1.000000
   11        3.399995      3.399995   1.000000   1.000000
   12        3.962893      3.962893   1.000000   1.000000
   13        4.112788      4.112788   1.000002   1.000002
   14        4.140620      4.140620   1.000006   1.000006
   15        4.430968      4.430968   1.008036   1.008036
   16        4.572232      4.572232   1.034821   1.034821
   17        5.598770      5.598770  -0.000000  -0.000000
   18        6.545736      6.545736  -0.000000  -0.000000
   19       12.756613     12.756614   0.000000   0.000000
   20       13.956058     13.956056   0.000000   0.000000
 
  0.2556090E+00  0.0000000E+00 -0.2556090E+00  0.5000000E-02
    1      -13.812083    -13.812083   1.000000   1.000000
    2      -13.538782    -13.538782   1.000000   1.000000
    3       -1.948166     -1.948166   1.000000   1.000000
    4       -0.912187     -0.912187   1.000000   1.000000
    5       -0.908285     -0.908285   1.000000   1.000000
    6       -0.484537     -0.484537   1.000000   1.000000
    7       -0.327140     -0.327140   1.000000   1.000000
    8       -0.121665     -0.121665   1.000000   1.000000
    9        3.102727      3.102727   1.000000   1.000000
   10        3.383401      3.383401   1.000000   1.000000
   11        3.403785      3.403785   1.000000   1.000000
   12        3.948911      3.948911   1.000000   1.000000
   13        4.108038      4.108038   1.000002   1.000002
   14        4.126371      4.126371   1.000004   1.000004
   15        4.417660      4.417660   1.006445   1.006445
   16        4.579045      4.579045   1.035295   1.035295
   17        5.583261      5.583261  -0.000001  -0.000001
   18        6.568751      6.568751  -0.000000  -0.000000
   19       12.530766     12.530766   0.000000   0.000000
   20       13.945369     13.945368   0.000000   0.000000
 
  0.2467949E+00  0.0000000E+00 -0.2467949E+00  0.5000000E-02
    1      -13.857440    -13.857440   1.000000   1.000000
    2      -13.538648    -13.538648   1.000000   1.000000
    3       -1.917127     -1.917127   1.000000   1.000000
    4       -0.908362     -0.908362   1.000000   1.000000
    5       -0.904818     -0.904818   1.000000   1.000000
    6       -0.490145     -0.490145   1.000000   1.000000
    7       -0.236830     -0.236830   1.000000   1.000000
    8       -0.104800     -0.104800   1.000000   1.000000
    9        3.087183      3.087183   1.000000   1.000000
   10        3.388024      3.388024   1.000000   1.000000
   11        3.404085      3.404085   1.000000   1.000000
   12        3.934402      3.934402   1.000000   1.000000
   13        4.109751      4.109751   1.000002   1.000002
   14        4.112960      4.112960   1.000002   1.000002
   15        4.405790      4.405791   1.005242   1.005242
   16        4.584194      4.584194   1.035449   1.035449
   17        5.574120      5.574120  -0.000001  -0.000001
   18        6.578509      6.578509  -0.000000  -0.000000
   19       12.301340     12.301340   0.000000   0.000000
   20       13.944445     13.944442   0.000000   0.000000
 
  0.2379808E+00  0.0000000E+00 -0.2379808E+00  0.5000000E-02
    1      -13.906876    -13.906876   1.000000   1.000000
    2      -13.539597    -13.539597   1.000000   1.000000
    3       -1.872157     -1.872157   1.000000   1.000000
    4       -0.939154     -0.939154   1.000000   1.000000
    5       -0.904487     -0.904487   1.000000   1.000000
    6       -0.466529     -0.466529   1.000000   1.000000
    7       -0.144897     -0.144897   1.000000   1.000000
    8       -0.082304     -0.082304   1.000000   1.000000
    9        3.070322      3.070322   1.000000   1.000000
   10        3.391082      3.391082   1.000000   1.000000
   11        3.400839      3.400839   1.000000   1.000000
   12        3.919836      3.919836   1.000000   1.000000
   13        4.100580      4.100580   1.000002   1.000002
   14        4.117481      4.117481   1.000003   1.000003
   15        4.395720      4.395720   1.004369   1.004369
   16        4.587416      4.587416   1.035446   1.035446
   17        5.571791      5.571791  -0.000001  -0.000001
   18        6.575909      6.575909  -0.000000  -0.000000
   19       12.069021     12.069021   0.000000   0.000000
   20       13.953316     13.953316   0.000000   0.000000
 
  0.2291667E+00  0.0000000E+00 -0.2291667E+00  0.5000000E-02
    1      -13.958817    -13.958817   1.000000   1.000000
    2      -13.541615    -13.541615   1.000000   1.000000
    3       -1.812237     -1.812237   1.000000   1.000000
    4       -1.003948     -1.003948   1.000000   1.000000
    5       -0.896659     -0.896659   1.000000   1.000000
    6       -0.424715     -0.424715   1.000000   1.000000
    7       -0.058531     -0.058531   1.000000   1.000000
    8       -0.044306     -0.044306   1.000000   1.000000
    9        3.052531      3.052531   1.000000   1.000000
   10        3.392654      3.392654   1.000000   1.000000
   11        3.394534      3.394534   1.000000   1.000000
   12        3.905122      3.905122   1.000000   1.000000
   13        4.089518      4.089518   1.000001   1.000001
   14        4.129788      4.129788   1.000004   1.000004
   15        4.389352      4.389352   1.003880   1.003880
   16        4.588641      4.588641   1.035424   1.035424
   17        5.576545      5.576545  -0.000001  -0.000001
   18        6.562122      6.562122  -0.000000  -0.000000
   19       11.841085     11.841085   0.000000   0.000000
   20       13.971924     13.971955   0.000000   0.000000
 
  0.2203526E+00  0.0000000E+00 -0.2203526E+00  0.5000000E-02
    1      -14.013547    -14.013548   1.000000   1.000000
    2      -13.545043    -13.545043   1.000000   1.000000
    3       -1.738434     -1.738434   1.000000   1.000000
    4       -1.087200     -1.087200   1.000000   1.000000
    5       -0.885743     -0.885743   1.000000   1.000000
    6       -0.376493     -0.376493   1.000000   1.000000
    7       -0.016956     -0.016956   1.000000   1.000000
    8        0.046806      0.046806   1.000000   1.000000
    9        3.034157      3.034157   1.000000   1.000000
   10        3.385308      3.385308   1.000000   1.000000
   11        3.392250      3.392250   1.000000   1.000000
   12        3.890092      3.890092   1.000000   1.000000
   13        4.079964      4.079964   1.000001   1.000001
   14        4.143559      4.143559   1.000007   1.000007
   15        4.388520      4.388520   1.003820   1.003820
   16        4.587351      4.587351   1.035447   1.035447
   17        5.588500      5.588500  -0.000001  -0.000001
   18        6.536772      6.536772  -0.000000  -0.000000
   19       11.613649     11.613649   0.000000   0.000000
   20       13.999897     13.999905   0.000000   0.000000
 
  0.2115385E+00  0.0000000E+00 -0.2115385E+00  0.5000000E-02
    1      -14.069427    -14.069427   1.000000   1.000000
    2      -13.548825    -13.548825   1.000000   1.000000
    3       -1.649772     -1.649772   1.000000   1.000000
    4       -1.180806     -1.180806   1.000000   1.000000
    5       -0.870064     -0.870064   1.000000   1.000000
    6       -0.328206     -0.328206   1.000000   1.000000
    7        0.029860      0.029860   1.000000   1.000000
    8        0.144812      0.144812   1.000000   1.000000
    9        3.015631      3.015631   1.000000   1.000000
   10        3.375301      3.375301   1.000000   1.000000
   11        3.389695      3.389695   1.000000   1.000000
   12        3.874910      3.874910   1.000000   1.000000
   13        4.072200      4.072200   1.000001   1.000001
   14        4.155462      4.155462   1.000010   1.000010
   15        4.397529      4.397529   1.004516   1.004516
   16        4.583689      4.583689   1.035443   1.035443
   17        5.608075      5.608075  -0.000000  -0.000000
   18        6.501752      6.501752  -0.000000  -0.000000
   19       11.387614     11.387614   0.000000   0.000000
   20       14.038378     14.038402   0.000000   0.000000
 
  0.2027244E+00  0.0000000E+00 -0.2027244E+00  0.5000000E-02
    1      -14.128573    -14.128573   1.000000   1.000000
    2      -13.553903    -13.553903   1.000000   1.000000
    3       -1.550850     -1.550850   1.000000   1.000000
    4       -1.280207     -1.280207   1.000000   1.000000
    5       -0.851268     -0.851268   1.000000   1.000000
    6       -0.284057     -0.284057   1.000000   1.000000
    7        0.079864      0.079864   1.000000   1.000000
    8        0.243309      0.243309   1.000000   1.000000
    9        2.997107      2.997107   1.000000   1.000000
   10        3.363029      3.363029   1.000000   1.000000
   11        3.384471      3.384471   1.000000   1.000000
   12        3.858803      3.858803   1.000000   1.000000
   13        4.066292      4.066292   1.000000   1.000000
   14        4.160642      4.160642   1.000012   1.000012
   15        4.416669      4.416669   1.006337   1.006337
   16        4.577061      4.577061   1.035187   1.035187
   17        5.634728      5.634728  -0.000000  -0.000000
   18        6.454668      6.454668  -0.000000  -0.000000
   19       11.160395     11.160395   0.000000   0.000000
   20       14.084549     14.084496   0.000000   0.000000
 
  0.1939103E+00  0.0000000E+00 -0.1939103E+00  0.5000000E-02
    1      -14.189259    -14.189259   1.000000   1.000000
    2      -13.559957    -13.559957   1.000000   1.000000
    3       -1.452772     -1.452772   1.000000   1.000000
    4       -1.371121     -1.371121   1.000000   1.000000
    5       -0.829309     -0.829309   1.000000   1.000000
    6       -0.244578     -0.244578   1.000000   1.000000
    7        0.136279      0.136279   1.000000   1.000000
    8        0.342983      0.342983   1.000000   1.000000
    9        2.978946      2.978946   1.000000   1.000000
   10        3.350060      3.350060   1.000000   1.000000
   11        3.376372      3.376372   1.000000   1.000000
   12        3.841893      3.841893   1.000000   1.000000
   13        4.062529      4.062529   1.000000   1.000000
   14        4.158015      4.158015   1.000011   1.000011
   15        4.447979      4.447979   1.010471   1.010471
   16        4.567752      4.567752   1.034363   1.034363
   17        5.668307      5.668307  -0.000000  -0.000000
   18        6.398070      6.398070  -0.000000  -0.000000
   19       10.932987     10.932987   0.000000   0.000000
   20       14.137712     14.137708   0.000000   0.000000
 
  0.1850962E+00  0.0000000E+00 -0.1850962E+00  0.5000000E-02
    1      -14.251353    -14.251353   1.000000   1.000000
    2      -13.566728    -13.566728   1.000000   1.000000
    3       -1.505742     -1.505742   1.000000   1.000000
    4       -1.301617     -1.301617   1.000000   1.000000
    5       -0.804148     -0.804148   1.000000   1.000000
    6       -0.211753     -0.211753   1.000000   1.000000
    7        0.198704      0.198704   1.000000   1.000000
    8        0.443604      0.443604   1.000000   1.000000
    9        2.961217      2.961217   1.000000   1.000000
   10        3.336545      3.336545   1.000000   1.000000
   11        3.364935      3.364935   1.000000   1.000000
   12        3.824166      3.824166   1.000000   1.000000
   13        4.060919      4.060919   1.000000   1.000000
   14        4.148324      4.148324   1.000008   1.000008
   15        4.488897      4.488897   1.018168   1.018168
   16        4.555602      4.555602   1.032639   1.032639
   17        5.708442      5.708442  -0.000000  -0.000000
   18        6.333022      6.333022  -0.000000  -0.000000
   19       10.702737     10.702737   0.000000   0.000000
   20       14.199899     14.200555   0.000000   0.000000
 
  0.1762821E+00  0.0000000E+00 -0.1762821E+00  0.5000000E-02
    1      -14.313784    -14.313784   1.000000   1.000000
    2      -13.574207    -13.574207   1.000000   1.000000
    3       -1.611860     -1.611860   1.000000   1.000000
    4       -1.168508     -1.168508   1.000000   1.000000
    5       -0.776258     -0.776258   1.000000   1.000000
    6       -0.184995     -0.184995   1.000000   1.000000
    7        0.267616      0.267616   1.000000   1.000000
    8        0.544971      0.544971   1.000000   1.000000
    9        2.944053      2.944053   1.000000   1.000000
   10        3.322785      3.322785   1.000000   1.000000
   11        3.350468      3.350468   1.000000   1.000000
   12        3.805545      3.805545   1.000000   1.000000
   13        4.061589      4.061589   1.000000   1.000000
   14        4.133465      4.133465   1.000005   1.000005
   15        4.536551      4.536551   1.028946   1.028946
   16        4.541356      4.541356   1.029958   1.029958
   17        5.754355      5.754355  -0.000000  -0.000000
   18        6.261518      6.261518  -0.000000  -0.000000
   19       10.474332     10.474332   0.000000   0.000000
   20       14.269364     14.283534   0.000000   0.000000
 
  0.1674679E+00  0.0000000E+00 -0.1674679E+00  0.5000000E-02
    1      -14.376392    -14.376392   1.000000   1.000000
    2      -13.581586    -13.581586   1.000000   1.000000
    3       -1.719990     -1.719990   1.000000   1.000000
    4       -1.022621     -1.022621   1.000000   1.000000
    5       -0.744754     -0.744754   1.000000   1.000000
    6       -0.163561     -0.163561   1.000000   1.000000
    7        0.342612      0.342612   1.000000   1.000000
    8        0.646885      0.646885   1.000000   1.000000
    9        2.927518      2.927518   1.000000   1.000000
   10        3.308847      3.308847   1.000000   1.000000
   11        3.332936      3.332936   1.000000   1.000000
   12        3.786061      3.786061   1.000000   1.000000
   13        4.064640      4.064640   1.000000   1.000000
   14        4.115210      4.115210   1.000003   1.000003
   15        4.525486      4.525486   1.026488   1.026488
   16        4.588066      4.588066   1.035436   1.035436
   17        5.805237      5.805237  -0.000000  -0.000000
   18        6.185662      6.185662  -0.000000  -0.000000
   19       10.245377     10.245377  -0.000000  -0.000000
   20       14.372580     14.362188   0.000000   0.000000
 
  0.1586538E+00  0.0000000E+00 -0.1586538E+00  0.5000000E-02
    1      -14.438722    -14.438722   1.000000   1.000000
    2      -13.591378    -13.591378   1.000000   1.000000
    3       -1.830320     -1.830320   1.000000   1.000000
    4       -0.866880     -0.866880   1.000000   1.000000
    5       -0.712868     -0.712868   1.000000   1.000000
    6       -0.149017     -0.149017   1.000000   1.000000
    7        0.423436      0.423436   1.000000   1.000000
    8        0.749124      0.749124   1.000000   1.000000
    9        2.911448      2.911448   1.000000   1.000000
   10        3.294393      3.294393   1.000000   1.000000
   11        3.312164      3.312164   1.000000   1.000000
   12        3.765555      3.765555   1.000000   1.000000
   13        4.069457      4.069457   1.000001   1.000001
   14        4.094809      4.094809   1.000001   1.000001
   15        4.507740      4.507740   1.022395   1.022395
   16        4.638765      4.638764   1.020386   1.020386
   17        5.859277      5.859277  -0.000000  -0.000000
   18        6.108213      6.108213  -0.000000  -0.000000
   19       10.015912     10.015912  -0.000000  -0.000000
   20       14.149681     14.148679   0.000000   0.000000
 
  0.1498397E+00  0.0000000E+00 -0.1498397E+00  0.5000000E-02
    1      -14.499760    -14.499760   1.000000   1.000000
    2      -13.600416    -13.600416   1.000000   1.000000
    3       -1.937059     -1.937059   1.000000   1.000000
    4       -0.701404     -0.701404   1.000000   1.000000
    5       -0.679173     -0.679173   1.000000   1.000000
    6       -0.137013     -0.137012   1.000000   1.000000
    7        0.511560      0.511561   1.000000   1.000000
    8        0.851519      0.851519   1.000000   1.000000
    9        2.896005      2.896005   1.000000   1.000000
   10        3.279383      3.279383   1.000000   1.000000
   11        3.288748      3.288748   1.000000   1.000000
   12        3.744488      3.744488   1.000000   1.000000
   13        4.073512      4.073512   1.000001   1.000001
   14        4.076214      4.076214   1.000001   1.000001
   15        4.489103      4.489103   1.018212   1.018212
   16        4.685437      4.685437   0.968639   0.968639
   17        5.916851      5.916851  -0.000000  -0.000000
   18        6.033336      6.033336  -0.000000  -0.000000
   19        9.786993      9.786993  -0.000000  -0.000000
   20       13.895685     13.896543   0.000000   0.000000
 
  0.1410256E+00  0.0000000E+00 -0.1410256E+00  0.5000000E-02
    1      -14.559946    -14.559946   1.000000   1.000000
    2      -13.609371    -13.609371   1.000000   1.000000
    3       -2.041097     -2.041097   1.000000   1.000000
    4       -0.643679     -0.643679   1.000000   1.000000
    5       -0.531132     -0.531132   1.000000   1.000000
    6       -0.126340     -0.126340   1.000000   1.000000
    7        0.603471      0.603471   1.000000   1.000000
    8        0.953795      0.953795   1.000000   1.000000
    9        2.881135      2.881135   1.000000   1.000000
   10        3.262543      3.262543   1.000000   1.000000
   11        3.263400      3.263400   1.000000   1.000000
   12        3.722992      3.722992   1.000000   1.000000
   13        4.051982      4.051982   1.000000   1.000000
   14        4.084583      4.084583   1.000001   1.000001
   15        4.469716      4.469716   1.014253   1.014253
   16        4.723051      4.723051   0.890238   0.890238
   17        5.965668      5.965668  -0.000000  -0.000000
   18        5.976270      5.976270  -0.000000  -0.000000
   19        9.557869      9.557869  -0.000000  -0.000000
   20       13.643683     13.645953   0.000000   0.000000
 
  0.1322115E+00  0.0000000E+00 -0.1322115E+00  0.5000000E-02
    1      -14.618885    -14.618885   1.000000   1.000000
    2      -13.619926    -13.619926   1.000000   1.000000
    3       -2.143440     -2.143440   1.000000   1.000000
    4       -0.609810     -0.609810   1.000000   1.000000
    5       -0.365238     -0.365238   1.000000   1.000000
    6       -0.109561     -0.109560   1.000000   1.000000