 vasp.5.4.4.18Apr17-6-g9f103f2a35 (build May 20 2018 16:52:39) complex          
  
 executed on             LinuxIFC date 2022.11.07  00:59:59
 running on    1 total cores
 distrk:  each k-point on    1 cores,    1 groups
 distr:  one band on NCORES_PER_BAND=   1 cores,    1 groups


--------------------------------------------------------------------------------------------------------


 INCAR:
 POTCAR:    PAW Ni                                
 POTCAR:    PAW O                                 
 POTCAR:    PAW Ni                                
   VRHFIN =Ni:                                                                  
   LEXCH  = 91                                                                  
   EATOM  =  1079.4692 eV,   79.3388 Ry                                         
                                                                                
   TITEL  = PAW Ni                                                              
   LULTRA =        F    use ultrasoft PP ?                                      
   IUNSCR =        1    unscreen: 0-lin 1-nonlin 2-no                           
   RPACOR =    2.000    partial core radius                                     
   POMASS =   58.690; ZVAL   =   10.000    mass and valenz                      
   RCORE  =    2.300    outmost cutoff radius                                   
   RWIGS  =    2.430; RWIGS  =    1.286    wigner-seitz radius (au A)           
   ENMAX  =  269.561; ENMIN  =  202.171 eV                                      
   RCLOC  =    1.681    cutoff for local pot                                    
   LCOR   =        T    correct aug charges                                     
   LPAW   =        T    paw PP                                                  
   EAUG   =  544.565                                                            
   DEXC   =    -.002                                                            
   RMAX   =    2.808    core radius for proj-oper                               
   RAUG   =    1.300    factor for augmentation sphere                          
   RDEP   =    2.390    core radius for depl-charge                             
   QCUT   =   -4.451; QGAM   =    8.902    optimization parameters              
                                                                                
   Description                                                                  
     l     E      TYP  RCUT    TYP  RCUT                                        
     2   .000     23  2.300                                                     
     2   .000     23  2.300                                                     
     0   .000     23  2.300                                                     
     0   .000     23  2.300                                                     
     1  -.200     23  2.300                                                     
     1   .000     23  2.300                                                     
     3   .000      7   .000                                                     
  local pseudopotential read in
  partial core-charges read in
  atomic valenz-charges read in
  non local Contribution for L=           2  read in
    real space projection operators read in
  non local Contribution for L=           2  read in
    real space projection operators read in
  non local Contribution for L=           0  read in
    real space projection operators read in
  non local Contribution for L=           0  read in
    real space projection operators read in
  non local Contribution for L=           1  read in
    real space projection operators read in
  non local Contribution for L=           1  read in
    real space projection operators read in
    PAW grid and wavefunctions read in
 
   number of l-projection  operators is LMAX  =           6
   number of lm-projection operators is LMMAX =          18
 
 POTCAR:    PAW O                                 
   VRHFIN =O: s2p4                                                              
   LEXCH  = 91                                                                  
   EATOM  =   433.0277 eV,   31.8266 Ry                                         
                                                                                
   TITEL  = PAW O                                                               
   LULTRA =        F    use ultrasoft PP ?                                      
   IUNSCR =        0    unscreen: 0-lin 1-nonlin 2-no                           
   RPACOR =     .000    partial core radius                                     
   POMASS =   16.000; ZVAL   =    6.000    mass and valenz                      
   RCORE  =    1.520    outmost cutoff radius                                   
   RWIGS  =    1.550; RWIGS  =     .820    wigner-seitz radius (au A)           
   ENMAX  =  400.000; ENMIN  =  300.000 eV                                      
   ICORE  =        2    local potential                                         
   LCOR   =        T    correct aug charges                                     
   LPAW   =        T    paw PP                                                  
   EAUG   =  605.392                                                            
   DEXC   =     .000                                                            
   RMAX   =    2.264    core radius for proj-oper                               
   RAUG   =    1.300    factor for augmentation sphere                          
   RDEP   =    1.550    radius for radial grids                                 
   QCUT   =   -5.520; QGAM   =   11.040    optimization parameters              
                                                                                
   Description                                                                  
     l     E      TYP  RCUT    TYP  RCUT                                        
     0   .000     23  1.200                                                     
     0  -.700     23  1.200                                                     
     1   .000     23  1.520                                                     
     1   .600     23  1.520                                                     
     2   .000      7  1.500                                                     
  local pseudopotential read in
  atomic valenz-charges read in
  non local Contribution for L=           0  read in
    real space projection operators read in
  non local Contribution for L=           0  read in
    real space projection operators read in
  non local Contribution for L=           1  read in
    real space projection operators read in
  non local Contribution for L=           1  read in
    real space projection operators read in
    PAW grid and wavefunctions read in
 
   number of l-projection  operators is LMAX  =           4
   number of lm-projection operators is LMMAX =           8
 
  PAW Ni                                :
 energy of atom  1       EATOM=-1079.4692
 kinetic energy error for atom=    0.0101 (will be added to EATOM!!)
  PAW O                                 :
 energy of atom  2       EATOM= -433.0277
 kinetic energy error for atom=    0.1156 (will be added to EATOM!!)
 
 
 POSCAR: NiO AFM                                 
  positions in cartesian coordinates
  velocities in cartesian coordinates
  No initial velocities read in
 exchange correlation table for  LEXCH =        7
   RHO(1)=    0.500       N(1)  =     2000
   RHO(2)=  100.500       N(2)  =     4000
 


--------------------------------------------------------------------------------------------------------


 ion  position               nearest neighbor table
   1  0.000  0.000  0.000-   4 2.08   4 2.08   4 2.08   3 2.08   3 2.08   3 2.08   2 2.95   2 2.95
                             2 2.95   2 2.95   2 2.95   2 2.95
   2  0.500  0.500  0.500-   3 2.08   3 2.08   3 2.08   4 2.08   4 2.08   4 2.08   1 2.95   1 2.95
                             1 2.95   1 2.95   1 2.95   1 2.95
   3  0.250  0.250  0.250-   1 2.08   1 2.08   1 2.08   2 2.08   2 2.08   2 2.08
   4  0.750  0.750  0.750-   2 2.08   2 2.08   2 2.08   1 2.08   1 2.08   1 2.08
 
  LATTYP: Found a trigonal (rhomboedric) cell.
 ALAT       =     5.1071861137
 COS(alpha) =     0.8333333333
  
  Lattice vectors:
  
 A1 = (   4.1700000000,   2.0850000000,   2.0850000000)
 A2 = (   2.0850000000,   4.1700000000,   2.0850000000)
 A3 = (   2.0850000000,   2.0850000000,   4.1700000000)


Analysis of symmetry for initial positions (statically):
=====================================================================
 Subroutine PRICEL returns following result:
 
  LATTYP: Found a face centered cubic cell.
 ALAT       =     4.1700000000
  
  Lattice vectors:
  
 A1 = (   2.0850000000,   0.0000000000,  -2.0850000000)
 A2 = (   0.0000000000,   2.0850000000,  -2.0850000000)
 A3 = (   2.0850000000,   2.0850000000,   0.0000000000)
 
   2 primitive cells build up your supercell.
 

 Routine SETGRP: Setting up the symmetry group for a 
 trigonal (rhombohedral) supercell.


 Subroutine GETGRP returns: Found 12 space group operations
 (whereof 12 operations were pure point group operations)
 out of a pool of 12 trial point group operations.


The static configuration has the point symmetry D_3d.


Analysis of symmetry for dynamics (positions and initial velocities):
=====================================================================
 Subroutine PRICEL returns following result:
 
  LATTYP: Found a face centered cubic cell.
 ALAT       =     4.1700000000
  
  Lattice vectors:
  
 A1 = (   2.0850000000,   0.0000000000,  -2.0850000000)
 A2 = (   0.0000000000,   2.0850000000,  -2.0850000000)
 A3 = (   2.0850000000,   2.0850000000,   0.0000000000)
 
   2 primitive cells build up your supercell.
 

 Routine SETGRP: Setting up the symmetry group for a 
 trigonal (rhombohedral) supercell.


 Subroutine GETGRP returns: Found 12 space group operations
 (whereof 12 operations were pure point group operations)
 out of a pool of 12 trial point group operations.


The dynamic configuration has the point symmetry D_3d.


Analysis of structural, dynamic, and magnetic symmetry:
=====================================================================
 Subroutine PRICEL returns following result:
 
  LATTYP: Found a face centered cubic cell.
 ALAT       =     4.1700000000
  
  Lattice vectors:
  
 A1 = (   2.0850000000,   0.0000000000,  -2.0850000000)
 A2 = (   0.0000000000,   2.0850000000,  -2.0850000000)
 A3 = (   2.0850000000,   2.0850000000,   0.0000000000)
 
   2 primitive cells build up your supercell.
 

 Routine SETGRP: Setting up the symmetry group for a 
 trigonal (rhombohedral) supercell.


 Subroutine GETGRP returns: Found 12 space group operations
 (whereof 12 operations were pure point group operations)
 out of a pool of 12 trial point group operations.


The magnetic configuration has the point symmetry D_3d.


 Subroutine INISYM returns: Found 12 space group operations
 (whereof 12 operations are pure point group operations),
 and found     2 'primitive' translations

 
 
 KPOINTS: K-points                                
  interpolating k-points between supplied coordinates
  k-points in reciprocal lattice
Space group operators:
 irot       det(A)        alpha          n_x          n_y          n_z        tau_x        tau_y        tau_z
    1     1.000000     0.000000     1.000000     0.000000     0.000000     0.000000     0.000000     0.000000
    2    -1.000000     0.000000     1.000000     0.000000     0.000000     0.000000     0.000000     0.000000
    3     1.000000   180.000000     0.000000     0.707107    -0.707107     0.000000     0.000000     0.000000
    4    -1.000000   180.000000     0.000000     0.707107    -0.707107     0.000000     0.000000     0.000000
    5     1.000000   120.000000    -0.577350    -0.577350    -0.577350     0.000000     0.000000     0.000000
    6    -1.000000   120.000000    -0.577350    -0.577350    -0.577350     0.000000     0.000000     0.000000
    7     1.000000   180.000000     0.707107    -0.707107     0.000000     0.000000     0.000000     0.000000
    8    -1.000000   180.000000     0.707107    -0.707107     0.000000     0.000000     0.000000     0.000000
    9     1.000000   120.000000     0.577350     0.577350     0.577350     0.000000     0.000000     0.000000
   10    -1.000000   120.000000     0.577350     0.577350     0.577350     0.000000     0.000000     0.000000
   11     1.000000   180.000000     0.707107     0.000000    -0.707107     0.000000     0.000000     0.000000
   12    -1.000000   180.000000     0.707107     0.000000    -0.707107     0.000000     0.000000     0.000000


--------------------------------------------------------------------------------------------------------




 Dimension of arrays:
   k-points           NKPTS =    200   k-points in BZ     NKDIM =    200   number of bands    NBANDS=     20
   number of dos      NEDOS =    301   number of ions     NIONS =      4
   non local maximal  LDIM  =      6   non local SUM 2l+1 LMDIM =     18
   total plane-waves  NPLWV =  21952
   max r-space proj   IRMAX =      1   max aug-charges    IRDMAX=  19824
   dimension x,y,z NGX =    28 NGY =   28 NGZ =   28
   dimension x,y,z NGXF=    56 NGYF=   56 NGZF=   56
   support grid    NGXF=    56 NGYF=   56 NGZF=   56
   ions per type =               2   2
   NGX,Y,Z   is equivalent  to a cutoff of   9.11,  9.11,  9.11 a.u.
   NGXF,Y,Z  is equivalent  to a cutoff of  18.23, 18.23, 18.23 a.u.

 SYSTEM =  NiO_af2                                 
 POSCAR =  NiO AFM                                 

 Startparameter for this run:
   NWRITE =      2    write-flag & timer
   PREC   = normal    normal or accurate (medium, high low for compatibility)
   ISTART =      0    job   : 0-new  1-cont  2-samecut
   ICHARG =     11    charge: 1-file 2-atom 10-const
   ISPIN  =      2    spin polarized calculation?
   LNONCOLLINEAR =      F non collinear calculations
   LSORBIT =      F    spin-orbit coupling
   INIWAV =      1    electr: 0-lowe 1-rand  2-diag
   LASPH  =      F    aspherical Exc in radial PAW
   METAGGA=      F    non-selfconsistent MetaGGA calc.

 Electronic Relaxation 1
   ENCUT  =  400.0 eV  29.40 Ry    5.42 a.u.   8.33  8.33  8.33*2*pi/ulx,y,z
   ENINI  =  400.0     initial cutoff
   ENAUG  =  605.4 eV  augmentation charge cutoff
   NELM   =     60;   NELMIN=  2; NELMDL= -5     # of ELM steps 
   EDIFF  = 0.1E-03   stopping-criterion for ELM
   LREAL  =      F    real-space projection
   NLSPLINE    = F    spline interpolate recip. space projectors
   LCOMPAT=      F    compatible to vasp.4.4
   GGA_COMPAT  = T    GGA compatible to vasp.4.4-vasp.4.6
   LMAXPAW     = -100 max onsite density
   LMAXMIX     =    2 max onsite mixed and CHGCAR
   VOSKOWN=      0    Vosko Wilk Nusair interpolation
   ROPT   =    0.00000   0.00000
 Ionic relaxation
   EDIFFG = 0.1E-02   stopping-criterion for IOM
   NSW    =      0    number of steps for IOM
   NBLOCK =      1;   KBLOCK =      1    inner block; outer block 
   IBRION =     -1    ionic relax: 0-MD 1-quasi-New 2-CG
   NFREE  =      0    steps in history (QN), initial steepest desc. (CG)
   ISIF   =      2    stress and relaxation
   IWAVPR =     10    prediction:  0-non 1-charg 2-wave 3-comb
   ISYM   =      2    0-nonsym 1-usesym 2-fastsym
   LCORR  =      T    Harris-Foulkes like correction to forces

   POTIM  = 0.5000    time-step for ionic-motion
   TEIN   =    0.0    initial temperature
   TEBEG  =    0.0;   TEEND  =   0.0 temperature during run
   SMASS  =  -3.00    Nose mass-parameter (am)
   estimated Nose-frequenzy (Omega)   =  0.10E-29 period in steps =****** mass=  -0.596E-27a.u.
   SCALEE = 1.0000    scale energy and forces
   NPACO  =    256;   APACO  = 16.0  distance and # of slots for P.C.
   PSTRESS=    0.0 pullay stress

  Mass of Ions in am
   POMASS =  58.69 16.00
  Ionic Valenz
   ZVAL   =  10.00  6.00
  Atomic Wigner-Seitz radii
   RWIGS  =   1.29  0.82
  virtual crystal weights 
   VCA    =   1.00  1.00
   NELECT =      32.0000    total number of electrons
   NUPDOWN=      -1.0000    fix difference up-down

 DOS related values:
   EMIN   =  10.00;   EMAX   =-10.00  energy-range for DOS
   EFERMI =   0.00
   ISMEAR =     1;   SIGMA  =   0.20  broadening in eV -4-tet -1-fermi 0-gaus

 Electronic relaxation 2 (details)
   IALGO  =     38    algorithm
   LDIAG  =      T    sub-space diagonalisation (order eigenvalues)
   LSUBROT=      F    optimize rotation matrix (better conditioning)
   TURBO    =      0    0=normal 1=particle mesh
   IRESTART =      0    0=no restart 2=restart with 2 vectors
   NREBOOT  =      0    no. of reboots
   NMIN     =      0    reboot dimension
   EREF     =   0.00    reference energy to select bands
   IMIX   =      4    mixing-type and parameters
     AMIX     =   0.40;   BMIX     =  1.00
     AMIX_MAG =   1.60;   BMIX_MAG =  1.00
     AMIN     =   0.10
     WC   =   100.;   INIMIX=   1;  MIXPRE=   1;  MAXMIX= -45

 Intra band minimization:
   WEIMIN = 0.0000     energy-eigenvalue tresh-hold
   EBREAK =  0.13E-05  absolut break condition
   DEPER  =   0.30     relativ break condition  

   TIME   =   0.40     timestep for ELM

  volume/ion in A,a.u.               =       9.06        61.17
  Fermi-wavevector in a.u.,A,eV,Ry     =   1.570358  2.967547 33.552312  2.466025
  Thomas-Fermi vector in A             =   2.672104
 
 Write flags
   LWAVE        =      F    write WAVECAR
   LDOWNSAMPLE  =      F    k-point downsampling of WAVECAR
   LCHARG       =      F    write CHGCAR
   LVTOT        =      F    write LOCPOT, total local potential
   LVHAR        =      F    write LOCPOT, Hartree potential only
   LELF         =      F    write electronic localiz. function (ELF)
   LORBIT       =     11    0 simple, 1 ext, 2 COOP (PROOUT), +10 PAW based schemes


 Dipole corrections
   LMONO  =      F    monopole corrections only (constant potential shift)
   LDIPOL =      F    correct potential (dipole corrections)
   IDIPOL =      0    1-x, 2-y, 3-z, 4-all directions 
   EPSILON=  1.0000000 bulk dielectric constant

 Exchange correlation treatment:
   GGA     =    --    GGA type
   LEXCH   =     7    internal setting for exchange type
   VOSKOWN=      0    Vosko Wilk Nusair interpolation
   LHFCALC =     F    Hartree Fock is set to
   LHFONE  =     F    Hartree Fock one center treatment
   AEXX    =    0.0000 exact exchange contribution

 Linear response parameters
   LEPSILON=     F    determine dielectric tensor
   LRPA    =     F    only Hartree local field effects (RPA)
   LNABLA  =     F    use nabla operator in PAW spheres
   LVEL    =     F    velocity operator in full k-point grid
   LINTERFAST=   F  fast interpolation
   KINTER  =     0    interpolate to denser k-point grid
   CSHIFT  =0.1000    complex shift for real part using Kramers Kronig
   OMEGAMAX=  -1.0    maximum frequency
   DEG_THRESHOLD= 0.2000000E-02 threshold for treating states as degnerate
   RTIME   =   -0.100 relaxation time in fs
  (WPLASMAI=    0.000 imaginary part of plasma frequency in eV, 0.658/RTIME)
   DFIELD  = 0.0000000 0.0000000 0.0000000 field for delta impulse in time
 
 Orbital magnetization related:
   ORBITALMAG=     F  switch on orbital magnetization
   LCHIMAG   =     F  perturbation theory with respect to B field
   DQ        =  0.001000  dq finite difference perturbation B field
   LLRAUG    =     F  two centre corrections for induced B field



--------------------------------------------------------------------------------------------------------


 Static calculation
 charge density and potential remain constant during run
 spin polarized calculation
 Variant of blocked Davidson
 Davidson routine will perform the subspace rotation
 perform sub-space diagonalisation
    after iterative eigenvector-optimisation
 no mixing
 using additional bands            4
 reciprocal scheme for non local part
 use partial core corrections
 calculate Harris-corrections to forces 
   (improved forces if not selfconsistent)
 use gradient corrections 
 WARNING: stress and forces are not correct
  (second derivative of E(xc) not defined)
 use of overlap-Matrix (Vanderbilt PP)
 Methfessel and Paxton  Order N= 1 SIGMA  =   0.20


--------------------------------------------------------------------------------------------------------


  energy-cutoff  :      400.00
  volume of cell :       36.26
      direct lattice vectors                 reciprocal lattice vectors
     4.170000000  2.085000000  2.085000000     0.359712230 -0.119904077 -0.119904077
     2.085000000  4.170000000  2.085000000    -0.119904077  0.359712230 -0.119904077
     2.085000000  2.085000000  4.170000000    -0.119904077 -0.119904077  0.359712230

  length of vectors
     5.107186114  5.107186114  5.107186114     0.397676833  0.397676833  0.397676833


 
 k-points in units of 2pi/SCALE and weight: K-points                                
   0.68750000  0.00000000 -0.68750000       0.005
   0.66987179  0.00000000 -0.66987179       0.005
   0.65224359  0.00000000 -0.65224359       0.005
   0.63461538  0.00000000 -0.63461538       0.005
   0.61698718  0.00000000 -0.61698718       0.005
   0.59935897  0.00000000 -0.59935897       0.005
   0.58173077  0.00000000 -0.58173077       0.005
   0.56410256  0.00000000 -0.56410256       0.005
   0.54647436  0.00000000 -0.54647436       0.005
   0.52884615  0.00000000 -0.52884615       0.005
   0.51121795  0.00000000 -0.51121795       0.005
   0.49358974  0.00000000 -0.49358974       0.005
   0.47596154  0.00000000 -0.47596154       0.005
   0.45833333  0.00000000 -0.45833333       0.005
   0.44070513  0.00000000 -0.44070513       0.005
   0.42307692  0.00000000 -0.42307692       0.005
   0.40544872  0.00000000 -0.40544872       0.005
   0.38782051  0.00000000 -0.38782051       0.005
   0.37019231  0.00000000 -0.37019231       0.005
   0.35256410  0.00000000 -0.35256410       0.005
   0.33493590  0.00000000 -0.33493590       0.005
   0.31730769  0.00000000 -0.31730769       0.005
   0.29967949  0.00000000 -0.29967949       0.005
   0.28205128  0.00000000 -0.28205128       0.005
   0.26442308  0.00000000 -0.26442308       0.005
   0.24679487  0.00000000 -0.24679487       0.005
   0.22916667  0.00000000 -0.22916667       0.005
   0.21153846  0.00000000 -0.21153846       0.005
   0.19391026  0.00000000 -0.19391026       0.005
   0.17628205  0.00000000 -0.17628205       0.005
   0.15865385  0.00000000 -0.15865385       0.005
   0.14102564  0.00000000 -0.14102564       0.005
   0.12339744  0.00000000 -0.12339744       0.005
   0.10576923  0.00000000 -0.10576923       0.005
   0.08814103  0.00000000 -0.08814103       0.005
   0.07051282  0.00000000 -0.07051282       0.005
   0.05288462  0.00000000 -0.05288462       0.005
   0.03525641  0.00000000 -0.03525641       0.005
   0.01762821  0.00000000 -0.01762821       0.005
   0.00000000  0.00000000  0.00000000       0.005
   0.00000000  0.00000000  0.00000000       0.005
   0.00641026  0.00641026  0.00641026       0.005
   0.01282051  0.01282051  0.01282051       0.005
   0.01923077  0.01923077  0.01923077       0.005
   0.02564103  0.02564103  0.02564103       0.005
   0.03205128  0.03205128  0.03205128       0.005
   0.03846154  0.03846154  0.03846154       0.005
   0.04487179  0.04487179  0.04487179       0.005
   0.05128205  0.05128205  0.05128205       0.005
   0.05769231  0.05769231  0.05769231       0.005
   0.06410256  0.06410256  0.06410256       0.005
   0.07051282  0.07051282  0.07051282       0.005
   0.07692308  0.07692308  0.07692308       0.005
   0.08333333  0.08333333  0.08333333       0.005
   0.08974359  0.08974359  0.08974359       0.005
   0.09615385  0.09615385  0.09615385       0.005
   0.10256410  0.10256410  0.10256410       0.005
   0.10897436  0.10897436  0.10897436       0.005
   0.11538462  0.11538462  0.11538462       0.005
   0.12179487  0.12179487  0.12179487       0.005
   0.12820513  0.12820513  0.12820513       0.005
   0.13461538  0.13461538  0.13461538       0.005
   0.14102564  0.14102564  0.14102564       0.005
   0.14743590  0.14743590  0.14743590       0.005
   0.15384615  0.15384615  0.15384615       0.005
   0.16025641  0.16025641  0.16025641       0.005
   0.16666667  0.16666667  0.16666667       0.005
   0.17307692  0.17307692  0.17307692       0.005
   0.17948718  0.17948718  0.17948718       0.005
   0.18589744  0.18589744  0.18589744       0.005
   0.19230769  0.19230769  0.19230769       0.005
   0.19871795  0.19871795  0.19871795       0.005
   0.20512821  0.20512821  0.20512821       0.005
   0.21153846  0.21153846  0.21153846       0.005
   0.21794872  0.21794872  0.21794872       0.005
   0.22435897  0.22435897  0.22435897       0.005
   0.23076923  0.23076923  0.23076923       0.005
   0.23717949  0.23717949  0.23717949       0.005
   0.24358974  0.24358974  0.24358974       0.005
   0.25000000  0.25000000  0.25000000       0.005
   0.25000000  0.25000000  0.25000000       0.005
   0.26602564  0.24198718  0.24198718       0.005
   0.28205128  0.23397436  0.23397436       0.005
   0.29807692  0.22596154  0.22596154       0.005
   0.31410256  0.21794872  0.21794872       0.005
   0.33012821  0.20993590  0.20993590       0.005
   0.34615385  0.20192308  0.20192308       0.005
   0.36217949  0.19391026  0.19391026       0.005
   0.37820513  0.18589744  0.18589744       0.005
   0.39423077  0.17788462  0.17788462       0.005
   0.41025641  0.16987179  0.16987179       0.005
   0.42628205  0.16185897  0.16185897       0.005
   0.44230769  0.15384615  0.15384615       0.005
   0.45833333  0.14583333  0.14583333       0.005
   0.47435897  0.13782051  0.13782051       0.005
   0.49038462  0.12980769  0.12980769       0.005
   0.50641026  0.12179487  0.12179487       0.005
   0.52243590  0.11378205  0.11378205       0.005
   0.53846154  0.10576923  0.10576923       0.005
   0.55448718  0.09775641  0.09775641       0.005
   0.57051282  0.08974359  0.08974359       0.005
   0.58653846  0.08173077  0.08173077       0.005
   0.60256410  0.07371795  0.07371795       0.005
   0.61858974  0.06570513  0.06570513       0.005
   0.63461538  0.05769231  0.05769231       0.005
   0.65064103  0.04967949  0.04967949       0.005
   0.66666667  0.04166667  0.04166667       0.005
   0.68269231  0.03365385  0.03365385       0.005
   0.69871795  0.02564103  0.02564103       0.005
   0.71474359  0.01762821  0.01762821       0.005
   0.73076923  0.00961538  0.00961538       0.005
   0.74679487  0.00160256  0.00160256       0.005
   0.76282051 -0.00641026 -0.00641026       0.005
   0.77884615 -0.01442308 -0.01442308       0.005
   0.79487179 -0.02243590 -0.02243590       0.005
   0.81089744 -0.03044872 -0.03044872       0.005
   0.82692308 -0.03846154 -0.03846154       0.005
   0.84294872 -0.04647436 -0.04647436       0.005
   0.85897436 -0.05448718 -0.05448718       0.005
   0.87500000 -0.06250000 -0.06250000       0.005
   0.87500000 -0.06250000 -0.06250000       0.005
   0.86858974 -0.07211538 -0.07211538       0.005
   0.86217949 -0.08173077 -0.08173077       0.005
   0.85576923 -0.09134615 -0.09134615       0.005
   0.84935897 -0.10096154 -0.10096154       0.005
   0.84294872 -0.11057692 -0.11057692       0.005
   0.83653846 -0.12019231 -0.12019231       0.005
   0.83012821 -0.12980769 -0.12980769       0.005
   0.82371795 -0.13942308 -0.13942308       0.005
   0.81730769 -0.14903846 -0.14903846       0.005
   0.81089744 -0.15865385 -0.15865385       0.005
   0.80448718 -0.16826923 -0.16826923       0.005
   0.79807692 -0.17788462 -0.17788462       0.005
   0.79166667 -0.18750000 -0.18750000       0.005
   0.78525641 -0.19711538 -0.19711538       0.005
   0.77884615 -0.20673077 -0.20673077       0.005
   0.77243590 -0.21634615 -0.21634615       0.005
   0.76602564 -0.22596154 -0.22596154       0.005
   0.75961538 -0.23557692 -0.23557692       0.005
   0.75320513 -0.24519231 -0.24519231       0.005
   0.74679487 -0.25480769 -0.25480769       0.005
   0.74038462 -0.26442308 -0.26442308       0.005
   0.73397436 -0.27403846 -0.27403846       0.005
   0.72756410 -0.28365385 -0.28365385       0.005
   0.72115385 -0.29326923 -0.29326923       0.005
   0.71474359 -0.30288462 -0.30288462       0.005
   0.70833333 -0.31250000 -0.31250000       0.005
   0.70192308 -0.32211538 -0.32211538       0.005
   0.69551282 -0.33173077 -0.33173077       0.005
   0.68910256 -0.34134615 -0.34134615       0.005
   0.68269231 -0.35096154 -0.35096154       0.005
   0.67628205 -0.36057692 -0.36057692       0.005
   0.66987179 -0.37019231 -0.37019231       0.005
   0.66346154 -0.37980769 -0.37980769       0.005
   0.65705128 -0.38942308 -0.38942308       0.005
   0.65064103 -0.39903846 -0.39903846       0.005
   0.64423077 -0.40865385 -0.40865385       0.005
   0.63782051 -0.41826923 -0.41826923       0.005
   0.63141026 -0.42788462 -0.42788462       0.005
   0.62500000 -0.43750000 -0.43750000       0.005
   0.62500000 -0.43750000 -0.43750000       0.005
   0.61858974 -0.44070513 -0.44070513       0.005
   0.61217949 -0.44391026 -0.44391026       0.005
   0.60576923 -0.44711538 -0.44711538       0.005
   0.59935897 -0.45032051 -0.45032051       0.005
   0.59294872 -0.45352564 -0.45352564       0.005
   0.58653846 -0.45673077 -0.45673077       0.005
   0.58012821 -0.45993590 -0.45993590       0.005
   0.57371795 -0.46314103 -0.46314103       0.005
   0.56730769 -0.46634615 -0.46634615       0.005
   0.56089744 -0.46955128 -0.46955128       0.005
   0.55448718 -0.47275641 -0.47275641       0.005
   0.54807692 -0.47596154 -0.47596154       0.005
   0.54166667 -0.47916667 -0.47916667       0.005
   0.53525641 -0.48237179 -0.48237179       0.005
   0.52884615 -0.48557692 -0.48557692       0.005
   0.52243590 -0.48878205 -0.48878205       0.005
   0.51602564 -0.49198718 -0.49198718       0.005
   0.50961538 -0.49519231 -0.49519231       0.005
   0.50320513 -0.49839744 -0.49839744       0.005
   0.49679487 -0.50160256 -0.50160256       0.005
   0.49038462 -0.50480769 -0.50480769       0.005
   0.48397436 -0.50801282 -0.50801282       0.005
   0.47756410 -0.51121795 -0.51121795       0.005
   0.47115385 -0.51442308 -0.51442308       0.005
   0.46474359 -0.51762821 -0.51762821       0.005
   0.45833333 -0.52083333 -0.52083333       0.005
   0.45192308 -0.52403846 -0.52403846       0.005
   0.44551282 -0.52724359 -0.52724359       0.005
   0.43910256 -0.53044872 -0.53044872       0.005
   0.43269231 -0.53365385 -0.53365385       0.005
   0.42628205 -0.53685897 -0.53685897       0.005
   0.41987179 -0.54006410 -0.54006410       0.005
   0.41346154 -0.54326923 -0.54326923       0.005
   0.40705128 -0.54647436 -0.54647436       0.005
   0.40064103 -0.54967949 -0.54967949       0.005
   0.39423077 -0.55288462 -0.55288462       0.005
   0.38782051 -0.55608974 -0.55608974       0.005
   0.38141026 -0.55929487 -0.55929487       0.005
   0.37500000 -0.56250000 -0.56250000       0.005
 
 k-points in reciprocal lattice and weights: K-points                                
   0.34375000  0.00000000 -0.34375000       0.005
   0.33493590  0.00000000 -0.33493590       0.005
   0.32612179  0.00000000 -0.32612179       0.005
   0.31730769  0.00000000 -0.31730769       0.005
   0.30849359  0.00000000 -0.30849359       0.005
   0.29967949  0.00000000 -0.29967949       0.005
   0.29086538  0.00000000 -0.29086538       0.005
   0.28205128  0.00000000 -0.28205128       0.005
   0.27323718  0.00000000 -0.27323718       0.005
   0.26442308  0.00000000 -0.26442308       0.005
   0.25560897  0.00000000 -0.25560897       0.005
   0.24679487  0.00000000 -0.24679487       0.005
   0.23798077  0.00000000 -0.23798077       0.005
   0.22916667  0.00000000 -0.22916667       0.005
   0.22035256  0.00000000 -0.22035256       0.005
   0.21153846  0.00000000 -0.21153846       0.005
   0.20272436  0.00000000 -0.20272436       0.005
   0.19391026  0.00000000 -0.19391026       0.005
   0.18509615  0.00000000 -0.18509615       0.005
   0.17628205  0.00000000 -0.17628205       0.005
   0.16746795  0.00000000 -0.16746795       0.005
   0.15865385  0.00000000 -0.15865385       0.005
   0.14983974  0.00000000 -0.14983974       0.005
   0.14102564  0.00000000 -0.14102564       0.005
   0.13221154  0.00000000 -0.13221154       0.005
   0.12339744  0.00000000 -0.12339744       0.005
   0.11458333  0.00000000 -0.11458333       0.005
   0.10576923  0.00000000 -0.10576923       0.005
   0.09695513  0.00000000 -0.09695513       0.005
   0.08814103  0.00000000 -0.08814103       0.005
   0.07932692  0.00000000 -0.07932692       0.005
   0.07051282  0.00000000 -0.07051282       0.005
   0.06169872  0.00000000 -0.06169872       0.005
   0.05288462  0.00000000 -0.05288462       0.005
   0.04407051  0.00000000 -0.04407051       0.005
   0.03525641  0.00000000 -0.03525641       0.005
   0.02644231  0.00000000 -0.02644231       0.005
   0.01762821  0.00000000 -0.01762821       0.005
   0.00881410  0.00000000 -0.00881410       0.005
   0.00000000  0.00000000  0.00000000       0.005
   0.00000000  0.00000000  0.00000000       0.005
   0.01282051  0.01282051  0.01282051       0.005
   0.02564103  0.02564103  0.02564103       0.005
   0.03846154  0.03846154  0.03846154       0.005
   0.05128205  0.05128205  0.05128205       0.005
   0.06410256  0.06410256  0.06410256       0.005
   0.07692308  0.07692308  0.07692308       0.005
   0.08974359  0.08974359  0.08974359       0.005
   0.10256410  0.10256410  0.10256410       0.005
   0.11538462  0.11538462  0.11538462       0.005
   0.12820513  0.12820513  0.12820513       0.005
   0.14102564  0.14102564  0.14102564       0.005
   0.15384615  0.15384615  0.15384615       0.005
   0.16666667  0.16666667  0.16666667       0.005
   0.17948718  0.17948718  0.17948718       0.005
   0.19230769  0.19230769  0.19230769       0.005
   0.20512821  0.20512821  0.20512821       0.005
   0.21794872  0.21794872  0.21794872       0.005
   0.23076923  0.23076923  0.23076923       0.005
   0.24358974  0.24358974  0.24358974       0.005
   0.25641026  0.25641026  0.25641026       0.005
   0.26923077  0.26923077  0.26923077       0.005
   0.28205128  0.28205128  0.28205128       0.005
   0.29487179  0.29487179  0.29487179       0.005
   0.30769231  0.30769231  0.30769231       0.005
   0.32051282  0.32051282  0.32051282       0.005
   0.33333333  0.33333333  0.33333333       0.005
   0.34615385  0.34615385  0.34615385       0.005
   0.35897436  0.35897436  0.35897436       0.005
   0.37179487  0.37179487  0.37179487       0.005
   0.38461538  0.38461538  0.38461538       0.005
   0.39743590  0.39743590  0.39743590       0.005
   0.41025641  0.41025641  0.41025641       0.005
   0.42307692  0.42307692  0.42307692       0.005
   0.43589744  0.43589744  0.43589744       0.005
   0.44871795  0.44871795  0.44871795       0.005
   0.46153846  0.46153846  0.46153846       0.005
   0.47435897  0.47435897  0.47435897       0.005
   0.48717949  0.48717949  0.48717949       0.005
   0.50000000  0.50000000  0.50000000       0.005
   0.50000000  0.50000000  0.50000000       0.005
   0.50801282  0.49599359  0.49599359       0.005
   0.51602564  0.49198718  0.49198718       0.005
   0.52403846  0.48798077  0.48798077       0.005
   0.53205128  0.48397436  0.48397436       0.005
   0.54006410  0.47996795  0.47996795       0.005
   0.54807692  0.47596154  0.47596154       0.005
   0.55608974  0.47195513  0.47195513       0.005
   0.56410256  0.46794872  0.46794872       0.005
   0.57211538  0.46394231  0.46394231       0.005
   0.58012821  0.45993590  0.45993590       0.005
   0.58814103  0.45592949  0.45592949       0.005
   0.59615385  0.45192308  0.45192308       0.005
   0.60416667  0.44791667  0.44791667       0.005
   0.61217949  0.44391026  0.44391026       0.005
   0.62019231  0.43990385  0.43990385       0.005
   0.62820513  0.43589744  0.43589744       0.005
   0.63621795  0.43189103  0.43189103       0.005
   0.64423077  0.42788462  0.42788462       0.005
   0.65224359  0.42387821  0.42387821       0.005
   0.66025641  0.41987179  0.41987179       0.005
   0.66826923  0.41586538  0.41586538       0.005
   0.67628205  0.41185897  0.41185897       0.005
   0.68429487  0.40785256  0.40785256       0.005
   0.69230769  0.40384615  0.40384615       0.005
   0.70032051  0.39983974  0.39983974       0.005
   0.70833333  0.39583333  0.39583333       0.005
   0.71634615  0.39182692  0.39182692       0.005
   0.72435897  0.38782051  0.38782051       0.005
   0.73237179  0.38381410  0.38381410       0.005
   0.74038462  0.37980769  0.37980769       0.005
   0.74839744  0.37580128  0.37580128       0.005
   0.75641026  0.37179487  0.37179487       0.005
   0.76442308  0.36778846  0.36778846       0.005
   0.77243590  0.36378205  0.36378205       0.005
   0.78044872  0.35977564  0.35977564       0.005
   0.78846154  0.35576923  0.35576923       0.005
   0.79647436  0.35176282  0.35176282       0.005
   0.80448718  0.34775641  0.34775641       0.005
   0.81250000  0.34375000  0.34375000       0.005
   0.81250000  0.34375000  0.34375000       0.005
   0.79647436  0.32612179  0.32612179       0.005
   0.78044872  0.30849359  0.30849359       0.005
   0.76442308  0.29086538  0.29086538       0.005
   0.74839744  0.27323718  0.27323718       0.005
   0.73237179  0.25560897  0.25560897       0.005
   0.71634615  0.23798077  0.23798077       0.005
   0.70032051  0.22035256  0.22035256       0.005
   0.68429487  0.20272436  0.20272436       0.005
   0.66826923  0.18509615  0.18509615       0.005
   0.65224359  0.16746795  0.16746795       0.005
   0.63621795  0.14983974  0.14983974       0.005
   0.62019231  0.13221154  0.13221154       0.005
   0.60416667  0.11458333  0.11458333       0.005
   0.58814103  0.09695513  0.09695513       0.005
   0.57211538  0.07932692  0.07932692       0.005
   0.55608974  0.06169872  0.06169872       0.005
   0.54006410  0.04407051  0.04407051       0.005
   0.52403846  0.02644231  0.02644231       0.005
   0.50801282  0.00881410  0.00881410       0.005
   0.49198718 -0.00881410 -0.00881410       0.005
   0.47596154 -0.02644231 -0.02644231       0.005
   0.45993590 -0.04407051 -0.04407051       0.005
   0.44391026 -0.06169872 -0.06169872       0.005
   0.42788462 -0.07932692 -0.07932692       0.005
   0.41185897 -0.09695513 -0.09695513       0.005
   0.39583333 -0.11458333 -0.11458333       0.005
   0.37980769 -0.13221154 -0.13221154       0.005
   0.36378205 -0.14983974 -0.14983974       0.005
   0.34775641 -0.16746795 -0.16746795       0.005
   0.33173077 -0.18509615 -0.18509615       0.005
   0.31570513 -0.20272436 -0.20272436       0.005
   0.29967949 -0.22035256 -0.22035256       0.005
   0.28365385 -0.23798077 -0.23798077       0.005
   0.26762821 -0.25560897 -0.25560897       0.005
   0.25160256 -0.27323718 -0.27323718       0.005
   0.23557692 -0.29086538 -0.29086538       0.005
   0.21955128 -0.30849359 -0.30849359       0.005
   0.20352564 -0.32612179 -0.32612179       0.005
   0.18750000 -0.34375000 -0.34375000       0.005
   0.18750000 -0.34375000 -0.34375000       0.005
   0.17788462 -0.35176282 -0.35176282       0.005
   0.16826923 -0.35977564 -0.35977564       0.005
   0.15865385 -0.36778846 -0.36778846       0.005
   0.14903846 -0.37580128 -0.37580128       0.005
   0.13942308 -0.38381410 -0.38381410       0.005
   0.12980769 -0.39182692 -0.39182692       0.005
   0.12019231 -0.39983974 -0.39983974       0.005
   0.11057692 -0.40785256 -0.40785256       0.005
   0.10096154 -0.41586538 -0.41586538       0.005
   0.09134615 -0.42387821 -0.42387821       0.005
   0.08173077 -0.43189103 -0.43189103       0.005
   0.07211538 -0.43990385 -0.43990385       0.005
   0.06250000 -0.44791667 -0.44791667       0.005
   0.05288462 -0.45592949 -0.45592949       0.005
   0.04326923 -0.46394231 -0.46394231       0.005
   0.03365385 -0.47195513 -0.47195513       0.005
   0.02403846 -0.47996795 -0.47996795       0.005
   0.01442308 -0.48798077 -0.48798077       0.005
   0.00480769 -0.49599359 -0.49599359       0.005
  -0.00480769 -0.50400641 -0.50400641       0.005
  -0.01442308 -0.51201923 -0.51201923       0.005
  -0.02403846 -0.52003205 -0.52003205       0.005
  -0.03365385 -0.52804487 -0.52804487       0.005
  -0.04326923 -0.53605769 -0.53605769       0.005
  -0.05288462 -0.54407051 -0.54407051       0.005
  -0.06250000 -0.55208333 -0.55208333       0.005
  -0.07211538 -0.56009615 -0.56009615       0.005
  -0.08173077 -0.56810897 -0.56810897       0.005
  -0.09134615 -0.57612179 -0.57612179       0.005
  -0.10096154 -0.58413462 -0.58413462       0.005
  -0.11057692 -0.59214744 -0.59214744       0.005
  -0.12019231 -0.60016026 -0.60016026       0.005
  -0.12980769 -0.60817308 -0.60817308       0.005
  -0.13942308 -0.61618590 -0.61618590       0.005
  -0.14903846 -0.62419872 -0.62419872       0.005
  -0.15865385 -0.63221154 -0.63221154       0.005
  -0.16826923 -0.64022436 -0.64022436       0.005
  -0.17788462 -0.64823718 -0.64823718       0.005
  -0.18750000 -0.65625000 -0.65625000       0.005
 
 position of ions in fractional coordinates (direct lattice) 
   0.00000000  0.00000000  0.00000000
   0.50000000  0.50000000  0.50000000
   0.25000000  0.25000000  0.25000000
   0.75000000  0.75000000  0.75000000
 
 position of ions in cartesian coordinates  (Angst):
   0.00000000  0.00000000  0.00000000
   4.17000000  4.17000000  4.17000000
   2.08500000  2.08500000  2.08500000
   6.25500000  6.25500000  6.25500000
 


--------------------------------------------------------------------------------------------------------


 k-point  1 :   0.3438 0.0000-0.3438  plane waves:     663
 k-point  2 :   0.3349 0.0000-0.3349  plane waves:     651
 k-point  3 :   0.3261 0.0000-0.3261  plane waves:     653
 k-point  4 :   0.3173 0.0000-0.3173  plane waves:     657
 k-point  5 :   0.3085 0.0000-0.3085  plane waves:     661
 k-point  6 :   0.2997 0.0000-0.2997  plane waves:     659
 k-point  7 :   0.2909 0.0000-0.2909  plane waves:     663
 k-point  8 :   0.2821 0.0000-0.2821  plane waves:     665
 k-point  9 :   0.2732 0.0000-0.2732  plane waves:     663
 k-point 10 :   0.2644 0.0000-0.2644  plane waves:     663
 k-point 11 :   0.2556 0.0000-0.2556  plane waves:     655
 k-point 12 :   0.2468 0.0000-0.2468  plane waves:     655
 k-point 13 :   0.2380 0.0000-0.2380  plane waves:     659
 k-point 14 :   0.2292 0.0000-0.2292  plane waves:     659
 k-point 15 :   0.2204 0.0000-0.2204  plane waves:     661
 k-point 16 :   0.2115 0.0000-0.2115  plane waves:     651
 k-point 17 :   0.2027 0.0000-0.2027  plane waves:     651
 k-point 18 :   0.1939 0.0000-0.1939  plane waves:     651
 k-point 19 :   0.1851 0.0000-0.1851  plane waves:     653
 k-point 20 :   0.1763 0.0000-0.1763  plane waves:     653
 k-point 21 :   0.1675 0.0000-0.1675  plane waves:     649
 k-point 22 :   0.1587 0.0000-0.1587  plane waves:     655
 k-point 23 :   0.1498 0.0000-0.1498  plane waves:     651
 k-point 24 :   0.1410 0.0000-0.1410  plane waves:     647
 k-point 25 :   0.1322 0.0000-0.1322  plane waves:     653
 k-point 26 :   0.1234 0.0000-0.1234  plane waves:     661
 k-point 27 :   0.1146 0.0000-0.1146  plane waves:     657
 k-point 28 :   0.1058 0.0000-0.1058  plane waves:     655
 k-point 29 :   0.0970 0.0000-0.0970  plane waves:     659
 k-point 30 :   0.0881 0.0000-0.0881  plane waves:     661
 k-point 31 :   0.0793 0.0000-0.0793  plane waves:     659
 k-point 32 :   0.0705 0.0000-0.0705  plane waves:     659
 k-point 33 :   0.0617 0.0000-0.0617  plane waves:     661
 k-point 34 :   0.0529 0.0000-0.0529  plane waves:     661
 k-point 35 :   0.0441 0.0000-0.0441  plane waves:     665
 k-point 36 :   0.0353 0.0000-0.0353  plane waves:     665
 k-point 37 :   0.0264 0.0000-0.0264  plane waves:     665
 k-point 38 :   0.0176 0.0000-0.0176  plane waves:     665
 k-point 39 :   0.0088 0.0000-0.0088  plane waves:     663
 k-point 40 :   0.0000 0.0000 0.0000  plane waves:     663
 k-point 41 :   0.0000 0.0000 0.0000  plane waves:     663
 k-point 42 :   0.0128 0.0128 0.0128  plane waves:     663
 k-point 43 :   0.0256 0.0256 0.0256  plane waves:     663
 k-point 44 :   0.0385 0.0385 0.0385  plane waves:     663
 k-point 45 :   0.0513 0.0513 0.0513  plane waves:     666
 k-point 46 :   0.0641 0.0641 0.0641  plane waves:     666
 k-point 47 :   0.0769 0.0769 0.0769  plane waves:     666
 k-point 48 :   0.0897 0.0897 0.0897  plane waves:     666
 k-point 49 :   0.1026 0.1026 0.1026  plane waves:     666
 k-point 50 :   0.1154 0.1154 0.1154  plane waves:     666
 k-point 51 :   0.1282 0.1282 0.1282  plane waves:     666
 k-point 52 :   0.1410 0.1410 0.1410  plane waves:     660
 k-point 53 :   0.1538 0.1538 0.1538  plane waves:     664
 k-point 54 :   0.1667 0.1667 0.1667  plane waves:     664
 k-point 55 :   0.1795 0.1795 0.1795  plane waves:     664
 k-point 56 :   0.1923 0.1923 0.1923  plane waves:     664
 k-point 57 :   0.2051 0.2051 0.2051  plane waves:     664
 k-point 58 :   0.2179 0.2179 0.2179  plane waves:     664
 k-point 59 :   0.2308 0.2308 0.2308  plane waves:     661
 k-point 60 :   0.2436 0.2436 0.2436  plane waves:     661
 k-point 61 :   0.2564 0.2564 0.2564  plane waves:     661
 k-point 62 :   0.2692 0.2692 0.2692  plane waves:     655
 k-point 63 :   0.2821 0.2821 0.2821  plane waves:     661
 k-point 64 :   0.2949 0.2949 0.2949  plane waves:     658
 k-point 65 :   0.3077 0.3077 0.3077  plane waves:     658
 k-point 66 :   0.3205 0.3205 0.3205  plane waves:     658
 k-point 67 :   0.3333 0.3333 0.3333  plane waves:     658
 k-point 68 :   0.3462 0.3462 0.3462  plane waves:     658
 k-point 69 :   0.3590 0.3590 0.3590  plane waves:     652
 k-point 70 :   0.3718 0.3718 0.3718  plane waves:     652
 k-point 71 :   0.3846 0.3846 0.3846  plane waves:     652
 k-point 72 :   0.3974 0.3974 0.3974  plane waves:     646
 k-point 73 :   0.4103 0.4103 0.4103  plane waves:     652
 k-point 74 :   0.4231 0.4231 0.4231  plane waves:     652
 k-point 75 :   0.4359 0.4359 0.4359  plane waves:     652
 k-point 76 :   0.4487 0.4487 0.4487  plane waves:     649
 k-point 77 :   0.4615 0.4615 0.4615  plane waves:     649
 k-point 78 :   0.4744 0.4744 0.4744  plane waves:     649
 k-point 79 :   0.4872 0.4872 0.4872  plane waves:     652
 k-point 80 :   0.5000 0.5000 0.5000  plane waves:     652
 k-point 81 :   0.5000 0.5000 0.5000  plane waves:     652
 k-point 82 :   0.5080 0.4960 0.4960  plane waves:     649
 k-point 83 :   0.5160 0.4920 0.4920  plane waves:     649
 k-point 84 :   0.5240 0.4880 0.4880  plane waves:     649
 k-point 85 :   0.5321 0.4840 0.4840  plane waves:     647
 k-point 86 :   0.5401 0.4800 0.4800  plane waves:     653
 k-point 87 :   0.5481 0.4760 0.4760  plane waves:     655
 k-point 88 :   0.5561 0.4720 0.4720  plane waves:     657
 k-point 89 :   0.5641 0.4679 0.4679  plane waves:     659
 k-point 90 :   0.5721 0.4639 0.4639  plane waves:     653
 k-point 91 :   0.5801 0.4599 0.4599  plane waves:     655
 k-point 92 :   0.5881 0.4559 0.4559  plane waves:     655
 k-point 93 :   0.5962 0.4519 0.4519  plane waves:     654
 k-point 94 :   0.6042 0.4479 0.4479  plane waves:     652
 k-point 95 :   0.6122 0.4439 0.4439  plane waves:     651
 k-point 96 :   0.6202 0.4399 0.4399  plane waves:     651
 k-point 97 :   0.6282 0.4359 0.4359  plane waves:     650
 k-point 98 :   0.6362 0.4319 0.4319  plane waves:     650
 k-point 99 :   0.6442 0.4279 0.4279  plane waves:     650
 k-point ** :   0.6522 0.4239 0.4239  plane waves:     648
 k-point ** :   0.6603 0.4199 0.4199  plane waves:     650
 k-point ** :   0.6683 0.4159 0.4159  plane waves:     654
 k-point ** :   0.6763 0.4119 0.4119  plane waves:     656
 k-point ** :   0.6843 0.4079 0.4079  plane waves:     656
 k-point ** :   0.6923 0.4038 0.4038  plane waves:     652
 k-point ** :   0.7003 0.3998 0.3998  plane waves:     653
 k-point ** :   0.7083 0.3958 0.3958  plane waves:     649
 k-point ** :   0.7163 0.3918 0.3918  plane waves:     651
 k-point ** :   0.7244 0.3878 0.3878  plane waves:     653
 k-point ** :   0.7324 0.3838 0.3838  plane waves:     655
 k-point ** :   0.7404 0.3798 0.3798  plane waves:     655
 k-point ** :   0.7484 0.3758 0.3758  plane waves:     656
 k-point ** :   0.7564 0.3718 0.3718  plane waves:     656
 k-point ** :   0.7644 0.3678 0.3678  plane waves:     658
 k-point ** :   0.7724 0.3638 0.3638  plane waves:     656
 k-point ** :   0.7804 0.3598 0.3598  plane waves:     656
 k-point ** :   0.7885 0.3558 0.3558  plane waves:     656
 k-point ** :   0.7965 0.3518 0.3518  plane waves:     660
 k-point ** :   0.8045 0.3478 0.3478  plane waves:     660
 k-point ** :   0.8125 0.3438 0.3438  plane waves:     660
 k-point ** :   0.8125 0.3438 0.3438  plane waves:     660
 k-point ** :   0.7965 0.3261 0.3261  plane waves:     661
 k-point ** :   0.7804 0.3085 0.3085  plane waves:     659
 k-point ** :   0.7644 0.2909 0.2909  plane waves:     659
 k-point ** :   0.7484 0.2732 0.2732  plane waves:     661
 k-point ** :   0.7324 0.2556 0.2556  plane waves:     659
 k-point ** :   0.7163 0.2380 0.2380  plane waves:     661
 k-point ** :   0.7003 0.2204 0.2204  plane waves:     659
 k-point ** :   0.6843 0.2027 0.2027  plane waves:     657
 k-point ** :   0.6683 0.1851 0.1851  plane waves:     658
 k-point ** :   0.6522 0.1675 0.1675  plane waves:     659
 k-point ** :   0.6362 0.1498 0.1498  plane waves:     657
 k-point ** :   0.6202 0.1322 0.1322  plane waves:     657
 k-point ** :   0.6042 0.1146 0.1146  plane waves:     658
 k-point ** :   0.5881 0.0970 0.0970  plane waves:     659
 k-point ** :   0.5721 0.0793 0.0793  plane waves:     657
 k-point ** :   0.5561 0.0617 0.0617  plane waves:     657
 k-point ** :   0.5401 0.0441 0.0441  plane waves:     659
 k-point ** :   0.5240 0.0264 0.0264  plane waves:     658
 k-point ** :   0.5080 0.0088 0.0088  plane waves:     658
 k-point ** :   0.4920-0.0088-0.0088  plane waves:     658
 k-point ** :   0.4760-0.0264-0.0264  plane waves:     658
 k-point ** :   0.4599-0.0441-0.0441  plane waves:     659
 k-point ** :   0.4439-0.0617-0.0617  plane waves:     657
 k-point ** :   0.4279-0.0793-0.0793  plane waves:     657
 k-point ** :   0.4119-0.0970-0.0970  plane waves:     659
 k-point ** :   0.3958-0.1146-0.1146  plane waves:     658
 k-point ** :   0.3798-0.1322-0.1322  plane waves:     657
 k-point ** :   0.3638-0.1498-0.1498  plane waves:     657
 k-point ** :   0.3478-0.1675-0.1675  plane waves:     659
 k-point ** :   0.3317-0.1851-0.1851  plane waves:     658
 k-point ** :   0.3157-0.2027-0.2027  plane waves:     657
 k-point ** :   0.2997-0.2204-0.2204  plane waves:     659
 k-point ** :   0.2837-0.2380-0.2380  plane waves:     661
 k-point ** :   0.2676-0.2556-0.2556  plane waves:     659
 k-point ** :   0.2516-0.2732-0.2732  plane waves:     661
 k-point ** :   0.2356-0.2909-0.2909  plane waves:     659
 k-point ** :   0.2196-0.3085-0.3085  plane waves:     659
 k-point ** :   0.2035-0.3261-0.3261  plane waves:     661
 k-point ** :   0.1875-0.3438-0.3438  plane waves:     660
 k-point ** :   0.1875-0.3438-0.3438  plane waves:     660
 k-point ** :   0.1779-0.3518-0.3518  plane waves:     660
 k-point ** :   0.1683-0.3598-0.3598  plane waves:     660
 k-point ** :   0.1587-0.3678-0.3678  plane waves:     660
 k-point ** :   0.1490-0.3758-0.3758  plane waves:     666
 k-point ** :   0.1394-0.3838-0.3838  plane waves:     666
 k-point ** :   0.1298-0.3918-0.3918  plane waves:     667
 k-point ** :   0.1202-0.3998-0.3998  plane waves:     667
 k-point ** :   0.1106-0.4079-0.4079  plane waves:     669
 k-point ** :   0.1010-0.4159-0.4159  plane waves:     669
 k-point ** :   0.0913-0.4239-0.4239  plane waves:     667
 k-point ** :   0.0817-0.4319-0.4319  plane waves:     667
 k-point ** :   0.0721-0.4399-0.4399  plane waves:     667
 k-point ** :   0.0625-0.4479-0.4479  plane waves:     667
 k-point ** :   0.0529-0.4559-0.4559  plane waves:     667
 k-point ** :   0.0433-0.4639-0.4639  plane waves:     668
 k-point ** :   0.0337-0.4720-0.4720  plane waves:     670
 k-point ** :   0.0240-0.4800-0.4800  plane waves:     672
 k-point ** :   0.0144-0.4880-0.4880  plane waves:     674
 k-point ** :   0.0048-0.4960-0.4960  plane waves:     674
 k-point ** :  -0.0048-0.5040-0.5040  plane waves:     674
 k-point ** :  -0.0144-0.5120-0.5120  plane waves:     674
 k-point ** :  -0.0240-0.5200-0.5200  plane waves:     672
 k-point ** :  -0.0337-0.5280-0.5280  plane waves:     670
 k-point ** :  -0.0433-0.5361-0.5361  plane waves:     668
 k-point ** :  -0.0529-0.5441-0.5441  plane waves:     667
 k-point ** :  -0.0625-0.5521-0.5521  plane waves:     667
 k-point ** :  -0.0721-0.5601-0.5601  plane waves:     667
 k-point ** :  -0.0817-0.5681-0.5681  plane waves:     667
 k-point ** :  -0.0913-0.5761-0.5761  plane waves:     667
 k-point ** :  -0.1010-0.5841-0.5841  plane waves:     669
 k-point ** :  -0.1106-0.5921-0.5921  plane waves:     669
 k-point ** :  -0.1202-0.6002-0.6002  plane waves:     667
 k-point ** :  -0.1298-0.6082-0.6082  plane waves:     667
 k-point ** :  -0.1394-0.6162-0.6162  plane waves:     666
 k-point ** :  -0.1490-0.6242-0.6242  plane waves:     666
 k-point ** :  -0.1587-0.6322-0.6322  plane waves:     660
 k-point ** :  -0.1683-0.6402-0.6402  plane waves:     660
 k-point ** :  -0.1779-0.6482-0.6482  plane waves:     660
 k-point ** :  -0.1875-0.6562-0.6562  plane waves:     660

 maximum and minimum number of plane-waves per node :       674      646

 maximum number of plane-waves:       674
 maximum index in each direction: 
   IXMAX=    8   IYMAX=    8   IZMAX=    8
   IXMIN=   -9   IYMIN=   -8   IZMIN=   -8


 serial   3D FFT for wavefunctions
 parallel 3D FFT for charge:
    minimum data exchange during FFTs selected (reduces bandwidth)


 total amount of memory used by VASP MPI-rank0   200542. kBytes
=======================================================================

   base      :      30000. kBytes
   nonl-proj :      38865. kBytes
   fftplans  :      11932. kBytes
   grid      :      26693. kBytes
   one-center:        124. kBytes
   wavefun   :      92928. kBytes
 
     INWAV:  cpu time    0.0001: real time    0.0001
 initial charge density was supplied:
 number of electron      32.0000046 magnetization      -0.0000000
 keeping initial charge density in first step


--------------------------------------------------------------------------------------------------------


 Maximum index for augmentation-charges        19063 (set IRDMAX)


--------------------------------------------------------------------------------------------------------


 First call to EWALD:  gamma=   0.536
 Maximum number of real-space cells 3x 3x 3
 Maximum number of reciprocal cells 4x 4x 4

    FEWALD:  cpu time    0.0014: real time    0.0014


--------------------------------------- Iteration      1(   1)  ---------------------------------------


    POTLOK:  cpu time    0.8488: real time    0.8523
    SETDIJ:  cpu time    0.0353: real time    0.0354
     EDDAV:  cpu time   16.0842: real time   16.1227
       DOS:  cpu time    0.0243: real time    0.0244
    --------------------------------------------
      LOOP:  cpu time   16.9927: real time   17.0348

 eigenvalue-minimisations  : 16328
 total energy-change (2. order) : 0.2125898E+03  (-0.1429913E+04)
 number of electron      32.0000046 magnetization      -0.0000000
 augmentation part       32.0000046 magnetization      -0.0000000

 Free energy of the ion-electron system (eV)
  ---------------------------------------------------
  alpha Z        PSCENC =       217.71629331
  Ewald energy   TEWEN  =     -2604.77031634
  -Hartree energ DENC   =      -636.47758397
  -exchange      EXHF   =         0.00000000
  -V(xc)+E(xc)   XCENC  =       118.74200835
  PAW double counting   =      2353.20413034    -2496.23762849
  entropy T*S    EENTRO =         0.00057105
  eigenvalues    EBANDS =       235.66975505
  atomic energy  EATOM  =      3024.74254395
  Solvation  Ediel_sol  =         0.00000000
  ---------------------------------------------------
  free energy    TOTEN  =       212.58977326 eV

  energy without entropy =      212.58920221  energy(sigma->0) =      212.58958291


--------------------------------------------------------------------------------------------------------




--------------------------------------- Iteration      1(   2)  ---------------------------------------


     EDDAV:  cpu time   16.4751: real time   16.5146
       DOS:  cpu time    0.0291: real time    0.0292
    --------------------------------------------
      LOOP:  cpu time   16.5042: real time   16.5438

 eigenvalue-minimisations  : 16796
 total energy-change (2. order) :-0.2145817E+03  (-0.2024491E+03)
 number of electron      32.0000046 magnetization      -0.0000000
 augmentation part       32.0000046 magnetization      -0.0000000

 Free energy of the ion-electron system (eV)
  ---------------------------------------------------
  alpha Z        PSCENC =       217.71629331
  Ewald energy   TEWEN  =     -2604.77031634
  -Hartree energ DENC   =      -636.47758397
  -exchange      EXHF   =         0.00000000
  -V(xc)+E(xc)   XCENC  =       118.74200835
  PAW double counting   =      2353.20413034    -2496.23762849
  entropy T*S    EENTRO =        -0.00011697
  eigenvalues    EBANDS =        21.08874063
  atomic energy  EATOM  =      3024.74254395
  Solvation  Ediel_sol  =         0.00000000
  ---------------------------------------------------
  free energy    TOTEN  =        -1.99192918 eV

  energy without entropy =       -1.99181221  energy(sigma->0) =       -1.99189019


--------------------------------------------------------------------------------------------------------




--------------------------------------- Iteration      1(   3)  ---------------------------------------


     EDDAV:  cpu time   17.3823: real time   17.4315
       DOS:  cpu time    0.0313: real time    0.0314
    --------------------------------------------
      LOOP:  cpu time   17.4136: real time   17.4629

 eigenvalue-minimisations  : 17956
 total energy-change (2. order) :-0.2021352E+02  (-0.1911426E+02)
 number of electron      32.0000046 magnetization      -0.0000000
 augmentation part       32.0000046 magnetization      -0.0000000

 Free energy of the ion-electron system (eV)
  ---------------------------------------------------
  alpha Z        PSCENC =       217.71629331
  Ewald energy   TEWEN  =     -2604.77031634
  -Hartree energ DENC   =      -636.47758397
  -exchange      EXHF   =         0.00000000
  -V(xc)+E(xc)   XCENC  =       118.74200835
  PAW double counting   =      2353.20413034    -2496.23762849
  entropy T*S    EENTRO =         0.02234952
  eigenvalues    EBANDS =         0.85275027
  atomic energy  EATOM  =      3024.74254395
  Solvation  Ediel_sol  =         0.00000000
  ---------------------------------------------------
  free energy    TOTEN  =       -22.20545305 eV

  energy without entropy =      -22.22780257  energy(sigma->0) =      -22.21290289


--------------------------------------------------------------------------------------------------------




--------------------------------------- Iteration      1(   4)  ---------------------------------------


     EDDAV:  cpu time   17.9222: real time   17.9650
       DOS:  cpu time    0.0327: real time    0.0327
    --------------------------------------------
      LOOP:  cpu time   17.9549: real time   17.9977

 eigenvalue-minimisations  : 17220
 total energy-change (2. order) :-0.5195817E+00  (-0.5160292E+00)
 number of electron      32.0000046 magnetization      -0.0000000
 augmentation part       32.0000046 magnetization      -0.0000000

 Free energy of the ion-electron system (eV)
  ---------------------------------------------------
  alpha Z        PSCENC =       217.71629331
  Ewald energy   TEWEN  =     -2604.77031634
  -Hartree energ DENC   =      -636.47758397
  -exchange      EXHF   =         0.00000000
  -V(xc)+E(xc)   XCENC  =       118.74200835
  PAW double counting   =      2353.20413034    -2496.23762849
  entropy T*S    EENTRO =         0.02335375
  eigenvalues    EBANDS =         0.33216431
  atomic energy  EATOM  =      3024.74254395
  Solvation  Ediel_sol  =         0.00000000
  ---------------------------------------------------
  free energy    TOTEN  =       -22.72503479 eV

  energy without entropy =      -22.74838853  energy(sigma->0) =      -22.73281937


--------------------------------------------------------------------------------------------------------




--------------------------------------- Iteration      1(   5)  ---------------------------------------


     EDDAV:  cpu time   17.8745: real time   17.9240
       DOS:  cpu time    0.0313: real time    0.0314
    --------------------------------------------
      LOOP:  cpu time   17.9058: real time   17.9554

 eigenvalue-minimisations  : 17888
 total energy-change (2. order) :-0.9195467E-02  (-0.9191838E-02)
 number of electron      32.0000046 magnetization      -0.0000000
 augmentation part       32.0000046 magnetization      -0.0000000

 Free energy of the ion-electron system (eV)
  ---------------------------------------------------
  alpha Z        PSCENC =       217.71629331
  Ewald energy   TEWEN  =     -2604.77031634
  -Hartree energ DENC   =      -636.47758397
  -exchange      EXHF   =         0.00000000
  -V(xc)+E(xc)   XCENC  =       118.74200835
  PAW double counting   =      2353.20413034    -2496.23762849
  entropy T*S    EENTRO =         0.02338511
  eigenvalues    EBANDS =         0.32293748
  atomic energy  EATOM  =      3024.74254395
  Solvation  Ediel_sol  =         0.00000000
  ---------------------------------------------------
  free energy    TOTEN  =       -22.73423025 eV

  energy without entropy =      -22.75761537  energy(sigma->0) =      -22.74202529


--------------------------------------------------------------------------------------------------------




--------------------------------------- Iteration      1(   6)  ---------------------------------------


     EDDAV:  cpu time   17.3276: real time   17.3721
       DOS:  cpu time    0.0324: real time    0.0324
    --------------------------------------------
      LOOP:  cpu time   17.3599: real time   17.4045

 eigenvalue-minimisations  : 17648
 total energy-change (2. order) :-0.2787870E-03  (-0.2787740E-03)
 number of electron      32.0000046 magnetization      -0.0000000
 augmentation part       32.0000046 magnetization      -0.0000000

 Free energy of the ion-electron system (eV)
  ---------------------------------------------------
  alpha Z        PSCENC =       217.71629331
  Ewald energy   TEWEN  =     -2604.77031634
  -Hartree energ DENC   =      -636.47758397
  -exchange      EXHF   =         0.00000000
  -V(xc)+E(xc)   XCENC  =       118.74200835
  PAW double counting   =      2353.20413034    -2496.23762849
  entropy T*S    EENTRO =         0.02338596
  eigenvalues    EBANDS =         0.32265785
  atomic energy  EATOM  =      3024.74254395
  Solvation  Ediel_sol  =         0.00000000
  ---------------------------------------------------
  free energy    TOTEN  =       -22.73450904 eV

  energy without entropy =      -22.75789500  energy(sigma->0) =      -22.74230436


--------------------------------------------------------------------------------------------------------




--------------------------------------- Iteration      1(   7)  ---------------------------------------


     EDDAV:  cpu time   13.8155: real time   13.8487
       DOS:  cpu time    0.0332: real time    0.0333
    --------------------------------------------
      LOOP:  cpu time   13.8487: real time   13.8820

 eigenvalue-minimisations  : 12012
 total energy-change (2. order) :-0.9602424E-05  (-0.9601930E-05)
 number of electron      32.0000046 magnetization      -0.0000000
 augmentation part       32.0000046 magnetization      -0.0000000

 Free energy of the ion-electron system (eV)
  ---------------------------------------------------
  alpha Z        PSCENC =       217.71629331
  Ewald energy   TEWEN  =     -2604.77031634
  -Hartree energ DENC   =      -636.47758397
  -exchange      EXHF   =         0.00000000
  -V(xc)+E(xc)   XCENC  =       118.74200835
  PAW double counting   =      2353.20413034    -2496.23762849
  entropy T*S    EENTRO =         0.02338599
  eigenvalues    EBANDS =         0.32264821
  atomic energy  EATOM  =      3024.74254395
  Solvation  Ediel_sol  =         0.00000000
  ---------------------------------------------------
  free energy    TOTEN  =       -22.73451864 eV

  energy without entropy =      -22.75790463  energy(sigma->0) =      -22.74231397


--------------------------------------------------------------------------------------------------------




 average (electrostatic) potential at core
  the test charge radii are     0.9791  0.7215
  (the norm of the test charge is              1.0000)
       1 -42.5076       2 -42.5076       3 -71.8691       4 -71.8691
 
 
 
 E-fermi :   4.8306     XC(G=0): -12.7545     alpha+bet :-11.2748


 spin component 1

 k-point     1 :       0.3438    0.0000   -0.3438
  band No.  band energies     occupation 
      1     -13.5935      1.00000
      2     -13.5754      1.00000
      3      -1.8641      1.00000
      4      -1.4661      1.00000
      5      -1.1102      1.00000
      6      -0.7053      1.00000
      7      -0.1451      1.00000
      8       0.0613      1.00000
      9       3.1036      1.00000
     10       3.2791      1.00000
     11       3.3098      1.00000
     12       4.0306      1.00000
     13       4.2711      1.00028
     14       4.3162      1.00083
     15       4.5136      1.02376
     16       4.6551      1.00731
     17       5.9723     -0.00000
     18       6.0091     -0.00000
     19      13.9061      0.00000
     20      14.0947      0.00000

 k-point     2 :       0.3349    0.0000   -0.3349
  band No.  band energies     occupation 
      1     -13.5836      1.00000
      2     -13.5811      1.00000
      3      -1.7547      1.00000
      4      -1.5716      1.00000
      5      -1.0462      1.00000
      6      -0.7357      1.00000
      7      -0.1563      1.00000
      8       0.0181      1.00000
      9       3.1375      1.00000
     10       3.2776      1.00000
     11       3.3181      1.00000
     12       4.0331      1.00000
     13       4.2601      1.00021
     14       4.2921      1.00047
     15       4.5188      1.02496
     16       4.6237      1.02835
     17       5.9166     -0.00000
     18       6.0781     -0.00000
     19      14.0998      0.00000
     20      14.3451      0.00000

 k-point     3 :       0.3261    0.0000   -0.3261
  band No.  band energies     occupation 
      1     -13.5908      1.00000
      2     -13.5761      1.00000
      3      -1.6786      1.00000
      4      -1.6347      1.00000
      5      -0.9793      1.00000
      6      -0.7647      1.00000
      7      -0.1749      1.00000
      8      -0.0218      1.00000
      9       3.1572      1.00000
     10       3.2839      1.00000
     11       3.3275      1.00000
     12       4.0330      1.00000
     13       4.2453      1.00014
     14       4.2686      1.00026
     15       4.5233      1.02599
     16       4.5903      1.03537
     17       5.8624     -0.00000
     18       6.1512     -0.00000
     19      14.2292      0.00000
     20      14.3629      0.00000

 k-point     4 :       0.3173    0.0000   -0.3173
  band No.  band energies     occupation 
      1     -13.6054      1.00000
      2     -13.5685      1.00000
      3      -1.7567      1.00000
      4      -1.5329      1.00000
      5      -0.9142      1.00000
      6      -0.7868      1.00000
      7      -0.1992      1.00000
      8      -0.0555      1.00000
      9       3.1644      1.00000
     10       3.2979      1.00000
     11       3.3382      1.00000
     12       4.0297      1.00000
     13       4.2272      1.00008
     14       4.2465      1.00014
     15       4.5284      1.02715
     16       4.5584      1.03309
     17       5.8111     -0.00000
     18       6.2245     -0.00000
     19      14.1560      0.00000
     20      14.2004      0.00000

 k-point     5 :       0.3085    0.0000   -0.3085
  band No.  band energies     occupation 
      1     -13.6236      1.00000
      2     -13.5616      1.00000
      3      -1.8268      1.00000
      4      -1.4247      1.00000
      5      -0.8645      1.00000
      6      -0.7882      1.00000
      7      -0.2299      1.00000
      8      -0.0848      1.00000
      9       3.1633      1.00000
     10       3.3153      1.00000
     11       3.3496      1.00000
     12       4.0235      1.00000
     13       4.2061      1.00005
     14       4.2257      1.00008
     15       4.5292      1.02734
     16       4.5344      1.02848
     17       5.7636     -0.00000
     18       6.2936     -0.00000
     19      13.9231      0.00000
     20      14.1449      0.00000

 k-point     6 :       0.2997    0.0000   -0.2997
  band No.  band energies     occupation 
      1     -13.6450      1.00000
      2     -13.5550      1.00000
      3      -1.8835      1.00000
      4      -1.3178      1.00000
      5      -0.8598      1.00000
      6      -0.7382      1.00000
      7      -0.2666      1.00000
      8      -0.1069      1.00000
      9       3.1578      1.00000
     10       3.3325      1.00000
     11       3.3616      1.00000
     12       4.0148      1.00000
     13       4.1838      1.00002
     14       4.2065      1.00005
     15       4.5039      1.02151
     16       4.5414      1.02997
     17       5.7206     -0.00000
     18       6.3598     -0.00000
     19      13.6898      0.00000
     20      14.0973      0.00000

 k-point     7 :       0.2909    0.0000   -0.2909
  band No.  band energies     occupation 
      1     -13.6708      1.00000
      2     -13.5500      1.00000
      3      -1.9268      1.00000
      4      -1.2150      1.00000
      5      -0.8728      1.00000
      6      -0.6652      1.00000
      7      -0.3102      1.00000
      8      -0.1229      1.00000
      9       3.1498      1.00000
     10       3.3471      1.00000
     11       3.3732      1.00000
     12       4.0036      1.00000
     13       4.1613      1.00001
     14       4.1885      1.00003
     15       4.4817      1.01664
     16       4.5487      1.03141
     17       5.6818     -0.00000
     18       6.4195     -0.00000
     19      13.4539      0.00000
     20      14.0454      0.00000

 k-point     8 :       0.2821    0.0000   -0.2821
  band No.  band energies     occupation 
      1     -13.7004      1.00000
      2     -13.5460      1.00000
      3      -1.9549      1.00000
      4      -1.1182      1.00000
      5      -0.8865      1.00000
      6      -0.5858      1.00000
      7      -0.3578      1.00000
      8      -0.1326      1.00000
      9       3.1402      1.00000
     10       3.3595      1.00000
     11       3.3837      1.00000
     12       3.9909      1.00000
     13       4.1408      1.00001
     14       4.1717      1.00002
     15       4.4625      1.01291
     16       4.5567      1.03281
     17       5.6483     -0.00000
     18       6.4712     -0.00000
     19      13.2202      0.00000
     20      14.0057      0.00000

 k-point     9 :       0.2732    0.0000   -0.2732
  band No.  band energies     occupation 
      1     -13.7341      1.00000
      2     -13.5423      1.00000
      3      -1.9683      1.00000
      4      -1.0305      1.00000
      5      -0.8967      1.00000
      6      -0.5027      1.00000
      7      -0.4069      1.00000
      8      -0.1357      1.00000
      9       3.1292      1.00000
     10       3.3695      1.00000
     11       3.3932      1.00000
     12       3.9771      1.00000
     13       4.1242      1.00000
     14       4.1557      1.00001
     15       4.4459      1.01015
     16       4.5647      1.03400
     17       5.6206     -0.00000
     18       6.5135     -0.00000
     19      12.9879      0.00000
     20      13.9763      0.00000

 k-point    10 :       0.2644    0.0000   -0.2644
  band No.  band energies     occupation 
      1     -13.7718      1.00000
      2     -13.5400      1.00000
      3      -1.9668      1.00000
      4      -0.9584      1.00000
      5      -0.9043      1.00000
      6      -0.4526      1.00000
      7      -0.4169      1.00000
      8      -0.1323      1.00000
      9       3.1167      1.00000
     10       3.3773      1.00000
     11       3.4000      1.00000
     12       3.9629      1.00000
     13       4.1128      1.00000
     14       4.1406      1.00001
     15       4.4310      1.00804
     16       4.5722      1.03482
     17       5.5988     -0.00000
     18       6.5457     -0.00000
     19      12.7566      0.00000
     20      13.9561      0.00000

 k-point    11 :       0.2556    0.0000   -0.2556
  band No.  band energies     occupation 
      1     -13.8121      1.00000
      2     -13.5388      1.00000
      3      -1.9482      1.00000
      4      -0.9122      1.00000
      5      -0.9083      1.00000
      6      -0.4845      1.00000
      7      -0.3271      1.00000
      8      -0.1217      1.00000
      9       3.1027      1.00000
     10       3.3834      1.00000
     11       3.4038      1.00000
     12       3.9489      1.00000
     13       4.1080      1.00000
     14       4.1264      1.00000
     15       4.4177      1.00645
     16       4.5790      1.03529
     17       5.5833     -0.00000
     18       6.5688     -0.00000
     19      12.5308      0.00000
     20      13.9454      0.00000

 k-point    12 :       0.2468    0.0000   -0.2468
  band No.  band energies     occupation 
      1     -13.8574      1.00000
      2     -13.5386      1.00000
      3      -1.9171      1.00000
      4      -0.9084      1.00000
      5      -0.9048      1.00000
      6      -0.4901      1.00000
      7      -0.2368      1.00000
      8      -0.1048      1.00000
      9       3.0872      1.00000
     10       3.3880      1.00000
     11       3.4041      1.00000
     12       3.9344      1.00000
     13       4.1098      1.00000
     14       4.1130      1.00000
     15       4.4058      1.00524
     16       4.5842      1.03545
     17       5.5741     -0.00000
     18       6.5785     -0.00000
     19      12.3013      0.00000
     20      13.9444      0.00000

 k-point    13 :       0.2380    0.0000   -0.2380
  band No.  band energies     occupation 
      1     -13.9069      1.00000
      2     -13.5396      1.00000
      3      -1.8722      1.00000
      4      -0.9392      1.00000
      5      -0.9045      1.00000
      6      -0.4665      1.00000
      7      -0.1449      1.00000
      8      -0.0823      1.00000
      9       3.0703      1.00000
     10       3.3911      1.00000
     11       3.4008      1.00000
     12       3.9198      1.00000
     13       4.1006      1.00000
     14       4.1175      1.00000
     15       4.3957      1.00437
     16       4.5874      1.03545
     17       5.5718     -0.00000
     18       6.5759     -0.00000
     19      12.0690      0.00000
     20      13.9533      0.00000

 k-point    14 :       0.2292    0.0000   -0.2292
  band No.  band energies     occupation 
      1     -13.9588      1.00000
      2     -13.5416      1.00000
      3      -1.8122      1.00000
      4      -1.0039      1.00000
      5      -0.8967      1.00000
      6      -0.4247      1.00000
      7      -0.0585      1.00000
      8      -0.0443      1.00000
      9       3.0525      1.00000
     10       3.3927      1.00000
     11       3.3945      1.00000
     12       3.9051      1.00000
     13       4.0895      1.00000
     14       4.1298      1.00000
     15       4.3894      1.00388
     16       4.5886      1.03542
     17       5.5765     -0.00000
     18       6.5621     -0.00000
     19      11.8411      0.00000
     20      13.9719      0.00000

 k-point    15 :       0.2204    0.0000   -0.2204
  band No.  band energies     occupation 
      1     -14.0135      1.00000
      2     -13.5450      1.00000
      3      -1.7384      1.00000
      4      -1.0872      1.00000
      5      -0.8857      1.00000
      6      -0.3765      1.00000
      7      -0.0170      1.00000
      8       0.0468      1.00000
      9       3.0342      1.00000
     10       3.3853      1.00000
     11       3.3923      1.00000
     12       3.8901      1.00000
     13       4.0800      1.00000
     14       4.1436      1.00001
     15       4.3885      1.00382
     16       4.5874      1.03545
     17       5.5885     -0.00000
     18       6.5368     -0.00000
     19      11.6136      0.00000
     20      13.9999      0.00000

 k-point    16 :       0.2115    0.0000   -0.2115
  band No.  band energies     occupation 
      1     -14.0694      1.00000
      2     -13.5488      1.00000
      3      -1.6498      1.00000
      4      -1.1808      1.00000
      5      -0.8701      1.00000
      6      -0.3282      1.00000
      7       0.0299      1.00000
      8       0.1448      1.00000
      9       3.0156      1.00000
     10       3.3753      1.00000
     11       3.3897      1.00000
     12       3.8749      1.00000
     13       4.0722      1.00000
     14       4.1555      1.00001
     15       4.3975      1.00452
     16       4.5837      1.03544
     17       5.6081     -0.00000
     18       6.5018     -0.00000
     19      11.3876      0.00000
     20      14.0384      0.00000

 k-point    17 :       0.2027    0.0000   -0.2027
  band No.  band energies     occupation 
      1     -14.1286      1.00000
      2     -13.5539      1.00000
      3      -1.5508      1.00000
      4      -1.2802      1.00000
      5      -0.8513      1.00000
      6      -0.2841      1.00000
      7       0.0799      1.00000
      8       0.2433      1.00000
      9       2.9971      1.00000
     10       3.3630      1.00000
     11       3.3845      1.00000
     12       3.8588      1.00000
     13       4.0663      1.00000
     14       4.1606      1.00001
     15       4.4167      1.00634
     16       4.5771      1.03519
     17       5.6347     -0.00000
     18       6.4547     -0.00000
     19      11.1604      0.00000
     20      14.0845      0.00000

 k-point    18 :       0.1939    0.0000   -0.1939
  band No.  band energies     occupation 
      1     -14.1893      1.00000
      2     -13.5600      1.00000
      3      -1.4528      1.00000
      4      -1.3711      1.00000
      5      -0.8293      1.00000
      6      -0.2446      1.00000
      7       0.1363      1.00000
      8       0.3430      1.00000
      9       2.9789      1.00000
     10       3.3501      1.00000
     11       3.3764      1.00000
     12       3.8419      1.00000
     13       4.0625      1.00000
     14       4.1580      1.00001
     15       4.4480      1.01047
     16       4.5678      1.03436
     17       5.6683     -0.00000
     18       6.3981     -0.00000
     19      10.9330      0.00000
     20      14.1377      0.00000

 k-point    19 :       0.1851    0.0000   -0.1851
  band No.  band energies     occupation 
      1     -14.2514      1.00000
      2     -13.5667      1.00000
      3      -1.5057      1.00000
      4      -1.3016      1.00000
      5      -0.8041      1.00000
      6      -0.2118      1.00000
      7       0.1987      1.00000
      8       0.4436      1.00000
      9       2.9612      1.00000
     10       3.3365      1.00000
     11       3.3649      1.00000
     12       3.8242      1.00000
     13       4.0609      1.00000
     14       4.1483      1.00001
     15       4.4889      1.01817
     16       4.5556      1.03264
     17       5.7084     -0.00000
     18       6.3330     -0.00000
     19      10.7027      0.00000
     20      14.1999      0.00000

 k-point    20 :       0.1763    0.0000   -0.1763
  band No.  band energies     occupation 
      1     -14.3138      1.00000
      2     -13.5742      1.00000
      3      -1.6119      1.00000
      4      -1.1685      1.00000
[...]
      9       2.0513      1.00000
     10       3.2852      1.00000
     11       3.4519      1.00000
     12       3.8493      1.00000
     13       3.9143      1.00000
     14       4.3563      1.00202
     15       4.4694      1.01420
     16       4.6105      1.03268
     17       6.4311     -0.00000
     18       6.5345     -0.00000
     19      11.3093      0.00000
     20      11.7494      0.00000

 k-point   198 :      -0.1683   -0.6402   -0.6402
  band No.  band energies     occupation 
      1     -13.6974      1.00000
      2     -13.6794      1.00000
      3      -2.8487      1.00000
      4      -1.6991      1.00000
      5      -0.3052      1.00000
      6      -0.2435      1.00000
      7       0.7443      1.00000
      8       0.8897      1.00000
      9       2.0658      1.00000
     10       3.2852      1.00000
     11       3.4536      1.00000
     12       3.8587      1.00000
     13       3.9115      1.00000
     14       4.3596      1.00216
     15       4.4690      1.01412
     16       4.6114      1.03245
     17       6.4076     -0.00000
     18       6.5261     -0.00000
     19      11.3560      0.00000
     20      11.7677      0.00000

 k-point   199 :      -0.1779   -0.6482   -0.6482
  band No.  band energies     occupation 
      1     -13.6959      1.00000
      2     -13.6827      1.00000
      3      -2.8348      1.00000
      4      -1.7005      1.00000
      5      -0.3114      1.00000
      6      -0.2406      1.00000
      7       0.7245      1.00000
      8       0.8837      1.00000
      9       2.0807      1.00000
     10       3.2852      1.00000
     11       3.4553      1.00000
     12       3.8685      1.00000
     13       3.9084      1.00000
     14       4.3630      1.00231
     15       4.4686      1.01405
     16       4.6124      1.03218
     17       6.3833     -0.00000
     18       6.5172     -0.00000
     19      11.4047      0.00000
     20      11.7867      0.00000

 k-point   200 :      -0.1875   -0.6562   -0.6562
  band No.  band energies     occupation 
      1     -13.6946      1.00000
      2     -13.6859      1.00000
      3      -2.8203      1.00000
      4      -1.7020      1.00000
      5      -0.3180      1.00000
      6      -0.2375      1.00000
      7       0.7044      1.00000
      8       0.8775      1.00000
      9       2.0958      1.00000
     10       3.2852      1.00000
     11       3.4572      1.00000
     12       3.8788      1.00000
     13       3.9050      1.00000
     14       4.3664      1.00248
     15       4.4683      1.01398
     16       4.6135      1.03188
     17       6.3586     -0.00000
     18       6.5079     -0.00000
     19      11.4553      0.00000
     20      11.8063      0.00000


--------------------------------------------------------------------------------------------------------


 soft charge-density along one line, spin component           1
         0         1         2         3         4         5         6         7         8         9
 total charge-density along one line
 
 soft charge-density along one line, spin component           2
         0         1         2         3         4         5         6         7         8         9
 total charge-density along one line
 
 pseudopotential strength for first ion, spin component:           1
 -5.437   0.000  -0.003   0.000   0.004   0.000  -0.003   0.000  -0.000   0.000  -0.686   0.000   0.001   0.000  -0.002   0.000
 -0.003   0.000  -5.437   0.000  -0.002   0.000  -0.003   0.000   0.003   0.000   0.001   0.000  -0.686   0.000   0.001   0.000
  0.004   0.000  -0.002   0.000  -5.532   0.000  -0.002   0.000   0.000   0.000  -0.002   0.000   0.001   0.000  -0.657   0.000
 -0.003   0.000  -0.003   0.000  -0.002   0.000  -5.437   0.000  -0.003   0.000   0.001   0.000   0.001   0.000   0.001   0.000
 -0.000   0.000   0.003   0.000   0.000   0.000  -0.003   0.000  -5.532   0.000   0.000   0.000  -0.001   0.000  -0.000   0.000
 -0.686   0.000   0.001   0.000  -0.002   0.000   0.001   0.000   0.000   0.000   1.588   0.000  -0.001   0.000   0.001   0.000
  0.001   0.000  -0.686   0.000   0.001   0.000   0.001   0.000  -0.001   0.000  -0.001   0.000   1.588   0.000  -0.000   0.000
 -0.002   0.000   0.001   0.000  -0.657   0.000   0.001   0.000  -0.000   0.000   0.001   0.000  -0.000   0.000   1.581   0.000
  0.001   0.000   0.001   0.000   0.001   0.000  -0.686   0.000   0.001   0.000  -0.001   0.000  -0.001   0.000  -0.000   0.000
  0.000   0.000  -0.001   0.000  -0.000   0.000   0.001   0.000  -0.657   0.000  -0.000   0.000   0.001   0.000   0.000   0.000
  0.001   0.000   0.001   0.000   0.000   0.000   0.001   0.000   0.000   0.000  -0.000   0.000  -0.000   0.000   0.000   0.000
 -0.000   0.000  -0.000   0.000  -0.000   0.000  -0.000   0.000  -0.000   0.000   0.000   0.000   0.000   0.000   0.000   0.000
 -0.000   0.000   0.000   0.000   0.000   0.000   0.000   0.000   0.000   0.000   0.000   0.000  -0.000   0.000  -0.000   0.000
  0.000   0.000  -0.000   0.000   0.000   0.000  -0.000   0.000  -0.000   0.000   0.000   0.000   0.000   0.000  -0.000   0.000
 -0.000   0.000   0.000   0.000   0.000   0.000   0.000   0.000  -0.000   0.000   0.000   0.000   0.000   0.000  -0.000   0.000
  0.000   0.000  -0.000   0.000  -0.000   0.000  -0.000   0.000  -0.000   0.000  -0.000   0.000   0.000   0.000   0.000   0.000
 -0.000   0.000   0.000   0.000  -0.000   0.000   0.000   0.000   0.000   0.000   0.000   0.000  -0.000   0.000   0.000   0.000
  0.000   0.000  -0.000   0.000  -0.000   0.000  -0.000   0.000   0.000   0.000  -0.000   0.000   0.000   0.000   0.000   0.000
 pseudopotential strength for first ion, spin component:           2
 -4.515   0.000  -0.002   0.000   0.001   0.000  -0.002   0.000  -0.000   0.000  -1.097   0.000   0.001   0.000  -0.000   0.000
 -0.002   0.000  -4.515   0.000  -0.000   0.000  -0.002   0.000   0.001   0.000   0.001   0.000  -1.097   0.000   0.000   0.000
  0.001   0.000  -0.000   0.000  -4.233   0.000  -0.000   0.000  -0.000   0.000  -0.000   0.000   0.000   0.000  -1.183   0.000
 -0.002   0.000  -0.002   0.000  -0.000   0.000  -4.515   0.000  -0.001   0.000   0.001   0.000   0.001   0.000   0.000   0.000
 -0.000   0.000   0.001   0.000  -0.000   0.000  -0.001   0.000  -4.233   0.000   0.000   0.000  -0.000   0.000   0.000   0.000
 -1.097   0.000   0.001   0.000  -0.000   0.000   0.001   0.000   0.000   0.000   1.772   0.000  -0.000   0.000   0.000   0.000
  0.001   0.000  -1.097   0.000   0.000   0.000   0.001   0.000  -0.000   0.000  -0.000   0.000   1.772   0.000  -0.000   0.000
 -0.000   0.000   0.000   0.000  -1.183   0.000   0.000   0.000   0.000   0.000   0.000   0.000  -0.000   0.000   1.793   0.000
  0.001   0.000   0.001   0.000   0.000   0.000  -1.097   0.000   0.000   0.000  -0.000   0.000  -0.000   0.000  -0.000   0.000
  0.000   0.000  -0.000   0.000   0.000   0.000   0.000   0.000  -1.183   0.000  -0.000   0.000   0.000   0.000  -0.000   0.000
  0.000   0.000   0.000   0.000  -0.000   0.000   0.000   0.000  -0.000   0.000  -0.000   0.000  -0.000   0.000  -0.000   0.000
 -0.000   0.000  -0.000   0.000   0.000   0.000  -0.000   0.000   0.000   0.000   0.000   0.000   0.000   0.000  -0.000   0.000
 -0.000   0.000   0.000   0.000  -0.000   0.000  -0.000   0.000  -0.000   0.000   0.000   0.000  -0.000   0.000   0.000   0.000
 -0.000   0.000   0.000   0.000   0.000   0.000  -0.000   0.000  -0.000   0.000  -0.000   0.000  -0.000   0.000  -0.000   0.000
  0.000   0.000  -0.000   0.000   0.000   0.000   0.000   0.000  -0.000   0.000  -0.000   0.000  -0.000   0.000  -0.000   0.000
  0.000   0.000  -0.000   0.000  -0.000   0.000   0.000   0.000   0.000   0.000  -0.000   0.000   0.000   0.000   0.000   0.000
  0.000   0.000  -0.000   0.000  -0.000   0.000   0.000   0.000   0.000   0.000  -0.000   0.000   0.000   0.000   0.000   0.000
 -0.000   0.000   0.000   0.000  -0.000   0.000  -0.000   0.000   0.000   0.000   0.000   0.000  -0.000   0.000   0.000   0.000
 total augmentation occupancy for first ion, spin component:           1
  1.800   0.000   0.000   0.000   0.000   0.000   0.000   0.000   0.000   0.000   0.000   0.000   0.000   0.000   0.000   0.000
  0.000   1.800   0.000   0.000   0.000   0.000   0.000   0.000   0.000   0.000   0.000   0.000   0.000   0.000   0.000   0.000
  0.000   0.000   1.800   0.000   0.000   0.000   0.000   0.000   0.000   0.000   0.000   0.000   0.000   0.000   0.000   0.000
  0.000   0.000   0.000   1.800   0.000   0.000   0.000   0.000   0.000   0.000   0.000   0.000   0.000   0.000   0.000   0.000
  0.000   0.000   0.000   0.000   1.800   0.000   0.000   0.000   0.000   0.000   0.000   0.000   0.000   0.000   0.000   0.000
  0.000   0.000   0.000   0.000   0.000   0.000   0.000   0.000   0.000   0.000   0.000   0.000   0.000   0.000   0.000   0.000
  0.000   0.000   0.000   0.000   0.000   0.000   0.000   0.000   0.000   0.000   0.000   0.000   0.000   0.000   0.000   0.000
  0.000   0.000   0.000   0.000   0.000   0.000   0.000   0.000   0.000   0.000   0.000   0.000   0.000   0.000   0.000   0.000
  0.000   0.000   0.000   0.000   0.000   0.000   0.000   0.000   0.000   0.000   0.000   0.000   0.000   0.000   0.000   0.000
  0.000   0.000   0.000   0.000   0.000   0.000   0.000   0.000   0.000   0.000   0.000   0.000   0.000   0.000   0.000   0.000
  0.000   0.000   0.000   0.000   0.000   0.000   0.000   0.000   0.000   0.000   1.000   0.000   0.000   0.000   0.000   0.000
  0.000   0.000   0.000   0.000   0.000   0.000   0.000   0.000   0.000   0.000   0.000   0.000   0.000   0.000   0.000   0.000
  0.000   0.000   0.000   0.000   0.000   0.000   0.000   0.000   0.000   0.000   0.000   0.000   0.000   0.000   0.000   0.000
  0.000   0.000   0.000   0.000   0.000   0.000   0.000   0.000   0.000   0.000   0.000   0.000   0.000   0.000   0.000   0.000
  0.000   0.000   0.000   0.000   0.000   0.000   0.000   0.000   0.000   0.000   0.000   0.000   0.000   0.000   0.000   0.000
  0.000   0.000   0.000   0.000   0.000   0.000   0.000   0.000   0.000   0.000   0.000   0.000   0.000   0.000   0.000   0.000
  0.000   0.000   0.000   0.000   0.000   0.000   0.000   0.000   0.000   0.000   0.000   0.000   0.000   0.000   0.000   0.000
  0.000   0.000   0.000   0.000   0.000   0.000   0.000   0.000   0.000   0.000   0.000   0.000   0.000   0.000   0.000   0.000
 total augmentation occupancy for first ion, spin component:           2
  0.360   0.000   0.000   0.000   0.000   0.000   0.000   0.000   0.000   0.000   0.000   0.000   0.000   0.000   0.000   0.000
  0.000   0.360   0.000   0.000   0.000   0.000   0.000   0.000   0.000   0.000   0.000   0.000   0.000   0.000   0.000   0.000
  0.000   0.000   0.360   0.000   0.000   0.000   0.000   0.000   0.000   0.000   0.000   0.000   0.000   0.000   0.000   0.000
  0.000   0.000   0.000   0.360   0.000   0.000   0.000   0.000   0.000   0.000   0.000   0.000   0.000   0.000   0.000   0.000
  0.000   0.000   0.000   0.000   0.360   0.000   0.000   0.000   0.000   0.000   0.000   0.000   0.000   0.000   0.000   0.000
  0.000   0.000   0.000   0.000   0.000   0.000   0.000   0.000   0.000   0.000   0.000   0.000   0.000   0.000   0.000   0.000
  0.000   0.000   0.000   0.000   0.000   0.000   0.000   0.000   0.000   0.000   0.000   0.000   0.000   0.000   0.000   0.000
  0.000   0.000   0.000   0.000   0.000   0.000   0.000   0.000   0.000   0.000   0.000   0.000   0.000   0.000   0.000   0.000
  0.000   0.000   0.000   0.000   0.000   0.000   0.000   0.000   0.000   0.000   0.000   0.000   0.000   0.000   0.000   0.000
  0.000   0.000   0.000   0.000   0.000   0.000   0.000   0.000   0.000   0.000   0.000   0.000   0.000   0.000   0.000   0.000
  0.000   0.000   0.000   0.000   0.000   0.000   0.000   0.000   0.000   0.000   0.200   0.000   0.000   0.000   0.000   0.000
  0.000   0.000   0.000   0.000   0.000   0.000   0.000   0.000   0.000   0.000   0.000   0.000   0.000   0.000   0.000   0.000
  0.000   0.000   0.000   0.000   0.000   0.000   0.000   0.000   0.000   0.000   0.000   0.000   0.000   0.000   0.000   0.000
  0.000   0.000   0.000   0.000   0.000   0.000   0.000   0.000   0.000   0.000   0.000   0.000   0.000   0.000   0.000   0.000
  0.000   0.000   0.000   0.000   0.000   0.000   0.000   0.000   0.000   0.000   0.000   0.000   0.000   0.000   0.000   0.000
  0.000   0.000   0.000   0.000   0.000   0.000   0.000   0.000   0.000   0.000   0.000   0.000   0.000   0.000   0.000   0.000
  0.000   0.000   0.000   0.000   0.000   0.000   0.000   0.000   0.000   0.000   0.000   0.000   0.000   0.000   0.000   0.000
  0.000   0.000   0.000   0.000   0.000   0.000   0.000   0.000   0.000   0.000   0.000   0.000   0.000   0.000   0.000   0.000


------------------------ aborting loop because EDIFF is reached ----------------------------------------


 


 total charge     
 
# of ion       s       p       d       tot
------------------------------------------
    1        0.328   0.357   8.380   9.065
    2        0.328   0.357   8.380   9.065
    3        1.570   3.428   0.000   4.999
    4        1.570   3.428   0.000   4.999
--------------------------------------------------
tot          3.797   7.570  16.761  28.128
 


 magnetization (x)
 
# of ion       s       p       d       tot
------------------------------------------
    1       -0.004  -0.009   1.012   0.999
    2        0.004   0.009  -1.012  -0.999
    3       -0.000   0.000   0.000   0.000
    4       -0.000  -0.000   0.000  -0.000
--------------------------------------------------
tot         -0.000   0.000   0.000   0.000
 
    CHARGE:  cpu time    2.2935: real time    2.2990
    FORLOC:  cpu time    0.0155: real time    0.0155
    FORNL :  cpu time    2.2403: real time    2.2456
    STRESS:  cpu time    2.3208: real time    2.3263
    FORCOR:  cpu time    0.8388: real time    0.8408
    FORHAR:  cpu time    0.0374: real time    0.0375
    OFIELD:  cpu time    0.0013: real time    0.0013

  FORCE on cell =-STRESS in cart. coord.  units (eV):
  Direction    XX          YY          ZZ          XY          YZ          ZX
  --------------------------------------------------------------------------------------
  Alpha Z   217.71629   217.71629   217.71629
  Ewald    -868.25805  -868.25805  -868.25805     0.00000    -0.00000    -0.00000
  Hartree   215.33274   215.33274   215.33274     0.03707     0.03707     0.03707
  E(xc)    -170.84483  -170.84483  -170.84483    -0.02014    -0.02014    -0.02014
  Local     187.69786   187.69786   187.69786     0.12556     0.12556     0.12556
  n-local  -110.67336  -114.34051  -114.59121     0.17646    -0.22613     0.21740
  augment   118.92050   118.92050   118.92050     0.07583     0.07583     0.07583
  Kinetic   411.70623   420.15651   419.02191    -1.16721    -0.82339    -0.91144
  Fock        0.00000     0.00000     0.00000     0.00000     0.00000     0.00000
  -------------------------------------------------------------------------------------
  Total       4.32437     4.32437     4.32437    -0.69311    -0.69311    -0.69311
  in kB     191.09775   191.09775   191.09775   -30.62908   -30.62908   -30.62908
  external pressure =      191.10 kB  Pullay stress =        0.00 kB


 VOLUME and BASIS-vectors are now :
 -----------------------------------------------------------------------------
  energy-cutoff  :      400.00
  volume of cell :       36.26
      direct lattice vectors                 reciprocal lattice vectors
     4.170000000  2.085000000  2.085000000     0.359712230 -0.119904077 -0.119904077
     2.085000000  4.170000000  2.085000000    -0.119904077  0.359712230 -0.119904077
     2.085000000  2.085000000  4.170000000    -0.119904077 -0.119904077  0.359712230

  length of vectors
     5.107186114  5.107186114  5.107186114     0.397676833  0.397676833  0.397676833


 FORCES acting on ions
    electron-ion (+dipol)            ewald-force                    non-local-force                 convergence-correction
 -----------------------------------------------------------------------------------------------
   0.553E-13 -.336E-13 -.477E-13   0.000E+00 -.284E-13 -.568E-13   0.106E-21 -.318E-21 -.212E-21   0.228E-12 0.193E-12 0.195E-12
   0.822E-12 0.210E-11 0.215E-11   0.568E-13 0.284E-13 0.000E+00   -.159E-21 0.529E-22 0.106E-21   -.780E-12 -.737E-12 -.797E-12
   -.463E-12 0.642E-12 0.643E-12   -.426E-13 -.131E-13 0.169E-13   -.424E-21 0.529E-22 0.635E-21   0.307E-13 0.518E-14 -.455E-13
   0.244E-11 -.925E-12 -.927E-12   -.152E-13 0.134E-13 0.426E-13   -.529E-22 0.529E-22 -.318E-21   -.454E-13 0.994E-14 0.175E-13
 -----------------------------------------------------------------------------------------------
   0.285E-11 0.179E-11 0.182E-11   -.869E-15 0.280E-15 0.262E-14   -.529E-21 -.159E-21 0.212E-21   -.566E-12 -.529E-12 -.630E-12
 
 
 POSITION                                       TOTAL-FORCE (eV/Angst)
 -----------------------------------------------------------------------------------
      0.00000      0.00000      0.00000        -0.000000      0.000000     -0.000000
      4.17000      4.17000      4.17000        -0.000000      0.000000      0.000000
      2.08500      2.08500      2.08500         0.000000     -0.000000     -0.000000
      6.25500      6.25500      6.25500        -0.000000     -0.000000      0.000000
 -----------------------------------------------------------------------------------
    total drift:                                0.000000      0.000000      0.000000


--------------------------------------------------------------------------------------------------------



  FREE ENERGIE OF THE ION-ELECTRON SYSTEM (eV)
  ---------------------------------------------------
  free  energy   TOTEN  =       -22.73451864 eV

  energy  without entropy=      -22.75790463  energy(sigma->0) =      -22.74231397
 


--------------------------------------------------------------------------------------------------------


    POTLOK:  cpu time    0.8781: real time    0.8802


--------------------------------------------------------------------------------------------------------


     LOOP+:  cpu time  126.7657: real time  127.0898
    4ORBIT:  cpu time    0.0000: real time    0.0000
 


 total charge     
 
# of ion       s       p       d       tot
------------------------------------------
    1        0.328   0.357   8.380   9.065
    2        0.328   0.357   8.380   9.065
    3        1.570   3.428   0.000   4.999
    4        1.570   3.428   0.000   4.999
--------------------------------------------------
tot          3.797   7.570  16.761  28.128
 


 magnetization (x)
 
# of ion       s       p       d       tot
------------------------------------------
    1       -0.004  -0.009   1.012   0.999
    2        0.004   0.009  -1.012  -0.999
    3       -0.000   0.000   0.000   0.000
    4       -0.000  -0.000   0.000  -0.000
--------------------------------------------------
tot         -0.000   0.000   0.000   0.000
 

 total amount of memory used by VASP MPI-rank0   200542. kBytes
=======================================================================

   base      :      30000. kBytes
   nonl-proj :      38865. kBytes
   fftplans  :      11932. kBytes
   grid      :      26693. kBytes
   one-center:        124. kBytes
   wavefun   :      92928. kBytes
 
  
  
 General timing and accounting informations for this job:
 ========================================================
  
                  Total CPU time used (sec):      130.137
                            User time (sec):      128.400
                          System time (sec):        1.737
                         Elapsed time (sec):      130.563
  
                   Maximum memory used (kb):      253988.
                   Average memory used (kb):           0.
  
                          Minor page faults:        71508
                          Major page faults:            0
                 Voluntary context switches:          266
