Si                                      
   5.43000000000000     
     0.500000    0.500000    0.000000
     0.000000    0.500000    0.500000
     0.500000    0.000000    0.500000
   Si
     2
Direct
  0.000000  0.000000  0.000000
  0.250000  0.250000  0.250000
 
   32   32   32
 -.77336366176E+01 -.59785145940E+01 -.12872409523E+01 0.48664872858E+01 0.10722525172E+02
 0.14897790617E+02 0.16800632843E+02 0.16665854701E+02 0.15274832097E+02 0.13503716593E+02
 0.11773466509E+02 0.10233463270E+02 0.89567680054E+01 0.79675104365E+01 0.72665910692E+01
 0.68487419559E+01 0.67098793175E+01 0.68486680334E+01 0.72665049694E+01 0.79674913559E+01
 0.89568522632E+01 0.10233606707E+02 0.11773556252E+02 0.13503628824E+02 0.15274503770E+02
 0.16665327454E+02 0.16800041704E+02 0.14897300979E+02 0.10722251798E+02 0.48664404959E+01
 -.12871518962E+01 -.59784227060E+01 -.59785145940E+01 -.25468471178E+01 0.31871511335E+01
 0.94629153251E+01 0.14608528985E+02 0.17620603670E+02 0.18374307166E+02 0.17456104712E+02
 0.15771694506E+02 0.13987961889E+02 0.12325736357E+02 0.10887619122E+02 0.97176230030E+01
 0.88311370119E+01 0.82350250589E+01 0.79349996114E+01 0.79349796447E+01 0.82349724416E+01
 0.88311001207E+01 0.97176773760E+01 0.10887757647E+02 0.12325831821E+02 0.13987884858E+02
 0.15771410853E+02 0.17455650201E+02 0.18373783034E+02 0.17620212739E+02 0.14608454487E+02
 0.94630923831E+01 0.31873069369E+01 -.25468532889E+01 -.59785552547E+01 -.12872409523E+01
 0.31871511335E+01 0.89783617660E+01 0.14369258765E+02 0.18069254207E+02 0.19593687991E+02
 0.19247591650E+02 0.17815462811E+02 0.16089517284E+02 0.14400079734E+02 0.12875819035E+02
 0.11577326606E+02 0.10532480846E+02 0.97619625684E+01 0.92874126824E+01 0.91268751640E+01
 0.92874214977E+01 0.97619905917E+01 0.10532534091E+02 0.11577388935E+02 0.12875847585E+02
 0.14400021576E+02 0.16089341135E+02 0.17815188593E+02 0.19247296862E+02 0.19593482510E+02
 0.18069230628E+02 0.14369443941E+02 0.89786941516E+01 0.31875002147E+01 -.12870194682E+01
 -.29720776730E+01 0.48664872858E+01 0.94629153251E+01 0.14369258765E+02 0.18210318185E+02
 0.20228357796E+02 0.20426152568E+02 0.19377932915E+02 0.17845131435E+02 0.16251411954E+02
 0.14747865346E+02 0.13407139624E+02 0.12264278752E+02 0.11350187539E+02 0.10704684243E+02
 0.10368873270E+02 0.10368953652E+02 0.10704822252E+02 0.11350244736E+02 0.12264277118E+02
 0.13407141890E+02 0.14747814743E+02 0.16251261714E+02 0.17844996611E+02 0.19377934734E+02
 0.20426225430E+02 0.20228385340E+02 0.18210359881E+02 0.14369464817E+02 0.94632780078E+01
 0.48668229229E+01 0.20794624825E+01 0.20793300132E+01 0.10722525172E+02 0.14608528985E+02
 0.18069254207E+02 0.20228357796E+02 0.20837690432E+02 0.20226409339E+02 0.19019148957E+02
 0.17655129731E+02 0.16298897211E+02 0.15028814671E+02 0.13880150708E+02 0.12886019712E+02
 0.12099625898E+02 0.11588669550E+02 0.11410841505E+02 0.11588762355E+02 0.12099762003E+02
 0.12886126748E+02 0.13880173316E+02 0.15028744104E+02 0.16298774849E+02 0.17655024732E+02
 0.19019121912E+02 0.20226481874E+02 0.20837837366E+02 0.20228524573E+02 0.18069387862E+02
 0.14608603203E+02 0.10722548193E+02 0.76500029743E+01 0.64810994873E+01 0.76500029152E+01
 0.14897790617E+02 0.17620603670E+02 0.19593687991E+02 0.20426152568E+02 0.20226409339E+02
 0.19432932579E+02 0.18414892508E+02 0.17329008353E+02 0.16251411954E+02 0.15210110291E+02
 0.14229466671E+02 0.13364433246E+02 0.12703839093E+02 0.12342745463E+02 0.12342737988E+02
 0.12703907979E+02 0.13364634129E+02 0.14229614685E+02 0.15210035957E+02 0.16251223076E+02
 0.17328880711E+02 0.18414816075E+02 0.19432867435E+02 0.20226452964E+02 0.20426324529E+02
 0.19593776350E+02 0.17620462268E+02 0.14897577581E+02 0.12248401900E+02 0.10611859627E+02
 0.10611860247E+02 0.12248488830E+02 0.16800632843E+02 0.18374307166E+02 0.19247591650E+02
 0.19377932915E+02 0.19019148957E+02 0.18414892508E+02 0.17690592399E+02 0.16910506078E+02
 0.16089517284E+02 0.15233368877E+02 0.14382582644E+02 0.13628493820E+02 0.13094198066E+02
 0.12899410371E+02 0.13094271155E+02 0.13628590147E+02 0.14382633137E+02 0.15233328233E+02
 0.16089390419E+02 0.16910346163E+02 0.17690466687E+02 0.18414836965E+02 0.19019143468E+02
 0.19377908060E+02 0.19247471033E+02 0.18374055157E+02 0.16800287560E+02 0.14935185395E+02
 0.13419038400E+02 0.12835300656E+02 0.13419246794E+02 0.14935522187E+02 0.16665854701E+02
 0.17456104712E+02 0.17815462811E+02 0.17845131435E+02 0.17655129731E+02 0.17329008353E+02
 0.16910506078E+02 0.16397440686E+02 0.15771694506E+02 0.15045210389E+02 0.14279962041E+02
 0.13608091051E+02 0.13208703914E+02 0.13208755293E+02 0.13608138401E+02 0.14279883470E+02
 0.15045082983E+02 0.15771628620E+02 0.16397379889E+02 0.16910378082E+02 0.17328887011E+02
 0.17655071477E+02 0.17845038277E+02 0.17815259205E+02 0.17455861523E+02 0.16665587372E+02
 0.15551948238E+02 0.14444514159E+02 0.13751376008E+02 0.13751613395E+02 0.14445007722E+02
 0.15552356138E+02 0.15274832097E+02 0.15771694506E+02 0.16089517284E+02 0.16251411954E+02
 0.16298897211E+02 0.16251411954E+02 0.16089517284E+02 0.15771694506E+02 0.15274832097E+02
 0.14612643796E+02 0.13890380146E+02 0.13316917064E+02 0.13097439552E+02 0.13316876906E+02
 0.13890305261E+02 0.14612543146E+02 0.15274716052E+02 0.15771573514E+02 0.16089396764E+02
 0.16251293551E+02 0.16298780447E+02 0.16251293551E+02 0.16089396764E+02 0.15771573514E+02
 0.15274716052E+02 0.14612543146E+02 0.13890305261E+02 0.13316876906E+02 0.13097439552E+02
 0.13316917064E+02 0.13890380146E+02 0.14612643796E+02 0.13503716593E+02 0.13987961889E+02
 0.14400079734E+02 0.14747865346E+02 0.15028814671E+02 0.15210110291E+02 0.15233368877E+02
 0.15045210389E+02 0.14612643796E+02 0.13977931293E+02 0.13329382057E+02 0.12917327291E+02
 0.12917259648E+02 0.13329249357E+02 0.13977815399E+02 0.14612503720E+02 0.15045005378E+02
 0.15233188196E+02 0.15210040983E+02 0.15028798079E+02 0.14747806804E+02 0.14400001557E+02
 0.13987940065E+02 0.13503775714E+02 0.12960455567E+02 0.12413696113E+02 0.11955741927E+02
 0.11689566729E+02 0.11689389440E+02 0.11955362811E+02 0.12413376911E+02 0.12960289073E+02
 0.11773466509E+02 0.12325736357E+02 0.12875819035E+02 0.13407139624E+02 0.13880150708E+02
 0.14229466671E+02 0.14382582644E+02 0.14279962041E+02 0.13890380146E+02 0.13329382057E+02
 0.12833941333E+02 0.12636663897E+02 0.12833777151E+02 0.13329118614E+02 0.13890113923E+02
 0.14279772164E+02 0.14382497635E+02 0.14229460000E+02 0.13880167741E+02 0.13407141765E+02
 0.12875811042E+02 0.12325765542E+02 0.11773589375E+02 0.11230420774E+02 0.10721112440E+02
 0.10291912546E+02 0.10001077689E+02 0.98976705034E+01 0.10000887195E+02 0.10291603024E+02
 0.10720791393E+02 0.11230180298E+02 0.10233463270E+02 0.10887619122E+02 0.11577326606E+02
 0.12264278752E+02 0.12886019712E+02 0.13364433246E+02 0.13628493820E+02 0.13608091051E+02
 0.13316917064E+02 0.12917327291E+02 0.12636663897E+02 0.12636558439E+02 0.12917031401E+02
 0.13316538303E+02 0.13607817366E+02 0.13628424191E+02 0.13364475683E+02 0.12886034562E+02
 0.12264257936E+02 0.11577341659E+02 0.10887680013E+02 0.10233537923E+02 0.96354130459E+01
 0.91089480311E+01 0.86750983736E+01 0.83616430119E+01 0.81962236955E+01 0.81961705082E+01
 0.83614900524E+01 0.86748927356E+01 0.91087735709E+01 0.96353066818E+01 0.89567680054E+01
 0.97176230030E+01 0.10532480846E+02 0.11350187539E+02 0.12099625898E+02 0.12703839093E+02
 0.13094198066E+02 0.13208703914E+02 0.13097439552E+02 0.12917259648E+02 0.12833777151E+02
 0.12917031401E+02 0.13097069111E+02 0.13208321867E+02 0.13093917630E+02 0.12703710167E+02
 0.12099622590E+02 0.11350235794E+02 0.10532510360E+02 0.97176060010E+01 0.89567304685E+01
 0.82798815047E+01 0.77029235025E+01 0.72363860788E+01 0.68908728303E+01 0.66775289367E+01
 0.66052367067E+01 0.66774214083E+01 0.68907098605E+01 0.72362416469E+01 0.77028506595E+01
 0.82798847322E+01 0.79675104365E+01 0.88311370119E+01 0.97619625684E+01 0.10704684243E+02
 0.11588669550E+02 0.12342745463E+02 0.12899410371E+02 0.13208755293E+02 0.13316876906E+02
 0.13329249357E+02 0.13329118614E+02 0.13316538303E+02 0.13208321867E+02 0.12898991132E+02
 0.12342445643E+02 0.11588565870E+02 0.10704739198E+02 0.97620246109E+01 0.88310911934E+01
 0.79673933925E+01 0.72059368288E+01 0.65641229582E+01 0.60484215981E+01 0.56606219380E+01
 0.54014352292E+01 0.52715763321E+01 0.52715824853E+01 0.54014539704E+01 0.56606423323E+01
 0.60484303032E+01 0.65641469770E+01 0.72060216207E+01 0.72665910692E+01 0.82350250589E+01
 0.92874126824E+01 0.10368873270E+02 0.11410841505E+02 0.12342737988E+02 0.13094271155E+02
 0.13608138401E+02 0.13890305261E+02 0.13977815399E+02 0.13890113923E+02 0.13607817366E+02
 0.13093917630E+02 0.12342445643E+02 0.11410664886E+02 0.10368810488E+02 0.92874160527E+01
 0.82350264190E+01 0.72665335329E+01 0.64175216320E+01 0.57050745594E+01 0.51328128705E+01
 0.46970337343E+01 0.43916116934E+01 0.42109054342E+01 0.41511407667E+01 0.42109987972E+01
 0.43917861628E+01 0.46972627718E+01 0.51330563974E+01 0.57052857574E+01 0.64176622291E+01
 0.68487419559E+01 0.79349996114E+01 0.91268751640E+01 0.10368953652E+02 0.11588762355E+02
 0.12703907979E+02 0.13628590147E+02 0.14279883470E+02 0.14612543146E+02 0.14612503720E+02
 0.14279772164E+02 0.13628424191E+02 0.12703710167E+02 0.11588565870E+02 0.10368810488E+02
 0.91268339686E+01 0.79350483186E+01 0.68487842514E+01 0.59028513296E+01 0.51124966961E+01
 0.44779617612E+01 0.39906240679E+01 0.36386378133E+01 0.34108893030E+01 0.32991856761E+01
 0.32992381313E+01 0.34110308309E+01 0.36388453740E+01 0.39908871554E+01 0.44782449382E+01
 0.51127135815E+01 0.59029268288E+01 0.67098793175E+01 0.79349796447E+01 0.92874214977E+01
 0.10704822252E+02 0.12099762003E+02 0.13364634129E+02 0.14382633137E+02 0.15045082983E+02
 0.15274716052E+02 0.15045005378E+02 0.14382497635E+02 0.13364475683E+02 0.12099622590E+02
 0.10704739198E+02 0.92874160527E+01 0.79350483186E+01 0.67099930600E+01 0.56491307011E+01
 0.47667073561E+01 0.40597020793E+01 0.35145548566E+01 0.31136656577E+01 0.28403315950E+01
 0.26816363613E+01 0.26296534441E+01 0.26817248020E+01 0.28404752117E+01 0.31138114220E+01
 0.35146508152E+01 0.40597175214E+01 0.47666432329E+01 0.56490179330E+01 0.68486680334E+01
 0.82349724416E+01 0.97619905917E+01 0.11350244736E+02 0.12886126748E+02 0.14229614685E+02
 0.15233328233E+02 0.15771628620E+02 0.15771573514E+02 0.15233188196E+02 0.14229460000E+02
 0.12886034562E+02 0.11350235794E+02 0.97620246109E+01 0.82350264190E+01 0.68487842514E+01
 0.56491307011E+01 0.46531494823E+01 0.38564442385E+01 0.32412891781E+01 0.27843837867E+01
 0.24630158572E+01 0.22589131458E+01 0.21598609806E+01 0.21598757342E+01 0.22589521594E+01
 0.24630579594E+01 0.27843820042E+01 0.32411839141E+01 0.38562181904E+01 0.46528720464E+01
 0.56489109029E+01 0.72665049694E+01 0.88311001207E+01 0.10532534091E+02 0.12264277118E+02
 0.13880173316E+02 0.15210035957E+02 0.16089390419E+02 0.16397379889E+02 0.16089396764E+02
 0.15210040983E+02 0.13880167741E+02 0.12264257936E+02 0.10532510360E+02 0.88310911934E+01
 0.72665335329E+01 0.59028513296E+01 0.47667073561E+01 0.38564442385E+01 0.31522992128E+01
 0.26260657233E+01 0.22489126573E+01 0.19965659256E+01 0.18517498838E+01 0.18045270232E+01
 0.18517046928E+01 0.19964742467E+01 0.22487760709E+01 0.26258940413E+01 0.31521125660E+01
 0.38562700266E+01 0.47665715652E+01 0.59027694464E+01 0.79674913559E+01 0.97176773760E+01
 0.11577388935E+02 0.13407141890E+02 0.15028744104E+02 0.16251223076E+02 0.16910346163E+02
 0.16910378082E+02 0.16251293551E+02 0.15028798079E+02 0.13407141765E+02 0.11577341659E+02
 0.97176060010E+01 0.79673933925E+01 0.64175216320E+01 0.51124966961E+01 0.40597020793E+01
 0.32412891781E+01 0.26260657233E+01 0.21795565304E+01 0.18710792288E+01 0.16774893902E+01
 0.15841154151E+01 0.15840698680E+01 0.16773685013E+01 0.18709072705E+01 0.21793494829E+01
 0.26258651760E+01 0.32411753029E+01 0.40597258124E+01 0.51126183541E+01 0.64176541192E+01
 0.89568522632E+01 0.10887757647E+02 0.12875847585E+02 0.14747814743E+02 0.16298774849E+02
 0.17328880711E+02 0.17690466687E+02 0.17328887011E+02 0.16298780447E+02 0.14747806804E+02
 0.12875811042E+02 0.10887680013E+02 0.89567304685E+01 0.72059368288E+01 0.57050745594E+01
 0.44779617612E+01 0.35145548566E+01 0.27843837867E+01 0.22489126573E+01 0.18710792288E+01
 0.16210896342E+01 0.14785811343E+01 0.14322358170E+01 0.14785034997E+01 0.16209630986E+01
 0.18709502346E+01 0.22488280502E+01 0.27843744500E+01 0.35146262728E+01 0.44780952953E+01
 0.57052364429E+01 0.72060915813E+01 0.10233606707E+02 0.12325831821E+02 0.14400021576E+02
 0.16251261714E+02 0.17655024732E+02 0.18414816075E+02 0.18414836965E+02 0.17655071477E+02
 0.16251293551E+02 0.14400001557E+02 0.12325765542E+02 0.10233537923E+02 0.82798815047E+01
 0.65641229582E+01 0.51328128705E+01 0.39906240679E+01 0.31136656577E+01 0.24630158572E+01
 0.19965659256E+01 0.16774893902E+01 0.14785811343E+01 0.13829962248E+01 0.13829750915E+01
 0.14785250710E+01 0.16774294804E+01 0.19965613750E+01 0.24631195891E+01 0.31138678773E+01
 0.39908429717E+01 0.51329633411E+01 0.65641950114E+01 0.82799315810E+01 0.11773556252E+02
 0.13987884858E+02 0.16089341135E+02 0.17844996611E+02 0.19019121912E+02 0.19432867435E+02
 0.19019143468E+02 0.17845038277E+02 0.16089396764E+02 0.13987940065E+02 0.11773589375E+02
 0.96354130459E+01 0.77029235025E+01 0.60484215981E+01 0.46970337343E+01 0.36386378133E+01
 0.28403315950E+01 0.22589131458E+01 0.18517498838E+01 0.15841154151E+01 0.14322358170E+01
 0.13829750915E+01 0.14322346410E+01 0.15841293328E+01 0.18518018607E+01 0.22590188705E+01
 0.28404884986E+01 0.36388230986E+01 0.46972118678E+01 0.60485585070E+01 0.77029986493E+01
 0.96354257907E+01 0.13503628824E+02 0.15771410853E+02 0.17815188593E+02 0.19377934734E+02
 0.20226481874E+02 0.20226452964E+02 0.19377908060E+02 0.17815259205E+02 0.15771573514E+02
 0.13503775714E+02 0.11230420774E+02 0.91089480311E+01 0.72363860788E+01 0.56606219380E+01
 0.43916116934E+01 0.34108893030E+01 0.26816363613E+01 0.21598609806E+01 0.18045270232E+01
 0.15840698680E+01 0.14785034997E+01 0.14785250710E+01 0.15841293328E+01 0.18046158448E+01
 0.21599708316E+01 0.26817448327E+01 0.34109591034E+01 0.43916271742E+01 0.56606172425E+01
 0.72364036663E+01 0.91089686694E+01 0.11230371296E+02 0.15274503770E+02 0.17455650201E+02
 0.19247296862E+02 0.20426225430E+02 0.20837837366E+02 0.20426324529E+02 0.19247471033E+02
 0.17455861523E+02 0.15274716052E+02 0.12960455567E+02 0.10721112440E+02 0.86750983736E+01
 0.68908728303E+01 0.54014352292E+01 0.42109054342E+01 0.32991856761E+01 0.26296534441E+01
 0.21598757342E+01 0.18517046928E+01 0.16773685013E+01 0.16209630986E+01 0.16774294804E+01
 0.18518018607E+01 0.21599708316E+01 0.26297111827E+01 0.32991870890E+01 0.42108512338E+01
 0.54013393787E+01 0.68907499455E+01 0.86749555727E+01 0.10720946780E+02 0.12960263361E+02
 0.16665327454E+02 0.18373783034E+02 0.19593482510E+02 0.20228385340E+02 0.20228524573E+02
 0.19593776350E+02 0.18374055157E+02 0.16665587372E+02 0.14612543146E+02 0.12413696113E+02
 0.10291912546E+02 0.83616430119E+01 0.66775289367E+01 0.52715763321E+01 0.41511407667E+01
 0.32992381313E+01 0.26817248020E+01 0.22589521594E+01 0.19964742467E+01 0.18709072705E+01
 0.18709502346E+01 0.19965613750E+01 0.22590188705E+01 0.26817448327E+01 0.32991870890E+01
 0.41509990503E+01 0.52714105799E+01 0.66774470297E+01 0.83616169339E+01 0.10291782339E+02
 0.12413409277E+02 0.14612227382E+02 0.16800041704E+02 0.17620212739E+02 0.18069230628E+02
 0.18210359881E+02 0.18069387862E+02 0.17620462268E+02 0.16800287560E+02 0.15551948238E+02
 0.13890305261E+02 0.11955741927E+02 0.10001077689E+02 0.81962236955E+01 0.66052367067E+01
 0.52715824853E+01 0.42109987972E+01 0.34110308309E+01 0.28404752117E+01 0.24630579594E+01
 0.22487760709E+01 0.21793494829E+01 0.22488280502E+01 0.24631195891E+01 0.28404884986E+01
 0.34109591034E+01 0.42108512338E+01 0.52714105799E+01 0.66051041803E+01 0.81961674585E+01
 0.10001083134E+02 0.11955750011E+02 0.13890245310E+02 0.15551783927E+02 0.14897300979E+02
 0.14608454487E+02 0.14369443941E+02 0.14369464817E+02 0.14608603203E+02 0.14897577581E+02
 0.14935185395E+02 0.14444514159E+02 0.13316876906E+02 0.11689566729E+02 0.98976705034E+01
 0.81961705082E+01 0.66774214083E+01 0.54014539704E+01 0.43917861628E+01 0.36388453740E+01
 0.31138114220E+01 0.27843820042E+01 0.26258940413E+01 0.26258651760E+01 0.27843744500E+01
 0.31138678773E+01 0.36388230986E+01 0.43916271742E+01 0.54013393787E+01 0.66774470297E+01
 0.81961674585E+01 0.98975681411E+01 0.11689593051E+02 0.13317138339E+02 0.14444716315E+02
 0.14935064348E+02 0.10722251798E+02 0.94630923831E+01 0.89786941516E+01 0.94632780078E+01
 0.10722548193E+02 0.12248401900E+02 0.13419038400E+02 0.13751376008E+02 0.13097439552E+02
 0.11689389440E+02 0.10000887195E+02 0.83614900524E+01 0.68907098605E+01 0.56606423323E+01
 0.46972627718E+01 0.39908871554E+01 0.35146508152E+01 0.32411839141E+01 0.31521125660E+01
 0.32411753029E+01 0.35146262728E+01 0.39908429717E+01 0.46972118678E+01 0.56606172425E+01
 0.68907499455E+01 0.83616169339E+01 0.10001083134E+02 0.11689593051E+02 0.13097566447E+02
 0.13751356951E+02 0.13418856468E+02 0.12248109977E+02 0.48664404959E+01 0.31873069369E+01
 0.31875002147E+01 0.48668229229E+01 0.76500029743E+01 0.10611859627E+02 0.12835300656E+02
 0.13751613395E+02 0.13316917064E+02 0.11955362811E+02 0.10291603024E+02 0.86748927356E+01
 0.72362416469E+01 0.60484303032E+01 0.51330563974E+01 0.44782449382E+01 0.40597175214E+01
 0.38562181904E+01 0.38562700266E+01 0.40597258124E+01 0.44780952953E+01 0.51329633411E+01
 0.60485585070E+01 0.72364036663E+01 0.86749555727E+01 0.10291782339E+02 0.11955750011E+02
 0.13317138339E+02 0.13751356951E+02 0.12834795135E+02 0.10611449793E+02 0.76496556576E+01
 -.12871518962E+01 -.25468532889E+01 -.12870194682E+01 0.20794624825E+01 0.64810994873E+01
 0.10611860247E+02 0.13419246794E+02 0.14445007722E+02 0.13890380146E+02 0.12413376911E+02
 0.10720791393E+02 0.91087735709E+01 0.77028506595E+01 0.65641469770E+01 0.57052857574E+01
 0.51127135815E+01 0.47666432329E+01 0.46528720464E+01 0.47665715652E+01 0.51126183541E+01
 0.57052364429E+01 0.65641950114E+01 0.77029986493E+01 0.91089686694E+01 0.10720946780E+02
 0.12413409277E+02 0.13890245310E+02 0.14444716315E+02 0.13418856468E+02 0.10611449793E+02
 0.64807412355E+01 0.20792053497E+01 -.59784227060E+01 -.59785552547E+01 -.29720776730E+01
 0.20793300132E+01 0.76500029152E+01 0.12248488830E+02 0.14935522187E+02 0.15552356138E+02
 0.14612643796E+02 0.12960289073E+02 0.11230180298E+02 0.96353066818E+01 0.82798847322E+01
 0.72060216207E+01 0.64176622291E+01 0.59029268288E+01 0.56490179330E+01 0.56489109029E+01
 0.59027694464E+01 0.64176541192E+01 0.72060915813E+01 0.82799315810E+01 0.96354257907E+01
 0.11230371296E+02 0.12960263361E+02 0.14612227382E+02 0.15551783927E+02 0.14935064348E+02
 0.12248109977E+02 0.76496556576E+01 0.20792053497E+01 -.29719160733E+01 -.59785145940E+01
 -.25468471178E+01 0.31871511335E+01 0.94629153251E+01 0.14608528985E+02 0.17620603670E+02
 0.18374307166E+02 0.17456104712E+02 0.15771694506E+02 0.13987961889E+02 0.12325736357E+02
 0.10887619122E+02 0.97176230030E+01 0.88311370119E+01 0.82350250589E+01 0.79349996114E+01
 0.79349796447E+01 0.82349724416E+01 0.88311001207E+01 0.97176773760E+01 0.10887757647E+02
 0.12325831821E+02 0.13987884858E+02 0.15771410853E+02 0.17455650201E+02 0.18373783034E+02
 0.17620212739E+02 0.14608454487E+02 0.94630923831E+01 0.31873069369E+01 -.25468532889E+01
 -.59785552547E+01 -.25468471178E+01 0.21980153589E+01 0.83538005686E+01 0.14113007089E+02
 0.18112661685E+02 0.19831591254E+02 0.19574540199E+02 0.18150784404E+02 0.16397440686E+02
 0.14677232999E+02 0.13123564279E+02 0.11798869800E+02 0.10731844685E+02 0.99440636060E+01
 0.94583902722E+01 0.92939969996E+01 0.94584022555E+01 0.99440728691E+01 0.10731854661E+02
 0.11798907374E+02 0.13123628755E+02 0.14677248858E+02 0.16397291336E+02 0.18150426099E+02
 0.19574090227E+02 0.19831274745E+02 0.18112625805E+02 0.14113181501E+02 0.83539683754E+01
 0.21980404525E+01 -.25469010042E+01 -.43319190521E+01 0.31871511335E+01 0.83538005686E+01
 0.13907020632E+02 0.18321594036E+02 0.20744573452E+02 0.21152774414E+02 0.20150378401E+02
 0.18568050045E+02 0.16910506078E+02 0.15344187748E+02 0.13945410822E+02 0.12750309288E+02
 0.11791564531E+02 0.11112536705E+02 0.10758541917E+02 0.10758617318E+02 0.11112654901E+02
 0.11791582905E+02 0.12750264412E+02 0.13945395036E+02 0.15344153023E+02 0.16910361775E+02
 0.18567844471E+02 0.20150226614E+02 0.21152704036E+02 0.20744577450E+02 0.18321723897E+02
 0.13907287031E+02 0.83540775733E+01 0.31873083876E+01 0.64024012694E-01 0.63983968306E-01
 0.94629153251E+01 0.14113007089E+02 0.18321594036E+02 0.21055541525E+02 0.21996577423E+02
 0.21487587522E+02 0.20227643007E+02 0.18775595751E+02 0.17329008353E+02 0.15971779762E+02
 0.14739454482E+02 0.13666655276E+02 0.12812770073E+02 0.12255257167E+02 0.12060737747E+02
 0.12255387384E+02 0.12812901750E+02 0.13666666229E+02 0.14739327704E+02 0.15971581751E+02
 0.17328830814E+02 0.18775529570E+02 0.20227737718E+02 0.21487790334E+02 0.21996755086E+02
 0.21055619096E+02 0.18321649046E+02 0.14113176631E+02 0.94632060626E+01 0.58138602988E+01
 0.44296179735E+01 0.58136220729E+01 0.14608528985E+02 0.18112661685E+02 0.20744573452E+02
 0.21996577423E+02 0.21958354680E+02 0.21131279125E+02 0.20021992131E+02 0.18835321976E+02
 0.17655129731E+02 0.16507742987E+02 0.15416392262E+02 0.14443104212E+02 0.13692485665E+02
 0.13278021867E+02 0.13278023561E+02 0.13692555336E+02 0.14443242153E+02 0.15416392513E+02
 0.16507499313E+02 0.17654866937E+02 0.18835284796E+02 0.20022125437E+02 0.21131429435E+02
 0.21958534984E+02 0.21996798717E+02 0.20744674290E+02 0.18112559152E+02 0.14608409418E+02
 0.11251960153E+02 0.91930941211E+01 0.91930442809E+01 0.11251936153E+02 0.17620603670E+02
 0.19831591254E+02 0.21152774414E+02 0.21487587522E+02 0.21131279125E+02 0.20461154070E+02
 0.19651218215E+02 0.18775595751E+02 0.17845131435E+02 0.16859214355E+02 0.15859751827E+02
 0.14945873181E+02 0.14284343976E+02 0.14040915026E+02 0.14284379833E+02 0.14945920582E+02
 0.15859754019E+02 0.16859117130E+02 0.17844945258E+02 0.18775407877E+02 0.19651130867E+02
 0.20461209308E+02 0.21131434167E+02 0.21487736928E+02 0.21152803178E+02 0.19831447584E+02
 0.17620340269E+02 0.15074850124E+02 0.13033432393E+02 0.12251793492E+02 0.13033590231E+02
 0.15075114120E+02 0.18374307166E+02 0.19574540199E+02 0.20150378401E+02 0.20227643007E+02
 0.20021992131E+02 0.19651218215E+02 0.19169507966E+02 0.18568050045E+02 0.17815462811E+02
 0.16903904150E+02 0.15892991755E+02 0.14983410306E+02 0.14437364349E+02 0.14437398937E+02
 0.14983400755E+02 0.15892823196E+02 0.16903681276E+02 0.17815300231E+02 0.18567877302E+02
 0.19169299363E+02 0.19651154605E+02 0.20022147739E+02 0.20227764868E+02 0.20150226878E+02
 0.19574215252E+02 0.18374008516E+02 0.16734843865E+02 0.15133069197E+02 0.14139291611E+02
 0.14139430510E+02 0.15133356818E+02 0.16735120440E+02 0.17456104712E+02 0.18150784404E+02
 0.18568050045E+02 0.18775595751E+02 0.18835321976E+02 0.18775595751E+02 0.18568050045E+02
 0.18150784404E+02 0.17456104712E+02 0.16472239670E+02 0.15383005544E+02 0.14516823713E+02
 0.14185491170E+02 0.14516615867E+02 0.15382694513E+02 0.16471929352E+02 0.17455830902E+02
 0.18150558634E+02 0.18567909858E+02 0.18775562325E+02 0.18835340439E+02 0.18775562325E+02
 0.18567909858E+02 0.18150558634E+02 0.17455830902E+02 0.16471929352E+02 0.15382694513E+02
 0.14516615867E+02 0.14185491170E+02 0.14516823713E+02 0.15383005544E+02 0.16472239670E+02
 0.15771694506E+02 0.16397440686E+02 0.16910506078E+02 0.17329008353E+02 0.17655129731E+02
 0.17845131435E+02 0.17815462811E+02 0.17456104712E+02 0.16665854701E+02 0.15552356138E+02
 0.14445007722E+02 0.13751613395E+02 0.13751376008E+02 0.14444514159E+02 0.15551948238E+02
 0.16665587372E+02 0.17455861523E+02 0.17815259205E+02 0.17845038277E+02 0.17655071477E+02
 0.17328887011E+02 0.16910378082E+02 0.16397379889E+02 0.15771628620E+02 0.15045082983E+02
 0.14279883470E+02 0.13608138401E+02 0.13208755293E+02 0.13208703914E+02 0.13608091051E+02
 0.14279962041E+02 0.15045210389E+02 0.13987961889E+02 0.14677232999E+02 0.15344187748E+02
 0.15971779762E+02 0.16507742987E+02 0.16859214355E+02 0.16903904150E+02 0.16472239670E+02
 0.15552356138E+02 0.14396441849E+02 0.13431407811E+02 0.13055580545E+02 0.13431009393E+02
 0.14395883399E+02 0.15551896910E+02 0.16471962689E+02 0.16903729995E+02 0.16859063027E+02
 0.16507623050E+02 0.15971728250E+02 0.15344186061E+02 0.14677226716E+02 0.13987958476E+02
 0.13286461595E+02 0.12606443817E+02 0.12017809030E+02 0.11611681954E+02 0.11465857318E+02
 0.11611418839E+02 0.12017452442E+02 0.12606186393E+02 0.13286370266E+02 0.12325736357E+02
 0.13123564279E+02 0.13945410822E+02 0.14739454482E+02 0.15416392262E+02 0.15859751827E+02
 0.15892991755E+02 0.15383005544E+02 0.14445007722E+02 0.13431407811E+02 0.12776357505E+02
 0.12776136208E+02 0.13430826732E+02 0.14444323818E+02 0.15382535893E+02 0.15892843768E+02
 0.15859752337E+02 0.15416365567E+02 0.14739424111E+02 0.13945447891E+02 0.13123623449E+02
 0.12325783705E+02 0.11577406345E+02 0.10899200320E+02 0.10323977056E+02 0.98985334492E+01
 0.96706686476E+01 0.96706101159E+01 0.98983261116E+01 0.10323642405E+02 0.10898902847E+02
 0.11577268763E+02 0.10887619122E+02 0.11798869800E+02 0.12750309288E+02 0.13666655276E+02
 0.14443104212E+02 0.14945873181E+02 0.14983410306E+02 0.14516823713E+02 0.13751613395E+02
 0.13055580545E+02 0.12776136208E+02 0.13055110372E+02 0.13750926290E+02 0.14516252175E+02
 0.14983146568E+02 0.14945871558E+02 0.14443183941E+02 0.13666686080E+02 0.12750295575E+02
 0.11798884270E+02 0.10887698482E+02 0.10060034082E+02 0.93390041507E+01 0.87422492846E+01
 0.82904667948E+01 0.80067284362E+01 0.79097234971E+01 0.80066603961E+01 0.82903550568E+01
 0.87421192778E+01 0.93388690770E+01 0.10059910115E+02 0.97176230030E+01 0.10731844685E+02
 0.11791564531E+02 0.12812770073E+02 0.13692485665E+02 0.14284343976E+02 0.14437364349E+02
 0.14185491170E+02 0.13751376008E+02 0.13431009393E+02 0.13430826732E+02 0.13750926290E+02
 0.14184974518E+02 0.14436939013E+02 0.14284090960E+02 0.13692424156E+02 0.12812834278E+02
 0.11791627460E+02 0.10731840611E+02 0.97175971165E+01 0.88038105737E+01 0.80195103349E+01
 0.73782045546E+01 0.68876996896E+01 0.65550279625E+01 0.63866495357E+01 0.63865956611E+01
 0.65549264959E+01 0.68876374442E+01 0.73781808192E+01 0.80194884156E+01 0.88038050579E+01
 0.88311370119E+01 0.99440636060E+01 0.11112536705E+02 0.12255257167E+02 0.13278021867E+02
 0.14040915026E+02 0.14437398937E+02 0.14516615867E+02 0.14444514159E+02 0.14395883399E+02
 0.14444323818E+02 0.14516252175E+02 0.14436939013E+02 0.14040502186E+02 0.13277789138E+02
 0.12255230002E+02 0.11112613942E+02 0.99441082196E+01 0.88310862971E+01 0.78313364669E+01
 0.69769947379E+01 0.62804718094E+01 0.57431188732E+01 0.53622797042E+01 0.51350525278E+01
 0.50595410615E+01 0.51350894832E+01 0.53623259412E+01 0.57431599132E+01 0.62805289227E+01
 0.69770907994E+01 0.78314448029E+01 0.82350250589E+01 0.94583902722E+01 0.10758541917E+02
 0.12060737747E+02 0.13278023561E+02 0.14284379833E+02 0.14983400755E+02 0.15382694513E+02
 0.15551948238E+02 0.15551896910E+02 0.15382535893E+02 0.14983146568E+02 0.14284090960E+02
 0.13277789138E+02 0.12060613247E+02 0.10758513288E+02 0.94583978654E+01 0.82350082110E+01
 0.71429206784E+01 0.62129553700E+01 0.54553755006E+01 0.48669205099E+01 0.44381591957E+01
 0.41589313973E+01 0.40214162870E+01 0.40214754372E+01 0.41590933779E+01 0.44383843249E+01
 0.48671598447E+01 0.54555848941E+01 0.62131046466E+01 0.71429986126E+01 0.79349996114E+01
 0.92939969996E+01 0.10758617318E+02 0.12255387384E+02 0.13692555336E+02 0.14945920582E+02
 0.15892823196E+02 0.16471929352E+02 0.16665587372E+02 0.16471962689E+02 0.15892843768E+02
 0.14945871558E+02 0.13692424156E+02 0.12255230002E+02 0.10758513288E+02 0.92939760118E+01
 0.79350201669E+01 0.67327771874E+01 0.57147112606E+01 0.48873689911E+01 0.42425638129E+01
 0.37647482035E+01 0.34372983226E+01 0.32465936621E+01 0.31840247762E+01 0.32466853996E+01
 0.34374842311E+01 0.37650005180E+01 0.42428172428E+01 0.48875571091E+01 0.57148030652E+01
 0.67327862914E+01 0.79349796447E+01 0.94584022555E+01 0.11112654901E+02 0.12812901750E+02
 0.14443242153E+02 0.15859754019E+02 0.16903681276E+02 0.17455830902E+02 0.17455861523E+02
 0.16903729995E+02 0.15859752337E+02 0.14443183941E+02 0.12812834278E+02 0.11112613942E+02
 0.94583978654E+01 0.79350201669E+01 0.65965611164E+01 0.54692426782E+01 0.45562577864E+01
 0.38445021788E+01 0.33122836957E+01 0.29363877040E+01 0.26971226268E+01 0.25809004076E+01
 0.25809401764E+01 0.26972177628E+01 0.29364908800E+01 0.33123585278E+01 0.38445250011E+01
 0.45562162675E+01 0.54691560941E+01 0.65964788573E+01 0.82349724416E+01 0.99440728691E+01
 0.11791582905E+02 0.13666666229E+02 0.15416392513E+02 0.16859117130E+02 0.17815300231E+02
 0.18150558634E+02 0.17815259205E+02 0.16859063027E+02 0.15416365567E+02 0.13666686080E+02
 0.11791627460E+02 0.99441082196E+01 0.82350082110E+01 0.67327771874E+01 0.54692426782E+01
 0.44475890928E+01 0.36512295345E+01 0.30528874536E+01 0.26227676443E+01 0.23346442443E+01
 0.21692678091E+01 0.21153587572E+01 0.21692683866E+01 0.23346438962E+01 0.26227393236E+01
 0.30527834872E+01 0.36510335175E+01 0.44473552888E+01 0.54690593814E+01 0.67326853691E+01
 0.88311001207E+01 0.10731854661E+02 0.12750264412E+02 0.14739327704E+02 0.16507499313E+02
 0.17844945258E+02 0.18567877302E+02 0.18567909858E+02 0.17845038277E+02 0.16507623050E+02
 0.14739424111E+02 0.12750295575E+02 0.10731840611E+02 0.88310862971E+01 0.71429206784E+01
 0.57147112606E+01 0.45562577864E+01 0.36512295345E+01 0.29684713206E+01 0.24720796022E+01
 0.21290892377E+01 0.19140123345E+01 0.18103770012E+01 0.18103431445E+01 0.19139222951E+01
 0.21289588145E+01 0.24719134836E+01 0.29682860217E+01 0.36510672987E+01 0.45561528067E+01