   2   2   0   0
  0.2001288E+02  0.3839590E-09  0.3839590E-09  0.3839590E-09  0.5000000E-15
  1.000000000000000E-004
  CAR 
 Si                                      
     17.93192614     -8.14459588  301      6.14416275      1.00000000
     -8.145  0.0000E+00  0.0000E+00
     -8.058  0.0000E+00  0.0000E+00
     -7.971  0.0000E+00  0.0000E+00
     -7.884  0.0000E+00  0.0000E+00
     -7.797  0.0000E+00  0.0000E+00
     -7.710  0.0000E+00  0.0000E+00
     -7.623  0.0000E+00  0.0000E+00
     -7.536  0.0000E+00  0.0000E+00
     -7.449  0.0000E+00  0.0000E+00
     -7.362  0.0000E+00  0.0000E+00
     -7.275  0.8941E-15  0.7772E-16
     -7.188  0.1095E-12  0.9598E-14
     -7.102  0.9439E-11  0.8300E-12
     -7.015  0.5623E-09  0.4971E-10
     -6.928  0.2318E-07  0.2065E-08
     -6.841  0.6624E-06  0.5964E-07
     -6.754  0.1313E-04  0.1201E-05
     -6.667  0.1811E-03  0.1694E-04
     -6.580  0.1741E-02  0.1683E-03
     -6.493  0.1171E-01  0.1186E-02
     -6.406  0.5530E-01  0.5993E-02
     -6.319  0.1847E+00  0.2205E-01
     -6.232  0.4410E+00  0.6038E-01
     -6.145  0.7650E+00  0.1269E+00
     -6.058  0.9933E+00  0.2132E+00
     -5.972  0.1016E+01  0.3015E+00
     -5.885  0.8877E+00  0.3787E+00
     -5.798  0.7321E+00  0.4423E+00
     -5.711  0.6160E+00  0.4959E+00
     -5.624  0.5413E+00  0.5429E+00
     -5.537  0.4917E+00  0.5857E+00
     -5.450  0.4557E+00  0.6253E+00
     -5.363  0.4277E+00  0.6625E+00
     -5.276  0.4051E+00  0.6977E+00
     -5.189  0.3864E+00  0.7313E+00
     -5.102  0.3708E+00  0.7635E+00
     -5.015  0.3574E+00  0.7946E+00
     -4.928  0.3460E+00  0.8246E+00
     -4.842  0.3363E+00  0.8539E+00
     -4.755  0.3280E+00  0.8824E+00
     -4.668  0.3210E+00  0.9103E+00
     -4.581  0.3153E+00  0.9377E+00
     -4.494  0.3111E+00  0.9647E+00
     -4.407  0.3082E+00  0.9915E+00
     -4.320  0.3070E+00  0.1018E+01
     -4.233  0.3090E+00  0.1045E+01
     -4.146  0.3170E+00  0.1073E+01
     -4.059  0.3334E+00  0.1102E+01
     -3.972  0.3564E+00  0.1133E+01
     -3.885  0.3738E+00  0.1165E+01
     -3.799  0.3615E+00  0.1197E+01
     -3.712  0.3077E+00  0.1223E+01
     -3.625  0.2380E+00  0.1244E+01
     -3.538  0.1906E+00  0.1261E+01
     -3.451  0.1713E+00  0.1275E+01
     -3.364  0.1601E+00  0.1289E+01
     -3.277  0.1529E+00  0.1303E+01
     -3.190  0.1584E+00  0.1316E+01
     -3.103  0.1662E+00  0.1331E+01
     -3.016  0.1649E+00  0.1345E+01
     -2.929  0.1817E+00  0.1361E+01
     -2.842  0.2696E+00  0.1384E+01
     -2.755  0.4683E+00  0.1425E+01
     -2.669  0.7613E+00  0.1491E+01
     -2.582  0.1036E+01  0.1581E+01
     -2.495  0.1142E+01  0.1681E+01
     -2.408  0.1032E+01  0.1770E+01
     -2.321  0.8006E+00  0.1840E+01
     -2.234  0.5843E+00  0.1891E+01
     -2.147  0.4726E+00  0.1932E+01
     -2.060  0.4601E+00  0.1972E+01
     -1.973  0.4678E+00  0.2012E+01
     -1.886  0.4307E+00  0.2050E+01
     -1.799  0.3639E+00  0.2081E+01
     -1.712  0.3251E+00  0.2110E+01
     -1.625  0.3452E+00  0.2140E+01
     -1.539  0.4209E+00  0.2176E+01
     -1.452  0.5453E+00  0.2224E+01
     -1.365  0.7165E+00  0.2286E+01
     -1.278  0.9166E+00  0.2366E+01
     -1.191  0.1077E+01  0.2459E+01
     -1.104  0.1087E+01  0.2554E+01
     -1.017  0.9036E+00  0.2632E+01
     -0.930  0.6279E+00  0.2687E+01
     -0.843  0.4119E+00  0.2723E+01
     -0.756  0.3100E+00  0.2750E+01
     -0.669  0.2693E+00  0.2773E+01
     -0.582  0.2348E+00  0.2793E+01
     -0.495  0.2106E+00  0.2812E+01
     -0.409  0.2112E+00  0.2830E+01
     -0.322  0.2195E+00  0.2849E+01
     -0.235  0.2172E+00  0.2868E+01
     -0.148  0.2075E+00  0.2886E+01
     -0.061  0.1959E+00  0.2903E+01
      0.026  0.1857E+00  0.2919E+01
      0.113  0.1872E+00  0.2935E+01
      0.200  0.2003E+00  0.2953E+01
      0.287  0.2035E+00  0.2971E+01
      0.374  0.1847E+00  0.2987E+01
      0.461  0.1652E+00  0.3001E+01
      0.548  0.1699E+00  0.3016E+01
      0.634  0.1904E+00  0.3032E+01
      0.721  0.1964E+00  0.3049E+01
      0.808  0.1783E+00  0.3065E+01
      0.895  0.1584E+00  0.3079E+01
      0.982  0.1595E+00  0.3093E+01
      1.069  0.1826E+00  0.3108E+01
      1.156  0.2236E+00  0.3128E+01
      1.243  0.3090E+00  0.3155E+01
      1.330  0.4884E+00  0.3197E+01
      1.417  0.7502E+00  0.3262E+01
      1.504  0.9676E+00  0.3346E+01
      1.591  0.1007E+01  0.3434E+01
      1.678  0.8743E+00  0.3510E+01
      1.764  0.6911E+00  0.3570E+01
      1.851  0.5551E+00  0.3618E+01
      1.938  0.4882E+00  0.3661E+01
      2.025  0.4691E+00  0.3701E+01
      2.112  0.4693E+00  0.3742E+01
      2.199  0.4779E+00  0.3784E+01
      2.286  0.5169E+00  0.3829E+01
      2.373  0.6242E+00  0.3883E+01
      2.460  0.7975E+00  0.3952E+01
      2.547  0.9613E+00  0.4036E+01
      2.634  0.1042E+01  0.4126E+01
      2.721  0.1079E+01  0.4220E+01
      2.808  0.1179E+01  0.4323E+01
      2.894  0.1364E+01  0.4441E+01
      2.981  0.1510E+01  0.4573E+01
      3.068  0.1487E+01  0.4702E+01
      3.155  0.1322E+01  0.4817E+01
      3.242  0.1150E+01  0.4917E+01
      3.329  0.1048E+01  0.5008E+01
      3.416  0.9887E+00  0.5094E+01
      3.503  0.9170E+00  0.5173E+01
      3.590  0.8193E+00  0.5245E+01
      3.677  0.7219E+00  0.5307E+01
      3.764  0.6597E+00  0.5365E+01
      3.851  0.6425E+00  0.5421E+01
      3.938  0.6401E+00  0.5476E+01
      4.024  0.6191E+00  0.5530E+01
      4.111  0.5844E+00  0.5581E+01
      4.198  0.5711E+00  0.5630E+01
      4.285  0.6001E+00  0.5683E+01
      4.372  0.6720E+00  0.5741E+01
      4.459  0.8137E+00  0.5812E+01
      4.546  0.1064E+01  0.5904E+01
      4.633  0.1369E+01  0.6023E+01
      4.720  0.1567E+01  0.6159E+01
      4.807  0.1567E+01  0.6296E+01
      4.894  0.1441E+01  0.6421E+01
      4.981  0.1309E+01  0.6535E+01
      5.068  0.1219E+01  0.6641E+01
      5.154  0.1173E+01  0.6743E+01
      5.241  0.1168E+01  0.6844E+01
      5.328  0.1199E+01  0.6948E+01
      5.415  0.1265E+01  0.7058E+01
      5.502  0.1385E+01  0.7179E+01
      5.589  0.1600E+01  0.7318E+01
      5.676  0.1880E+01  0.7481E+01
      5.763  0.2026E+01  0.7657E+01
      5.850  0.1801E+01  0.7814E+01
      5.937  0.1229E+01  0.7921E+01
      6.024  0.6213E+00  0.7975E+01
      6.111  0.2408E+00  0.7996E+01
      6.197  0.1250E+00  0.8007E+01
      6.284  0.2084E+00  0.8025E+01
      6.371  0.4348E+00  0.8062E+01
      6.458  0.7223E+00  0.8125E+01
      6.545  0.9401E+00  0.8207E+01
      6.632  0.9910E+00  0.8293E+01
      6.719  0.8969E+00  0.8371E+01
      6.806  0.7657E+00  0.8438E+01
      6.893  0.6894E+00  0.8498E+01
      6.980  0.6884E+00  0.8557E+01
      7.067  0.7299E+00  0.8621E+01
      7.154  0.7847E+00  0.8689E+01
      7.241  0.8608E+00  0.8764E+01
      7.327  0.9660E+00  0.8848E+01
      7.414  0.1057E+01  0.8940E+01
      7.501  0.1075E+01  0.9033E+01
      7.588  0.1019E+01  0.9122E+01
      7.675  0.9406E+00  0.9204E+01
      7.762  0.8723E+00  0.9279E+01
      7.849  0.8216E+00  0.9351E+01
      7.936  0.7975E+00  0.9420E+01
      8.023  0.8107E+00  0.9491E+01
      8.110  0.8811E+00  0.9567E+01
      8.197  0.1084E+01  0.9661E+01
      8.284  0.1512E+01  0.9793E+01
      8.371  0.2086E+01  0.9974E+01
      8.457  0.2498E+01  0.1019E+02
      8.544  0.2514E+01  0.1041E+02
      8.631  0.2244E+01  0.1060E+02
      8.718  0.1957E+01  0.1077E+02
      8.805  0.1771E+01  0.1093E+02
      8.892  0.1661E+01  0.1107E+02
      8.979  0.1636E+01  0.1122E+02
      9.066  0.1799E+01  0.1137E+02
      9.153  0.2182E+01  0.1156E+02
      9.240  0.2565E+01  0.1178E+02
      9.327  0.2624E+01  0.1201E+02
      9.414  0.2272E+01  0.1221E+02
      9.501  0.1733E+01  0.1236E+02
      9.587  0.1266E+01  0.1247E+02
      9.674  0.9643E+00  0.1255E+02
      9.761  0.8013E+00  0.1262E+02
      9.848  0.7484E+00  0.1269E+02
      9.935  0.7858E+00  0.1276E+02
     10.022  0.8543E+00  0.1283E+02
     10.109  0.8661E+00  0.1291E+02
     10.196  0.7988E+00  0.1298E+02
     10.283  0.7225E+00  0.1304E+02
     10.370  0.7043E+00  0.1310E+02
     10.457  0.7251E+00  0.1316E+02
     10.544  0.7207E+00  0.1323E+02
     10.630  0.6864E+00  0.1329E+02
     10.717  0.6751E+00  0.1334E+02
     10.804  0.6977E+00  0.1341E+02
     10.891  0.7092E+00  0.1347E+02
     10.978  0.6778E+00  0.1353E+02
     11.065  0.6060E+00  0.1358E+02
     11.152  0.5257E+00  0.1362E+02
     11.239  0.4995E+00  0.1367E+02
     11.326  0.5749E+00  0.1372E+02
     11.413  0.7184E+00  0.1378E+02
     11.500  0.8304E+00  0.1385E+02
     11.587  0.8417E+00  0.1393E+02
     11.674  0.7838E+00  0.1399E+02
     11.760  0.7406E+00  0.1406E+02
     11.847  0.7435E+00  0.1412E+02
     11.934  0.7542E+00  0.1419E+02
     12.021  0.7232E+00  0.1425E+02
     12.108  0.6404E+00  0.1431E+02
     12.195  0.5527E+00  0.1435E+02
     12.282  0.5140E+00  0.1440E+02
     12.369  0.5193E+00  0.1444E+02
     12.456  0.5346E+00  0.1449E+02
     12.543  0.5443E+00  0.1454E+02
     12.630  0.5400E+00  0.1459E+02
     12.717  0.5269E+00  0.1463E+02
     12.804  0.5278E+00  0.1468E+02
     12.890  0.5445E+00  0.1472E+02
     12.977  0.5503E+00  0.1477E+02
     13.064  0.5353E+00  0.1482E+02
     13.151  0.5296E+00  0.1486E+02
     13.238  0.5604E+00  0.1491E+02
     13.325  0.6055E+00  0.1497E+02
     13.412  0.6352E+00  0.1502E+02
     13.499  0.6773E+00  0.1508E+02
     13.586  0.7659E+00  0.1515E+02
     13.673  0.8529E+00  0.1522E+02
     13.760  0.8421E+00  0.1529E+02
     13.847  0.6950E+00  0.1535E+02
     13.934  0.4715E+00  0.1540E+02
     14.020  0.2830E+00  0.1542E+02
     14.107  0.2046E+00  0.1544E+02
     14.194  0.2203E+00  0.1546E+02
     14.281  0.2532E+00  0.1548E+02
     14.368  0.2477E+00  0.1550E+02
     14.455  0.2119E+00  0.1552E+02
     14.542  0.1844E+00  0.1553E+02
     14.629  0.1858E+00  0.1555E+02
     14.716  0.2070E+00  0.1557E+02
     14.803  0.2260E+00  0.1559E+02
     14.890  0.2290E+00  0.1561E+02
     14.977  0.2177E+00  0.1563E+02
     15.064  0.2070E+00  0.1565E+02
     15.150  0.2171E+00  0.1566E+02
     15.237  0.2443E+00  0.1569E+02
     15.324  0.2577E+00  0.1571E+02
     15.411  0.2508E+00  0.1573E+02
     15.498  0.2541E+00  0.1575E+02
     15.585  0.2898E+00  0.1578E+02
     15.672  0.3547E+00  0.1581E+02
     15.759  0.4340E+00  0.1585E+02
     15.846  0.4975E+00  0.1589E+02
     15.933  0.4954E+00  0.1593E+02
     16.020  0.3965E+00  0.1597E+02
     16.107  0.2401E+00  0.1599E+02
     16.193  0.1058E+00  0.1600E+02
     16.280  0.3326E-01  0.1600E+02
     16.367  0.7366E-02  0.1600E+02
     16.454  0.1142E-02  0.1600E+02
     16.541  0.1234E-03  0.1600E+02
     16.628  0.9268E-05  0.1600E+02
     16.715  0.4828E-06  0.1600E+02
     16.802  0.1741E-07  0.1600E+02
     16.889  0.4343E-09  0.1600E+02
     16.976  0.7482E-11  0.1600E+02
     17.063  0.8890E-13  0.1600E+02
     17.150  0.7664E-15  0.1600E+02
     17.237  0.0000E+00  0.1600E+02
     17.323  0.0000E+00  0.1600E+02
     17.410  0.0000E+00  0.1600E+02
     17.497  0.0000E+00  0.1600E+02
     17.584  0.0000E+00  0.1600E+02
     17.671  0.0000E+00  0.1600E+02
     17.758  0.0000E+00  0.1600E+02
     17.845  0.0000E+00  0.1600E+02
     17.932  0.0000E+00  0.1600E+02
