    2    2    1    1
  0.2001288E+02  0.3839590E-09  0.3839590E-09  0.3839590E-09  0.5000000E-15
  1.000000000000000E-004
  CAR 
 Si                                      
      8     80      8
 
  0.5000000E+00  0.5000000E+00  0.5000000E+00  0.1250000E-01
    1       -3.814670
    2       -1.154975
    3        4.611215
    4        4.611215
    5        7.357744
    6        9.184688
    7        9.184688
    8       13.541405
 
  0.4736842E+00  0.4736842E+00  0.4736842E+00  0.1250000E-01
    1       -3.853816
    2       -1.098739
    3        4.616195
    4        4.616195
    5        7.363481
    6        9.190415
    7        9.190415
    8       13.550257
 
  0.4473684E+00  0.4473684E+00  0.4473684E+00  0.1250000E-01
    1       -3.962695
    2       -0.939268
    3        4.630436
    4        4.630436
    5        7.380326
    6        9.206153
    7        9.206153
    8       13.575591
 
  0.4210526E+00  0.4210526E+00  0.4210526E+00  0.1250000E-01
    1       -4.119635
    2       -0.696926
    3        4.655324
    4        4.655324
    5        7.410308
    6        9.232319
    7        9.232319
    8       13.615478
 
  0.3947368E+00  0.3947368E+00  0.3947368E+00  0.1250000E-01
    1       -4.304708
    2       -0.392697
    3        4.690078
    4        4.690078
    5        7.449956
    6        9.265570
    7        9.265570
    8       13.662450
 
  0.3684211E+00  0.3684211E+00  0.3684211E+00  0.1250000E-01
    1       -4.502552
    2       -0.042274
    3        4.734628
    4        4.734628
    5        7.500604
    6        9.302208
    7        9.302208
    8       13.701708
 
  0.3421053E+00  0.3421053E+00  0.3421053E+00  0.1250000E-01
    1       -4.702687
    2        0.344764
    3        4.788966
    4        4.788966
    5        7.561982
    6        9.337159
    7        9.337159
    8       13.704366
 
  0.3157895E+00  0.3157895E+00  0.3157895E+00  0.1250000E-01
    1       -4.898758
    2        0.758971
    3        4.852557
    4        4.852557
    5        7.633873
    6        9.363687
    7        9.363687
    8       13.608327
 
  0.2894737E+00  0.2894737E+00  0.2894737E+00  0.1250000E-01
    1       -5.086258
    2        1.196044
    3        4.925217
    4        4.925217
    5        7.714799
    6        9.373789
    7        9.373789
    8       13.334534
 
  0.2631579E+00  0.2631579E+00  0.2631579E+00  0.1250000E-01
    1       -5.262313
    2        1.652109
    3        5.006361
    4        5.006361
    5        7.804224
    6        9.359561
    7        9.359561
    8       12.936293
 
  0.2368421E+00  0.2368421E+00  0.2368421E+00  0.1250000E-01
    1       -5.424927
    2        2.123769
    3        5.095174
    4        5.095174
    5        7.900784
    6        9.314570
    7        9.314570
    8       12.502488
 
  0.2105263E+00  0.2105263E+00  0.2105263E+00  0.1250000E-01
    1       -5.572783
    2        2.607683
    3        5.190848
    4        5.190848
    5        8.000449
    6        9.236836
    7        9.236836
    8       12.042234
 
  0.1842105E+00  0.1842105E+00  0.1842105E+00  0.1250000E-01
    1       -5.704776
    2        3.100584
    3        5.291204
    4        5.291204
    5        8.104151
    6        9.128820
    7        9.128820
    8       11.571895
 
  0.1578947E+00  0.1578947E+00  0.1578947E+00  0.1250000E-01
    1       -5.820239
    2        3.596925
    3        5.394772
    4        5.394772
    5        8.207088
    6        8.998281
    7        8.998281
    8       11.099277
 
  0.1315789E+00  0.1315789E+00  0.1315789E+00  0.1250000E-01
    1       -5.918622
    2        4.092108
    3        5.496695
    4        5.496695
    5        8.303968
    6        8.856275
    7        8.856275
    8       10.631105
 
  0.1052632E+00  0.1052632E+00  0.1052632E+00  0.1250000E-01
    1       -5.999599
    2        4.573296
    3        5.593488
    4        5.593488
    5        8.386050
    6        8.715247
    7        8.715247
    8       10.180028
 
  0.7894737E-01  0.7894737E-01  0.7894737E-01  0.1250000E-01
    1       -6.062864
    2        5.025192
    3        5.679663
    4        5.679663
    5        8.441856
    6        8.587826
    7        8.587826
    8        9.768755
 
  0.5263158E-01  0.5263158E-01  0.5263158E-01  0.1250000E-01
    1       -6.108192
    2        5.418398
    3        5.748649
    4        5.748649
    5        8.455189
    6        8.485839
    7        8.485839
    8        9.436850
 
  0.2631579E-01  0.2631579E-01  0.2631579E-01  0.1250000E-01
    1       -6.135433
    2        5.702337
    3        5.793682
    4        5.793682
    5        8.419631
    6        8.419631
    7        8.423123
    8        9.232384
 
  0.0000000E+00  0.0000000E+00  0.0000000E+00  0.1250000E-01
    1       -6.144596
    2        5.808216
    3        5.808233
    4        5.808233
    5        8.396399
    6        8.396415
    7        8.396415
    8        9.168021
 
  0.0000000E+00  0.0000000E+00  0.0000000E+00  0.1250000E-01
    1       -6.144596
    2        5.808216
    3        5.808233
    4        5.808233
    5        8.396399
    6        8.396415
    7        8.396415
    8        9.168021
 
  0.2631579E-01  0.0000000E+00  0.2631579E-01  0.1250000E-01
    1       -6.132403
    2        5.727101
    3        5.757800
    4        5.757810
    5        8.366287
    6        8.463159
    7        8.463170
    8        9.248572
 
  0.5263158E-01  0.0000000E+00  0.5263158E-01  0.1250000E-01
    1       -6.096057
    2        5.501702
    3        5.617505
    4        5.617515
    5        8.279413
    6        8.648242
    7        8.648252
    8        9.464282
 
  0.7894737E-01  0.0000000E+00  0.7894737E-01  0.1250000E-01
    1       -6.035528
    2        5.176910
    3        5.418489
    4        5.418499
    5        8.146319
    6        8.921651
    7        8.921662
    8        9.756649
 
  0.1052632E+00  0.0000000E+00  0.1052632E+00  0.1250000E-01
    1       -5.950951
    2        4.790330
    3        5.188008
    4        5.188019
    5        7.980200
    6        9.255527
    7        9.255538
    8       10.049448
 
  0.1315789E+00  0.0000000E+00  0.1315789E+00  0.1250000E-01
    1       -5.842413
    2        4.367752
    3        4.944906
    4        4.944916
    5        7.794103
    6        9.630948
    7        9.630960
    8       10.234726
 
  0.1578947E+00  0.0000000E+00  0.1578947E+00  0.1250000E-01
    1       -5.710167
    2        3.922823
    3        4.699241
    4        4.699251
    5        7.598514
    6       10.034261
    7       10.034273
    8       10.194286
 
  0.1842105E+00  0.0000000E+00  0.1842105E+00  0.1250000E-01
    1       -5.554293
    2        3.464744
    3        4.461646
    4        4.461655
    5        7.403682
    6        9.936944
    7       10.459734
    8       10.459746
 
  0.2105263E+00  0.0000000E+00  0.2105263E+00  0.1250000E-01
    1       -5.375137
    2        2.999281
    3        4.235271
    4        4.235280
    5        7.215642
    6        9.571249
    7       10.901147
    8       10.901161
 
  0.2368421E+00  0.0000000E+00  0.2368421E+00  0.1250000E-01
    1       -5.172986
    2        2.529223
    3        4.023127
    4        4.023137
    5        7.039717
    6        9.172110
    7       11.355007
    8       11.355020
 
  0.2631579E+00  0.0000000E+00  0.2631579E+00  0.1250000E-01
    1       -4.948094
    2        2.056901
    3        3.827349
    4        3.827359
    5        6.880621
    6        8.775426
    7       11.821788
    8       11.821802
 
  0.2894737E+00  0.0000000E+00  0.2894737E+00  0.1250000E-01
    1       -4.701159
    2        1.584332
    3        3.649507
    4        3.649517
    5        6.740075
    6        8.397244
    7       12.293844
    8       12.293861
 
  0.3157895E+00  0.0000000E+00  0.3157895E+00  0.1250000E-01
    1       -4.432521
    2        1.113220
    3        3.490694
    4        3.490704
    5        6.621300
    6        8.046404
    7       12.773104
    8       12.773119
 
  0.3421053E+00  0.0000000E+00  0.3421053E+00  0.1250000E-01
    1       -4.142343
    2        0.645218
    3        3.351800
    4        3.351809
    5        6.527505
    6        7.727390
    7       13.259157
    8       13.259182
 
  0.3684211E+00  0.0000000E+00  0.3684211E+00  0.1250000E-01
    1       -3.832132
    2        0.181994
    3        3.232564
    4        3.232574
    5        6.458118
    6        7.441867
    7       13.749932
    8       13.749944
 
  0.3947368E+00  0.0000000E+00  0.3947368E+00  0.1250000E-01
    1       -3.502068
    2       -0.274476
    3        3.135275
    4        3.135284
    5        6.416637
    6        7.192372
    7       14.253434
    8       14.253467
 
  0.4210526E+00  0.0000000E+00  0.4210526E+00  0.1250000E-01
    1       -3.153199
    2       -0.723700
    3        3.058982
    4        3.058991
    5        6.402442
    6        6.976740
    7       14.748384
    8       14.748396
 
  0.4473684E+00  0.0000000E+00  0.4473684E+00  0.1250000E-01
    1       -2.786313
    2       -1.162177
    3        3.004793
    4        3.004802
    5        6.419016
    6        6.798465
    7       15.244550
    8       15.244612
 
  0.4736842E+00  0.0000000E+00  0.4736842E+00  0.1250000E-01
    1       -2.402561
    2       -1.589132
    3        2.972019
    4        2.972028
    5        6.465272
    6        6.654291
    7       15.692806
    8       15.693410
 
  0.5000000E+00  0.0000000E+00  0.5000000E+00  0.1250000E-01
    1       -2.003066
    2       -2.003064
    3        2.961085
    4        2.961094
    5        6.543351
    6        6.543369
    7       15.931321
    8       15.931926
 
  0.5000000E+00  0.0000000E+00  0.5000000E+00  0.1250000E-01
    1       -2.003066
    2       -2.003064
    3        2.961085
    4        2.961094
    5        6.543351
    6        6.543369
    7       15.931355
    8       15.931869
 
  0.4934211E+00  0.1973684E-01  0.5131579E+00  0.1250000E-01
    1       -2.101841
    2       -1.898830
    3        2.940666
    4        2.941665
    5        6.558892
    6        6.605491
    7       15.832879
    8       15.870786
 
  0.4868421E+00  0.3947368E-01  0.5263158E+00  0.1250000E-01
    1       -2.193953
    2       -1.790731
    3        2.880613
    4        2.888095
    5        6.650446
    6        6.740648
    7       15.489530
    8       15.729737
 
  0.4802632E+00  0.5921053E-01  0.5394737E+00  0.1250000E-01
    1       -2.278447
    2       -1.680781
    3        2.786532
    4        2.811126
    5        6.811632
    6        6.940253
    7       14.979321
    8       15.524297
 
  0.4736842E+00  0.7894737E-01  0.5526316E+00  0.1250000E-01
    1       -2.354643
    2       -1.571416
    3        2.667472
    4        2.722412
    5        7.032440
    6        7.194322
    7       14.389848
    8       15.255300
 
  0.4671053E+00  0.9868421E-01  0.5657895E+00  0.1250000E-01
    1       -2.422126
    2       -1.465748
    3        2.532750
    4        2.633517
    5        7.302296
    6        7.492965
    7       13.775640
    8       14.930087
 
  0.4605263E+00  0.1184211E+00  0.5789474E+00  0.1250000E-01
    1       -2.480365
    2       -1.366640
    3        2.390847
    4        2.555226
    5        7.614035
    6        7.829810
    7       13.154710
    8       14.566795
 
  0.4539474E+00  0.1381579E+00  0.5921053E+00  0.1250000E-01
    1       -2.529263
    2       -1.278467
    3        2.248109
    4        2.495879
    5        7.959317
    6        8.198351
    7       12.533823
    8       14.183355
 
  0.4473684E+00  0.1578947E+00  0.6052632E+00  0.1250000E-01
    1       -2.568666
    2       -1.204607
    3        2.109392
    4        2.462590
    5        8.332805
    6        8.592140
    7       11.922718
    8       13.796654
 
  0.4407895E+00  0.1776316E+00  0.6184211E+00  0.1250000E-01
    1       -2.598724
    2       -1.148034
    3        1.978613
    4        2.460730
    5        8.729557
    6        9.004655
    7       11.328684
    8       13.409887
 
  0.4342105E+00  0.1973684E+00  0.6315789E+00  0.1250000E-01
    1       -2.619457
    2       -1.111012
    3        1.858692
    4        2.492585
    5        9.145291
    6        9.419186
    7       10.768951
    8       13.029230
 
  0.4276316E+00  0.2171053E+00  0.6447368E+00  0.1250000E-01
    1       -2.631077
    2       -1.094045
    3        1.751814
    4        2.558473
    5        9.574443
    6        9.723894
    7       10.354804
    8       12.659419
 
  0.4210526E+00  0.2368421E+00  0.6578947E+00  0.1250000E-01
    1       -2.633649
    2       -1.095909
    3        1.659778
    4        2.656297
    5        9.471845
    6       10.014443
    7       10.539565
    8       12.303745
 
  0.4144737E+00  0.2565789E+00  0.6710526E+00  0.1250000E-01
    1       -2.627450
    2       -1.114325
    3        1.583978
    4        2.780143
    5        8.995022
    6       10.450717
    7       10.991714
    8       11.972667
 
  0.4078947E+00  0.2763158E+00  0.6842105E+00  0.1250000E-01
    1       -2.612631
    2       -1.146326
    3        1.525548
    4        2.922124
    5        8.519787
    6       10.838214
    7       11.491964
    8       11.715118
 
  0.4013158E+00  0.2960526E+00  0.6973684E+00  0.1250000E-01
    1       -2.589480
    2       -1.188719
    3        1.485223
    4        3.071122
    5        8.079073
    6       10.969116
    7       11.734361
    8       12.012066
 
  0.3947368E+00  0.3157895E+00  0.7105263E+00  0.1250000E-01
    1       -2.558200
    2       -1.238689
    3        1.463562
    4        3.212543
    5        7.691014
    6       10.777234
    7       12.093115
    8       12.546780
 
  0.3881579E+00  0.3355263E+00  0.7236842E+00  0.1250000E-01
    1       -2.518946
    2       -1.293868
    3        1.461033
    4        3.326834
    5        7.372730
    6       10.508318
    7       12.540045
    8       13.091080
 
  0.3815789E+00  0.3552632E+00  0.7368421E+00  0.1250000E-01
    1       -2.471850
    2       -1.352437
    3        1.477945
    4        3.391758
    5        7.148303
    6       10.231092
    7       12.985131
    8       13.633279
 
  0.3750000E+00  0.3750000E+00  0.7500000E+00  0.1250000E-01
    1       -2.416553
    2       -1.413206
    3        1.514589
    4        3.387308
    5        7.037002
    6        9.962614
    7       13.306029
    8       13.855831
 
  0.3750000E+00  0.3750000E+00  0.7500000E+00  0.1250000E-01
    1       -2.416553
    2       -1.413206
    3        1.514589
    4        3.387308
    5        7.037002
    6        9.962614
    7       13.306015
    8       13.853549
 
  0.3552632E+00  0.3552632E+00  0.7105263E+00  0.1250000E-01
    1       -2.615503
    2       -1.213188
    3        1.417178
    4        3.526502
    5        7.198807
    6       10.765952
    7       12.825362
    8       13.366859
 
  0.3355263E+00  0.3355263E+00  0.6710526E+00  0.1250000E-01
    1       -2.854276
    2       -0.984455
    3        1.400566
    4        3.681877
    5        7.379231
    6       11.557568
    7       12.363615
    8       12.944003
 
  0.3157895E+00  0.3157895E+00  0.6315789E+00  0.1250000E-01
    1       -3.123498
    2       -0.727175
    3        1.457927
    4        3.851385
    5        7.575801
    6       11.922923
    7       12.040842
    8       12.880474
 
  0.2960526E+00  0.2960526E+00  0.5921053E+00  0.1250000E-01
    1       -3.412026
    2       -0.441732
    3        1.579598
    4        4.032399
    5        7.784375
    6       11.502500
    7       11.815937
    8       12.606896
 
  0.2763158E+00  0.2763158E+00  0.5526316E+00  0.1250000E-01
    1       -3.708569
    2       -0.128141
    3        1.756600
    4        4.222352
    5        8.000294
    6       11.110541
    7       11.451677
    8       12.309050
 
  0.2565789E+00  0.2565789E+00  0.5131579E+00  0.1250000E-01
    1       -4.004730
    2        0.213070
    3        1.979727
    4        4.417179
    5        8.214786
    6       10.741810
    7       11.083720
    8       12.047074
 
  0.2368421E+00  0.2368421E+00  0.4736842E+00  0.1250000E-01
    1       -4.293829
    2        0.580761
    3        2.241595
    4        4.612622
    5        8.418500
    6       10.397983
    7       10.732984
    8       11.829341
 
  0.2171053E+00  0.2171053E+00  0.4342105E+00  0.1250000E-01
    1       -4.570241
    2        0.974719
    3        2.536336
    4        4.804218
    5        8.596992
    6       10.079641
    7       10.402179
    8       11.663000
 
  0.1973684E+00  0.1973684E+00  0.3947368E+00  0.1250000E-01
    1       -4.830242
    2        1.394293
    3        2.859276
    4        4.988136
    5        8.740718
    6        9.790282
    7       10.096980
    8       11.556226
 
  0.1776316E+00  0.1776316E+00  0.3552632E+00  0.1250000E-01
    1       -5.071055
    2        1.838077
    3        3.203674
    4        5.157646
    5        8.837462
    6        9.526604
    7        9.817141
    8       11.504091
 
  0.1578947E+00  0.1578947E+00  0.3157895E+00  0.1250000E-01
    1       -5.290502
    2        2.304940
    3        3.564882
    4        5.310050
    5        8.884030
    6        9.291298
    7        9.562159
    8       11.485296
 
  0.1381579E+00  0.1381579E+00  0.2763158E+00  0.1250000E-01
    1       -5.487062
    2        2.792044
    3        3.936159
    4        5.441330
    5        8.885567
    6        9.082202
    7        9.325482
    8       11.446723
 
  0.1184211E+00  0.1184211E+00  0.2368421E+00  0.1250000E-01
    1       -5.659184
    2        3.298458
    3        4.310779
    4        5.550939
    5        8.855957
    6        8.901092
    7        9.115210
    8       11.304269
 
  0.9868421E-01  0.9868421E-01  0.1973684E+00  0.1250000E-01
    1       -5.806303
    2        3.816275
    3        4.676911
    4        5.636356
    5        8.746817
    6        8.806308
    7        8.925705
    8       10.985894
 
  0.7894737E-01  0.7894737E-01  0.1578947E+00  0.1250000E-01
    1       -5.927441
    2        4.337824
    3        5.023449
    4        5.703458
    5        8.620777
    6        8.744514
    7        8.758860
    8       10.523291
 
  0.5921053E-01  0.5921053E-01  0.1184211E+00  0.1250000E-01
    1       -6.022139
    2        4.847496
    3        5.333681
    4        5.751625
    5        8.522663
    6        8.615378
    7        8.672081
    8       10.014195
 
  0.3947368E-01  0.3947368E-01  0.7894737E-01  0.1250000E-01
    1       -6.090078
    2        5.312605
    3        5.584134
    4        5.783861
    5        8.452539
    6        8.500574
    7        8.578935
    8        9.561108
 
  0.1973684E-01  0.1973684E-01  0.3947368E-01  0.1250000E-01
    1       -6.130933
    2        5.668481
    3        5.750166
    4        5.802264
    5        8.410448
    6        8.423949
    7        8.462214
    8        9.263970
 
  0.0000000E+00  0.0000000E+00  0.0000000E+00  0.1250000E-01
    1       -6.144596
    2        5.808216
    3        5.808233
    4        5.808233
    5        8.396399
    6        8.396415
    7        8.396415
    8        9.168022
