       N       E                     dE             d eps       ncg     rms          rms(c)
DAV:   1     0.461147618351E+01    0.46115E+01   -0.22011E+03  1296   0.419E+02
DAV:   2    -0.696229978243E+01   -0.11574E+02   -0.10776E+02  2024   0.579E+01
DAV:   3    -0.710566124899E+01   -0.14336E+00   -0.14332E+00  1648   0.838E+00
DAV:   4    -0.710613717117E+01   -0.47592E-03   -0.47592E-03  2048   0.454E-01
DAV:   5    -0.710613784868E+01   -0.67751E-06   -0.67754E-06  1680   0.114E-02
DAV:   6    -0.710613785936E+01   -0.10679E-07   -0.10316E-07  1624   0.104E-03
   1 F= -.71061379E+01 E0= -.71049534E+01  d E =-.236897E-02
 imaginary and real dielectric function
