 vasp.5.3.5 31Mar14 (build Dec 14 2018 19:18:10) complex                        
  
 executed on             LinuxIFC date 2022.11.15  23:15:53
 serial version


--------------------------------------------------------------------------------------------------------


 INCAR:
 POTCAR:    PAW Si                                
 POTCAR:    PAW Si                                
   VRHFIN =Si: s2p2                                                             
   LEXCH  = 91                                                                  
   EATOM  =   103.3076 eV,    7.5929 Ry                                         
                                                                                
   TITEL  = PAW Si                                                              
   LULTRA =        F    use ultrasoft PP ?                                      
   IUNSCR =        1    unscreen: 0-lin 1-nonlin 2-no                           
   RPACOR =    1.500    partial core radius                                     
   POMASS =   28.085; ZVAL   =    4.000    mass and valenz                      
   RCORE  =    1.900    outmost cutoff radius                                   
   RWIGS  =    2.480; RWIGS  =    1.312    wigner-seitz radius (au A)           
   ENMAX  =  245.435; ENMIN  =  184.076 eV                                      
   ICORE  =        2    local potential                                         
   LCOR   =        T    correct aug charges                                     
   LPAW   =        T    paw PP                                                  
   EAUG   =  322.069                                                            
   DEXC   =    -.001                                                            
   RMAX   =    2.943    core radius for proj-oper                               
   RAUG   =    1.300    factor for augmentation sphere                          
   RDEP   =    1.993    core radius for depl-charge                             
   QCUT   =   -4.247; QGAM   =    8.494    optimization parameters              
                                                                                
   Description                                                                  
     l     E      TYP  RCUT    TYP  RCUT                                        
     0   .000     23  1.900                                                     
     0   .000     23  1.900                                                     
     1   .000     23  1.900                                                     
     1   .000     23  1.900                                                     
     2   .000      7  1.900                                                     
  local pseudopotential read in
  partial core-charges read in
  atomic valenz-charges read in
  non local Contribution for L=           0  read in
    real space projection operators read in
  non local Contribution for L=           0  read in
    real space projection operators read in
  non local Contribution for L=           1  read in
    real space projection operators read in
  non local Contribution for L=           1  read in
    real space projection operators read in
    PAW grid and wavefunctions read in
 
   number of l-projection  operators is LMAX  =           4
   number of lm-projection operators is LMMAX =           8
 
  PAW Si                                :
 energy of atom  1       EATOM= -103.3076
 kinetic energy error for atom=    0.0057 (will be added to EATOM!!)
 
 
 POSCAR: Si diamond structure                    
  positions in direct lattice
  velocities in cartesian coordinates
  No initial velocities read in
 exchange correlation table for  LEXCH =        7
   RHO(1)=    0.500       N(1)  =     2000
   RHO(2)=  100.500       N(2)  =     4000
 


--------------------------------------------------------------------------------------------------------


 ion  position               nearest neighbor table
   1  0.000  0.000  0.000-   2 2.35   2 2.35   2 2.35   2 2.35
   2  0.250  0.250  0.250-   1 2.35   1 2.35   1 2.35   1 2.35
 
  LATTYP: Found a face centered cubic cell.
 ALAT       =     5.4300000000
  
  Lattice vectors:
  
 A1 = (   2.7150000000,   2.7150000000,   0.0000000000)
 A2 = (   0.0000000000,   2.7150000000,   2.7150000000)
 A3 = (   2.7150000000,   0.0000000000,   2.7150000000)


Analysis of symmetry for initial positions (statically):
=====================================================================
 Subroutine PRICEL returns:
 Original cell was already a primitive cell.
 

 Routine SETGRP: Setting up the symmetry group for a 
 face centered cubic supercell.


 Subroutine GETGRP returns: Found 48 space group operations
 (whereof 24 operations were pure point group operations)
 out of a pool of 48 trial point group operations.


The static configuration has the point symmetry T_d .
 The point group associated with its full space group is O_h .


Analysis of symmetry for dynamics (positions and initial velocities):
=====================================================================
 Subroutine PRICEL returns:
 Original cell was already a primitive cell.
 

 Routine SETGRP: Setting up the symmetry group for a 
 face centered cubic supercell.


 Subroutine GETGRP returns: Found 48 space group operations
 (whereof 24 operations were pure point group operations)
 out of a pool of 48 trial point group operations.


The dynamic configuration has the point symmetry T_d .
 The point group associated with its full space group is O_h .
 
 
 KPOINTS: K-Path for diamond Si.                  
  interpolating k-points between supplied coordinates
  k-points in reciprocal lattice
Space group operators:
 irot       det(A)        alpha          n_x          n_y          n_z        tau_x        tau_y        tau_z
    1     1.000000     0.000001     1.000000     0.000000     0.000000     0.000000     0.000000     0.000000
    2     1.000000   120.000000    -0.577350    -0.577350    -0.577350     0.000000     0.000000     0.000000
    3     1.000000   120.000000     0.577350     0.577350     0.577350     0.000000     0.000000     0.000000
    4    -1.000000    90.000000     0.000000    -1.000000     0.000000     0.000000     0.000000     0.000000
    5    -1.000000   180.000000     0.707107     0.707107     0.000000     0.000000     0.000000     0.000000
    6    -1.000000    90.000000     1.000000     0.000000     0.000000     0.000000     0.000000     0.000000
    7     1.000000   180.000000     0.000000     1.000000     0.000000     0.000000     0.000000     0.000000
    8     1.000000   120.000000     0.577350     0.577350    -0.577350     0.000000     0.000000     0.000000
    9     1.000000   120.000000     0.577350    -0.577350    -0.577350     0.000000     0.000000     0.000000
   10    -1.000000    90.000000     0.000000     1.000000     0.000000     0.000000     0.000000     0.000000
   11    -1.000000    90.000000     0.000000     0.000000    -1.000000     0.000000     0.000000     0.000000
   12    -1.000000   180.000000     0.000000     0.707107     0.707107     0.000000     0.000000     0.000000
   13     1.000000   120.000000    -0.577350     0.577350     0.577350     0.000000     0.000000     0.000000
   14     1.000000   120.000000    -0.577350     0.577350    -0.577350     0.000000     0.000000     0.000000
   15     1.000000   180.000000     0.000000     0.000000     1.000000     0.000000     0.000000     0.000000
   16    -1.000000    90.000000    -1.000000     0.000000     0.000000     0.000000     0.000000     0.000000
   17    -1.000000   180.000000     0.707107     0.000000     0.707107     0.000000     0.000000     0.000000
   18    -1.000000    90.000000     0.000000     0.000000     1.000000     0.000000     0.000000     0.000000
   19     1.000000   120.000000    -0.577350    -0.577350     0.577350     0.000000     0.000000     0.000000
   20     1.000000   180.000000     1.000000     0.000000     0.000000     0.000000     0.000000     0.000000
   21     1.000000   120.000000     0.577350    -0.577350     0.577350     0.000000     0.000000     0.000000
   22    -1.000000   180.000000     0.707107    -0.707107     0.000000     0.000000     0.000000     0.000000
   23    -1.000000   180.000000     0.707107     0.000000    -0.707107     0.000000     0.000000     0.000000
   24    -1.000000   180.000000     0.000000    -0.707107     0.707107     0.000000     0.000000     0.000000
   25    -1.000000     0.000001     1.000000     0.000000     0.000000     0.250000     0.250000     0.250000
   26    -1.000000   120.000000    -0.577350    -0.577350    -0.577350     0.250000     0.250000     0.250000
   27    -1.000000   120.000000     0.577350     0.577350     0.577350     0.250000     0.250000     0.250000
   28     1.000000    90.000000     0.000000    -1.000000     0.000000     0.250000     0.250000     0.250000
   29     1.000000   180.000000     0.707107     0.707107     0.000000     0.250000     0.250000     0.250000
   30     1.000000    90.000000     1.000000     0.000000     0.000000     0.250000     0.250000     0.250000
   31    -1.000000   180.000000     0.000000     1.000000     0.000000     0.250000     0.250000     0.250000
   32    -1.000000   120.000000     0.577350     0.577350    -0.577350     0.250000     0.250000     0.250000
   33    -1.000000   120.000000     0.577350    -0.577350    -0.577350     0.250000     0.250000     0.250000
   34     1.000000    90.000000     0.000000     1.000000     0.000000     0.250000     0.250000     0.250000
   35     1.000000    90.000000     0.000000     0.000000    -1.000000     0.250000     0.250000     0.250000
   36     1.000000   180.000000     0.000000     0.707107     0.707107     0.250000     0.250000     0.250000
   37    -1.000000   120.000000    -0.577350     0.577350     0.577350     0.250000     0.250000     0.250000
   38    -1.000000   120.000000    -0.577350     0.577350    -0.577350     0.250000     0.250000     0.250000
   39    -1.000000   180.000000     0.000000     0.000000     1.000000     0.250000     0.250000     0.250000
   40     1.000000    90.000000    -1.000000     0.000000     0.000000     0.250000     0.250000     0.250000
   41     1.000000   180.000000     0.707107     0.000000     0.707107     0.250000     0.250000     0.250000
   42     1.000000    90.000000     0.000000     0.000000     1.000000     0.250000     0.250000     0.250000
   43    -1.000000   120.000000    -0.577350    -0.577350     0.577350     0.250000     0.250000     0.250000
   44    -1.000000   180.000000     1.000000     0.000000     0.000000     0.250000     0.250000     0.250000
   45    -1.000000   120.000000     0.577350    -0.577350     0.577350     0.250000     0.250000     0.250000
   46     1.000000   180.000000     0.707107    -0.707107     0.000000     0.250000     0.250000     0.250000
   47     1.000000   180.000000     0.707107     0.000000    -0.707107     0.250000     0.250000     0.250000
   48     1.000000   180.000000     0.000000    -0.707107     0.707107     0.250000     0.250000     0.250000


--------------------------------------------------------------------------------------------------------




 Dimension of arrays:
   k-points           NKPTS =     80   k-points in BZ     NKDIM =     80   number of bands    NBANDS=      8
   number of dos      NEDOS =    301   number of ions     NIONS =      2
   non local maximal  LDIM  =      4   non local SUM 2l+1 LMDIM =      8
   total plane-waves  NPLWV =   4096
   max r-space proj   IRMAX =      1   max aug-charges    IRDMAX=   3621
   dimension x,y,z NGX =    16 NGY =   16 NGZ =   16
   dimension x,y,z NGXF=    32 NGYF=   32 NGZF=   32
   support grid    NGXF=    32 NGYF=   32 NGZF=   32
   ions per type =               2
 NGX,Y,Z   is equivalent  to a cutoff of   6.93,  6.93,  6.93 a.u.
 NGXF,Y,Z  is equivalent  to a cutoff of  13.86, 13.86, 13.86 a.u.


 I would recommend the setting:
   dimension x,y,z NGX =    15 NGY =   15 NGZ =   15
 SYSTEM =  Si                                      
 POSCAR =  Si diamond structure                    

 Startparameter for this run:
   NWRITE =      2    write-flag & timer
   PREC   = normal    normal or accurate (medium, high low for compatibility)
   ISTART =      0    job   : 0-new  1-cont  2-samecut
   ICHARG =     11    charge: 1-file 2-atom 10-const
   ISPIN  =      1    spin polarized calculation?
   LNONCOLLINEAR =      F non collinear calculations
   LSORBIT =      F    spin-orbit coupling
   INIWAV =      1    electr: 0-lowe 1-rand  2-diag
   LASPH  =      F    aspherical Exc in radial PAW
   METAGGA=      F    non-selfconsistent MetaGGA calc.

 Electronic Relaxation 1
   ENCUT  =  245.4 eV  18.04 Ry    4.25 a.u.   4.90  4.90  4.90*2*pi/ulx,y,z
   ENINI  =  245.4     initial cutoff
   ENAUG  =  322.1 eV  augmentation charge cutoff
   NELM   =     60;   NELMIN=  2; NELMDL=  0     # of ELM steps 
   EDIFF  = 0.1E-03   stopping-criterion for ELM
   LREAL  =      F    real-space projection
   NLSPLINE    = F    spline interpolate recip. space projectors
   LCOMPAT=      F    compatible to vasp.4.4
   GGA_COMPAT  = T    GGA compatible to vasp.4.4-vasp.4.6
   LMAXPAW     = -100 max onsite density
   LMAXMIX     =    2 max onsite mixed and CHGCAR
   VOSKOWN=      0    Vosko Wilk Nusair interpolation
   ROPT   =    0.00000
 Ionic relaxation
   EDIFFG = 0.1E-02   stopping-criterion for IOM
   NSW    =      0    number of steps for IOM
   NBLOCK =      1;   KBLOCK =      1    inner block; outer block 
   IBRION =     -1    ionic relax: 0-MD 1-quasi-New 2-CG
   NFREE  =      0    steps in history (QN), initial steepest desc. (CG)
   ISIF   =      2    stress and relaxation
   IWAVPR =      0    prediction:  0-non 1-charg 2-wave 3-comb
   ISYM   =      2    0-nonsym 1-usesym 2-fastsym
   LCORR  =      T    Harris-Foulkes like correction to forces

   POTIM  = 0.5000    time-step for ionic-motion
   TEIN   =    0.0    initial temperature
   TEBEG  =    0.0;   TEEND  =   0.0 temperature during run
   SMASS  =  -3.00    Nose mass-parameter (am)
   estimated Nose-frequenzy (Omega)   =  0.10E-29 period in steps =****** mass=  -0.337E-27a.u.
   SCALEE = 1.0000    scale energy and forces
   NPACO  =    256;   APACO  = 16.0  distance and # of slots for P.C.
   PSTRESS=    0.0 pullay stress

  Mass of Ions in am
   POMASS =  28.09
  Ionic Valenz
   ZVAL   =   4.00
  Atomic Wigner-Seitz radii
   RWIGS  =  -1.00
  virtual crystal weights 
   VCA    =   1.00
   NELECT =       8.0000    total number of electrons
   NUPDOWN=      -1.0000    fix difference up-down

 DOS related values:
   EMIN   =  10.00;   EMAX   =-10.00  energy-range for DOS
   EFERMI =   0.00
   ISMEAR =     0;   SIGMA  =   0.20  broadening in eV -4-tet -1-fermi 0-gaus

 Electronic relaxation 2 (details)
   IALGO  =     38    algorithm
   LDIAG  =      T    sub-space diagonalisation (order eigenvalues)
   LSUBROT=      F    optimize rotation matrix (better conditioning)
   TURBO    =      0    0=normal 1=particle mesh
   IRESTART =      0    0=no restart 2=restart with 2 vectors
   NREBOOT  =      0    no. of reboots
   NMIN     =      0    reboot dimension
   EREF     =   0.00    reference energy to select bands
   IMIX   =      4    mixing-type and parameters
     AMIX     =   0.40;   BMIX     =  1.00
     AMIX_MAG =   1.60;   BMIX_MAG =  1.00
     AMIN     =   0.10
     WC   =   100.;   INIMIX=   1;  MIXPRE=   1;  MAXMIX= -45

 Intra band minimization:
   WEIMIN = 0.0000     energy-eigenvalue tresh-hold
   EBREAK =  0.31E-05  absolut break condition
   DEPER  =   0.30     relativ break condition  

   TIME   =   0.40     timestep for ELM

  volume/ion in A,a.u.               =      20.01       135.05
  Fermi-wavevector in a.u.,A,eV,Ry     =   0.957176  1.808800 12.465458  0.916185
  Thomas-Fermi vector in A             =   2.086170
 
 Write flags
   LWAVE  =      T    write WAVECAR
   LCHARG =      F    write CHGCAR
   LVTOT  =      F    write LOCPOT, total local potential
   LVHAR  =      F    write LOCPOT, Hartree potential only
   LELF   =      F    write electronic localiz. function (ELF)
   LORBIT =      0    0 simple, 1 ext, 2 COOP (PROOUT)


 Dipole corrections
   LMONO  =      F    monopole corrections only (constant potential shift)
   LDIPOL =      F    correct potential (dipole corrections)
   IDIPOL =      0    1-x, 2-y, 3-z, 4-all directions 
   EPSILON=  1.0000000 bulk dielectric constant

 Exchange correlation treatment:
   GGA     =    --    GGA type
   LEXCH   =     7    internal setting for exchange type
   VOSKOWN=      0    Vosko Wilk Nusair interpolation
   LHFCALC =     F    Hartree Fock is set to
   LHFONE  =     F    Hartree Fock one center treatment
   AEXX    =    0.0000 exact exchange contribution

 Linear response parameters
   LEPSILON=     F    determine dielectric tensor
   LRPA    =     F    only Hartree local field effects (RPA)
   LNABLA  =     F    use nabla operator in PAW spheres
   LVEL    =     F    velocity operator in full k-point grid
   LINTERFAST=   F  fast interpolation
   KINTER  =     0    interpolate to denser k-point grid
   CSHIFT  =0.1000    complex shift for real part using Kramers Kronig
   OMEGAMAX=  -1.0    maximum frequency
   DEG_THRESHOLD= 0.2000000E-02 threshold for treating states as degnerate
   RTIME   =    0.100 relaxation time in fs

 Orbital magnetization related:
   ORBITALMAG=     F  switch on orbital magnetization
   LCHIMAG   =     F  perturbation theory with respect to B field
   DQ        =  0.001000  dq finite difference perturbation B field



--------------------------------------------------------------------------------------------------------


 Static calculation
 charge density and potential remain constant during run
 non-spin polarized calculation
 Variant of blocked Davidson
 Davidson routine will perform the subspace rotation
 perform sub-space diagonalisation
    after iterative eigenvector-optimisation
 no mixing
 using additional bands            4
 reciprocal scheme for non local part
 use partial core corrections
 calculate Harris-corrections to forces 
   (improved forces if not selfconsistent)
 use gradient corrections 
 WARNING: stress and forces are not correct
  (second derivative of E(xc) not defined)
 use of overlap-Matrix (Vanderbilt PP)
 Gauss-broadening in eV      SIGMA  =   0.20


--------------------------------------------------------------------------------------------------------


  energy-cutoff  :      245.44
  volume of cell :       40.03
      direct lattice vectors                 reciprocal lattice vectors
     2.715000000  2.715000000  0.000000000     0.184162063  0.184162063 -0.184162063
     0.000000000  2.715000000  2.715000000    -0.184162063  0.184162063  0.184162063
     2.715000000  0.000000000  2.715000000     0.184162063 -0.184162063  0.184162063

  length of vectors
     3.839589822  3.839589822  3.839589822     0.318978049  0.318978049  0.318978049


 
 k-points in units of 2pi/SCALE and weight: K-Path for diamond Si.                  
   0.50000000  0.50000000  0.50000000       0.013
   0.47368421  0.47368421  0.47368421       0.013
   0.44736842  0.44736842  0.44736842       0.013
   0.42105263  0.42105263  0.42105263       0.013
   0.39473684  0.39473684  0.39473684       0.013
   0.36842105  0.36842105  0.36842105       0.013
   0.34210526  0.34210526  0.34210526       0.013
   0.31578947  0.31578947  0.31578947       0.013
   0.28947368  0.28947368  0.28947368       0.013
   0.26315789  0.26315789  0.26315789       0.013
   0.23684211  0.23684211  0.23684211       0.013
   0.21052632  0.21052632  0.21052632       0.013
   0.18421053  0.18421053  0.18421053       0.013
   0.15789474  0.15789474  0.15789474       0.013
   0.13157895  0.13157895  0.13157895       0.013
   0.10526316  0.10526316  0.10526316       0.013
   0.07894737  0.07894737  0.07894737       0.013
   0.05263158  0.05263158  0.05263158       0.013
   0.02631579  0.02631579  0.02631579       0.013
   0.00000000  0.00000000  0.00000000       0.013
   0.00000000  0.00000000  0.00000000       0.013
   0.05263158  0.00000000  0.00000000       0.013
   0.10526316  0.00000000  0.00000000       0.013
   0.15789474  0.00000000  0.00000000       0.013
   0.21052632  0.00000000  0.00000000       0.013
   0.26315789  0.00000000  0.00000000       0.013
   0.31578947  0.00000000  0.00000000       0.013
   0.36842105  0.00000000  0.00000000       0.013
   0.42105263  0.00000000  0.00000000       0.013
   0.47368421  0.00000000  0.00000000       0.013
   0.52631579  0.00000000  0.00000000       0.013
   0.57894737  0.00000000  0.00000000       0.013
   0.63157895  0.00000000  0.00000000       0.013
   0.68421053  0.00000000  0.00000000       0.013
   0.73684211  0.00000000  0.00000000       0.013
   0.78947368  0.00000000  0.00000000       0.013
   0.84210526  0.00000000  0.00000000       0.013
   0.89473684  0.00000000  0.00000000       0.013
   0.94736842  0.00000000  0.00000000       0.013
   1.00000000  0.00000000  0.00000000       0.013
   1.00000000  0.00000000  0.00000000       0.013
   0.98684211 -0.00000000  0.03947368       0.013
   0.97368421  0.00000000  0.07894737       0.013
   0.96052632  0.00000000  0.11842105       0.013
   0.94736842  0.00000000  0.15789474       0.013
   0.93421053  0.00000000  0.19736842       0.013
   0.92105263 -0.00000000  0.23684211       0.013
   0.90789474  0.00000000  0.27631579       0.013
   0.89473684  0.00000000  0.31578947       0.013
   0.88157895 -0.00000000  0.35526316       0.013
   0.86842105  0.00000000  0.39473684       0.013
   0.85526316  0.00000000  0.43421053       0.013
   0.84210526 -0.00000000  0.47368421       0.013
   0.82894737  0.00000000  0.51315789       0.013
   0.81578947  0.00000000  0.55263158       0.013
   0.80263158 -0.00000000  0.59210526       0.013
   0.78947368 -0.00000000  0.63157895       0.013
   0.77631579  0.00000000  0.67105263       0.013
   0.76315789  0.00000000  0.71052632       0.013
   0.75000000  0.00000000  0.75000000       0.013
   0.75000000  0.00000000  0.75000000       0.013
   0.71052632  0.00000000  0.71052632       0.013
   0.67105263  0.00000000  0.67105263       0.013
   0.63157895  0.00000000  0.63157895       0.013
   0.59210526  0.00000000  0.59210526       0.013
   0.55263158  0.00000000  0.55263158       0.013
   0.51315789  0.00000000  0.51315789       0.013
   0.47368421  0.00000000  0.47368421       0.013
   0.43421053  0.00000000  0.43421053       0.013
   0.39473684  0.00000000  0.39473684       0.013
   0.35526316  0.00000000  0.35526316       0.013
   0.31578947  0.00000000  0.31578947       0.013
   0.27631579  0.00000000  0.27631579       0.013
   0.23684211  0.00000000  0.23684211       0.013
   0.19736842  0.00000000  0.19736842       0.013
   0.15789474  0.00000000  0.15789474       0.013
   0.11842105  0.00000000  0.11842105       0.013
   0.07894737  0.00000000  0.07894737       0.013
   0.03947368  0.00000000  0.03947368       0.013
   0.00000000  0.00000000  0.00000000       0.013
 
 k-points in reciprocal lattice and weights: K-Path for diamond Si.                  
   0.50000000  0.50000000  0.50000000       0.013
   0.47368421  0.47368421  0.47368421       0.013
   0.44736842  0.44736842  0.44736842       0.013
   0.42105263  0.42105263  0.42105263       0.013
   0.39473684  0.39473684  0.39473684       0.013
   0.36842105  0.36842105  0.36842105       0.013
   0.34210526  0.34210526  0.34210526       0.013
   0.31578947  0.31578947  0.31578947       0.013
   0.28947368  0.28947368  0.28947368       0.013
   0.26315789  0.26315789  0.26315789       0.013
   0.23684211  0.23684211  0.23684211       0.013
   0.21052632  0.21052632  0.21052632       0.013
   0.18421053  0.18421053  0.18421053       0.013
   0.15789474  0.15789474  0.15789474       0.013
   0.13157895  0.13157895  0.13157895       0.013
   0.10526316  0.10526316  0.10526316       0.013
   0.07894737  0.07894737  0.07894737       0.013
   0.05263158  0.05263158  0.05263158       0.013
   0.02631579  0.02631579  0.02631579       0.013
   0.00000000  0.00000000  0.00000000       0.013
   0.00000000  0.00000000  0.00000000       0.013
   0.02631579  0.00000000  0.02631579       0.013
   0.05263158  0.00000000  0.05263158       0.013
   0.07894737  0.00000000  0.07894737       0.013
   0.10526316  0.00000000  0.10526316       0.013
   0.13157895  0.00000000  0.13157895       0.013
   0.15789474  0.00000000  0.15789474       0.013
   0.18421053  0.00000000  0.18421053       0.013
   0.21052632  0.00000000  0.21052632       0.013
   0.23684211  0.00000000  0.23684211       0.013
   0.26315789  0.00000000  0.26315789       0.013
   0.28947368  0.00000000  0.28947368       0.013
   0.31578947  0.00000000  0.31578947       0.013
   0.34210526  0.00000000  0.34210526       0.013
   0.36842105  0.00000000  0.36842105       0.013
   0.39473684  0.00000000  0.39473684       0.013
   0.42105263  0.00000000  0.42105263       0.013
   0.44736842  0.00000000  0.44736842       0.013
   0.47368421  0.00000000  0.47368421       0.013
   0.50000000  0.00000000  0.50000000       0.013
   0.50000000  0.00000000  0.50000000       0.013
   0.49342105  0.01973684  0.51315789       0.013
   0.48684211  0.03947368  0.52631579       0.013
   0.48026316  0.05921053  0.53947368       0.013
   0.47368421  0.07894737  0.55263158       0.013
   0.46710526  0.09868421  0.56578947       0.013
   0.46052632  0.11842105  0.57894737       0.013
   0.45394737  0.13815789  0.59210526       0.013
   0.44736842  0.15789474  0.60526316       0.013
   0.44078947  0.17763158  0.61842105       0.013
   0.43421053  0.19736842  0.63157895       0.013
   0.42763158  0.21710526  0.64473684       0.013
   0.42105263  0.23684211  0.65789474       0.013
   0.41447368  0.25657895  0.67105263       0.013
   0.40789474  0.27631579  0.68421053       0.013
   0.40131579  0.29605263  0.69736842       0.013
   0.39473684  0.31578947  0.71052632       0.013
   0.38815789  0.33552632  0.72368421       0.013
   0.38157895  0.35526316  0.73684211       0.013
   0.37500000  0.37500000  0.75000000       0.013
   0.37500000  0.37500000  0.75000000       0.013
   0.35526316  0.35526316  0.71052632       0.013
   0.33552632  0.33552632  0.67105263       0.013
   0.31578947  0.31578947  0.63157895       0.013
   0.29605263  0.29605263  0.59210526       0.013
   0.27631579  0.27631579  0.55263158       0.013
   0.25657895  0.25657895  0.51315789       0.013
   0.23684211  0.23684211  0.47368421       0.013
   0.21710526  0.21710526  0.43421053       0.013
   0.19736842  0.19736842  0.39473684       0.013
   0.17763158  0.17763158  0.35526316       0.013
   0.15789474  0.15789474  0.31578947       0.013
   0.13815789  0.13815789  0.27631579       0.013
   0.11842105  0.11842105  0.23684211       0.013
   0.09868421  0.09868421  0.19736842       0.013
   0.07894737  0.07894737  0.15789474       0.013
   0.05921053  0.05921053  0.11842105       0.013
   0.03947368  0.03947368  0.07894737       0.013
   0.01973684  0.01973684  0.03947368       0.013
   0.00000000  0.00000000  0.00000000       0.013
 
 position of ions in fractional coordinates (direct lattice) 
   0.00000000  0.00000000  0.00000000
   0.25000000  0.25000000  0.25000000
 
 position of ions in cartesian coordinates  (Angst):
   0.00000000  0.00000000  0.00000000
   1.35750000  1.35750000  1.35750000
 


--------------------------------------------------------------------------------------------------------


 k-point  1 :   0.5000 0.5000 0.5000  plane waves:     344
 k-point  2 :   0.4737 0.4737 0.4737  plane waves:     344
 k-point  3 :   0.4474 0.4474 0.4474  plane waves:     356
 k-point  4 :   0.4211 0.4211 0.4211  plane waves:     353
 k-point  5 :   0.3947 0.3947 0.3947  plane waves:     353
 k-point  6 :   0.3684 0.3684 0.3684  plane waves:     353
 k-point  7 :   0.3421 0.3421 0.3421  plane waves:     347
 k-point  8 :   0.3158 0.3158 0.3158  plane waves:     350
 k-point  9 :   0.2895 0.2895 0.2895  plane waves:     350
 k-point 10 :   0.2632 0.2632 0.2632  plane waves:     350
 k-point 11 :   0.2368 0.2368 0.2368  plane waves:     350
 k-point 12 :   0.2105 0.2105 0.2105  plane waves:     347
 k-point 13 :   0.1842 0.1842 0.1842  plane waves:     344
 k-point 14 :   0.1579 0.1579 0.1579  plane waves:     338
 k-point 15 :   0.1316 0.1316 0.1316  plane waves:     335
 k-point 16 :   0.1053 0.1053 0.1053  plane waves:     335
 k-point 17 :   0.0789 0.0789 0.0789  plane waves:     335
 k-point 18 :   0.0526 0.0526 0.0526  plane waves:     335
 k-point 19 :   0.0263 0.0263 0.0263  plane waves:     335
 k-point 20 :   0.0000 0.0000 0.0000  plane waves:     339
 k-point 21 :   0.0000 0.0000 0.0000  plane waves:     339
 k-point 22 :   0.0263 0.0000 0.0263  plane waves:     335
 k-point 23 :   0.0526 0.0000 0.0526  plane waves:     335
 k-point 24 :   0.0789 0.0000 0.0789  plane waves:     335
 k-point 25 :   0.1053 0.0000 0.1053  plane waves:     339
 k-point 26 :   0.1316 0.0000 0.1316  plane waves:     339
 k-point 27 :   0.1579 0.0000 0.1579  plane waves:     347
 k-point 28 :   0.1842 0.0000 0.1842  plane waves:     347
 k-point 29 :   0.2105 0.0000 0.2105  plane waves:     347
 k-point 30 :   0.2368 0.0000 0.2368  plane waves:     347
 k-point 31 :   0.2632 0.0000 0.2632  plane waves:     347
 k-point 32 :   0.2895 0.0000 0.2895  plane waves:     347
 k-point 33 :   0.3158 0.0000 0.3158  plane waves:     347
 k-point 34 :   0.3421 0.0000 0.3421  plane waves:     343
 k-point 35 :   0.3684 0.0000 0.3684  plane waves:     351
 k-point 36 :   0.3947 0.0000 0.3947  plane waves:     343
 k-point 37 :   0.4211 0.0000 0.4211  plane waves:     351
 k-point 38 :   0.4474 0.0000 0.4474  plane waves:     343
 k-point 39 :   0.4737 0.0000 0.4737  plane waves:     342
 k-point 40 :   0.5000 0.0000 0.5000  plane waves:     342
 k-point 41 :   0.5000 0.0000 0.5000  plane waves:     342
 k-point 42 :   0.4934 0.0197 0.5132  plane waves:     342
 k-point 43 :   0.4868 0.0395 0.5263  plane waves:     344
 k-point 44 :   0.4803 0.0592 0.5395  plane waves:     346
 k-point 45 :   0.4737 0.0789 0.5526  plane waves:     352
 k-point 46 :   0.4671 0.0987 0.5658  plane waves:     354
 k-point 47 :   0.4605 0.1184 0.5789  plane waves:     354
 k-point 48 :   0.4539 0.1382 0.5921  plane waves:     354
 k-point 49 :   0.4474 0.1579 0.6053  plane waves:     353
 k-point 50 :   0.4408 0.1776 0.6184  plane waves:     351
 k-point 51 :   0.4342 0.1974 0.6316  plane waves:     351
 k-point 52 :   0.4276 0.2171 0.6447  plane waves:     353
 k-point 53 :   0.4211 0.2368 0.6579  plane waves:     353
 k-point 54 :   0.4145 0.2566 0.6711  plane waves:     355
 k-point 55 :   0.4079 0.2763 0.6842  plane waves:     355
 k-point 56 :   0.4013 0.2961 0.6974  plane waves:     353
 k-point 57 :   0.3947 0.3158 0.7105  plane waves:     353
 k-point 58 :   0.3882 0.3355 0.7237  plane waves:     353
 k-point 59 :   0.3816 0.3553 0.7368  plane waves:     353
 k-point 60 :   0.3750 0.3750 0.7500  plane waves:     347
 k-point 61 :   0.3750 0.3750 0.7500  plane waves:     347
 k-point 62 :   0.3553 0.3553 0.7105  plane waves:     351
 k-point 63 :   0.3355 0.3355 0.6711  plane waves:     353
 k-point 64 :   0.3158 0.3158 0.6316  plane waves:     353
 k-point 65 :   0.2961 0.2961 0.5921  plane waves:     357
 k-point 66 :   0.2763 0.2763 0.5526  plane waves:     347
 k-point 67 :   0.2566 0.2566 0.5132  plane waves:     343
 k-point 68 :   0.2368 0.2368 0.4737  plane waves:     345
 k-point 69 :   0.2171 0.2171 0.4342  plane waves:     351
 k-point 70 :   0.1974 0.1974 0.3947  plane waves:     345
 k-point 71 :   0.1776 0.1776 0.3553  plane waves:     345
 k-point 72 :   0.1579 0.1579 0.3158  plane waves:     341
 k-point 73 :   0.1382 0.1382 0.2763  plane waves:     345
 k-point 74 :   0.1184 0.1184 0.2368  plane waves:     341
 k-point 75 :   0.0987 0.0987 0.1974  plane waves:     343
 k-point 76 :   0.0789 0.0789 0.1579  plane waves:     339
 k-point 77 :   0.0592 0.0592 0.1184  plane waves:     337
 k-point 78 :   0.0395 0.0395 0.0789  plane waves:     337
 k-point 79 :   0.0197 0.0197 0.0395  plane waves:     337
 k-point 80 :   0.0000 0.0000 0.0000  plane waves:     339

 maximum number of plane-waves:       357
 maximum index in each direction: 
   IXMAX=    4   IYMAX=    4   IZMAX=    4
   IXMIN=   -5   IYMIN=   -5   IZMIN=   -5

 WARNING: aliasing errors must be expected set NGX to  20 to avoid them
 WARNING: aliasing errors must be expected set NGY to  20 to avoid them
 WARNING: aliasing errors must be expected set NGZ to  20 to avoid them
 aliasing errors are usually negligible using standard VASP settings
 and one can safely disregard these warnings

 total amount of memory used by VASP on root node    38416. kBytes
========================================================================

   base      :      30000. kBytes
   nonl-proj :       1839. kBytes
   grid      :       2752. kBytes
   one-center:          6. kBytes
   wavefun   :       3819. kBytes
 
     INWAV:  cpu time    0.00: real time    0.00
 initial charge density was supplied:
 number of electron       7.9999994 magnetization 
 keeping initial charge density in first step


--------------------------------------------------------------------------------------------------------


 Maximum index for augmentation-charges         3319 (set IRDMAX)


--------------------------------------------------------------------------------------------------------


 First call to EWALD:  gamma=   0.518
 Maximum number of real-space cells 3x 3x 3
 Maximum number of reciprocal cells 3x 3x 3

    FEWALD:  cpu time    0.00: real time    0.00


----------------------------------------- Iteration    1(   1)  ---------------------------------------


    POTLOK:  cpu time    0.02: real time    0.02
    SETDIJ:  cpu time    0.00: real time    0.00
     EDDAV:  cpu time   26.38: real time   26.47
       DOS:  cpu time    0.00: real time    0.00
    --------------------------------------------
      LOOP:  cpu time   26.52: real time   26.62

 eigenvalue-minimisations  :  1296
 total energy-change (2. order) : 0.4611476E+01  (-0.2201058E+03)
 number of electron       7.9999994 magnetization 
 augmentation part        7.9999994 magnetization 

 Free energy of the ion-electron system (eV)
  ---------------------------------------------------
  alpha Z        PSCENC =         3.24298762
  Ewald energy   TEWEN  =      -228.56352493
  -Hartree energ DENC   =       -14.99937697
  -exchange      EXHF   =         0.00000000
  -V(xc)+E(xc)   XCENC  =       -18.44393402
  PAW double counting   =        75.49875638      -40.16779489
  entropy T*S    EENTRO =        -0.01745968
  eigenvalu     EDDAV:  cpu time   26.25: real time   26.32
       DOS:  cpu time    0.00: real time    0.00
    -------     EDDAV:  cpu time   26.48: real time   26.57
       DOS:  cpu time    0.00: real time    0.00
    --------------------------------------------
      LOOP:  cpu time   26.51: real time   26.60

 eigenvalue-minimisations  :  1296
 total energy-change (2. order) : 0.4611476E+01  (-0.2201058E+03)
 number of electron       7.9999994 magnetization 
 augmentation part        7.9999994 magnetization 

 Free energy of the ion-electron system (eV)
  ---------------------------------------------------
  alpha Z        PSCENC =         3.24298762
  Ewald energy   TEWEN  =      -228.56352493
  -Hartree energ DENC   =       -14.99937697
  -exchange      EXHF   =         0.00000000
  -V(xc)+E(xc)   XCENC  =       -18.44393402
  PAW double counting   =        75.49875638      -40.16779489
  entropy T*S    EENTRO =        -0.01745968
  eigenvalues    EBANDS =        21.45792361
  atomic energy  EATOM  =       206.60389906
  -----------------------------------------------       EDDAV:  cpu time   26.72: real time   26.79
       DOS:  cpu time    0.00: real time    0.00
    --------------------------------------------
      LOOP:  cpu time   26.75: real time   26.82

 eigenvalue-minimisations  :  1296
 total energy-change (2. order) : 0.4611476E+01  (-0.2201058E+03)
 number of electron       7.9999994 magnetization 
 augmentation part        7.9999994 magnetization 

 Free energy of the ion-electron system (eV)
  ---------------------------------------------------
  alpha Z        PSCENC =         3.24298762
  Ewald energy   TEWEN  =      -228.56352493
  -Hartree energ DENC   =       -14.99937697
  -exchange      EXHF   =         0.00000000
  -V(xc)+E(xc)   XCENC  =       -18.44393402
  PAW double counting   =        75.49875638      -40.16779489
  entropy T*S    EENTRO =        -0.01745968
  eigenvalues    EBANDS =        21.45792361
  atomic energy  EATOM  =       206.60389906
  ---------------------------------------------------
  free energy    TOTEN  =         4.61147618 eV

  energy without entropy =        4.62893586  energy(sigma->0) =        4.62020602
00
  -V(xc)+E(xc)   XCENC  =       -18.44393402
  PAW double counting   =        75.49875638      -40.16779489
  entropy T*S    EENTRO =        -0.01745968
  eigenvalues    EBANDS =        21.45792361
  atomic energy  EATOM  =       206.60389906
  ---------------------------------------------------
  free energy    TOTEN  =         4.61147618 eV

  energy without entropy =        4.62893586  energy(sigma->0) =        4.62020602

=         4.61147618 eV

  energy without entropy =        4.62893586  energy(sigma->0) =        4.62020602




----------------------------------------- Iteration    1(   2)  ---------------------------------------


     EDDAV:  cpu time   39.84: real time   39.96
       DOS:  cpu time    0.00: real time    0.00
    --------------------------------------------
      LOOP:  cpu time   39.95: real time   40.31

 eigenvalue-minimisa     EDDAV:  cpu time   40.37: real time   40.47
       DOS:  cpu time    0.00: real time    0.00
    --------------------------------------------
      LOOP:  cpu time   40.52: real time   40.61

 eigenvalue-minimisa     EDDAV:  cpu time   40.18: real time   40.29
       DOS:  cpu time    0.00: real time    0.00
    --------------------------------------------
      LOOP:  cpu time   40.33: real 
 Free energy of the ion-electron system (eV)
  ---------------------------------------------------
  alpha Z        PSCENC =         3.24298762
  Ewald energy   TEWEN  =      -228.56352493
  -Hartree energ DENC   =  
 Free energy of the ion-electron      EDDAV:  cpu time   40.41: real time   40.51
       DOS:  cpu time    0.00: real time    0.00
    -------     EDDAV:  cpu time   41.06: real time   41.16
       DOS:  cpu time    0.00: real time    0.00
    --------------------------------------------
      LOOP:  cpu time   41.31: real time   41.41

 eigenvalue-minimisations  :  2024
 total energy-change (2. order) :-0.1157378E+02  (-0.1077562E+02)
 number of electron       7.9999994 magnetization 
 augmentation part        7.9999994 magnetization 

 Free energy of the ion-electron system (eV)
  ---------------------------------------------------
  alpha Z        PSCENC =         3.24298762
  Ewald energy   TEWEN  =      -228.56352493
  -Hartree energ DENC   =       -14.99937697
  -exchange      EXHF   =         0.00000000
  -V(xc)+E(xc)   XCENC  =       -18.44393402
  PAW double counting   =        75.49875638      -40.16779489
  entropy T*S    EENTRO =        -0.00253714
  eigenvalues    EBANDS =         9.86922510
  atomic energy  EATOM  =       206.60389906
  ---------------------------------------------------
  free energy    TOTEN  =        -6.96229978 eV

  energy without entropy =       -6.95976264  energy(sigma->0) =       -6.96103121
y  EATOM  =       206.60389906
  ---------------------------------------------------
  free energy    TOTEN  =        -6.96229978 eV

  energy without entropy =       -6.95976264  energy(sigma->     EDDAV:  cpu time   40.36: real time   40.47
       DOS:  cpu time    0.00: real time    0.00
    --------------------------------------------
      LOOP:  cpu time   40.56: real time   41.03

 eigenvalue-minimisa     EDDAV:  cpu time   40.50: real time   40.64
       DOS:  cpu time    0.00: real time    0.00
    --------------------------------------------
      LOOP:  cpu time   40.59: real time   41.06

 eigenvalue-minimisa     EDDAV:  cpu time   41.07: real time   41.18
       DOS:  cpu time    0.00: real time    0.00
    --------------------------------------------
      LOOP:  cpu time   41.16: real time   41.51

 eigenvalue-minimisa     EDDAV:  cpu time   41.16: real time   41.29
       DOS:  cpu time    0.00: real time    0.00
    --------------------------------------------
      LOOP:  cpu time   41.23: real 
 Free energy of the ion-electron system (eV)
  ---------------------------------------------------
  alpha Z        PSCENC =         3.24298762
  Ewald energy   TEWEN  =      -228.56352493
  -Hartree energ DENC   =  
 Free energy of the ion-electron system (eV)
  ---------------------------------------------------
  alpha Z        PSCENC =         3.24298762
  Ewald energy   TEWEN  =      -228.56352493
  -Hartree energ DENC   =       -14.99937697
  -exchange      EXHF   =         0.00000000
  -V(xc)+E(xc)   XCENC  =       -18.44393402
  PAW double counting   =        75.49875638      -40.16779489
  entropy T*S    EENTRO =        -0.00253714
  eigenvalues    EBANDS =         9.86922510
  atomic energy  EATOM  =       206.60389906
  ---------------------------------------------------
  free energy    TOTEN  =        -6.96229978 eV

  energy without entropy =       -6.95976264  energy(sigma->0) =       -6.96103121
y  EATOM  =       206.60389906
  ---------------------------------------------------
  free energy    TOTEN  =        -6.96229978 eV

  energy without entropy =       -6.95976264  energy(sigma->     EDDAV:  cpu time   40.61: real time   40.71
       DOS:  cpu time    0.00: real time    0.00
    --------------------------------------------
      LOOP:  cpu time   40.76: real time   40.86

 eigenvalue-minimisations  :  2024
 total energy-change (2. order) :-0.1157378E+02  (-0.1077562E+02)
 number of electron       7.9999994 magnetization 
 augmentation part        7.9999994 magnetization 

 Free energy of the ion-electron system (eV)
  ---------------------------------------------------
  alpha Z        PSCENC =         3.24298762
  Ewald energy   TEWEN  =      -228.56352493
  -Hartree energ DENC   =       -14.99937697
  -exchange           EDDAV:  cpu time   40.31: real time   40.44
       DOS:  cpu time    0.00: real time    0.00
    --------------------------------------------
      LOOP:  cpu time   40.51: real time   40.70

 eigenvalue-minimisa     EDDAV:  cpu time   41.47: real time   41.57
       DOS:  cpu time    0.00: real time    0.00
    --------------------------------------------
      LOOP:  cpu time   41.61: real time   41.72

 eigenvalue-minimisa     EDDAV:  cpu time   31.94: real time   32.02
       DOS:  cpu time    0.00: real time    0.00
    --------------------------------------------
      LOOP:  cpu time   32.09: real time   32.17

 eigenvalue-minimisa     EDDAV:  cpu time   32.57: real time   32.65
       DOS:  cpu time    0.00: real time    0.00
    --------------------------------------------
      LOOP:  cpu time   32.72: real time   32.80

 eigenvalue-minimisations  :  1648
 total energy-change (2. order) :-0.1433615E+00  (-0.1433241E+00)
 number of electron       7.9999994 magnetization 
 augmentation part        7.9999994 magnetization 

 Free energy of the ion-electron      EDDAV:  cpu time   32.84: real time   33.01
       DOS:  cpu time    0.00: real time    0.00
    --------------------------------------------
      LOOP:  cpu time   32.89: real time   33.05

 eigenvalue-minimisations  :  1648
 total energy-change (2. order) :-0.1433615E+00  (-0.1433241E+00)
 number of electron       7.9999994 magnetization 
 augmentation part        7.9999994 magnetization 

 Free energy of the ion-electron s     EDDAV:  cpu time   32.86: real time   32.95
       DOS:  cpu time    0.00: real time    0.00
    --------------------------------------------
      LOOP:  cpu time   33.01: real time   33.09

 eigenvalue-minimisa     EDDAV:  cpu time   32.89: real time   32.99
       DOS:  cpu time    0.00: real time    0.00
    --------------------------------------------
      LOOP:  cpu time   33.03: real 
 Free energy of the ion-electron system (eV)
  ---------------------------------------------------
  alpha Z        PSCENC =         3.24298762
  Ewald energy   TEWEN  =      -228.56352493
  -Hartree energ DENC   =  
 Free energy of the ion-electron system (eV)
  ---------------------------------------------------
  alpha Z        PSCENC =         3.24298762
  Ewald energy   TEWEN  =      -228.56352493
  -Hartree energ DENC   =       -14.99937697
  -exchange      EXHF   =         0.00000000
  -V(xc)+E(xc)   XCENC  =       -18.44393402
  PAW double counting   =        75.49875638      -40.16779489
  entropy T*S    EENTRO =        -0.00237100
  e
 Free energy of the ion-electron system (eV)
  ---------------------------------------------------
  alpha Z        PSCENC =         3.24298762
  Ewald energy   TEWEN  =      -228.56352493
  -Hartree energ DENC   =       -14.99937697
  -exchange          EDDAV:  cpu time   32.99: real time   33.06
       DOS:  cpu time    0.00: real time    0.00
    --------------------------------------------
      LOOP:  cpu time   33.14: real time   33.22

 eigenvalue-minimisations  :  1648
 total energy-change (2. order) :-0.1433615E+00  (-0.1433241E+00)
 number of electron       7.9999994 magnetization 
 augmentation part        7.9999994 magnetization 

 Free energy of the ion-electron system (eV)
  ---------------------------------------------------
  alpha Z        PSCENC =         3.24298762
  Ewald energy   TEWEN  =      -228.56352493
  -Hartree energ DENC   =       -14.99937697
  -exchange      EXHF   =         0.00000000
  -V(xc)+E(xc)   XCENC  =       -18.44393402
  PAW double counting   =        75.49875638      -40.16779489
  entropy T*S    EENTRO =        -0.00237100
  eigenvalues    EBANDS =         9.72569749
  atomic energy  EATOM  =       206.60389906
  ---------------------------------------------------
  free energy    TOTEN  =        -7.10566125 eV

  energy without entropy =       -7.10329025  energy(sigma->0) =       -7.10447575
y  EATOM  =       206.60389906
  ------------------
 Free energy of the ion-electron      EDDAV:  cpu time   32.66: real time   32.75
       DOS:  cpu time    0.00: real time    0.00
    --------------------------------------------
      LOOP:  cpu time   32.81: real time   32.90

 eigenvalue-minimisa     EDDAV:  cpu time   33.04: real time   33.17
       DOS:  cpu time    0.00: real time    0.00
    --------------------------------------------
      LOOP:  cpu time   33.19: real time   33.32

 eigenvalue-minimisations  :  1648
 total energy-change (2. order) :-0.1433615E+00  (-0.1433241E+00)
 number of electron       7.9999994 magnetization 
 augmentation part        7.9999994 magnetization 

 Free energy of the ion-electron system (eV)
  ---------------------------------------------------
  alpha Z        PSCENC =         3.24298762
  Ewald energy   TEWEN  =      -228.56352493
  -Hartree energ DENC   =       -14.99937697
  -exchange      EXHF   =         0.00000000
  -V(xc)+E(xc)   XCENC  =       -18.44393402
  PAW double counting   =        75.49875638      -40.16779489
  entropy T*S    EENTRO =        -0.00237100
  eigenvalues    EBANDS =         9.72569749
  atomic energy  EATOM  =       206.60389906
  ---------------------------------------------------
  free energy    TOTEN  =        -7.10566125 eV

  energy without entropy =       -7.10329025  energy(sigma->0) =       -7.10447575
ergy-change (2. order) :-0.1433615E+00  (-0.1433241E+00)
 number of electron       7.9999994 magnetization 
 augmentation part        7.9999994 magnetization 

 Free energy of the ion-electron system (eV)
  ---------------------------------------------------
  alpha Z        PSCENC =         3.24298762
  Ewald energy   TEWEN  =      -228.56352493
  -Hartree energ DENC   =       -14.99937697
  -exchange      EXHF   =         0.00000000
  -V(xc)+E(xc)   XCENC  =       -18.44393402
  PAW double counting   =        75.49875638      -40.16779489
  entropy T*S    EENTRO =        -0.00237100
  eigenvalues    EBANDS =         9.72569749
  atomic energy  EATOM  =       206.60389906
  ---------------------------------------------------
     EDDAV:  cpu time   32.54: real time   32.63
       DOS:  cpu time    0.00: real time    0.00
    --------------------------------------------
      LOOP:  cpu time   32.74: real time   32.82

 eigenvalue-minimisa     EDDAV:  cpu time   39.73: real time   39.84
       DOS:  cpu time    0.00: real time    0.00
    --------------------------------------------
      LOOP:  cpu time   39.89: real time   40.00

 eigenvalue-minimisa     EDDAV:  cpu time   40.50: real time   40.61
       DOS:  cpu time    0.00: real time    0.00
    --------------------------------------------
      LOOP:  cpu time   40.56: real time   40.67

 eigenvalue-minimisations  :  2048
 total energy-change (2. order) :-0.4759222E-03  (-0.4759209E-03)
 number of electron       7.     EDDAV:  cpu time   40.61: real time   40.70
       DOS:  cpu time    0.00: real time    0.00
    --------------------------------------------
      LOOP:  cpu time   40.77: real time   40.87

 eigenvalue-minimisations  :  2048
 total energy-change (2. order) :-0.4759222E-03  (-0.4759209E-03)
 number of electron       7     EDDAV:  cpu time   40.34: real time   40.48
       DOS:  cpu time    0.00: real time    0.00
    --------------------------------------------
      LOOP:  cpu time   40.53: real time   40.68

 eigenvalue-minimisa     EDDAV:  cpu time   40.57: real time   40.67
       DOS:  cpu time    0.00: real time    0.00
    --------------------------------------------
      LOOP:  cpu time   40.76: real time   40.89

 eigenvalue-minimisations  :  2048
 total energy-change (2. order) :-0.4759222E-03  (-0.4759209E-03)
 number of electron       7.9999994 magnetization 
 augmentation part        7.9999994 magnetization 

 Free energy of the ion-electron system (eV)
  ---------------------------------------------------
  alpha Z        PSCENC =         3.24298762
  Ewald energy   TEWEN  =      -228.56352493
  -Hartree energ DENC   =       -14.99937697
  -exchange      EXHF   =         0.00000000
  -V(xc)+E(xc)   XCENC  =       -18.44393402
  PAW double counting   =        75.49875638      -40.16779489
  entropy T*S    EENTRO =        -0.00236899
  eigenvalues    EBANDS =         9.72521956
  atomic energy  EATOM  =       206.60389906
  ---------------------------------------------------
  free energy    TOTEN  =        -7.10613717 eV

  energy without entropy =       -7.10376819  energy(sigma->0) =       -7.10495268
 40.24: real time   40.35
       DOS:  cpu time    0.00: real time    0.00
    --------------------------------------------
      LOOP:  cpu time   40.39: real time   40.50

 eigenvalue-minimisations  :  2048
 total energy-change (2. order) :-0.4759222E-03  (-0.4759209E-03)
 number of electron       7.9     EDDAV:  cpu time   40.37: real time   40.49
       DOS:  cpu time    0.00: real time    0.00
    --------------------------------------------
      LOOP:  cpu time   40.53: real time   40.65

 eigenvalue-minimisations  :  2048
 total energy-change (2. order) :-0.4759222E-03  (-0.4759209E-03)
 number of electron       7.9999994 magnetization 
 augmentation part        7.9999994 magnetization 

 Free energy of the ion-electron system (eV)
  ---------------------------------------------------
  alpha Z        PSCENC =         3.24298762
  Ewald energy   TEWEN  =      -228.56352493
  -Hartree energ DENC   =       -14.99937697
  -exchange          EDDAV:  cpu time   40.48: real time   40.58
       DOS:  cpu time    0.00: real time    0.00
    --------------------------------------------
      LOOP:  cpu time   40.63: real time   40.73

 eigenvalue-minimisations  :  2048
 total energy-change (2. order) :-0.4759222E-03  (-0.4759209E-03)
 number of electron       7.9999994 magnetization 
 augmentation part        7.9999994 magnetization 

 Free energy of the ion-electron system (eV)
  ---------------------------------------------------
  alpha Z        PSCENC =         3.24298762
  Ewald energy   TEWEN  =      -228.56352493
  -Hartree energ DENC   =       -14.99937697
  -exchange      EXHF   =         0.00000000
  -V(xc)+E(xc)   XCENC  =       -18.44393402
  PAW double counting   =        75.49875638      -40.16779489
  entropy T*S    EENTRO =        -0.00236899
  eigenvalues    EBANDS =         9.72521956
  atomic energy  EATOM  =       206.60389906
  ---------------------------------------------------
  free energy    TOTEN  =        -7.10613717 eV

  energy without entropy =       -7.10376819  energy(sigma->0) =       -7.10495268
0000
  -V(xc)+E(xc)   XCENC  =       -18.44393402
  PAW double counting   =        75.49875638      -40.16779489
  entropy T*S    EENTRO =        -0.00236899
  eigenvalues    EBANDS =         9     EDDAV:  cpu time   40.15: real time   40.28
       DOS:  cpu time    0.00: real time    0.00
    -------     EDDAV:  cpu time   40.16: real time   40.35
       DOS:  cpu time    0.00: real time    0.00
    --------------------------------------------
      LOOP:  cpu time   40.31: real time   40.51

 eigenvalue-minimisations  :  2048
 total energy-change (2. order) :-0.4759222E-03  (-0.475920
 Free energy of the ion-electron system (eV)
  ---------------------------------------------------
  alpha Z
 Free energy of the ion-electron      EDDAV:  cpu time   40.46: real time   40.55
       DOS:  cpu time    0.00: real time    0.00
    --------------------------------------------
      LOOP:  cpu time   40.61: real time   40.71

 eigenvalue-minimisations  :  2048
 total energy-change (2. order) :-0.4759222E-03  (-0.4759209E-03)
 number of electron       7.9999994 magnetization 
 augmentation part        7.9999994 magnetization 

 Free energy of the ion-electron      EDDAV:  cpu time   40.42: real time   40.53
       DOS:  cpu time    0.00: real time    0.00
    --------------------------------------------
      LOOP:  cpu time   40.57: real time   40.69

 eigenvalue-minimisations  :  2048
 total energy-change (2. order) :-0.4759222E-03  (-0.4759209E-03)
 number of electron       7.     EDDAV:  cpu time   40.39: real time   40.58
       DOS:  cpu time    0.00: real time    0.00
    --------------------------------------------
      LOOP:  cpu time   40.58: real time   40.77

 eigenvalue-minimisa     EDDAV:  cpu time   40.59: real time   40.71
       DOS:  cpu time    0.00: real time    0.00
    --------------------------------------------
      LOOP:  cpu time   40.76: real time   40.87

 eigenvalue-minimisa     EDDAV:  cpu time   33.05: real time   33.14
       DOS:  cpu time    0.00: real time    0.00
    --------------------------------------------
      LOOP:  cpu time   33.21: real time   33.30

 eigenvalue-minimisa     EDDAV:  cpu time   32.71: real time   32.79
       DOS:  cpu time    0.00: real time    0.00
    --------------------------------------------
      LOOP:  cpu time   32.87: real time   32.95

 eigenvalue-minimisa     EDDAV:  cpu time   33.10: real time   33.18
       DOS:  cpu time    0.00: real time    0.00
    --------------------------------------------
      LOOP:  cpu time   33.26: real time   33.34

 eigenvalue-minimisa     EDDAV:  cpu time   33.62: real time   33.70
       DOS:  cpu time    0.00: real time    0.00
    --------------------------------------------
      LOOP:  cpu time   33.78: real time   33.86

 eigenvalue-minimisa     EDDAV:  cpu time   33.41: real time   33.50
       DOS:  cpu time    0.00: real time    0.00
    --------------------------------------------
      LOOP:  cpu time   33.46: real time   33.56

 eigenvalue-minimisations  :  1680
 total energy-change (2. order) :-0.6775125E-06  (-0.6775443E-06)
 number of electron       7.9999994 magnetization 
 augmentation part        7.9999994 magnetization 

 Free energy of the ion-electron      EDDAV:  cpu time   33.37: real time   33.45
       DOS:  cpu time    0.00: real time    0.00
    --------------------------------------------
      LOOP:  cpu time   33.53: real time   33.61

 eigenvalue-minimisations  :  1680
 total energy-change (2. order) :-0.6775125E-06  (-0.6775443E-06)
 number of electron       7.9999994 magnetization 
 augmentation part        7.9999994 magnetization 

 Free energy of the ion-electron      EDDAV:  cpu time   33.42: real time   33.51
       DOS:  cpu time    0.00: real time    0.00
    --------------------------------------------
      LOOP:  cpu time   33.59: real time   33.68

 eigenvalue-minimisations  :  1680
 total energy-change (2. order) :-0.6775125E-06  (-0.6775443E-06)
 number of electron       7.9999994 magnetization 
 augmentation part        7.9999994 magnetization 

 Free energy of the ion-electron      EDDAV:  cpu time   33.47: real time   33.64
       DOS:  cpu time    0.00: real time    0.00
    --------------------------------------------
      LOOP:  cpu time   33.51: real time   33.68

 eigenvalue-minimisations  :  1680
 total energy-change (2. order) :-0.6775125E-06  (-0.6775443E-06)
 number of electron       7.9999994 magnetization 
 augmentation part        7.9999994 magnetization 

 Free energy of the ion-electron system (eV)
  ---------------------------------------------------
  alpha Z        PSCENC =         3.24298762
  Ewald energy   TEWEN  =      -228.56352493
  -Hartree energ DENC   =       -14.99937697
  -exchange      EXHF   =         0.00000000
  -V(xc)+E(xc)   XCENC  =       -18.44393402
  PAW double counting   =        75.49875638      -40.16779489
  entropy T*S    EENTRO =        -0.00236897
  eigenvalues    EBANDS =         9.72521886
  atomic energy  EATOM  =       206.60389906
  ---------------------------------------------------
  free energy    TOTEN  =        -7.10613785 eV

  energy without entropy =
 Free energy of the ion-electron system (eV)
  ---------------------------------------------------
  alpha Z        PSCENC =         3.24298762
  Ewald energy   TEWEN  =      -228.56352493
  -Hartree energ DENC   =       -14.99937697
  -exchange      EXHF   =         0.00000000
  -V(xc)+E(xc)   XCENC  =       -18.44393402
  PAW double counting   =        75.49875638      -40.16779489
  entropy T*S    EENTRO =        -0.00236897
  eigenvalues    EBANDS =         9.72521886
  atomic energy  EATOM  =       206.60389906
  ---------------------------------------------------
  free energy    TOTEN  =        -7.10613785 eV

  energy without entropy =       -7.10376888  energy(sigma->0) =       -7.10495336
 33.06: real time   33.14
       DOS:  cpu time    0.00: real time    0.00
    --------------------------------------------
      LOOP:  cpu time   33.22: real time   33.30

 eigenvalue-minimisations  :  1680
 total energy-change (2. order) :-0.6775125E-06  (-0.6775443E-06)
 number of electron       7.9999994 magnetization 
 augmentation part        7.9999994 magnetization 

 Free energy of the ion-electron      EDDAV:  cpu time   33.30: real time   33.42
       DOS:  cpu time    0.00: real time    0.00
    --------------------------------------------
      LOOP:  cpu time   33.45: real time   33.57

 eigenvalue-minimisa      EDDAV:  cpu time   33.35: real time   33.43
       DOS:  cpu time    0.00: real time    0.00
    --------------------------------------------
      LOOP:  cpu time   33.50: real
 Free energy of the ion-electron system (eV)
  ---------------------------------------------------
  alpha Z        PSCENC =         3.24298762
  Ewald energy   TEWEN  =      -228.56352493
  -Hartree energ DENC   =  

 Free energy of the ion-electron system (eV)
  ---------------------------------------------------
  alpha Z        PSCENC =         3.24298762
  Ewald energy   TEWEN  =      -228.56352493
  -Hartree energ DENC   =       -14.99937697
  -exchange          EDDAV:  cpu time   33.01: real time   33.09
       DOS:  cpu time    0.00: real time    0.00
    --------------------------------------------
      LOOP:  cpu time   33.17: real time   33.25

 eigenvalue-minimisa     EDDAV:  cpu time   33.67: real time   33.75
       DOS:  cpu time    0.00: real time    0.00
    --------------------------------------------
      LOOP:  cpu time   33.86: real time   33.94

 eigenvalue-minimisations  :  1680
 total energy-change (2. order) :-0.6775125E-06  (-0.6775443E-06)
 number of electron       7.9999994 magnetization 
 augmentation part        7.9999994 magnetization 

 Free energy of the ion-electron system (eV)
  ---------------------------------------------------
  alpha Z        PSCENC =         3.24298762
  Ewald energy   TEWEN  =      -228.56352493
  -Hartree energ DENC   =       -14.99937697
  -exchange          EDDAV:  cpu time   32.48: real time   32.57
       DOS:  cpu time    0.00: real time    0.00
    --------------------------------------------
      LOOP:  cpu time   32.65: real time   32.73

 eigenvalue-minimisa     EDDAV:  cpu time   29.52: real time   29.60
       DOS:  cpu time    0.00: real time    0.00
    --------------------------------------------
      LOOP:  cpu time   29.68: real time   29.76

 eigenvalue-minimisa     EDDAV:  cpu time   30.06: real time   30.14
       DOS:  cpu time    0.00: real time    0.00
    --------------------------------------------
      LOOP:  cpu time   30.22: real time   30.29

 eigenvalue-minimisa     EDDAV:  cpu time   30.58: real time   30.66
       DOS:  cpu time    0.00: real time    0.00
    --------------------------------------------
      LOOP:  cpu time   30.65: real time   30.73

 eigenvalue-minimisations  :  1624
 total energy-change (2. order) :-0.1067903E-07  (-0.1031606E-07)
 number of electron       7.9999994 magnetization 
 augmentation part        7.9999994 magnetization 

 Free energy of the ion-electron      EDDAV:  cpu time   30.95: real time   31.03
       DOS:  cpu time    0.00: real time    0.00
    --------------------------------------------
      LOOP:  cpu time   31.11: real time   31.19

 eigenvalue-minimisations  :  1624
 total energy-change (2. order) :-0.1067903E-07  (-0.1031606E-07)
 number of electron       7.9999994 magnetization 
 augmentation part        7.9999994 magnetization 

 Free energy of the ion-electron system (eV)
  ---------------------------------------------------
  alpha Z        PSCENC =         3.24298762
  Ewald energy   TEWEN  =      -228.56352493
  -Hartree energ DENC   =       -14.99937697
  -exchange      EXHF   =         0.00000000
  -V(xc)+E(xc)   XCENC  =       -18.44393402
  PAW double counting   =        75.49875638      -40.16779489
  entropy T*S    EENTRO =        -0.00236897
  eigenvalues    EBANDS =         9     EDDAV:  cpu time   30.58: real time   30.65
       DOS:  cpu time    0.00: real time    0.00
    --------------------------------------------
      LOOP:  cpu time   30.73: real time   30.80

 eigenvalue-minimisations  :  1624
 total energy-change (2. order) :-0.1067903E-07  (-0.1031606E-07)
 number of electron       7.9999994 magnetization 
 augmentation part        7.9999994 magnetization 

 Free energy of the ion-electron system (eV)
  ---------------------------------------------------
  alpha Z        PSCENC =         3.24298762
  Ewald energy   TEWEN  =      -228.56352493
  -Hartree energ DENC   =       -14.99937697
  -exchange          EDDAV:  cpu time   30.36: real time   30.45
       DOS:  cpu time    0.00: real time    0.00
    --------------------------------------------
      LOOP:  cpu time   30.46: real time   30.55

 eigenvalue-minimisa     EDDAV:  cpu time   30.68: real time   30.75
       DOS:  cpu time    0.00: real time    0.00
    --------------------------------------------
      LOOP:  cpu time   30.83: real time   30.91

 eigenvalue-minimisa     EDDAV:  cpu time   30.61: real time   30.69
       DOS:  cpu time    0.00: real time    0.00
    --------------------------------------------
      LOOP:  cpu time   30.80: real time   30.89

 eigenvalue-minimisa     EDDAV:  cpu time   31.17: real time   31.25
       DOS:  cpu time    0.00: real time    0.00
    --------------------------------------------
      LOOP:  cpu time   31.33: real time   31.41

 eigenvalue-minimisa     EDDAV:  cpu time   31.22: real time   31.29
       DOS:  cpu time    0.00: real time    0.00
    --------------------------------------------
      LOOP:  cpu time   31.38: real time   31.45

 eigenvalue-minimisations  :  1624
 total energy-change (2. order) :-0.1067903E-07  (-0.1031606E-07)
 number of electron       7.9999994 magnetization 
 augmentation part        7.9999994 magnetization 

 Free energy of the ion-electron system (eV)
  ---------------------------------------------------
  alpha Z        PSCENC =         3.24298762
  Ewald energy   TEWEN  =      -228.56352493
  -Hartree energ DENC   =       -14.99937697
  -exchange      EXHF   =         0.00000000
  -V(xc)+E(xc)   XCENC  =       -18.44393402
  PAW double counting   =        75.49875638      -40.16779489
  entropy T*S    EENTRO =        -0.00236897
  eigenvalues    EBANDS =         9.72521885
  atomic energy  EATOM  =       206.60389906
  ---------------------------------------------------
  free energy    TOTEN  =        -7.10613786 eV

  energy without entropy =       -7.10376889  energy(sigma->0) =       -7.10495337
00000
  -V(xc)+E(xc)   XCENC  =       -18.44393402
  PAW double counting   =        75     EDDAV:  cpu time   31.00: real time   31.15
       DOS:  cpu time    0.00: real time    0.00
    --------------------------------------------
      LOOP:  cpu time   31.16: real time   31.31

 eigenvalue-minimisations  :  1624
 total energy-change (2. order) :-0.1067903E-07  (-0.1031606E-07)
 number of electron       7.9999994 magnetization 
 augmentation part        7.9999994 magnetization 

 Free energy of the ion-electron system (eV)
  ---------------------------------------------------
  alpha Z        PSCENC =         3.24298762
  Ewald energy   TEWEN  =      -228.56352493
  -Hartree energ DENC   =       -14.99937697
  -exchange      EXHF   =         0.00000000
  -V(xc)+E(xc)   XCENC  =       -18.44393402
  PAW double counting   =        75.49875638      -40.16779489
  entropy T*S    EENTRO =        -0.00236897
  eigenvalues    EBANDS =         9.72521885
  atomic energy  EATOM  =       206.60389906
  ---------------------------------------------------
  free energy    TOTEN  =        -7.10613786 eV

  energy without entropy =       -7.10376889  energy(sigma->0) =       -7.10495337
ergy-change (2. order) :-0.1067903E-07  (-0.1031606E-07)
 number of electron       7.9999994 magnetization 
 augmentation part        7.9999994 magnetization 

 Free energy of the ion-electron system (eV)
  ---------------------------------------------------
  alpha Z        PSCENC =         3.24298762
  Ewald energy   TEWEN  =      -228.56352493
  -Hartree energ DENC   =       -14.99937697
  -exchange          EDDAV:  cpu time   30.06: real time   30.18
       DOS:  cpu time    0.00: real time    0.00
    --------------------------------------------
      LOOP:  cpu time   30.22: real time   30.34

 eigenvalue-minimisa     EDDAV:  cpu time   30.27: real time   30.37
       DOS:  cpu time    0.00: real time    0.00
    --------------------------------------------
      LOOP:  cpu time   30.43: real time   30.53

 eigenvalue-minimisa     EDDAV:  cpu time   30.74: real time   30.82
       DOS:  cpu time    0.00: real time    0.00
    --------------------------------------------
      LOOP:  cpu time   30.90: real time   30.98

 eigenvalue-minimisa     EDDAV:  cpu time   31.33: real time   31.41
       DOS:  cpu time    0.00: real time    0.00
    --------------------------------------------
      LOOP:  cpu time   31.49: real time   31.57

 eigenvalue-minimisations  :  1624
 total energy-change (2. order) :-0.1067903E-07  (-0.1031606E-07)
 number of electron       7.9999994 magnetization 
 augmentation part        7.9999994 magnetization 

 Free energy of the ion-electron system (eV)
  ---------------------------------------------------
  alpha Z        PSCENC =         3.24298762
  Ewald energy   TEWEN  =      -228.56352493
  -Hartree energ DENC   =       -14.99937697
  -exchange      EXHF   =         0.00000000
  -V(xc)+E(xc)   XCENC  =       -18.44393402
  PAW double counting   =        75.49875638      -40.16779489
  entropy T*S    EENTRO =        -0.00236897
  eigenvalues    EBANDS =         9.72521885
  atomic energy  EATOM  =       206.60389906
  ---------------------------------------------------
  free energy    TOTEN  =        -7.10613786 eV

  energy without entropy =       -7.10376889  energy(sigma->0) =       -7.10495337
 0.4474    0.4474    0.4474
  band No.  band energies     occupation 
      1      -3.9627      2.00000
      2      -0.9393      2.00000
      3       4.6304      2.00000
      4       4.6304      2.00000
      5       7.3803      0.00000
      6       9.2062      0.00000
      7       9.2062      0.00000
      8      13.5756      0.00000

 k-point     4 :       0.4211    0.4211    0.4211
  band No.  band energies     occupation 
      1      -4.1196      2.00000
      2      -0.6969      2.00000
      3       4.6553      2.00000
      4       4.6553      2.00000
      5       7.4103      0.00000
      6       9.2323      0.00000
      7       9.2323      0.00000
      8      13.6155      0.00000

 k-point     5 :       0.3947    0.3947    0.3947
  band No.  band energies     occupation 
      1      -4.3047      2.00000
      2      -0.3927      2.00000
      3       4.6901      2.00000
      4       4.6901      2.00000
      5       7.4500      0.00000
      6       9.2656      0.00000
      7       9.2656      0.00000
      8      13.6624      0.00000

 k-point     6 :       0.3684    0.3684    0.3684
  band No.  band energies     occupation 
      1      -4.5026      2.00000
      2      -0.0423      2.00000
      3       4.7346      2.00000
      4       4.7346      2.00000
      5       7.5006      0.00000
      6       9.3022      0.00000
      7       9.3022      0.00000
      8      13.7017      0.00000

 k-point     7 :       0.3421    0.3421    0.3421
  band No.  band energies     occupation 
      1      -4.7027      2.00000
      2       0.3448      2.00000
      3       4.7890      2.00000
      4       4.7890      2.00000
      5       7.5620      0.00000
      6       9.3372      0.00000
      7       9.3372      0.00000
      8      13.7044      0.00000

 k-point     8 :       0.3158    0.3158    0.3158
  band No.  band energies     occupation 
      1      -4.8988      2.00000
      2       0.7590      2.00000
      3       4.8526      2.00000
      4       4.8526      2.00000
      5       7.6339      0.00000
      6       9.3637      0.00000
      7       9.3637      0.00000
      8      13.6083      0.00000

 k-point     9 :       0.2895    0.2895    0.2895
  band No.  band energies     occupation 
      1      -5.0863      2.00000
      2       1.1960      2.00000
      3       4.9252      2.00000
      4       4.9252      2.00000
      5       7.7148      0.00000
      6       9.3738      0.00000
      7       9.3738      0.00000
      8      13.3345      0.00000

 k-point    10 :       0.2632    0.2632    0.2632
  band No.  band energies     occupation 
      1      -5.2623      2.00000
      2       1.6521      2.00000
      3       5.0064      2.00000
      4       5.0064      2.00000
      5       7.8042      0.00000
      6       9.3596      0.00000
      7       9.3596      0.00000
      8      12.9363      0.00000

 k-point    11 :       0.2368    0.2368    0.2368
  band No.  band energies     occupation 
      1      -5.4249      2.00000
      2       2.1238      2.00000
      3       5.0952      2.00000
      4       5.0952      2.00000
      5       7.9008      0.00000
      6       9.3146      0.00000
      7       9.3146      0.00000
      8      12.5025      0.00000

 k-point    12 :       0.2105    0.2105    0.2105
  band No.  band energies     occupation 
      1      -5.5728      2.00000
      2       2.6077      2.00000
      3       5.1908      2.00000
      4       5.1908      2.00000
      5       8.0004      0.00000
      6       9.2368      0.00000
      7       9.2368      0.00000
      8      12.0422      0.00000

 k-point    13 :       0.1842    0.1842    0.1842
  band No.  band energies     occupation 
      1      -5.7048      2.00000
      2       3.1006      2.00000
      3       5.2912      2.00000
      4       5.2912      2.00000
      5       8.1042      0.00000
      6       9.1288      0.00000
      7       9.1288      0.00000
      8      11.5719      0.00000

 k-point    14 :       0.1579    0.1579    0.1579
  band No.  band energies     occupation 
      1      -5.8202      2.00000
      2       3.5969      2.00000
      3       5.3948      2.00000
      4       5.3948      2.00000
      5       8.2071      0.00000
      6       8.9983      0.00000
      7       8.9983      0.00000
      8      11.0993      0.00000

 k-point    15 :       0.1316    0.1316    0.1316
  band No.  band energies     occupation 
      1      -5.9186      2.00000
      2       4.0921      2.00000
      3       5.4967      2.00000
      4       5.4967      2.00000
      5       8.3040      0.00000
      6       8.8563      0.00000
      7       8.8563      0.00000
      8      10.6311      0.00000

 k-point    16 :       0.1053    0.1053    0.1053
  band No.  band energies     occupation 
      1      -5.9996      2.00000
      2       4.5733      2.00000
      3       5.5935      1.99990
      4       5.5935      1.99990
      5       8.3861      0.00000
      6       8.7152      0.00000
      7       8.7152      0.00000
      8      10.1800      0.00000

 k-point    17 :       0.0789    0.0789    0.0789
  band No.  band energies     occupation 
      1      -6.0629      2.00000
      2       5.0252      2.00000
      3       5.6797      1.99898
      4       5.6797      1.99898
      5       8.4419      0.00000
      6       8.5878      0.00000
      7       8.5878      0.00000
      8       9.7688      0.00000

 k-point    18 :       0.0526    0.0526    0.0526
  band No.  band energies     occupation 
      1      -6.1082      2.00000
      2       5.4184      2.00000
      3       5.7486      1.99484
      4       5.7486      1.99484
      5       8.4552      0.00000
      6       8.4858      0.00000
      7       8.4858      0.00000
      8       9.4368      0.00000

 k-point    19 :       0.0263    0.0263    0.0263
  band No.  band energies     occupation 
      1      -6.1354      2.00000
      2       5.7023      1.99822
      3       5.7937      1.98680
      4       5.7937      1.98680
      5       8.4196      0.00000
      6       8.4196      0.00000
      7       8.4231      0.00000
      8       9.2324      0.00000

 k-point    20 :       0.0000    0.0000    0.0000
  band No.  band energies     occupation 
      1      -6.1446      2.00000
      2       5.8082      1.98247
      3       5.8082      1.98247
      4       5.8082      1.98247
      5       8.3964      0.00000
      6       8.3964      0.00000
      7       8.3964      0.00000
      8       9.1680      0.00000

 k-point    21 :       0.0000    0.0000    0.0000
  band No.  band energies     occupation 
      1      -6.1446      2.00000
      2       5.8082      1.98247
      3       5.8082      1.98247
      4       5.8082      1.98247
      5       8.3964      0.00000
      6       8.3964      0.00000
      7       8.3964      0.00000
      8       9.1680      0.00000

 k-point    22 :       0.0263    0.0000    0.0263
  band No.  band energies     occupation 
      1      -6.1324      2.00000
      2       5.7271      1.99681
      3       5.7578      1.99370
      4       5.7578      1.99370
      5       8.3663      0.00000
      6       8.4632      0.00000
      7       8.4632      0.00000
      8       9.2486      0.00000

 k-point    23 :       0.0526    0.0000    0.0526
  band No.  band energies     occupation 
      1      -6.0961      2.00000
      2       5.5017      1.99999
      3       5.6175      1.99980
      4       5.6175      1.99980
      5       8.2794      0.00000
      6       8.6482      0.00000
      7       8.6483      0.00000
      8       9.4643      0.00000

 k-point    24 :       0.0789    0.0000    0.0789
  band No.  band energies     occupation 
      1      -6.0355      2.00000
      2       5.1769      2.00000
      3       5.4185      2.00000
      4       5.4185      2.00000
      5       8.1463      0.00000
      6       8.9217      0.00000
      7       8.9217      0.00000
      8       9.7566      0.00000

 k-point    25 :       0.1053    0.0000    0.1053
  band No.  band energies     occupation 
      1      -5.9510      2.00000
      2       4.7903      2.00000
      3       5.1880      2.00000
      4       5.1880      2.00000
      5       7.9802      0.00000
      6       9.2555      0.00000
      7       9.2555      0.00000
      8      10.0494      0.00000

 k-point    26 :       0.1316    0.0000    0.1316
  band No.  band energies     occupation 
      1      -5.8424      2.00000
      2       4.3678      2.00000
      3       4.9449      2.00000
      4       4.9449      2.00000
      5       7.7941      0.00000
      6       9.6309      0.00000
      7       9.6310      0.00000
      8      10.2347      0.00000

 k-point    27 :       0.1579    0.0000    0.1579
  band No.  band energies     occupation 
      1      -5.7102      2.00000
      2       3.9228      2.00000
      3       4.6992      2.00000
      4       4.6993      2.00000
      5       7.5985      0.00000
      6      10.0343      0.00000
      7      10.0343      0.00000
      8      10.1943      0.00000

 k-point    28 :       0.1842    0.0000    0.1842
  band No.  band energies     occupation 
      1      -5.5543      2.00000
      2       3.4647      2.00000
      3       4.4616      2.00000
      4       4.4617      2.00000
      5       7.4037      0.00000
      6       9.9369      0.00000
      7      10.4597      0.00000
      8      10.4597      0.00000

 k-point    29 :       0.2105    0.0000    0.2105
  band No.  band energies     occupation 
      1      -5.3751      2.00000
      2       2.9993      2.00000
      3       4.2353      2.00000
      4       4.2353      2.00000
      5       7.2156      0.00000
      6       9.5712      0.00000
      7      10.9011      0.00000
      8      10.9012      0.00000

 k-point    30 :       0.2368    0.0000    0.2368
  band No.  band energies     occupation 
      1      -5.1730      2.00000
      2       2.5292      2.00000
      3       4.0231      2.00000
      4       4.0231      2.00000
      5       7.0397      0.00000
      6       9.1721      0.00000
      7      11.3550      0.00000
      8      11.3550      0.00000

 k-point    31 :       0.2632    0.0000    0.2632
  band No.  band energies     occupation 
      1      -4.9481      2.00000
      2       2.0569      2.00000
      3       3.8273      2.00000
      4       3.8274      2.00000
      5       6.8806      0.00000
      6       8.7754      0.00000
      7      11.8218      0.00000
      8      11.8218      0.00000

 k-point    32 :       0.2895    0.0000    0.2895
  band No.  band energies     occupation 
      1      -4.7012      2.00000
      2       1.5843      2.00000
      3       3.6495      2.00000
      4       3.6495      2.00000
      5       6.7401      0.00003
      6       8.3972      0.00000
      7      12.2938      0.00000
      8      12.2939      0.00000

 k-point    33 :       0.3158    0.0000    0.3158
[...]


--------------------------------------------------------------------------------------------------------



 plasma frequency squared (from intraband transitions)
  --------------------------------------------------------------------------------------
       0.120       0.000      -0.000
       0.000       0.120      -0.000
      -0.000      -0.000       0.120

 electrical conductivity sigma (Mega S m-1) (frequency dependency in vasprun.xml)
  --------------------------------------------------------------------------------------
       0.000       0.000       0.000
       0.000       0.000       0.000
       0.000       0.000       0.000

 plasma frequency squared (from intraband transitions)
  --------------------------------------------------------------------------------------


 plasma frequency squared (from interband transitions, int dw w eps(2)(w)
  --------------------------------------------------------------------------------------
     396.986      -0.000       0.000
      -0.000     396.986       0.000
       0.000       0.000     396.986
  --------------------------------------------------------------------------------------
 plasma frequency squared  (valence only):     275.596

  frequency dependent IMAGINARY DIELECTRIC FUNCTION (independent particle, no local field effects)
     E(ev)      X         Y         Z        XY        YZ        ZX
  --------------------------------------------------------------------------------------
    0.000000    0.000000    0.000000    0.000000    0.000000    0.000000    0.000000
    0.265183    0.929714    0.929714    0.929714   -0.000000    0.000000    0.000000
    0.530367    0.576488    0.576488    0.576488   -0.000000    0.000000    0.000000
    0.795550    0.754169    0.754169    0.754169   -0.000000    0.000000    0.000000
    1.060734    1.114818    1.114818    1.114818   -0.000000    0.000000    0.000000
    1.325917    1.677350    1.677350    1.677350   -0.000000   -0.000000    0.000000
    1.591101    2.639866    2.639866    2.639866   -0.000000   -0.000000    0.000000
    1.856284    4.611085    4.611085    4.611085   -0.000000   -0.000000    0.000000
    2.121468   10.507154   10.507154   10.507154    0.000000   -0.000000    0.000000
    2.386651   41.726319   41.726319   41.726319    0.000000   -0.000000    0.000000
    2.651835  122.460749  122.460749  122.460749    0.000000   -0.000000    0.000000
    2.917018  114.938008  114.938008  114.938008   -0.000000    0.000000    0.000000
    3.182201   72.123123   72.123123   72.123123   -0.000000    0.000000    0.000000
    3.447385   69.369271   69.369271   69.369271   -0.000000    0.000000    0.000000
    3.712568   64.138094   64.138094   64.138094   -0.000000    0.000000   -0.000000
    3.977752   38.921615   38.921615   38.921615   -0.000000    0.000000   -0.000000
    4.242935   26.911462   26.911462   26.911462   -0.000000    0.000000   -0.000000
    4.508119   28.614823   28.614823   28.614823   -0.000000   -0.000000   -0.000000
    4.773302   17.859182   17.859182   17.859182    0.000000   -0.000000   -0.000000
    5.038486    9.422314    9.422314    9.422314    0.000000   -0.000000    0.000000
    5.303669    7.556670    7.556670    7.556670    0.000000   -0.000000    0.000000
    5.568853    5.504132    5.504132    5.504132   -0.000000    0.000000    0.000000
    5.834036    3.340641    3.340641    3.340641   -0.000000    0.000000    0.000000
    6.099220    2.711120    2.711120    2.711120   -0.000000    0.000000    0.000000
    6.364403    2.336942    2.336942    2.336942   -0.000000    0.000000    0.000000
    6.629586    1.943726    1.943726    1.943726   -0.000000    0.000000   -0.000000
    6.894770    1.761666    1.761666    1.761666   -0.000000    0.000000   -0.000000
    7.159953    1.445233    1.445233    1.445233   -0.000000   -0.000000   -0.000000
    7.425137    1.272157    1.272157    1.272157    0.000000   -0.000000   -0.000000
    7.690320    1.154033    1.154033    1.154033   -0.000000   -0.000000    0.000000
    7.955504    1.133760    1.133760    1.133760   -0.000000   -0.000000    0.000000
    8.220687    0.978696    0.978696    0.978696   -0.000000   -0.000000   -0.000000
    8.485871    1.074255    1.074255    1.074255   -0.000000    0.000000   -0.000000
    8.751054    0.989956    0.989956    0.989956   -0.000000    0.000000   -0.000000
    9.016238    0.751189    0.751189    0.751189    0.000000   -0.000000    0.000000
    9.281421    0.696556    0.696556    0.696556   -0.000000   -0.000000   -0.000000
    9.546604    0.611162    0.611162    0.611162   -0.000000   -0.000000   -0.000000
    9.811788    0.494245    0.494245    0.494245   -0.000000    0.000000   -0.000000
   10.076971    0.471293    0.471293    0.471293   -0.000000    0.000000   -0.000000
   10.342155    0.427878    0.427878    0.427878   -0.000000    0.000000   -0.000000
   10.607338    0.382560    0.382560    0.382560   -0.000000    0.000000   -0.000000
   10.872522    0.314643    0.314643    0.314643   -0.000000    0.000000   -0.000000
   11.137705    0.322664    0.322664    0.322664   -0.000000   -0.000000   -0.000000
   11.402889    0.313332    0.313332    0.313332    0.000000   -0.000000    0.000000
   11.668072    0.292419    0.292419    0.292419   -0.000000    0.000000   -0.000000
   11.933256    0.240884    0.240884    0.240884   -0.000000   -0.000000   -0.000000
   12.198439    0.223562    0.223562    0.223562    0.000000    0.000000    0.000000
   12.463623    0.188104    0.188104    0.188104    0.000000   -0.000000    0.000000
   12.728806    0.195462    0.195462    0.195462   -0.000000   -0.000000    0.000000
   12.993989    0.182729    0.182729    0.182729   -0.000000    0.000000    0.000000
   13.259173    0.136385    0.136385    0.136385   -0.000000   -0.000000    0.000000
   13.524356    0.115701    0.115701    0.115701   -0.000000    0.000000   -0.000000
   13.789540    0.104457    0.104457    0.104457   -0.000000    0.000000    0.000000
   14.054723    0.105570    0.105570    0.105570   -0.000000    0.000000    0.000000
   14.319907    0.163863    0.163863    0.163863    0.000000    0.000000    0.000000
   14.585090    0.265294    0.265294    0.265294   -0.000000    0.000000   -0.000000
   14.850274    0.181796    0.181796    0.181796   -0.000000   -0.000000    0.000000
   15.115457    0.098118    0.098118    0.098118   -0.000000    0.000000    0.000000
   15.380641    0.066123    0.066123    0.066123   -0.000000    0.000000   -0.000000
   15.645824    0.050699    0.050699    0.050699   -0.000000   -0.000000    0.000000
   15.911007    0.044834    0.044834    0.044834   -0.000000    0.000000    0.000000
   16.176191    0.042639    0.042639    0.042639   -0.000000    0.000000   -0.000000
   16.441374    0.038276    0.038276    0.038276   -0.000000   -0.000000    0.000000
   16.706558    0.032122    0.032122    0.032122   -0.000000    0.000000    0.000000
   16.971741    0.028703    0.028703    0.028703   -0.000000    0.000000   -0.000000
   17.236925    0.027598    0.027598    0.027598   -0.000000    0.000000    0.000000
   17.502108    0.024935    0.024935    0.024935   -0.000000    0.000000    0.000000
   17.767292    0.022555    0.022555    0.022555   -0.000000    0.000000    0.000000
   18.032475    0.019721    0.019721    0.019721   -0.000000    0.000000    0.000000
   18.297659    0.016621    0.016621    0.016621   -0.000000    0.000000    0.000000
   18.562842    0.015003    0.015003    0.015003   -0.000000    0.000000    0.000000
   18.828026    0.013936    0.013936    0.013936   -0.000000    0.000000    0.000000
   19.093209    0.013169    0.013169    0.013169   -0.000000    0.000000    0.000000
   19.358392    0.012517    0.012517    0.012517   -0.000000    0.000000    0.000000
   19.623576    0.011929    0.011929    0.011929   -0.000000    0.000000    0.000000
   19.888759    0.011387    0.011387    0.011387   -0.000000    0.000000    0.000000
   20.153943    0.010884    0.010884    0.010884   -0.000000    0.000000    0.000000
   20.419126    0.010415    0.010415    0.010415   -0.000000    0.000000    0.000000
   20.684310    0.009975    0.009975    0.009975   -0.000000    0.000000    0.000000
   20.949493    0.009563    0.009563    0.009563   -0.000000    0.000000    0.000000
   21.214677    0.009175    0.009175    0.009175   -0.000000    0.000000    0.000000
   21.479860    0.008809    0.008809    0.008809   -0.000000    0.000000    0.000000
   21.745044    0.008464    0.008464    0.008464   -0.000000    0.000000    0.000000
   22.010227    0.008137    0.008137    0.008137   -0.000000    0.000000    0.000000
   22.275410    0.007828    0.007828    0.007828   -0.000000    0.000000    0.000000
   22.540594    0.007535    0.007535    0.007535   -0.000000    0.000000    0.000000
   22.805777    0.007257    0.007257    0.007257   -0.000000    0.000000    0.000000
   23.070961    0.006993    0.006993    0.006993   -0.000000    0.000000    0.000000
   23.336144    0.006742    0.006742    0.006742   -0.000000    0.000000    0.000000
   23.601328    0.006504    0.006504    0.006504   -0.000000    0.000000    0.000000
   23.866511    0.006277    0.006277    0.006277   -0.000000    0.000000    0.000000
   24.131695    0.006060    0.006060    0.006060   -0.000000    0.000000    0.000000
   24.396878    0.005854    0.005854    0.005854   -0.000000    0.000000    0.000000
   24.662062    0.005657    0.005657    0.005657   -0.000000    0.000000    0.000000
   24.927245    0.005469    0.005469    0.005469   -0.000000    0.000000    0.000000
   25.192429    0.005290    0.005290    0.005290   -0.000000    0.000000    0.000000
   25.457612    0.005118    0.005118    0.005118   -0.000000    0.000000    0.000000
   25.722795    0.004954    0.004954    0.004954   -0.000000    0.000000    0.000000
   25.987979    0.004797    0.004797    0.004797   -0.000000    0.000000    0.000000
   26.253162    0.004647    0.004647    0.004647   -0.000000    0.000000    0.000000

  frequency dependent      REAL DIELECTRIC FUNCTION (independent particle, no local field effects)
     E(ev)      X         Y         Z        XY        YZ        ZX
  --------------------------------------------------------------------------------------
    0.000000   37.912702   37.912702   37.912702   -0.000000    0.000000    0.000000
    0.265183   36.948287   36.948287   36.948287   -0.000000    0.000000    0.000000
    0.530367   37.643924   37.643924   37.643924   -0.000000    0.000000    0.000000
    0.795550   39.267846   39.267846   39.267846   -0.000000    0.000000    0.000000
    1.060734   41.683194   41.683194   41.683194   -0.000000    0.000000    0.000000
    1.325917   45.290388   45.290388   45.290388   -0.000000    0.000000    0.000000
    1.591101   50.811421   50.811421   50.811421   -0.000000    0.000000    0.000000
    1.856284   59.850324   59.850324   59.850324   -0.000000    0.000000    0.000000
    2.121468   76.836345   76.836345   76.836345   -0.000000    0.000000    0.000000
    2.386651  106.763673  106.763673  106.763673   -0.000000   -0.000000    0.000000
    2.651835   82.634457   82.634457   82.634457   -0.000000    0.000000    0.000000
    2.917018   -7.023725   -7.023725   -7.023725   -0.000000    0.000000   -0.000000
    3.182201  -14.604422  -14.604422  -14.604422   -0.000000   -0.000000    0.000000
    3.447385  -14.102059  -14.102059  -14.102059   -0.000000   -0.000000   -0.000000
    3.712568  -32.881720  -32.881720  -32.881720   -0.000000    0.000000   -0.000000
    3.977752  -40.327859  -40.327859  -40.327859    0.000000   -0.000000    0.000000
    4.242935  -29.688832  -29.688832  -29.688832    0.000000   -0.000000   -0.000000
    4.508119  -28.678381  -28.678381  -28.678381    0.000000   -0.000000   -0.000000
    4.773302  -33.702919  -33.702919  -33.702919    0.000000    0.000000    0.000000
    5.038486  -26.903021  -26.903021  -26.903021    0.000000    0.000000   -0.000000
    5.303669  -22.174668  -22.174668  -22.174668    0.000000    0.000000   -0.000000
    5.568853  -19.925656  -19.925656  -19.925656    0.000000   -0.000000   -0.000000
    5.834036  -16.978463  -16.978463  -16.978463    0.000000   -0.000000   -0.000000
    6.099220  -14.186699  -14.186699  -14.186699    0.000000   -0.000000   -0.000000
    6.364403  -12.538188  -12.538188  -12.538188    0.000000   -0.000000   -0.000000
    6.629586  -11.002969  -11.002969  -11.002969    0.000000   -0.000000   -0.000000
    6.894770   -9.828706   -9.828706   -9.828706    0.000000   -0.000000   -0.000000
    7.159953   -8.883435   -8.883435   -8.883435    0.000000   -0.000000   -0.000000
    7.425137   -7.925950   -7.925950   -7.925950    0.000000   -0.000000   -0.000000
    7.690320   -7.130272   -7.130272   -7.130272    0.000000   -0.000000   -0.000000
    7.955504   -6.546398   -6.546398   -6.546398    0.000000   -0.000000   -0.000000
    8.220687   -5.927516   -5.927516   -5.927516    0.000000   -0.000000   -0.000000
    8.485871   -5.448546   -5.448546   -5.448546    0.000000   -0.000000   -0.000000
    8.751054   -5.222864   -5.222864   -5.222864    0.000000   -0.000000   -0.000000
    9.016238   -4.852892   -4.852892   -4.852892    0.000000   -0.000000   -0.000000
    9.281421   -4.429112   -4.429112   -4.429112    0.000000   -0.000000   -0.000000
    9.546604   -4.172996   -4.172996   -4.172996    0.000000   -0.000000   -0.000000
    9.811788   -3.824805   -3.824805   -3.824805    0.000000   -0.000000   -0.000000
   10.076971   -3.529142   -3.529142   -3.529142    0.000000   -0.000000   -0.000000
   10.342155   -3.288874   -3.288874   -3.288874    0.000000   -0.000000   -0.000000
   10.607338   -3.071524   -3.071524   -3.071524    0.000000   -0.000000   -0.000000
   10.872522   -2.828806   -2.828806   -2.828806    0.000000   -0.000000   -0.000000
   11.137705   -2.612393   -2.612393   -2.612393    0.000000   -0.000000   -0.000000
   11.402889   -2.445539   -2.445539   -2.445539    0.000000   -0.000000   -0.000000
   11.668072   -2.307185   -2.307185   -2.307185    0.000000   -0.000000   -0.000000
   11.933256   -2.154444   -2.154444   -2.154444    0.000000   -0.000000   -0.000000
   12.198439   -2.006491   -2.006491   -2.006491    0.000000   -0.000000   -0.000000
   12.463623   -1.858546   -1.858546   -1.858546    0.000000   -0.000000   -0.000000
   12.728806   -1.723964   -1.723964   -1.723964    0.000000   -0.000000   -0.000000
   12.993989   -1.633811   -1.633811   -1.633811    0.000000   -0.000000   -0.000000
   13.259173   -1.522425   -1.522425   -1.522425    0.000000   -0.000000   -0.000000
   13.524356   -1.395939   -1.395939   -1.395939    0.000000   -0.000000   -0.000000
   13.789540   -1.276423   -1.276423   -1.276423    0.000000   -0.000000   -0.000000
   14.054723   -1.150571   -1.150571   -1.150571    0.000000   -0.000000   -0.000000
   14.319907   -1.021866   -1.021866   -1.021866    0.000000   -0.000000   -0.000000
   14.585090   -1.032726   -1.032726   -1.032726    0.000000   -0.000000   -0.000000
   14.850274   -1.073237   -1.073237   -1.073237    0.000000   -0.000000   -0.000000
   15.115457   -0.987074   -0.987074   -0.987074    0.000000   -0.000000   -0.000000
   15.380641   -0.892863   -0.892863   -0.892863    0.000000   -0.000000   -0.000000
   15.645824   -0.807865   -0.807865   -0.807865    0.000000   -0.000000   -0.000000
   15.911007   -0.731891   -0.731891   -0.731891    0.000000   -0.000000   -0.000000
   16.176191   -0.665974   -0.665974   -0.665974    0.000000   -0.000000   -0.000000
   16.441374   -0.608446   -0.608446   -0.608446    0.000000   -0.000000   -0.000000
   16.706558   -0.550946   -0.550946   -0.550946    0.000000   -0.000000   -0.000000
   16.971741   -0.495728   -0.495728   -0.495728    0.000000   -0.000000   -0.000000
   17.236925   -0.444911   -0.444911   -0.444911    0.000000   -0.000000   -0.000000
   17.502108   -0.398319   -0.398319   -0.398319    0.000000   -0.000000   -0.000000
   17.767292   -0.353261   -0.353261   -0.353261    0.000000   -0.000000   -0.000000
   18.032475   -0.310954   -0.310954   -0.310954    0.000000   -0.000000   -0.000000
   18.297659   -0.269243   -0.269243   -0.269243    0.000000   -0.000000   -0.000000
   18.562842   -0.229131   -0.229131   -0.229131    0.000000   -0.000000   -0.000000
   18.828026   -0.191259   -0.191259   -0.191259    0.000000   -0.000000   -0.000000
   19.093209   -0.155398   -0.155398   -0.155398    0.000000   -0.000000   -0.000000
   19.358392   -0.121366   -0.121366   -0.121366    0.000000   -0.000000   -0.000000
   19.623576   -0.088972   -0.088972   -0.088972    0.000000   -0.000000   -0.000000
   19.888759   -0.058072   -0.058072   -0.058072    0.000000   -0.000000   -0.000000
   20.153943   -0.028555   -0.028555   -0.028555    0.000000   -0.000000   -0.000000
   20.419126   -0.000326   -0.000326   -0.000326    0.000000   -0.000000   -0.000000
   20.684310    0.026699    0.026699    0.026699    0.000000   -0.000000   -0.000000
   20.949493    0.052597    0.052597    0.052597    0.000000   -0.000000   -0.000000
   21.214677    0.077434    0.077434    0.077434    0.000000   -0.000000   -0.000000
   21.479860    0.101271    0.101271    0.101271    0.000000   -0.000000   -0.000000
   21.745044    0.124166    0.124166    0.124166    0.000000   -0.000000   -0.000000
   22.010227    0.146171    0.146171    0.146171    0.000000   -0.000000   -0.000000
   22.275410    0.167333    0.167333    0.167333    0.000000   -0.000000   -0.000000
   22.540594    0.187697    0.187697    0.187697    0.000000   -0.000000   -0.000000
   22.805777    0.207304    0.207304    0.207304    0.000000   -0.000000   -0.000000
   23.070961    0.226194    0.226194    0.226194    0.000000   -0.000000   -0.000000
   23.336144    0.244402    0.244402    0.244402    0.000000   -0.000000   -0.000000
   23.601328    0.261960    0.261960    0.261960    0.000000   -0.000000   -0.000000
   23.866511    0.278902    0.278902    0.278902    0.000000   -0.000000   -0.000000
   24.131695    0.295255    0.295255    0.295255    0.000000   -0.000000   -0.000000
   24.396878    0.311050    0.311050    0.311050    0.000000   -0.000000   -0.000000
   24.662062    0.326309    0.326309    0.326309    0.000000   -0.000000   -0.000000
   24.927245    0.341059    0.341059    0.341059    0.000000   -0.000000   -0.000000
   25.192429    0.355322    0.355322    0.355322    0.000000   -0.000000   -0.000000
   25.457612    0.369119    0.369119    0.369119    0.000000   -0.000000   -0.000000
   25.722795    0.382472    0.382472    0.382472    0.000000   -0.000000   -0.000000
   25.987979    0.395400    0.395400    0.395400    0.000000   -0.000000   -0.000000
   26.253162    0.407921    0.407921    0.407921    0.000000   -0.000000   -0.000000
 
 The outermost node in the dielectric function lies at epsilon=  20.4


--------------------------------------------------------------------------------------------------------


    OPTICS:  cpu time    0.57: real time    0.57
    4ORBIT:  cpu time    0.00: real time    0.00

 total amount of memory used by VASP on root node    38416. kBytes
========================================================================

   base      :      30000. kBytes
   nonl-proj :       1839. kBytes
   grid      :       2752. kBytes
   one-center:          6. kBytes
   wavefun   :       3819. kBytes
 
  
  
 General timing and accounting informations for this job:
 ========================================================
  
                  Total CPU time used (sec):      208.523
                            User time (sec):       95.271
                          System time (sec):      113.252
                         Elapsed time (sec):      212.317
  
                   Maximum memory used (kb):      577436.
                   Average memory used (kb):           0.
  
                          Minor page faults:        20533
                          Major page faults:           21
                 Voluntary context switches:        11392
