<?xml version="1.0" encoding="ISO-8859-1"?>
<modeling>
 <generator>
  <i name="program" type="string">vasp </i>
  <i name="version" type="string">5.3.5  </i>
  <i name="subversion" type="string">31Mar14 (build Dec 14 2018 19:18:10) complex                          serial </i>
  <i name="platform" type="string">LinuxIFC </i>
  <i name="date" type="string">2022 11 15 </i>
  <i name="time" type="string">23:15:53 </i>
 </generator>
 <incar>
  <i type="string" name="SYSTEM"> Si</i>
  <i type="string" name="PREC">normal</i>
  <i type="int" name="ICHARG">    11</i>
  <i type="int" name="ISMEAR">     0</i>
  <i type="logical" name="LCHARG"> F  </i>
  <i type="logical" name="LOPTICS"> T  </i>
  <i type="logical" name="LSCALAPACK"> F  </i>
 </incar>
 <kpoints>
  <generation param="listgenerated">
   <i name="divisions" type="int">      20 </i>
   <v>       0.50000000       0.50000000       0.50000000 </v>
   <v>       0.00000000       0.00000000       0.00000000 </v>
   <v>       0.50000000       0.00000000       0.50000000 </v>
   <v>       0.37500000       0.37500000       0.75000000 </v>
   <v>       0.00000000       0.00000000       0.00000000 </v>
  </generation>
  <varray name="kpointlist" >
   <v>       0.50000000       0.50000000       0.50000000 </v>
   <v>       0.47368421       0.47368421       0.47368421 </v>
   <v>       0.44736842       0.44736842       0.44736842 </v>
   <v>       0.42105263       0.42105263       0.42105263 </v>
   <v>       0.39473684       0.39473684       0.39473684 </v>
   <v>       0.36842105       0.36842105       0.36842105 </v>
   <v>       0.34210526       0.34210526       0.34210526 </v>
   <v>       0.31578947       0.31578947       0.31578947 </v>
   <v>       0.28947368       0.28947368       0.28947368 </v>
   <v>       0.26315789       0.26315789       0.26315789 </v>
   <v>       0.23684211       0.23684211       0.23684211 </v>
   <v>       0.21052632       0.21052632       0.21052632 </v>
   <v>       0.18421053       0.18421053       0.18421053 </v>
   <v>       0.15789474       0.15789474       0.15789474 </v>
   <v>       0.13157895       0.13157895       0.13157895 </v>
   <v>       0.10526316       0.10526316       0.10526316 </v>
   <v>       0.07894737       0.07894737       0.07894737 </v>
   <v>       0.05263158       0.05263158       0.05263158 </v>
   <v>       0.02631579       0.02631579       0.02631579 </v>
   <v>       0.00000000       0.00000000       0.00000000 </v>
   <v>       0.00000000       0.00000000       0.00000000 </v>
   <v>       0.02631579       0.00000000       0.02631579 </v>
   <v>       0.05263158       0.00000000       0.05263158 </v>
   <v>       0.07894737       0.00000000       0.07894737 </v>
   <v>       0.10526316       0.00000000       0.10526316 </v>
   <v>       0.13157895       0.00000000       0.13157895 </v>
   <v>       0.15789474       0.00000000       0.15789474 </v>
   <v>       0.18421053       0.00000000       0.18421053 </v>
   <v>       0.21052632       0.00000000       0.21052632 </v>
   <v>       0.23684211       0.00000000       0.23684211 </v>
   <v>       0.26315789       0.00000000       0.26315789 </v>
   <v>       0.28947368       0.00000000       0.28947368 </v>
   <v>       0.31578947       0.00000000       0.31578947 </v>
   <v>       0.34210526       0.00000000       0.34210526 </v>
   <v>       0.36842105       0.00000000       0.36842105 </v>
   <v>       0.39473684       0.00000000       0.39473684 </v>
   <v>       0.42105263       0.00000000       0.42105263 </v>
   <v>       0.44736842       0.00000000       0.44736842 </v>
   <v>       0.47368421       0.00000000       0.47368421 </v>
   <v>       0.50000000       0.00000000       0.50000000 </v>
   <v>       0.50000000       0.00000000       0.50000000 </v>
   <v>       0.49342105       0.01973684       0.51315789 </v>
   <v>       0.48684211       0.03947368       0.52631579 </v>
   <v>       0.48026316       0.05921053       0.53947368 </v>
   <v>       0.47368421       0.07894737       0.55263158 </v>
   <v>       0.46710526       0.09868421       0.56578947 </v>
   <v>       0.46052632       0.11842105       0.57894737 </v>
   <v>       0.45394737       0.13815789       0.59210526 </v>
   <v>       0.44736842       0.15789474       0.60526316 </v>
   <v>       0.44078947       0.17763158       0.61842105 </v>
   <v>       0.43421053       0.19736842       0.63157895 </v>
   <v>       0.42763158       0.21710526       0.64473684 </v>
   <v>       0.42105263       0.23684211       0.65789474 </v>
   <v>       0.41447368       0.25657895       0.67105263 </v>
   <v>       0.40789474       0.27631579       0.68421053 </v>
   <v>       0.40131579       0.29605263       0.69736842 </v>
   <v>       0.39473684       0.31578947       0.71052632 </v>
   <v>       0.38815789       0.33552632       0.72368421 </v>
   <v>       0.38157895       0.35526316       0.73684211 </v>
   <v>       0.37500000       0.37500000       0.75000000 </v>
   <v>       0.37500000       0.37500000       0.75000000 </v>
   <v>       0.35526316       0.35526316       0.71052632 </v>
   <v>       0.33552632       0.33552632       0.67105263 </v>
   <v>       0.31578947       0.31578947       0.63157895 </v>
   <v>       0.29605263       0.29605263       0.59210526 </v>
   <v>       0.27631579       0.27631579       0.55263158 </v>
   <v>       0.25657895       0.25657895       0.51315789 </v>
   <v>       0.23684211       0.23684211       0.47368421 </v>
   <v>       0.21710526       0.21710526       0.43421053 </v>
   <v>       0.19736842       0.19736842       0.39473684 </v>
   <v>       0.17763158       0.17763158       0.35526316 </v>
   <v>       0.15789474       0.15789474       0.31578947 </v>
   <v>       0.13815789       0.13815789       0.27631579 </v>
   <v>       0.11842105       0.11842105       0.23684211 </v>
   <v>       0.09868421       0.09868421       0.19736842 </v>
   <v>       0.07894737       0.07894737       0.15789474 </v>
   <v>       0.05921053       0.05921053       0.11842105 </v>
   <v>       0.03947368       0.03947368       0.07894737 </v>
   <v>       0.01973684       0.01973684       0.03947368 </v>
   <v>       0.00000000       0.00000000       0.00000000 </v>
  </varray>
  <varray name="weights" >
   <v>       0.01250000 </v>
   <v>       0.01250000 </v>
   <v>       0.01250000 </v>
   <v>       0.01250000 </v>
   <v>       0.01250000 </v>
   <v>       0.01250000 </v>
   <v>       0.01250000 </v>
   <v>       0.01250000 </v>
   <v>       0.01250000 </v>
   <v>       0.01250000 </v>
   <v>       0.01250000 </v>
   <v>       0.01250000 </v>
   <v>       0.01250000 </v>
   <v>       0.01250000 </v>
   <v>       0.01250000 </v>
   <v>       0.01250000 </v>
   <v>       0.01250000 </v>
   <v>       0.01250000 </v>
   <v>       0.01250000 </v>
   <v>       0.01250000 </v>
   <v>       0.01250000 </v>
   <v>       0.01250000 </v>
   <v>       0.01250000 </v>
   <v>       0.01250000 </v>
   <v>       0.01250000 </v>
   <v>       0.01250000 </v>
   <v>       0.01250000 </v>
   <v>       0.01250000 </v>
   <v>       0.01250000 </v>
   <v>       0.01250000 </v>
   <v>       0.01250000 </v>
   <v>       0.01250000 </v>
   <v>       0.01250000 </v>
   <v>       0.01250000 </v>
   <v>       0.01250000 </v>
   <v>       0.01250000 </v>
   <v>       0.01250000 </v>
   <v>       0.01250000 </v>
   <v>       0.01250000 </v>
   <v>       0.01250000 </v>
   <v>       0.01250000 </v>
   <v>       0.01250000 </v>
   <v>       0.01250000 </v>
   <v>       0.01250000 </v>
   <v>       0.01250000 </v>
   <v>       0.01250000 </v>
   <v>       0.01250000 </v>
   <v>       0.01250000 </v>
   <v>       0.01250000 </v>
   <v>       0.01250000 </v>
   <v>       0.01250000 </v>
   <v>       0.01250000 </v>
   <v>       0.01250000 </v>
   <v>       0.01250000 </v>
   <v>       0.01250000 </v>
   <v>       0.01250000 </v>
   <v>       0.01250000 </v>
   <v>       0.01250000 </v>
   <v>       0.01250000 </v>
   <v>       0.01250000 </v>
   <v>       0.01250000 </v>
   <v>       0.01250000 </v>
   <v>       0.01250000 </v>
   <v>       0.01250000 </v>
   <v>       0.01250000 </v>
   <v>       0.01250000 </v>
   <v>       0.01250000 </v>
   <v>       0.01250000 </v>
   <v>       0.01250000 </v>
   <v>       0.01250000 </v>
   <v>       0.01250000 </v>
   <v>       0.01250000 </v>
   <v>       0.01250000 </v>
   <v>       0.01250000 </v>
   <v>       0.01250000 </v>
   <v>       0.01250000 </v>
   <v>       0.01250000 </v>
   <v>       0.01250000 </v>
   <v>       0.01250000 </v>
   <v>       0.01250000 </v>
  </varray>
 </kpoints>
 <parameters>
  <separator name="general" >
   <i type="string" name="SYSTEM">Si</i>
   <i type="logical" name="LCOMPAT"> F  </i>
  </separator>
  <separator name="electronic" >
   <i type="string" name="PREC">normal</i>
   <i name="ENMAX">    245.43500000</i>
   <i name="ENAUG">    322.06900000</i>
   <i name="EDIFF">      0.00010000</i>
   <i type="int" name="IALGO">    38</i>
   <i type="int" name="IWAVPR">     0</i>
   <i type="int" name="NBANDS">     8</i>
   <i name="NELECT">      8.00000000</i>
   <i type="int" name="TURBO">     0</i>
   <i type="int" name="IRESTART">     0</i>
   <i type="int" name="NREBOOT">     0</i>
   <i type="int" name="NMIN">     0</i>
   <i name="EREF">      0.00000000</i>
   <separator name="electronic smearing" >
    <i type="int" name="ISMEAR">     0</i>
    <i name="SIGMA">      0.20000000</i>
    <i name="KSPACING">      0.50000000</i>
    <i type="logical" name="KGAMMA"> T  </i>
   </separator>
   <separator name="electronic projectors" >
    <i type="logical" name="LREAL"> F  </i>
    <v name="ROPT">      0.00000000</v>
    <i type="int" name="LMAXPAW">  -100</i>
    <i type="int" name="LMAXMIX">     2</i>
    <i type="logical" name="NLSPLINE"> F  </i>
   </separator>
   <separator name="electronic startup" >
    <i type="int" name="ISTART">     0</i>
    <i type="int" name="ICHARG">    11</i>
    <i type="int" name="INIWAV">     1</i>
   </separator>
   <separator name="electronic spin" >
    <i type="int" name="ISPIN">     1</i>
    <i type="logical" name="LNONCOLLINEAR"> F  </i>
    <v name="MAGMOM">      1.00000000      1.00000000</v>
    <i name="NUPDOWN">     -1.00000000</i>
    <i type="logical" name="LSORBIT"> F  </i>
    <v name="SAXIS">      0.00000000      0.00000000      1.00000000</v>
    <i type="logical" name="LSPIRAL"> F  </i>
    <v name="QSPIRAL">      0.00000000      0.00000000      0.00000000</v>
    <i type="logical" name="LZEROZ"> F  </i>
   </separator>
   <separator name="electronic exchange-correlation" >
    <i type="logical" name="LASPH"> F  </i>
    <i type="logical" name="LMETAGGA"> F  </i>
   </separator>
   <separator name="electronic convergence" >
    <i type="int" name="NELM">    60</i>
    <i type="int" name="NELMDL">     0</i>
    <i type="int" name="NELMIN">     2</i>
    <i name="ENINI">    245.43500000</i>
    <separator name="electronic convergence detail" >
     <i type="logical" name="LDIAG"> T  </i>
     <i type="logical" name="LSUBROT"> F  </i>
     <i name="WEIMIN">      0.00000000</i>
     <i name="EBREAK">      0.00000313</i>
     <i name="DEPER">      0.30000000</i>
     <i type="int" name="NRMM">     4</i>
     <i name="TIME">      0.40000000</i>
    </separator>
   </separator>
   <separator name="electronic mixer" >
    <i name="AMIX">      0.40000000</i>
    <i name="BMIX">      1.00000000</i>
    <i name="AMIN">      0.10000000</i>
    <i name="AMIX_MAG">      1.60000000</i>
    <i name="BMIX_MAG">      1.00000000</i>
    <separator name="electronic mixer details" >
     <i type="int" name="IMIX">     4</i>
     <i type="int" name="MAXMIX">   -45</i>
     <i name="WC">    100.00000000</i>
     <i type="int" name="INIMIX">     1</i>
     <i type="int" name="MIXPRE">     1</i>
     <i type="int" name="MREMOVE">     5</i>
    </separator>
   </separator>
   <separator name="electronic dipolcorrection" >
    <i type="logical" name="LDIPOL"> F  </i>
    <i type="logical" name="LMONO"> F  </i>
    <i type="int" name="IDIPOL">     0</i>
    <i name="EPSILON">      1.00000000</i>
    <v name="DIPOL">   -100.00000000   -100.00000000   -100.00000000</v>
    <i name="EFIELD">      0.00000000</i>
   </separator>
  </separator>
  <separator name="grids" >
   <i type="int" name="NGX">    16</i>
   <i type="int" name="NGY">    16</i>
   <i type="int" name="NGZ">    16</i>
   <i type="int" name="NGXF">    32</i>
   <i type="int" name="NGYF">    32</i>
   <i type="int" name="NGZF">    32</i>
   <i type="logical" name="ADDGRID"> F  </i>
  </separator>
  <separator name="ionic" >
   <i type="int" name="NSW">     0</i>
   <i type="int" name="IBRION">    -1</i>
   <i type="int" name="ISIF">     2</i>
   <i name="PSTRESS">      0.00000000</i>
   <i name="EDIFFG">      0.00100000</i>
   <i type="int" name="NFREE">     0</i>
   <i name="POTIM">      0.50000000</i>
   <i name="SMASS">     -3.00000000</i>
   <i name="SCALEE">      1.00000000</i>
  </separator>
  <separator name="ionic md" >
   <i name="TEBEG">      0.00010000</i>
   <i name="TEEND">      0.00010000</i>
   <i type="int" name="NBLOCK">     1</i>
   <i type="int" name="KBLOCK">     1</i>
   <i type="int" name="NPACO">   256</i>
   <i name="APACO">     16.00000000</i>
  </separator>
  <separator name="symmetry" >
   <i type="int" name="ISYM">     2</i>
   <i name="SYMPREC">      0.00001000</i>
  </separator>
  <separator name="dos" >
   <i type="logical" name="LORBIT"> F  </i>
   <v name="RWIGS">     -1.00000000</v>
   <i type="int" name="NEDOS">   301</i>
   <i name="EMIN">     10.00000000</i>
   <i name="EMAX">    -10.00000000</i>
   <i name="EFERMI">      0.00000000</i>
  </separator>
  <separator name="writing" >
   <i type="int" name="NWRITE">     2</i>
   <i type="logical" name="LWAVE"> T  </i>
   <i type="logical" name="LCHARG"> F  </i>
   <i type="logical" name="LPARD"> F  </i>
   <i type="logical" name="LVTOT"> F  </i>
   <i type="logical" name="LVHAR"> F  </i>
   <i type="logical" name="LELF"> F  </i>
   <i type="logical" name="LOPTICS"> T  </i>
   <v name="STM">      0.00000000      0.00000000      0.00000000      0.00000000      0.00000000      0.00000000      0.00000000</v>
  </separator>
  <separator name="performance" >
   <i type="int" name="NPAR">     1</i>
   <i type="int" name="NSIM">     4</i>
   <i type="int" name="NBLK">    -1</i>
   <i type="logical" name="LPLANE"> T  </i>
   <i type="logical" name="LSCALAPACK"> F  </i>
   <i type="logical" name="LSCAAWARE"> F  </i>
   <i type="logical" name="LSCALU"> F  </i>
   <i type="logical" name="LASYNC"> F  </i>
   <i type="logical" name="LORBITALREAL"> F  </i>
  </separator>
  <separator name="miscellaneous" >
   <i type="int" name="IDIOT">     3</i>
   <i type="logical" name="LMUSIC"> F  </i>
   <v name="POMASS">     28.08500000</v>
   <v name="DARWINR">      0.00000000</v>
   <v name="DARWINV">      1.00000000</v>
   <i type="logical" name="LCORR"> T  </i>
  </separator>
  <i type="logical" name="GGA_COMPAT"> T  </i>
  <i type="logical" name="LBERRY"> F  </i>
  <i type="int" name="ICORELEVEL">     0</i>
  <i type="logical" name="LDAU"> F  </i>
  <i type="int" name="I_CONSTRAINED_M">     0</i>
  <separator name="electronic exchange-correlation" >
   <i type="string" name="GGA">--</i>
   <i type="int" name="VOSKOWN">     0</i>
   <i type="logical" name="LHFCALC"> F  </i>
   <i type="string" name="PRECFOCK"></i>
   <i type="logical" name="LSYMGRAD"> F  </i>
   <i type="logical" name="LHFONE"> F  </i>
   <i type="logical" name="LRHFCALC"> F  </i>
   <i type="logical" name="LTHOMAS"> F  </i>
   <i type="logical" name="LMODELHF"> F  </i>
   <i name="ENCUT4O">     -1.00000000</i>
   <i type="int" name="EXXOEP">     0</i>
   <i type="int" name="FOURORBIT">     0</i>
   <i name="AEXX">      0.00000000</i>
   <i name="HFALPHA">      0.00000000</i>
   <i name="MCALPHA">      0.00000000</i>
   <i name="ALDAX">      1.00000000</i>
   <i name="AGGAX">      1.00000000</i>
   <i name="ALDAC">      1.00000000</i>
   <i name="AGGAC">      1.00000000</i>
   <i type="int" name="NKREDX">     1</i>
   <i type="int" name="NKREDY">     1</i>
   <i type="int" name="NKREDZ">     1</i>
   <i type="logical" name="SHIFTRED"> F  </i>
   <i type="logical" name="ODDONLY"> F  </i>
   <i type="logical" name="EVENONLY"> F  </i>
   <i type="int" name="LMAXFOCK">     0</i>
   <i type="int" name="NMAXFOCKAE">     0</i>
   <i type="logical" name="LFOCKAEDFT"> F  </i>
   <i name="HFSCREEN">      0.00000000</i>
   <i name="HFSCREENC">      0.00000000</i>
   <i type="int" name="NBANDSGWLOW">     0</i>
  </separator>
  <separator name="vdW DFT" >
   <i type="logical" name="LUSE_VDW"> F  </i>
   <i name="Zab_VDW">     -0.84910000</i>
   <i name="PARAM1">      0.12340000</i>
   <i name="PARAM2">      1.00000000</i>
   <i name="PARAM3">      0.00000000</i>
  </separator>
  <separator name="model GW" >
   <i type="int" name="MODEL_GW">     0</i>
   <i name="MODEL_EPS0">     12.00772552</i>
   <i name="MODEL_ALPHA">      1.00000000</i>
  </separator>
  <separator name="linear response parameters" >
   <i type="logical" name="LEPSILON"> F  </i>
   <i type="logical" name="LRPA"> F  </i>
   <i type="logical" name="LNABLA"> F  </i>
   <i type="logical" name="LVEL"> F  </i>
   <i type="int" name="KINTER">     0</i>
   <i name="CSHIFT">      0.10000000</i>
   <i name="OMEGAMAX">     -1.00000000</i>
   <i name="DEG_THRESHOLD">      0.00200000</i>
  </separator>
  <separator name="orbital magnetization" >
   <i type="logical" name="NUCIND"> F  </i>
   <v name="MAGPOS">      0.00000000      0.00000000      0.00000000</v>
   <i type="logical" name="LNICSALL"> T  </i>
   <i type="logical" name="ORBITALMAG"> F  </i>
   <i type="logical" name="LMAGBLOCH"> F  </i>
   <i type="logical" name="LCHIMAG"> F  </i>
   <i type="logical" name="LGAUGE"> T  </i>
   <i type="int" name="MAGATOM">     0</i>
   <v name="MAGDIPOL">      0.00000000      0.00000000      0.00000000</v>
   <v name="AVECCONST">      0.00000000      0.00000000      0.00000000</v>
  </separator>
  <separator name="response functions" >
   <i type="logical" name="LADDER"> F  </i>
   <i type="logical" name="LFXC"> F  </i>
   <i type="logical" name="LHARTREE"> T  </i>
   <i type="int" name="IBSE">     0</i>
   <i type="logical" name="LTCTE"> F  </i>
   <i type="logical" name="LTETE"> F  </i>
   <i type="logical" name="LTRIPLET"> F  </i>
   <i type="logical" name="LFXCEPS"> F  </i>
   <i type="logical" name="LFXHEG"> F  </i>
   <i type="logical" name="L2ORDER"> F  </i>
   <i type="logical" name="LUSEW"> F  </i>
   <i name="ENCUTGW">     -2.00000000</i>
   <i name="ENCUTGWSOFT">     -2.00000000</i>
   <i name="ENCUTLF">     -1.00000000</i>
   <i type="int" name="LMAXMP2">    -1</i>
   <i name="SCISSOR">      0.00000000</i>
   <i type="int" name="NOMEGA">     0</i>
   <i type="int" name="NOMEGAR">     0</i>
   <i type="int" name="NBANDSGW">    -1</i>
   <i type="int" name="NBANDSO">    -1</i>
   <i type="int" name="NBANDSV">    -1</i>
   <i type="int" name="NELM">     1</i>
   <i type="int" name="DIM">     3</i>
   <i type="int" name="ANTIRES">     0</i>
   <i name="OMEGAMAX">    -30.00000000</i>
   <i name="OMEGAMIN">    -30.00000000</i>
   <i name="OMEGATL">   -200.00000000</i>
   <i type="int" name="OMEGAGRID">     0</i>
   <i name="CSHIFT">     -0.10000000</i>
   <i type="logical" name="SELFENERGY"> F  </i>
   <i type="logical" name="LSPECTRAL"> F  </i>
   <i type="logical" name="ODDONLYGW"> F  </i>
   <i type="logical" name="EVENONLYGW"> F  </i>
   <i type="int" name="NKREDLFX">     1</i>
   <i type="int" name="NKREDLFY">     1</i>
   <i type="int" name="NKREDLFZ">     1</i>
   <i type="int" name="MAXMEM">  1800</i>
   <i type="int" name="TELESCOPE">     0</i>
   <i type="int" name="TAUPAR">     1</i>
  </separator>
  <separator name="External order field" >
   <i name="OFIELD_KAPPA">      0.00000000</i>
   <v name="OFIELD_K">      0.00000000      0.00000000      0.00000000</v>
   <i name="OFIELD_Q6_NEAR">      0.00000000</i>
   <i name="OFIELD_Q6_FAR">      0.00000000</i>
   <i name="OFIELD_A">      0.00000000</i>
  </separator>
 </parameters>
 <atominfo>
  <atoms>       2 </atoms>
  <types>       1 </types>
  <array name="atoms" >
   <dimension dim="1">ion</dimension>
   <field type="string">element</field>
   <field type="int">atomtype</field>
   <set>
    <rc><c>Si</c><c>   1</c></rc>
    <rc><c>Si</c><c>   1</c></rc>
   </set>
  </array>
  <array name="atomtypes" >
   <dimension dim="1">type</dimension>
   <field type="int">atomspertype</field>
   <field type="string">element</field>
   <field>mass</field>
   <field>valence</field>
   <field type="string">pseudopotential</field>
   <set>
    <rc><c>   2</c><c>Si</c><c>     28.08500000</c><c>      4.00000000</c><c>  PAW Si                                </c></rc>
   </set>
  </array>
 </atominfo>
 <structure name="initialpos" >
  <crystal>
   <varray name="basis" >
    <v>       2.71500000       2.71500000       0.00000000 </v>
    <v>       0.00000000       2.71500000       2.71500000 </v>
    <v>       2.71500000       0.00000000       2.71500000 </v>
   </varray>
   <i name="volume">     40.02575175 </i>
   <varray name="rec_basis" >
    <v>       0.18416206       0.18416206      -0.18416206 </v>
    <v>      -0.18416206       0.18416206       0.18416206 </v>
    <v>       0.18416206      -0.18416206       0.18416206 </v>
   </varray>
  </crystal>
  <varray name="positions" >
   <v>       0.00000000       0.00000000       0.00000000 </v>
   <v>       0.25000000       0.25000000       0.25000000 </v>
  </varray>
 </structure>
 <calculation>
  <scstep>
   <time name="dav">   26.72   26.79</time>
   <time name="total">   26.75   26.82</time>
   <energy>
    <i name="alphaZ">      3.24298762 </i>
    <i name="ewald">   -228.56352493 </i>
    <i name="hartreedc">    -14.99937697 </i>
    <i name="XCdc">    -18.44393402 </i>
    <i name="pawpsdc">     75.49875638 </i>
    <i name="pawaedc">    -40.16779489 </i>
    <i name="eentropy">     -0.01745968 </i>
    <i name="bandstr">     21.45792361 </i>
    <i name="atom">    206.60389906 </i>
    <i name="e_fr_energy">      4.61147618 </i>
    <i name="e_wo_entrp">      4.62893586 </i>
    <i name="e_0_energy">      4.62020602 </i>
   </energy>
  </scstep>
  <scstep>
   <time name="dav">   41.47   41.57</time>
   <time name="total">   41.61   41.72</time>
   <energy>
    <i name="e_fr_energy">     -6.96229978 </i>
    <i name="e_wo_entrp">     -6.95976264 </i>
    <i name="e_0_energy">     -6.96103121 </i>
   </energy>
  </scstep>
  <scstep>
   <time name="dav">   32.54   32.63</time>
   <time name="total">   32.74   32.82</time>
   <energy>
    <i name="e_fr_energy">     -7.10566125 </i>
    <i name="e_wo_entrp">     -7.10329025 </i>
    <i name="e_0_energy">     -7.10447575 </i>
   </energy>
  </scstep>
  <scstep>
   <time name="dav">   40.59   40.71</time>
   <time name="total">   40.76   40.87</time>
   <energy>
    <i name="e_fr_energy">     -7.10613717 </i>
    <i name="e_wo_entrp">     -7.10376819 </i>
    <i name="e_0_energy">     -7.10495268 </i>
   </energy>
  </scstep>
  <scstep>
   <time name="dav">   32.48   32.57</time>
   <time name="total">   32.65   32.73</time>
   <energy>
    <i name="e_fr_energy">     -7.10613785 </i>
    <i name="e_wo_entrp">     -7.10376888 </i>
    <i name="e_0_energy">     -7.10495336 </i>
   </energy>
  </scstep>
  <scstep>
   <time name="dav">   31.33   31.41</time>
   <time name="total">   31.49   31.57</time>
   <energy>
    <i name="alphaZ">      3.24298762 </i>
    <i name="ewald">   -228.56352493 </i>
    <i name="hartreedc">    -14.99937697 </i>
    <i name="XCdc">    -18.44393402 </i>
    <i name="pawpsdc">     75.49875638 </i>
    <i name="pawaedc">    -40.16779489 </i>
    <i name="eentropy">     -0.00236897 </i>
    <i name="bandstr">      9.72521885 </i>
    <i name="atom">    206.60389906 </i>
    <i name="e_fr_energy">     -7.10613786 </i>
    <i name="e_wo_entrp">     -7.10376889 </i>
    <i name="e_0_energy">     -7.10495337 </i>
   </energy>
  </scstep>
  <structure>
   <crystal>
    <varray name="basis" >
     <v>       2.71500000       2.71500000       0.00000000 </v>
     <v>       0.00000000       2.71500000       2.71500000 </v>
     <v>       2.71500000       0.00000000       2.71500000 </v>
    </varray>
    <i name="volume">     40.02575175 </i>
    <varray name="rec_basis" >
     <v>       0.18416206       0.18416206      -0.18416206 </v>
     <v>      -0.18416206       0.18416206       0.18416206 </v>
     <v>       0.18416206      -0.18416206       0.18416206 </v>
    </varray>
   </crystal>
   <varray name="positions" >
    <v>       0.00000000       0.00000000       0.00000000 </v>
    <v>       0.25000000       0.25000000       0.25000000 </v>
   </varray>
  </structure>
  <varray name="forces" >
   <v>      -0.00000000      -0.00000000      -0.00000000 </v>
   <v>       0.00000000       0.00000000       0.00000000 </v>
  </varray>
  <varray name="stress" >
   <v>     157.49764732      -0.00000000      -0.00000000 </v>
   <v>       0.00000000     157.49764732       0.00000000 </v>
   <v>      -0.00000000      -0.00000000     157.49764732 </v>
  </varray>
  <energy>
   <i name="e_fr_energy">     -7.10613786 </i>
   <i name="e_wo_entrp">     -7.10495337 </i>
   <i name="e_0_energy">     -0.00236897 </i>
  </energy>
  <time name="totalsc">  206.40  206.95</time>
  <eigenvalues>
   <array>
    <dimension dim="1">band</dimension>
    <dimension dim="2">kpoint</dimension>
    <dimension dim="3">spin</dimension>
    <field>eigene</field>
    <field>occ</field>
    <set>
     <set comment="spin 1">
      <set comment="kpoint 1">
       <r>   -3.8147    1.0000 </r>
       <r>   -1.1550    1.0000 </r>
       <r>    4.6112    1.0000 </r>
       <r>    4.6112    1.0000 </r>
       <r>    7.3577    0.0000 </r>
       <r>    9.1847    0.0000 </r>
       <r>    9.1847    0.0000 </r>
       <r>   13.5414    0.0000 </r>
      </set>
      <set comment="kpoint 2">
       <r>   -3.8538    1.0000 </r>
       <r>   -1.0987    1.0000 </r>
       <r>    4.6162    1.0000 </r>
       <r>    4.6162    1.0000 </r>
       <r>    7.3635    0.0000 </r>
       <r>    9.1904    0.0000 </r>
       <r>    9.1904    0.0000 </r>
       <r>   13.5503    0.0000 </r>
      </set>
      <set comment="kpoint 3">
       <r>   -3.9627    1.0000 </r>
       <r>   -0.9393    1.0000 </r>
       <r>    4.6304    1.0000 </r>
       <r>    4.6304    1.0000 </r>
       <r>    7.3803    0.0000 </r>
       <r>    9.2062    0.0000 </r>
       <r>    9.2062    0.0000 </r>
       <r>   13.5756    0.0000 </r>
      </set>
      <set comment="kpoint 4">
       <r>   -4.1196    1.0000 </r>
       <r>   -0.6969    1.0000 </r>
       <r>    4.6553    1.0000 </r>
       <r>    4.6553    1.0000 </r>
       <r>    7.4103    0.0000 </r>
       <r>    9.2323    0.0000 </r>
       <r>    9.2323    0.0000 </r>
       <r>   13.6155    0.0000 </r>
      </set>
      <set comment="kpoint 5">
       <r>   -4.3047    1.0000 </r>
       <r>   -0.3927    1.0000 </r>
       <r>    4.6901    1.0000 </r>
       <r>    4.6901    1.0000 </r>
       <r>    7.4500    0.0000 </r>
       <r>    9.2656    0.0000 </r>
       <r>    9.2656    0.0000 </r>
       <r>   13.6624    0.0000 </r>
      </set>
      <set comment="kpoint 6">
       <r>   -4.5026    1.0000 </r>
       <r>   -0.0423    1.0000 </r>
       <r>    4.7346    1.0000 </r>
       <r>    4.7346    1.0000 </r>
       <r>    7.5006    0.0000 </r>
       <r>    9.3022    0.0000 </r>
       <r>    9.3022    0.0000 </r>
       <r>   13.7017    0.0000 </r>
      </set>
      <set comment="kpoint 7">
       <r>   -4.7027    1.0000 </r>
       <r>    0.3448    1.0000 </r>
       <r>    4.7890    1.0000 </r>
       <r>    4.7890    1.0000 </r>
       <r>    7.5620    0.0000 </r>
       <r>    9.3372    0.0000 </r>
       <r>    9.3372    0.0000 </r>
       <r>   13.7044    0.0000 </r>
      </set>
      <set comment="kpoint 8">
       <r>   -4.8988    1.0000 </r>
       <r>    0.7590    1.0000 </r>
       <r>    4.8526    1.0000 </r>
       <r>    4.8526    1.0000 </r>
       <r>    7.6339    0.0000 </r>
       <r>    9.3637    0.0000 </r>
       <r>    9.3637    0.0000 </r>
       <r>   13.6083    0.0000 </r>
      </set>
      <set comment="kpoint 9">
       <r>   -5.0863    1.0000 </r>
       <r>    1.1960    1.0000 </r>
       <r>    4.9252    1.0000 </r>
       <r>    4.9252    1.0000 </r>
       <r>    7.7148    0.0000 </r>
       <r>    9.3738    0.0000 </r>
       <r>    9.3738    0.0000 </r>
       <r>   13.3345    0.0000 </r>
      </set>
      <set comment="kpoint 10">
       <r>   -5.2623    1.0000 </r>
       <r>    1.6521    1.0000 </r>
       <r>    5.0064    1.0000 </r>
       <r>    5.0064    1.0000 </r>
       <r>    7.8042    0.0000 </r>
       <r>    9.3596    0.0000 </r>
       <r>    9.3596    0.0000 </r>
       <r>   12.9363    0.0000 </r>
      </set>
      <set comment="kpoint 11">
       <r>   -5.4249    1.0000 </r>
       <r>    2.1238    1.0000 </r>
       <r>    5.0952    1.0000 </r>
       <r>    5.0952    1.0000 </r>
       <r>    7.9008    0.0000 </r>
       <r>    9.3146    0.0000 </r>
       <r>    9.3146    0.0000 </r>
       <r>   12.5025    0.0000 </r>
      </set>
      <set comment="kpoint 12">
       <r>   -5.5728    1.0000 </r>
       <r>    2.6077    1.0000 </r>
       <r>    5.1908    1.0000 </r>
       <r>    5.1908    1.0000 </r>
       <r>    8.0004    0.0000 </r>
       <r>    9.2368    0.0000 </r>
       <r>    9.2368    0.0000 </r>
       <r>   12.0422    0.0000 </r>
      </set>
      <set comment="kpoint 13">
       <r>   -5.7048    1.0000 </r>
       <r>    3.1006    1.0000 </r>
       <r>    5.2912    1.0000 </r>
       <r>    5.2912    1.0000 </r>
       <r>    8.1042    0.0000 </r>
       <r>    9.1288    0.0000 </r>
       <r>    9.1288    0.0000 </r>
       <r>   11.5719    0.0000 </r>
      </set>
      <set comment="kpoint 14">
       <r>   -5.8202    1.0000 </r>
       <r>    3.5969    1.0000 </r>
       <r>    5.3948    1.0000 </r>
       <r>    5.3948    1.0000 </r>
       <r>    8.2071    0.0000 </r>
       <r>    8.9983    0.0000 </r>
       <r>    8.9983    0.0000 </r>
       <r>   11.0993    0.0000 </r>
      </set>
      <set comment="kpoint 15">
       <r>   -5.9186    1.0000 </r>
       <r>    4.0921    1.0000 </r>
       <r>    5.4967    1.0000 </r>
       <r>    5.4967    1.0000 </r>
       <r>    8.3040    0.0000 </r>
       <r>    8.8563    0.0000 </r>
       <r>    8.8563    0.0000 </r>
       <r>   10.6311    0.0000 </r>
      </set>
      <set comment="kpoint 16">
       <r>   -5.9996    1.0000 </r>
       <r>    4.5733    1.0000 </r>
       <r>    5.5935    1.0000 </r>
       <r>    5.5935    1.0000 </r>
       <r>    8.3861    0.0000 </r>
       <r>    8.7152    0.0000 </r>
       <r>    8.7152    0.0000 </r>
       <r>   10.1800    0.0000 </r>
      </set>
      <set comment="kpoint 17">
       <r>   -6.0629    1.0000 </r>
       <r>    5.0252    1.0000 </r>
       <r>    5.6797    0.9995 </r>
       <r>    5.6797    0.9995 </r>
       <r>    8.4419    0.0000 </r>
       <r>    8.5878    0.0000 </r>
       <r>    8.5878    0.0000 </r>
       <r>    9.7688    0.0000 </r>
      </set>
      <set comment="kpoint 18">
       <r>   -6.1082    1.0000 </r>
       <r>    5.4184    1.0000 </r>
       <r>    5.7486    0.9974 </r>
       <r>    5.7486    0.9974 </r>
       <r>    8.4552    0.0000 </r>
       <r>    8.4858    0.0000 </r>
       <r>    8.4858    0.0000 </r>
       <r>    9.4368    0.0000 </r>
      </set>
      <set comment="kpoint 19">
       <r>   -6.1354    1.0000 </r>
       <r>    5.7023    0.9991 </r>
       <r>    5.7937    0.9934 </r>
       <r>    5.7937    0.9934 </r>
       <r>    8.4196    0.0000 </r>
       <r>    8.4196    0.0000 </r>
       <r>    8.4231    0.0000 </r>
       <r>    9.2324    0.0000 </r>
      </set>
      <set comment="kpoint 20">
       <r>   -6.1446    1.0000 </r>
       <r>    5.8082    0.9912 </r>
       <r>    5.8082    0.9912 </r>
       <r>    5.8082    0.9912 </r>
       <r>    8.3964    0.0000 </r>
       <r>    8.3964    0.0000 </r>
       <r>    8.3964    0.0000 </r>
       <r>    9.1680    0.0000 </r>
      </set>
      <set comment="kpoint 21">
       <r>   -6.1446    1.0000 </r>
       <r>    5.8082    0.9912 </r>
       <r>    5.8082    0.9912 </r>
       <r>    5.8082    0.9912 </r>
       <r>    8.3964    0.0000 </r>
       <r>    8.3964    0.0000 </r>
       <r>    8.3964    0.0000 </r>
       <r>    9.1680    0.0000 </r>
      </set>
      <set comment="kpoint 22">
       <r>   -6.1324    1.0000 </r>
       <r>    5.7271    0.9984 </r>
       <r>    5.7578    0.9969 </r>
       <r>    5.7578    0.9969 </r>
       <r>    8.3663    0.0000 </r>
       <r>    8.4632    0.0000 </r>
       <r>    8.4632    0.0000 </r>
       <r>    9.2486    0.0000 </r>
      </set>
      <set comment="kpoint 23">
       <r>   -6.0961    1.0000 </r>
       <r>    5.5017    1.0000 </r>
       <r>    5.6175    0.9999 </r>
       <r>    5.6175    0.9999 </r>
       <r>    8.2794    0.0000 </r>
       <r>    8.6482    0.0000 </r>
       <r>    8.6483    0.0000 </r>
       <r>    9.4643    0.0000 </r>
      </set>
      <set comment="kpoint 24">
       <r>   -6.0355    1.0000 </r>
       <r>    5.1769    1.0000 </r>
       <r>    5.4185    1.0000 </r>
       <r>    5.4185    1.0000 </r>
       <r>    8.1463    0.0000 </r>
       <r>    8.9217    0.0000 </r>
       <r>    8.9217    0.0000 </r>
       <r>    9.7566    0.0000 </r>
      </set>
      <set comment="kpoint 25">
       <r>   -5.9510    1.0000 </r>
       <r>    4.7903    1.0000 </r>
       <r>    5.1880    1.0000 </r>
       <r>    5.1880    1.0000 </r>
       <r>    7.9802    0.0000 </r>
       <r>    9.2555    0.0000 </r>
       <r>    9.2555    0.0000 </r>
       <r>   10.0494    0.0000 </r>
      </set>
      <set comment="kpoint 26">
       <r>   -5.8424    1.0000 </r>
       <r>    4.3678    1.0000 </r>
       <r>    4.9449    1.0000 </r>
       <r>    4.9449    1.0000 </r>
       <r>    7.7941    0.0000 </r>
       <r>    9.6309    0.0000 </r>
       <r>    9.6310    0.0000 </r>
       <r>   10.2347    0.0000 </r>
      </set>
      <set comment="kpoint 27">
       <r>   -5.7102    1.0000 </r>
       <r>    3.9228    1.0000 </r>
       <r>    4.6992    1.0000 </r>
       <r>    4.6993    1.0000 </r>
       <r>    7.5985    0.0000 </r>
       <r>   10.0343    0.0000 </r>
       <r>   10.0343    0.0000 </r>
       <r>   10.1943    0.0000 </r>
      </set>
      <set comment="kpoint 28">
       <r>   -5.5543    1.0000 </r>
       <r>    3.4647    1.0000 </r>
       <r>    4.4616    1.0000 </r>
       <r>    4.4617    1.0000 </r>
       <r>    7.4037    0.0000 </r>
       <r>    9.9369    0.0000 </r>
       <r>   10.4597    0.0000 </r>
       <r>   10.4597    0.0000 </r>
      </set>
      <set comment="kpoint 29">
       <r>   -5.3751    1.0000 </r>
       <r>    2.9993    1.0000 </r>
       <r>    4.2353    1.0000 </r>
       <r>    4.2353    1.0000 </r>
       <r>    7.2156    0.0000 </r>
       <r>    9.5712    0.0000 </r>
       <r>   10.9011    0.0000 </r>
       <r>   10.9012    0.0000 </r>
      </set>
      <set comment="kpoint 30">
       <r>   -5.1730    1.0000 </r>
       <r>    2.5292    1.0000 </r>
       <r>    4.0231    1.0000 </r>
       <r>    4.0231    1.0000 </r>
       <r>    7.0397    0.0000 </r>
       <r>    9.1721    0.0000 </r>
       <r>   11.3550    0.0000 </r>
       <r>   11.3550    0.0000 </r>
      </set>
      <set comment="kpoint 31">
       <r>   -4.9481    1.0000 </r>
       <r>    2.0569    1.0000 </r>
       <r>    3.8273    1.0000 </r>
       <r>    3.8274    1.0000 </r>
       <r>    6.8806    0.0000 </r>
       <r>    8.7754    0.0000 </r>
       <r>   11.8218    0.0000 </r>
       <r>   11.8218    0.0000 </r>
      </set>
      <set comment="kpoint 32">
       <r>   -4.7012    1.0000 </r>
       <r>    1.5843    1.0000 </r>
       <r>    3.6495    1.0000 </r>
       <r>    3.6495    1.0000 </r>
       <r>    6.7401    0.0000 </r>
       <r>    8.3972    0.0000 </r>
       <r>   12.2938    0.0000 </r>
       <r>   12.2939    0.0000 </r>
      </set>
      <set comment="kpoint 33">
       <r>   -4.4325    1.0000 </r>
       <r>    1.1132    1.0000 </r>
       <r>    3.4907    1.0000 </r>
       <r>    3.4907    1.0000 </r>
       <r>    6.6213    0.0004 </r>
       <r>    8.0464    0.0000 </r>
       <r>   12.7731    0.0000 </r>
       <r>   12.7731    0.0000 </r>
      </set>
      <set comment="kpoint 34">
       <r>   -4.1423    1.0000 </r>
       <r>    0.6452    1.0000 </r>
       <r>    3.3518    1.0000 </r>
       <r>    3.3518    1.0000 </r>
       <r>    6.5275    0.0034 </r>
       <r>    7.7274    0.0000 </r>
       <r>   13.2592    0.0000 </r>
       <r>   13.2592    0.0000 </r>
      </set>
      <set comment="kpoint 35">
       <r>   -3.8321    1.0000 </r>
       <r>    0.1820    1.0000 </r>
       <r>    3.2326    1.0000 </r>
       <r>    3.2326    1.0000 </r>
       <r>    6.4581    0.0132 </r>
       <r>    7.4419    0.0000 </r>
       <r>   13.7499    0.0000 </r>
       <r>   13.7499    0.0000 </r>
      </set>
      <set comment="kpoint 36">
       <r>   -3.5021    1.0000 </r>
       <r>   -0.2745    1.0000 </r>
       <r>    3.1353    1.0000 </r>
       <r>    3.1353    1.0000 </r>
       <r>    6.4166    0.0270 </r>
       <r>    7.1924    0.0000 </r>
       <r>   14.2534    0.0000 </r>
       <r>   14.2535    0.0000 </r>
      </set>
      <set comment="kpoint 37">
       <r>   -3.1532    1.0000 </r>
       <r>   -0.7237    1.0000 </r>
       <r>    3.0590    1.0000 </r>
       <r>    3.0590    1.0000 </r>
       <r>    6.4024    0.0339 </r>
       <r>    6.9767    0.0000 </r>
       <r>   14.7484    0.0000 </r>
       <r>   14.7484    0.0000 </r>
      </set>
      <set comment="kpoint 38">
       <r>   -2.7863    1.0000 </r>
       <r>   -1.1622    1.0000 </r>
       <r>    3.0048    1.0000 </r>
       <r>    3.0048    1.0000 </r>
       <r>    6.4190    0.0260 </r>
       <r>    6.7985    0.0000 </r>
       <r>   15.2446    0.0000 </r>
       <r>   15.2446    0.0000 </r>
      </set>
      <set comment="kpoint 39">
       <r>   -2.4026    1.0000 </r>
       <r>   -1.5891    1.0000 </r>
       <r>    2.9720    1.0000 </r>
       <r>    2.9720    1.0000 </r>
       <r>    6.4653    0.0116 </r>
       <r>    6.6543    0.0002 </r>
       <r>   15.6928    0.0000 </r>
       <r>   15.6934    0.0000 </r>
      </set>
      <set comment="kpoint 40">
       <r>   -2.0031    1.0000 </r>
       <r>   -2.0031    1.0000 </r>
       <r>    2.9611    1.0000 </r>
       <r>    2.9611    1.0000 </r>
       <r>    6.5434    0.0024 </r>
       <r>    6.5434    0.0024 </r>
       <r>   15.9313    0.0000 </r>
       <r>   15.9319    0.0000 </r>
      </set>
      <set comment="kpoint 41">
       <r>   -2.0031    1.0000 </r>
       <r>   -2.0031    1.0000 </r>
       <r>    2.9611    1.0000 </r>
       <r>    2.9611    1.0000 </r>
       <r>    6.5434    0.0024 </r>
       <r>    6.5434    0.0024 </r>
       <r>   15.9314    0.0000 </r>
       <r>   15.9319    0.0000 </r>
      </set>
      <set comment="kpoint 42">
       <r>   -2.1018    1.0000 </r>
       <r>   -1.8988    1.0000 </r>
       <r>    2.9407    1.0000 </r>
       <r>    2.9417    1.0000 </r>
       <r>    6.5589    0.0017 </r>
       <r>    6.6055    0.0006 </r>
       <r>   15.8329    0.0000 </r>
       <r>   15.8708    0.0000 </r>
      </set>
      <set comment="kpoint 43">
       <r>   -2.1940    1.0000 </r>
       <r>   -1.7907    1.0000 </r>
       <r>    2.8806    1.0000 </r>
       <r>    2.8881    1.0000 </r>
       <r>    6.6504    0.0002 </r>
       <r>    6.7406    0.0000 </r>
       <r>   15.4895    0.0000 </r>
       <r>   15.7297    0.0000 </r>
      </set>
      <set comment="kpoint 44">
       <r>   -2.2784    1.0000 </r>
       <r>   -1.6808    1.0000 </r>
       <r>    2.7865    1.0000 </r>
       <r>    2.8111    1.0000 </r>
       <r>    6.8116    0.0000 </r>
       <r>    6.9403    0.0000 </r>
       <r>   14.9793    0.0000 </r>
       <r>   15.5243    0.0000 </r>
      </set>
      <set comment="kpoint 45">
       <r>   -2.3546    1.0000 </r>
       <r>   -1.5714    1.0000 </r>
       <r>    2.6675    1.0000 </r>
       <r>    2.7224    1.0000 </r>
       <r>    7.0324    0.0000 </r>
       <r>    7.1943    0.0000 </r>
       <r>   14.3898    0.0000 </r>
       <r>   15.2553    0.0000 </r>
      </set>
      <set comment="kpoint 46">
       <r>   -2.4221    1.0000 </r>
       <r>   -1.4657    1.0000 </r>
       <r>    2.5328    1.0000 </r>
       <r>    2.6335    1.0000 </r>
       <r>    7.3023    0.0000 </r>
       <r>    7.4930    0.0000 </r>
       <r>   13.7756    0.0000 </r>
       <r>   14.9301    0.0000 </r>
      </set>
      <set comment="kpoint 47">
       <r>   -2.4804    1.0000 </r>
       <r>   -1.3666    1.0000 </r>
       <r>    2.3908    1.0000 </r>
       <r>    2.5552    1.0000 </r>
       <r>    7.6140    0.0000 </r>
       <r>    7.8298    0.0000 </r>
       <r>   13.1547    0.0000 </r>
       <r>   14.5668    0.0000 </r>
      </set>
      <set comment="kpoint 48">
       <r>   -2.5293    1.0000 </r>
       <r>   -1.2785    1.0000 </r>
       <r>    2.2481    1.0000 </r>
       <r>    2.4959    1.0000 </r>
       <r>    7.9593    0.0000 </r>
       <r>    8.1984    0.0000 </r>
       <r>   12.5338    0.0000 </r>
       <r>   14.1834    0.0000 </r>
      </set>
      <set comment="kpoint 49">
       <r>   -2.5687    1.0000 </r>
       <r>   -1.2046    1.0000 </r>
       <r>    2.1094    1.0000 </r>
       <r>    2.4626    1.0000 </r>
       <r>    8.3328    0.0000 </r>
       <r>    8.5921    0.0000 </r>
       <r>   11.9227    0.0000 </r>
       <r>   13.7967    0.0000 </r>
      </set>
      <set comment="kpoint 50">
       <r>   -2.5987    1.0000 </r>
       <r>   -1.1480    1.0000 </r>
       <r>    1.9786    1.0000 </r>
       <r>    2.4607    1.0000 </r>
       <r>    8.7296    0.0000 </r>
       <r>    9.0047    0.0000 </r>
       <r>   11.3287    0.0000 </r>
       <r>   13.4099    0.0000 </r>
      </set>
      <set comment="kpoint 51">
       <r>   -2.6195    1.0000 </r>
       <r>   -1.1110    1.0000 </r>
       <r>    1.8587    1.0000 </r>
       <r>    2.4926    1.0000 </r>
       <r>    9.1453    0.0000 </r>
       <r>    9.4192    0.0000 </r>
       <r>   10.7690    0.0000 </r>
       <r>   13.0292    0.0000 </r>
      </set>
      <set comment="kpoint 52">
       <r>   -2.6311    1.0000 </r>
       <r>   -1.0940    1.0000 </r>
       <r>    1.7518    1.0000 </r>
       <r>    2.5585    1.0000 </r>
       <r>    9.5744    0.0000 </r>
       <r>    9.7239    0.0000 </r>
       <r>   10.3548    0.0000 </r>
       <r>   12.6594    0.0000 </r>
      </set>
      <set comment="kpoint 53">
       <r>   -2.6336    1.0000 </r>
       <r>   -1.0959    1.0000 </r>
       <r>    1.6598    1.0000 </r>
       <r>    2.6563    1.0000 </r>
       <r>    9.4718    0.0000 </r>
       <r>   10.0144    0.0000 </r>
       <r>   10.5396    0.0000 </r>
       <r>   12.3037    0.0000 </r>
      </set>
      <set comment="kpoint 54">
       <r>   -2.6274    1.0000 </r>
       <r>   -1.1143    1.0000 </r>
       <r>    1.5840    1.0000 </r>
       <r>    2.7801    1.0000 </r>
       <r>    8.9950    0.0000 </r>
       <r>   10.4507    0.0000 </r>
       <r>   10.9917    0.0000 </r>
       <r>   11.9727    0.0000 </r>
      </set>
      <set comment="kpoint 55">
       <r>   -2.6126    1.0000 </r>
       <r>   -1.1463    1.0000 </r>
       <r>    1.5255    1.0000 </r>
       <r>    2.9221    1.0000 </r>
       <r>    8.5198    0.0000 </r>
       <r>   10.8382    0.0000 </r>
       <r>   11.4920    0.0000 </r>
       <r>   11.7151    0.0000 </r>
      </set>
      <set comment="kpoint 56">
       <r>   -2.5895    1.0000 </r>
       <r>   -1.1887    1.0000 </r>
       <r>    1.4852    1.0000 </r>
       <r>    3.0711    1.0000 </r>
       <r>    8.0791    0.0000 </r>
       <r>   10.9691    0.0000 </r>
       <r>   11.7344    0.0000 </r>
       <r>   12.0121    0.0000 </r>
      </set>
      <set comment="kpoint 57">
       <r>   -2.5582    1.0000 </r>
       <r>   -1.2387    1.0000 </r>
       <r>    1.4636    1.0000 </r>
       <r>    3.2125    1.0000 </r>
       <r>    7.6910    0.0000 </r>
       <r>   10.7772    0.0000 </r>
       <r>   12.0931    0.0000 </r>
       <r>   12.5468    0.0000 </r>
      </set>
      <set comment="kpoint 58">
       <r>   -2.5189    1.0000 </r>
       <r>   -1.2939    1.0000 </r>
       <r>    1.4610    1.0000 </r>
       <r>    3.3268    1.0000 </r>
       <r>    7.3727    0.0000 </r>
       <r>   10.5083    0.0000 </r>
       <r>   12.5400    0.0000 </r>
       <r>   13.0911    0.0000 </r>
      </set>
      <set comment="kpoint 59">
       <r>   -2.4718    1.0000 </r>
       <r>   -1.3524    1.0000 </r>
       <r>    1.4779    1.0000 </r>
       <r>    3.3918    1.0000 </r>
       <r>    7.1483    0.0000 </r>
       <r>   10.2311    0.0000 </r>
       <r>   12.9851    0.0000 </r>
       <r>   13.6333    0.0000 </r>
      </set>
      <set comment="kpoint 60">
       <r>   -2.4166    1.0000 </r>
       <r>   -1.4132    1.0000 </r>
       <r>    1.5146    1.0000 </r>
       <r>    3.3873    1.0000 </r>
       <r>    7.0370    0.0000 </r>
       <r>    9.9626    0.0000 </r>
       <r>   13.3060    0.0000 </r>
       <r>   13.8558    0.0000 </r>
      </set>
      <set comment="kpoint 61">
       <r>   -2.4166    1.0000 </r>
       <r>   -1.4132    1.0000 </r>
       <r>    1.5146    1.0000 </r>
       <r>    3.3873    1.0000 </r>
       <r>    7.0370    0.0000 </r>
       <r>    9.9626    0.0000 </r>
       <r>   13.3060    0.0000 </r>
       <r>   13.8535    0.0000 </r>
      </set>
      <set comment="kpoint 62">
       <r>   -2.6155    1.0000 </r>
       <r>   -1.2132    1.0000 </r>
       <r>    1.4172    1.0000 </r>
       <r>    3.5265    1.0000 </r>
       <r>    7.1988    0.0000 </r>
       <r>   10.7660    0.0000 </r>
       <r>   12.8254    0.0000 </r>
       <r>   13.3669    0.0000 </r>
      </set>
      <set comment="kpoint 63">
       <r>   -2.8543    1.0000 </r>
       <r>   -0.9845    1.0000 </r>
       <r>    1.4006    1.0000 </r>
       <r>    3.6819    1.0000 </r>
       <r>    7.3792    0.0000 </r>
       <r>   11.5576    0.0000 </r>
       <r>   12.3636    0.0000 </r>
       <r>   12.9440    0.0000 </r>
      </set>
      <set comment="kpoint 64">
       <r>   -3.1235    1.0000 </r>
       <r>   -0.7272    1.0000 </r>
       <r>    1.4579    1.0000 </r>
       <r>    3.8514    1.0000 </r>
       <r>    7.5758    0.0000 </r>
       <r>   11.9229    0.0000 </r>
       <r>   12.0408    0.0000 </r>
       <r>   12.8805    0.0000 </r>
      </set>
      <set comment="kpoint 65">
       <r>   -3.4120    1.0000 </r>
       <r>   -0.4417    1.0000 </r>
       <r>    1.5796    1.0000 </r>
       <r>    4.0324    1.0000 </r>
       <r>    7.7844    0.0000 </r>
       <r>   11.5025    0.0000 </r>
       <r>   11.8159    0.0000 </r>
       <r>   12.6069    0.0000 </r>
      </set>
      <set comment="kpoint 66">
       <r>   -3.7086    1.0000 </r>
       <r>   -0.1281    1.0000 </r>
       <r>    1.7566    1.0000 </r>
       <r>    4.2224    1.0000 </r>
       <r>    8.0003    0.0000 </r>
       <r>   11.1105    0.0000 </r>
       <r>   11.4517    0.0000 </r>
       <r>   12.3090    0.0000 </r>
      </set>
      <set comment="kpoint 67">
       <r>   -4.0047    1.0000 </r>
       <r>    0.2131    1.0000 </r>
       <r>    1.9797    1.0000 </r>
       <r>    4.4172    1.0000 </r>
       <r>    8.2148    0.0000 </r>
       <r>   10.7418    0.0000 </r>
       <r>   11.0837    0.0000 </r>
       <r>   12.0471    0.0000 </r>
      </set>
      <set comment="kpoint 68">
       <r>   -4.2938    1.0000 </r>
       <r>    0.5808    1.0000 </r>
       <r>    2.2416    1.0000 </r>
       <r>    4.6126    1.0000 </r>
       <r>    8.4185    0.0000 </r>
       <r>   10.3980    0.0000 </r>
       <r>   10.7330    0.0000 </r>
       <r>   11.8293    0.0000 </r>
      </set>
      <set comment="kpoint 69">
       <r>   -4.5702    1.0000 </r>
       <r>    0.9747    1.0000 </r>
       <r>    2.5363    1.0000 </r>
       <r>    4.8042    1.0000 </r>
       <r>    8.5970    0.0000 </r>
       <r>   10.0796    0.0000 </r>
       <r>   10.4022    0.0000 </r>
       <r>   11.6630    0.0000 </r>
      </set>
      <set comment="kpoint 70">
       <r>   -4.8302    1.0000 </r>
       <r>    1.3943    1.0000 </r>
       <r>    2.8593    1.0000 </r>
       <r>    4.9881    1.0000 </r>
       <r>    8.7407    0.0000 </r>
       <r>    9.7903    0.0000 </r>
       <r>   10.0970    0.0000 </r>
       <r>   11.5562    0.0000 </r>
      </set>
      <set comment="kpoint 71">
       <r>   -5.0711    1.0000 </r>
       <r>    1.8381    1.0000 </r>
       <r>    3.2037    1.0000 </r>
       <r>    5.1576    1.0000 </r>
       <r>    8.8375    0.0000 </r>
       <r>    9.5266    0.0000 </r>
       <r>    9.8171    0.0000 </r>
       <r>   11.5041    0.0000 </r>
      </set>
      <set comment="kpoint 72">
       <r>   -5.2905    1.0000 </r>
       <r>    2.3049    1.0000 </r>
       <r>    3.5649    1.0000 </r>
       <r>    5.3101    1.0000 </r>
       <r>    8.8840    0.0000 </r>
       <r>    9.2913    0.0000 </r>
       <r>    9.5622    0.0000 </r>
       <r>   11.4853    0.0000 </r>
      </set>
      <set comment="kpoint 73">
       <r>   -5.4871    1.0000 </r>
       <r>    2.7920    1.0000 </r>
       <r>    3.9362    1.0000 </r>
       <r>    5.4413    1.0000 </r>
       <r>    8.8856    0.0000 </r>
       <r>    9.0822    0.0000 </r>
       <r>    9.3255    0.0000 </r>
       <r>   11.4467    0.0000 </r>
      </set>
      <set comment="kpoint 74">
       <r>   -5.6592    1.0000 </r>
       <r>    3.2985    1.0000 </r>
       <r>    4.3108    1.0000 </r>
       <r>    5.5509    1.0000 </r>
       <r>    8.8560    0.0000 </r>
       <r>    8.9011    0.0000 </r>
       <r>    9.1152    0.0000 </r>
       <r>   11.3043    0.0000 </r>
      </set>
      <set comment="kpoint 75">
       <r>   -5.8063    1.0000 </r>
       <r>    3.8163    1.0000 </r>
       <r>    4.6769    1.0000 </r>
       <r>    5.6364    0.9998 </r>
       <r>    8.7468    0.0000 </r>
       <r>    8.8063    0.0000 </r>
       <r>    8.9257    0.0000 </r>
       <r>   10.9859    0.0000 </r>
      </set>
      <set comment="kpoint 76">
       <r>   -5.9274    1.0000 </r>
       <r>    4.3378    1.0000 </r>
       <r>    5.0234    1.0000 </r>
       <r>    5.7035    0.9991 </r>
       <r>    8.6208    0.0000 </r>
       <r>    8.7445    0.0000 </r>
       <r>    8.7589    0.0000 </r>
       <r>   10.5233    0.0000 </r>
      </set>
      <set comment="kpoint 77">
       <r>   -6.0221    1.0000 </r>
       <r>    4.8475    1.0000 </r>
       <r>    5.3337    1.0000 </r>
       <r>    5.7516    0.9972 </r>
       <r>    8.5227    0.0000 </r>
       <r>    8.6154    0.0000 </r>
       <r>    8.6721    0.0000 </r>
       <r>   10.0142    0.0000 </r>
      </set>
      <set comment="kpoint 78">
       <r>   -6.0901    1.0000 </r>
       <r>    5.3126    1.0000 </r>
       <r>    5.5841    1.0000 </r>
       <r>    5.7839    0.9946 </r>
       <r>    8.4525    0.0000 </r>
       <r>    8.5006    0.0000 </r>
       <r>    8.5789    0.0000 </r>
       <r>    9.5611    0.0000 </r>
      </set>
      <set comment="kpoint 79">
       <r>   -6.1309    1.0000 </r>
       <r>    5.6685    0.9996 </r>
       <r>    5.7502    0.9973 </r>
       <r>    5.8023    0.9922 </r>
       <r>    8.4104    0.0000 </r>
       <r>    8.4239    0.0000 </r>
       <r>    8.4622    0.0000 </r>
       <r>    9.2640    0.0000 </r>
      </set>
      <set comment="kpoint 80">
       <r>   -6.1446    1.0000 </r>
       <r>    5.8082    0.9912 </r>
       <r>    5.8082    0.9912 </r>
       <r>    5.8082    0.9912 </r>
       <r>    8.3964    0.0000 </r>
       <r>    8.3964    0.0000 </r>
       <r>    8.3964    0.0000 </r>
       <r>    9.1680    0.0000 </r>
      </set>
     </set>
    </set>
   </array>
  </eigenvalues>
  <separator name="orbital magnetization" >
   <v name="MAGDIPOLOUT">      0.00000000      0.00000000      0.00000000</v>
  </separator>
  <dielectricfunction>
   <imag>
    <array>
     <dimension dim="1">gridpoints</dimension>
     <field>energy</field>
     <field>xx</field>
     <field>yy</field>
     <field>zz</field>
     <field>xy</field>
     <field>yz</field>
     <field>zx</field>
     <set>
      <r>     0.0000     0.0000     0.0000     0.0000     0.0000     0.0000     0.0000 </r>
      <r>     0.0265     0.2299     0.2299     0.2299     0.0000     0.0000     0.0000 </r>
      <r>     0.0530     0.4458     0.4458     0.4458     0.0000     0.0000     0.0000 </r>
      <r>     0.0796     0.6354     0.6354     0.6354     0.0000     0.0000     0.0000 </r>
      <r>     0.1061     0.7894     0.7894     0.7894     0.0000     0.0000     0.0000 </r>
      <r>     0.1326     0.9026     0.9026     0.9026     0.0000     0.0000     0.0000 </r>
      <r>     0.1591     0.9737     0.9737     0.9737    -0.0000     0.0000     0.0000 </r>
      <r>     0.1856     1.0055     1.0055     1.0055    -0.0000     0.0000     0.0000 </r>
      <r>     0.2121     1.0036     1.0036     1.0036    -0.0000     0.0000     0.0000 </r>
      <r>     0.2387     0.9756     0.9756     0.9756    -0.0000     0.0000     0.0000 </r>
      <r>     0.2652     0.9297     0.9297     0.9297    -0.0000     0.0000     0.0000 </r>
      <r>     0.2917     0.8737     0.8737     0.8737    -0.0000     0.0000    -0.0000 </r>
      <r>     0.3182     0.8146     0.8146     0.8146    -0.0000     0.0000    -0.0000 </r>
      <r>     0.3447     0.7575     0.7575     0.7575    -0.0000     0.0000    -0.0000 </r>
      <r>     0.3713     0.7063     0.7063     0.7063    -0.0000     0.0000    -0.0000 </r>
      <r>     0.3978     0.6632     0.6632     0.6632    -0.0000     0.0000    -0.0000 </r>
      <r>     0.4243     0.6291     0.6291     0.6291    -0.0000     0.0000     0.0000 </r>
      <r>     0.4508     0.6041     0.6041     0.6041    -0.0000     0.0000     0.0000 </r>
      <r>     0.4773     0.5876     0.5876     0.5876    -0.0000     0.0000     0.0000 </r>
      <r>     0.5038     0.5788     0.5788     0.5788    -0.0000     0.0000     0.0000 </r>
      <r>     0.5304     0.5765     0.5765     0.5765    -0.0000     0.0000     0.0000 </r>
      <r>     0.5569     0.5798     0.5798     0.5798    -0.0000     0.0000     0.0000 </r>
      <r>     0.5834     0.5878     0.5878     0.5878    -0.0000     0.0000     0.0000 </r>
      <r>     0.6099     0.5998     0.5998     0.5998    -0.0000     0.0000     0.0000 </r>
      <r>     0.6364     0.6150     0.6150     0.6150    -0.0000     0.0000     0.0000 </r>
      <r>     0.6630     0.6330     0.6330     0.6330    -0.0000     0.0000     0.0000 </r>
      <r>     0.6895     0.6535     0.6535     0.6535    -0.0000     0.0000     0.0000 </r>
      <r>     0.7160     0.6760     0.6760     0.6760    -0.0000     0.0000     0.0000 </r>
      <r>     0.7425     0.7003     0.7003     0.7003    -0.0000     0.0000     0.0000 </r>
      <r>     0.7690     0.7265     0.7265     0.7265    -0.0000     0.0000     0.0000 </r>
      <r>     0.7956     0.7542     0.7542     0.7542    -0.0000     0.0000     0.0000 </r>
      <r>     0.8221     0.7834     0.7834     0.7834    -0.0000     0.0000     0.0000 </r>
      <r>     0.8486     0.8141     0.8141     0.8141    -0.0000     0.0000     0.0000 </r>
      <r>     0.8751     0.8463     0.8463     0.8463    -0.0000     0.0000     0.0000 </r>
      <r>     0.9016     0.8800     0.8800     0.8800    -0.0000     0.0000     0.0000 </r>
      <r>     0.9281     0.9151     0.9151     0.9151    -0.0000     0.0000     0.0000 </r>
      <r>     0.9547     0.9518     0.9518     0.9518    -0.0000     0.0000     0.0000 </r>
      <r>     0.9812     0.9900     0.9900     0.9900    -0.0000     0.0000     0.0000 </r>
      <r>     1.0077     1.0298     1.0298     1.0298    -0.0000     0.0000     0.0000 </r>
      <r>     1.0342     1.0714     1.0714     1.0714    -0.0000     0.0000     0.0000 </r>
      <r>     1.0607     1.1148     1.1148     1.1148    -0.0000     0.0000     0.0000 </r>
      <r>     1.0873     1.1601     1.1601     1.1601    -0.0000     0.0000     0.0000 </r>
      <r>     1.1138     1.2075     1.2075     1.2075    -0.0000     0.0000     0.0000 </r>
      <r>     1.1403     1.2569     1.2569     1.2569    -0.0000     0.0000     0.0000 </r>
      <r>     1.1668     1.3087     1.3087     1.3087    -0.0000     0.0000     0.0000 </r>
      <r>     1.1933     1.3630     1.3630     1.3630    -0.0000    -0.0000     0.0000 </r>
      <r>     1.2198     1.4198     1.4198     1.4198    -0.0000    -0.0000     0.0000 </r>
      <r>     1.2464     1.4795     1.4795     1.4795    -0.0000    -0.0000     0.0000 </r>
      <r>     1.2729     1.5421     1.5421     1.5421    -0.0000    -0.0000     0.0000 </r>
      <r>     1.2994     1.6080     1.6080     1.6080    -0.0000    -0.0000     0.0000 </r>
      <r>     1.3259     1.6773     1.6773     1.6773    -0.0000    -0.0000     0.0000 </r>
      <r>     1.3524     1.7504     1.7504     1.7504    -0.0000    -0.0000     0.0000 </r>
      <r>     1.3790     1.8276     1.8276     1.8276    -0.0000    -0.0000     0.0000 </r>
      <r>     1.4055     1.9091     1.9091     1.9091    -0.0000    -0.0000     0.0000 </r>
      <r>     1.4320     1.9953     1.9953     1.9953    -0.0000    -0.0000     0.0000 </r>
      <r>     1.4585     2.0868     2.0868     2.0868    -0.0000    -0.0000     0.0000 </r>
      <r>     1.4850     2.1838     2.1838     2.1838    -0.0000    -0.0000     0.0000 </r>
      <r>     1.5115     2.2870     2.2870     2.2870    -0.0000    -0.0000     0.0000 </r>
      <r>     1.5381     2.3970     2.3970     2.3970    -0.0000    -0.0000     0.0000 </r>
      <r>     1.5646     2.5144     2.5144     2.5144    -0.0000    -0.0000     0.0000 </r>
      <r>     1.5911     2.6399     2.6399     2.6399    -0.0000    -0.0000     0.0000 </r>
      <r>     1.6176     2.7744     2.7744     2.7744    -0.0000    -0.0000     0.0000 </r>
      <r>     1.6441     2.9188     2.9188     2.9188    -0.0000    -0.0000     0.0000 </r>
      <r>     1.6707     3.0744     3.0744     3.0744    -0.0000    -0.0000     0.0000 </r>
      <r>     1.6972     3.2422     3.2422     3.2422    -0.0000    -0.0000     0.0000 </r>
      <r>     1.7237     3.4239     3.4239     3.4239    -0.0000    -0.0000     0.0000 </r>
      <r>     1.7502     3.6211     3.6211     3.6211    -0.0000    -0.0000     0.0000 </r>
      <r>     1.7767     3.8358     3.8358     3.8358    -0.0000    -0.0000     0.0000 </r>
      <r>     1.8032     4.0704     4.0704     4.0704    -0.0000    -0.0000     0.0000 </r>
      <r>     1.8298     4.3277     4.3277     4.3277    -0.0000    -0.0000     0.0000 </r>
      <r>     1.8563     4.6111     4.6111     4.6111    -0.0000    -0.0000     0.0000 </r>
      <r>     1.8828     4.9246     4.9246     4.9246    -0.0000    -0.0000     0.0000 </r>
      <r>     1.9093     5.2731     5.2731     5.2731    -0.0000    -0.0000     0.0000 </r>
      <r>     1.9358     5.6628     5.6628     5.6628    -0.0000    -0.0000     0.0000 </r>
      <r>     1.9624     6.1013     6.1013     6.1013    -0.0000    -0.0000     0.0000 </r>
      <r>     1.9889     6.5981     6.5981     6.5981     0.0000    -0.0000     0.0000 </r>
      <r>     2.0154     7.1651     7.1651     7.1651     0.0000    -0.0000     0.0000 </r>
      <r>     2.0419     7.8176     7.8176     7.8176     0.0000    -0.0000     0.0000 </r>
      <r>     2.0684     8.5749     8.5749     8.5749     0.0000    -0.0000     0.0000 </r>
      <r>     2.0949     9.4612     9.4612     9.4612     0.0000    -0.0000     0.0000 </r>
      <r>     2.1215    10.5072    10.5072    10.5072     0.0000    -0.0000     0.0000 </r>
      <r>     2.1480    11.7507    11.7507    11.7507     0.0000    -0.0000     0.0000 </r>
      <r>     2.1745    13.2378    13.2378    13.2378     0.0000    -0.0000     0.0000 </r>
      <r>     2.2010    15.0237    15.0237    15.0237     0.0000    -0.0000     0.0000 </r>
      <r>     2.2275    17.1720    17.1720    17.1720     0.0000    -0.0000     0.0000 </r>
      <r>     2.2541    19.7538    19.7538    19.7538     0.0000    -0.0000     0.0000 </r>
      <r>     2.2806    22.8454    22.8454    22.8454     0.0000    -0.0000     0.0000 </r>
      <r>     2.3071    26.5237    26.5237    26.5237     0.0000    -0.0000     0.0000 </r>
      <r>     2.3336    30.8604    30.8604    30.8604     0.0000    -0.0000     0.0000 </r>
      <r>     2.3601    35.9151    35.9151    35.9151     0.0000    -0.0000     0.0000 </r>
      <r>     2.3867    41.7263    41.7263    41.7263     0.0000    -0.0000     0.0000 </r>
      <r>     2.4132    48.3032    48.3032    48.3032     0.0000    -0.0000     0.0000 </r>
      <r>     2.4397    55.6171    55.6171    55.6171     0.0000    -0.0000     0.0000 </r>
      <r>     2.4662    63.5951    63.5951    63.5951     0.0000    -0.0000     0.0000 </r>
      <r>     2.4927    72.1161    72.1161    72.1161     0.0000    -0.0000     0.0000 </r>
      <r>     2.5192    81.0102    81.0102    81.0102     0.0000    -0.0000     0.0000 </r>
      <r>     2.5458    90.0617    90.0617    90.0617     0.0000    -0.0000     0.0000 </r>
      <r>     2.5723    99.0168    99.0168    99.0168     0.0000    -0.0000     0.0000 </r>
      <r>     2.5988   107.5951   107.5951   107.5951     0.0000    -0.0000     0.0000 </r>
      <r>     2.6253   115.5048   115.5048   115.5048     0.0000    -0.0000     0.0000 </r>
      <r>     2.6518   122.4607   122.4607   122.4607     0.0000    -0.0000     0.0000 </r>
      <r>     2.6784   128.2044   128.2044   128.2044     0.0000    -0.0000     0.0000 </r>
      <r>     2.7049   132.5240   132.5240   132.5240     0.0000    -0.0000     0.0000 </r>
      <r>     2.7314   135.2723   135.2723   135.2723     0.0000    -0.0000     0.0000 </r>
      <r>     2.7579   136.3807   136.3807   136.3807     0.0000     0.0000     0.0000 </r>
      <r>     2.7844   135.8670   135.8670   135.8670    -0.0000     0.0000     0.0000 </r>
      <r>     2.8109   133.8350   133.8350   133.8350    -0.0000     0.0000     0.0000 </r>
      <r>     2.8375   130.4658   130.4658   130.4658    -0.0000     0.0000     0.0000 </r>
      <r>     2.8640   126.0023   126.0023   126.0023    -0.0000     0.0000     0.0000 </r>
      <r>     2.8905   120.7271   120.7271   120.7271    -0.0000     0.0000     0.0000 </r>
      <r>     2.9170   114.9380   114.9380   114.9380    -0.0000     0.0000     0.0000 </r>
      <r>     2.9435   108.9242   108.9242   108.9242    -0.0000     0.0000     0.0000 </r>
      <r>     2.9701   102.9457   102.9457   102.9457    -0.0000     0.0000    -0.0000 </r>
      <r>     2.9966    97.2189    97.2189    97.2189    -0.0000     0.0000    -0.0000 </r>
      <r>     3.0231    91.9088    91.9088    91.9088    -0.0000     0.0000    -0.0000 </r>
      <r>     3.0496    87.1273    87.1273    87.1273    -0.0000     0.0000    -0.0000 </r>
      <r>     3.0761    82.9379    82.9379    82.9379    -0.0000     0.0000    -0.0000 </r>
      <r>     3.1026    79.3630    79.3630    79.3630    -0.0000     0.0000    -0.0000 </r>
      <r>     3.1292    76.3931    76.3931    76.3931    -0.0000     0.0000     0.0000 </r>
      <r>     3.1557    73.9957    73.9957    73.9957    -0.0000     0.0000     0.0000 </r>
      <r>     3.1822    72.1231    72.1231    72.1231    -0.0000     0.0000     0.0000 </r>
      <r>     3.2087    70.7184    70.7184    70.7184    -0.0000     0.0000     0.0000 </r>
      <r>     3.2352    69.7199    69.7199    69.7199    -0.0000    -0.0000     0.0000 </r>
      <r>     3.2618    69.0646    69.0646    69.0646    -0.0000    -0.0000     0.0000 </r>
      <r>     3.2883    68.6900    68.6900    68.6900    -0.0000    -0.0000     0.0000 </r>
      <r>     3.3148    68.5369    68.5369    68.5369    -0.0000    -0.0000     0.0000 </r>
      <r>     3.3413    68.5504    68.5504    68.5504    -0.0000    -0.0000     0.0000 </r>
      <r>     3.3678    68.6813    68.6813    68.6813    -0.0000    -0.0000     0.0000 </r>
      <r>     3.3943    68.8861    68.8861    68.8861    -0.0000    -0.0000     0.0000 </r>
      <r>     3.4209    69.1269    69.1269    69.1269    -0.0000     0.0000     0.0000 </r>
      <r>     3.4474    69.3693    69.3693    69.3693    -0.0000     0.0000     0.0000 </r>
      <r>     3.4739    69.5809    69.5809    69.5809    -0.0000    -0.0000     0.0000 </r>
      <r>     3.5004    69.7287    69.7287    69.7287    -0.0000    -0.0000     0.0000 </r>
      <r>     3.5269    69.7773    69.7773    69.7773    -0.0000    -0.0000     0.0000 </r>
      <r>     3.5535    69.6883    69.6883    69.6883    -0.0000    -0.0000     0.0000 </r>
      <r>     3.5800    69.4205    69.4205    69.4205    -0.0000    -0.0000     0.0000 </r>
      <r>     3.6065    68.9327    68.9327    68.9327    -0.0000     0.0000     0.0000 </r>
      <r>     3.6330    68.1862    68.1862    68.1862    -0.0000     0.0000     0.0000 </r>
      <r>     3.6595    67.1495    67.1495    67.1495    -0.0000     0.0000     0.0000 </r>
      <r>     3.6861    65.8021    65.8021    65.8021    -0.0000     0.0000     0.0000 </r>
      <r>     3.7126    64.1381    64.1381    64.1381    -0.0000     0.0000    -0.0000 </r>
      <r>     3.7391    62.1688    62.1688    62.1688    -0.0000     0.0000    -0.0000 </r>
      <r>     3.7656    59.9230    59.9230    59.9230    -0.0000     0.0000    -0.0000 </r>
      <r>     3.7921    57.4457    57.4457    57.4457    -0.0000     0.0000    -0.0000 </r>
      <r>     3.8186    54.7952    54.7952    54.7952    -0.0000     0.0000    -0.0000 </r>
      <r>     3.8452    52.0382    52.0382    52.0382    -0.0000     0.0000    -0.0000 </r>
      <r>     3.8717    49.2444    49.2444    49.2444    -0.0000     0.0000    -0.0000 </r>
      <r>     3.8982    46.4812    46.4812    46.4812    -0.0000     0.0000    -0.0000 </r>
      <r>     3.9247    43.8087    43.8087    43.8087    -0.0000     0.0000    -0.0000 </r>
      <r>     3.9512    41.2766    41.2766    41.2766    -0.0000     0.0000    -0.0000 </r>
      <r>     3.9778    38.9216    38.9216    38.9216    -0.0000     0.0000    -0.0000 </r>
      <r>     4.0043    36.7684    36.7684    36.7684    -0.0000     0.0000    -0.0000 </r>
      <r>     4.0308    34.8301    34.8301    34.8301    -0.0000     0.0000     0.0000 </r>
      <r>     4.0573    33.1114    33.1114    33.1114    -0.0000     0.0000     0.0000 </r>
      <r>     4.0838    31.6112    31.6112    31.6112    -0.0000     0.0000     0.0000 </r>
      <r>     4.1103    30.3251    30.3251    30.3251    -0.0000     0.0000    -0.0000 </r>
      <r>     4.1369    29.2476    29.2476    29.2476    -0.0000     0.0000    -0.0000 </r>
      <r>     4.1634    28.3731    28.3731    28.3731    -0.0000     0.0000    -0.0000 </r>
      <r>     4.1899    27.6963    27.6963    27.6963    -0.0000     0.0000    -0.0000 </r>
      <r>     4.2164    27.2116    27.2116    27.2116    -0.0000     0.0000    -0.0000 </r>
      <r>     4.2429    26.9115    26.9115    26.9115    -0.0000     0.0000    -0.0000 </r>
      <r>     4.2695    26.7854    26.7854    26.7854    -0.0000     0.0000    -0.0000 </r>
      <r>     4.2960    26.8175    26.8175    26.8175    -0.0000    -0.0000    -0.0000 </r>
      <r>     4.3225    26.9855    26.9855    26.9855    -0.0000    -0.0000    -0.0000 </r>
      <r>     4.3490    27.2594    27.2594    27.2594    -0.0000    -0.0000    -0.0000 </r>
      <r>     4.3755    27.6011    27.6011    27.6011    -0.0000    -0.0000    -0.0000 </r>
      <r>     4.4020    27.9651    27.9651    27.9651    -0.0000    -0.0000    -0.0000 </r>
      <r>     4.4286    28.3005    28.3005    28.3005    -0.0000    -0.0000    -0.0000 </r>
      <r>     4.4551    28.5541    28.5541    28.5541    -0.0000    -0.0000    -0.0000 </r>
      <r>     4.4816    28.6740    28.6740    28.6740    -0.0000    -0.0000    -0.0000 </r>
      <r>     4.5081    28.6148    28.6148    28.6148    -0.0000    -0.0000    -0.0000 </r>
      <r>     4.5346    28.3416    28.3416    28.3416    -0.0000    -0.0000    -0.0000 </r>
      <r>     4.5612    27.8342    27.8342    27.8342    -0.0000    -0.0000    -0.0000 </r>
      <r>     4.5877    27.0890    27.0890    27.0890     0.0000    -0.0000    -0.0000 </r>
      <r>     4.6142    26.1200    26.1200    26.1200     0.0000    -0.0000    -0.0000 </r>
      <r>     4.6407    24.9567    24.9567    24.9567     0.0000    -0.0000    -0.0000 </r>
      <r>     4.6672    23.6411    23.6411    23.6411     0.0000    -0.0000    -0.0000 </r>
      <r>     4.6937    22.2228    22.2228    22.2228     0.0000    -0.0000    -0.0000 </r>
      <r>     4.7203    20.7542    20.7542    20.7542     0.0000    -0.0000    -0.0000 </r>
      <r>     4.7468    19.2851    19.2851    19.2851     0.0000    -0.0000    -0.0000 </r>
      <r>     4.7733    17.8592    17.8592    17.8592     0.0000    -0.0000    -0.0000 </r>
      <r>     4.7998    16.5114    16.5114    16.5114     0.0000    -0.0000    -0.0000 </r>
      <r>     4.8263    15.2663    15.2663    15.2663     0.0000    -0.0000     0.0000 </r>
      <r>     4.8529    14.1391    14.1391    14.1391     0.0000    -0.0000     0.0000 </r>
      <r>     4.8794    13.1357    13.1357    13.1357     0.0000    -0.0000     0.0000 </r>
      <r>     4.9059    12.2557    12.2557    12.2557     0.0000    -0.0000     0.0000 </r>
      <r>     4.9324    11.4932    11.4932    11.4932     0.0000    -0.0000     0.0000 </r>
      <r>     4.9589    10.8394    10.8394    10.8394     0.0000    -0.0000     0.0000 </r>
      <r>     4.9854    10.2838    10.2838    10.2838     0.0000    -0.0000     0.0000 </r>
      <r>     5.0120     9.8151     9.8151     9.8151     0.0000    -0.0000     0.0000 </r>
      <r>     5.0385     9.4223     9.4223     9.4223     0.0000    -0.0000     0.0000 </r>
      <r>     5.0650     9.0945     9.0945     9.0945     0.0000    -0.0000     0.0000 </r>
      <r>     5.0915     8.8215     8.8215     8.8215     0.0000    -0.0000     0.0000 </r>
      <r>     5.1180     8.5934     8.5934     8.5934     0.0000    -0.0000     0.0000 </r>
      <r>     5.1446     8.4010     8.4010     8.4010    -0.0000    -0.0000     0.0000 </r>
      <r>     5.1711     8.2355     8.2355     8.2355    -0.0000    -0.0000     0.0000 </r>
      <r>     5.1976     8.0890     8.0890     8.0890    -0.0000    -0.0000     0.0000 </r>
      <r>     5.2241     7.9539     7.9539     7.9539    -0.0000    -0.0000     0.0000 </r>
      <r>     5.2506     7.8238     7.8238     7.8238    -0.0000    -0.0000     0.0000 </r>
      <r>     5.2772     7.6929     7.6929     7.6929     0.0000    -0.0000     0.0000 </r>
      <r>     5.3037     7.5567     7.5567     7.5567     0.0000    -0.0000     0.0000 </r>
      <r>     5.3302     7.4113     7.4113     7.4113     0.0000    -0.0000     0.0000 </r>
      <r>     5.3567     7.2540     7.2540     7.2540     0.0000    -0.0000     0.0000 </r>
      <r>     5.3832     7.0829     7.0829     7.0829     0.0000    -0.0000     0.0000 </r>
      <r>     5.4097     6.8969     6.8969     6.8969     0.0000    -0.0000     0.0000 </r>
      <r>     5.4363     6.6957     6.6957     6.6957     0.0000    -0.0000     0.0000 </r>
      <r>     5.4628     6.4798     6.4798     6.4798     0.0000     0.0000     0.0000 </r>
      <r>     5.4893     6.2504     6.2504     6.2504     0.0000     0.0000     0.0000 </r>
      <r>     5.5158     6.0095     6.0095     6.0095     0.0000     0.0000     0.0000 </r>
      <r>     5.5423     5.7597     5.7597     5.7597     0.0000     0.0000     0.0000 </r>
      <r>     5.5689     5.5041     5.5041     5.5041    -0.0000     0.0000     0.0000 </r>
      <r>     5.5954     5.2463     5.2463     5.2463    -0.0000     0.0000     0.0000 </r>
      <r>     5.6219     4.9898     4.9898     4.9898    -0.0000     0.0000     0.0000 </r>
      <r>     5.6484     4.7383     4.7383     4.7383    -0.0000     0.0000     0.0000 </r>
      <r>     5.6749     4.4951     4.4951     4.4951    -0.0000     0.0000     0.0000 </r>
      <r>     5.7014     4.2632     4.2632     4.2632    -0.0000     0.0000     0.0000 </r>
      <r>     5.7280     4.0450     4.0450     4.0450    -0.0000     0.0000     0.0000 </r>
      <r>     5.7545     3.8425     3.8425     3.8425    -0.0000     0.0000     0.0000 </r>
      <r>     5.7810     3.6571     3.6571     3.6571    -0.0000     0.0000     0.0000 </r>
      <r>     5.8075     3.4896     3.4896     3.4896    -0.0000     0.0000     0.0000 </r>
      <r>     5.8340     3.3406     3.3406     3.3406    -0.0000     0.0000     0.0000 </r>
      <r>     5.8606     3.2102     3.2102     3.2102    -0.0000     0.0000     0.0000 </r>
      <r>     5.8871     3.0981     3.0981     3.0981    -0.0000     0.0000     0.0000 </r>
      <r>     5.9136     3.0035     3.0035     3.0035    -0.0000     0.0000     0.0000 </r>
      <r>     5.9401     2.9257     2.9257     2.9257    -0.0000     0.0000     0.0000 </r>
      <r>     5.9666     2.8632     2.8632     2.8632    -0.0000     0.0000     0.0000 </r>
      <r>     5.9931     2.8144     2.8144     2.8144    -0.0000     0.0000     0.0000 </r>
      <r>     6.0197     2.7773     2.7773     2.7773    -0.0000     0.0000     0.0000 </r>
      <r>     6.0462     2.7495     2.7495     2.7495    -0.0000     0.0000     0.0000 </r>
      <r>     6.0727     2.7284     2.7284     2.7284    -0.0000     0.0000     0.0000 </r>
      <r>     6.0992     2.7111     2.7111     2.7111    -0.0000     0.0000     0.0000 </r>
      <r>     6.1257     2.6949     2.6949     2.6949    -0.0000     0.0000     0.0000 </r>
      <r>     6.1523     2.6770     2.6770     2.6770    -0.0000     0.0000     0.0000 </r>
      <r>     6.1788     2.6550     2.6550     2.6550    -0.0000     0.0000     0.0000 </r>
      <r>     6.2053     2.6273     2.6273     2.6273    -0.0000     0.0000     0.0000 </r>
      <r>     6.2318     2.5929     2.5929     2.5929    -0.0000     0.0000     0.0000 </r>
      <r>     6.2583     2.5514     2.5514     2.5514    -0.0000     0.0000     0.0000 </r>
      <r>     6.2848     2.5035     2.5035     2.5035    -0.0000     0.0000     0.0000 </r>
      <r>     6.3114     2.4505     2.4505     2.4505    -0.0000     0.0000     0.0000 </r>
      <r>     6.3379     2.3943     2.3943     2.3943    -0.0000     0.0000     0.0000 </r>
      <r>     6.3644     2.3369     2.3369     2.3369    -0.0000     0.0000     0.0000 </r>
      <r>     6.3909     2.2804     2.2804     2.2804    -0.0000     0.0000     0.0000 </r>
      <r>     6.4174     2.2265     2.2265     2.2265    -0.0000     0.0000     0.0000 </r>
      <r>     6.4440     2.1765     2.1765     2.1765    -0.0000     0.0000    -0.0000 </r>
      <r>     6.4705     2.1312     2.1312     2.1312    -0.0000     0.0000    -0.0000 </r>
      <r>     6.4970     2.0906     2.0906     2.0906    -0.0000     0.0000    -0.0000 </r>
      <r>     6.5235     2.0546     2.0546     2.0546    -0.0000     0.0000    -0.0000 </r>
      <r>     6.5500     2.0226     2.0226     2.0226    -0.0000     0.0000    -0.0000 </r>
      <r>     6.5765     1.9939     1.9939     1.9939    -0.0000     0.0000    -0.0000 </r>
      <r>     6.6031     1.9678     1.9678     1.9678    -0.0000     0.0000    -0.0000 </r>
      <r>     6.6296     1.9437     1.9437     1.9437    -0.0000     0.0000    -0.0000 </r>
      <r>     6.6561     1.9213     1.9213     1.9213    -0.0000     0.0000    -0.0000 </r>
      <r>     6.6826     1.9004     1.9004     1.9004    -0.0000     0.0000    -0.0000 </r>
      <r>     6.7091     1.8809     1.8809     1.8809    -0.0000     0.0000    -0.0000 </r>
      <r>     6.7357     1.8628     1.8628     1.8628    -0.0000     0.0000    -0.0000 </r>
      <r>     6.7622     1.8457     1.8457     1.8457    -0.0000     0.0000    -0.0000 </r>
      <r>     6.7887     1.8296     1.8296     1.8296    -0.0000     0.0000    -0.0000 </r>
      <r>     6.8152     1.8138     1.8138     1.8138    -0.0000     0.0000    -0.0000 </r>
      <r>     6.8417     1.7977     1.7977     1.7977    -0.0000     0.0000    -0.0000 </r>
      <r>     6.8683     1.7806     1.7806     1.7806    -0.0000     0.0000    -0.0000 </r>
      <r>     6.8948     1.7617     1.7617     1.7617    -0.0000     0.0000    -0.0000 </r>
      <r>     6.9213     1.7402     1.7402     1.7402    -0.0000     0.0000    -0.0000 </r>
      <r>     6.9478     1.7156     1.7156     1.7156    -0.0000     0.0000    -0.0000 </r>
      <r>     6.9743     1.6877     1.6877     1.6877    -0.0000     0.0000    -0.0000 </r>
      <r>     7.0008     1.6567     1.6567     1.6567    -0.0000     0.0000    -0.0000 </r>
      <r>     7.0274     1.6229     1.6229     1.6229    -0.0000     0.0000    -0.0000 </r>
      <r>     7.0539     1.5871     1.5871     1.5871    -0.0000     0.0000    -0.0000 </r>
      <r>     7.0804     1.5504     1.5504     1.5504    -0.0000     0.0000    -0.0000 </r>
      <r>     7.1069     1.5138     1.5138     1.5138    -0.0000     0.0000    -0.0000 </r>
      <r>     7.1334     1.4784     1.4784     1.4784    -0.0000    -0.0000    -0.0000 </r>
      <r>     7.1600     1.4452     1.4452     1.4452    -0.0000    -0.0000    -0.0000 </r>
      <r>     7.1865     1.4150     1.4150     1.4150    -0.0000    -0.0000    -0.0000 </r>
      <r>     7.2130     1.3882     1.3882     1.3882    -0.0000    -0.0000    -0.0000 </r>
      <r>     7.2395     1.3650     1.3650     1.3650    -0.0000    -0.0000    -0.0000 </r>
      <r>     7.2660     1.3454     1.3454     1.3454    -0.0000    -0.0000    -0.0000 </r>
      <r>     7.2925     1.3290     1.3290     1.3290     0.0000    -0.0000    -0.0000 </r>
      <r>     7.3191     1.3153     1.3153     1.3153     0.0000    -0.0000    -0.0000 </r>
      <r>     7.3456     1.3035     1.3035     1.3035     0.0000    -0.0000    -0.0000 </r>
      <r>     7.3721     1.2929     1.2929     1.2929     0.0000    -0.0000    -0.0000 </r>
      <r>     7.3986     1.2827     1.2827     1.2827     0.0000    -0.0000    -0.0000 </r>
      <r>     7.4251     1.2722     1.2722     1.2722     0.0000    -0.0000    -0.0000 </r>
      <r>     7.4517     1.2607     1.2607     1.2607     0.0000    -0.0000    -0.0000 </r>
      <r>     7.4782     1.2481     1.2481     1.2481     0.0000    -0.0000     0.0000 </r>
      <r>     7.5047     1.2342     1.2342     1.2342     0.0000    -0.0000     0.0000 </r>
      <r>     7.5312     1.2195     1.2195     1.2195     0.0000    -0.0000     0.0000 </r>
      <r>     7.5577     1.2045     1.2045     1.2045     0.0000    -0.0000     0.0000 </r>
      <r>     7.5842     1.1900     1.1900     1.1900     0.0000    -0.0000     0.0000 </r>
      <r>     7.6108     1.1769     1.1769     1.1769     0.0000    -0.0000     0.0000 </r>
      <r>     7.6373     1.1662     1.1662     1.1662     0.0000    -0.0000     0.0000 </r>
      <r>     7.6638     1.1584     1.1584     1.1584    -0.0000    -0.0000     0.0000 </r>
      <r>     7.6903     1.1540     1.1540     1.1540    -0.0000    -0.0000     0.0000 </r>
      <r>     7.7168     1.1529     1.1529     1.1529    -0.0000    -0.0000    -0.0000 </r>
      <r>     7.7434     1.1546     1.1546     1.1546    -0.0000    -0.0000    -0.0000 </r>
      <r>     7.7699     1.1582     1.1582     1.1582    -0.0000    -0.0000    -0.0000 </r>
      <r>     7.7964     1.1624     1.1624     1.1624    -0.0000    -0.0000    -0.0000 </r>
[...]
     <r>    10.7137     0.1672     0.1672     0.1672     0.0000     0.0000     0.0000 </r>
     <r>    10.7237     0.1681     0.1681     0.1681     0.0000    -0.0000    -0.0000 </r>
     <r>    10.7338     0.1688     0.1688     0.1688    -0.0000     0.0000    -0.0000 </r>
     <r>    10.7438     0.1694     0.1694     0.1694     0.0000     0.0000     0.0000 </r>
     <r>    10.7538     0.1699     0.1699     0.1699    -0.0000     0.0000    -0.0000 </r>
     <r>    10.7638     0.1702     0.1702     0.1702    -0.0000     0.0000    -0.0000 </r>
     <r>    10.7738     0.1703     0.1703     0.1703    -0.0000    -0.0000    -0.0000 </r>
     <r>    10.7838     0.1702     0.1702     0.1702    -0.0000     0.0000     0.0000 </r>
     <r>    10.7938     0.1699     0.1699     0.1699     0.0000     0.0000     0.0000 </r>
     <r>    10.8038     0.1693     0.1693     0.1693     0.0000    -0.0000     0.0000 </r>
     <r>    10.8138     0.1686     0.1686     0.1686     0.0000     0.0000     0.0000 </r>
     <r>    10.8238     0.1676     0.1676     0.1676     0.0000     0.0000     0.0000 </r>
     <r>    10.8339     0.1663     0.1663     0.1663     0.0000    -0.0000    -0.0000 </r>
     <r>    10.8439     0.1649     0.1649     0.1649    -0.0000     0.0000     0.0000 </r>
     <r>    10.8539     0.1632     0.1632     0.1632    -0.0000     0.0000    -0.0000 </r>
     <r>    10.8639     0.1613     0.1613     0.1613    -0.0000     0.0000     0.0000 </r>
     <r>    10.8739     0.1592     0.1592     0.1592    -0.0000    -0.0000     0.0000 </r>
     <r>    10.8839     0.1570     0.1570     0.1570     0.0000     0.0000    -0.0000 </r>
     <r>    10.8939     0.1546     0.1546     0.1546     0.0000    -0.0000     0.0000 </r>
     <r>    10.9039     0.1520     0.1520     0.1520     0.0000     0.0000     0.0000 </r>
     <r>    10.9139     0.1493     0.1493     0.1493    -0.0000     0.0000     0.0000 </r>
     <r>    10.9239     0.1465     0.1465     0.1465    -0.0000     0.0000    -0.0000 </r>
     <r>    10.9340     0.1436     0.1436     0.1436     0.0000     0.0000    -0.0000 </r>
     <r>    10.9440     0.1407     0.1407     0.1407     0.0000    -0.0000     0.0000 </r>
     <r>    10.9540     0.1377     0.1377     0.1377     0.0000    -0.0000    -0.0000 </r>
     <r>    10.9640     0.1346     0.1346     0.1346     0.0000     0.0000    -0.0000 </r>
     <r>    10.9740     0.1315     0.1315     0.1315    -0.0000     0.0000     0.0000 </r>
     <r>    10.9840     0.1285     0.1285     0.1285     0.0000    -0.0000     0.0000 </r>
     <r>    10.9940     0.1254     0.1254     0.1254    -0.0000     0.0000     0.0000 </r>
     <r>    11.0040     0.1223     0.1223     0.1223    -0.0000     0.0000     0.0000 </r>
     <r>    11.0140     0.1193     0.1193     0.1193     0.0000    -0.0000    -0.0000 </r>
     <r>    11.0240     0.1163     0.1163     0.1163     0.0000    -0.0000     0.0000 </r>
     <r>    11.0341     0.1133     0.1133     0.1133    -0.0000     0.0000     0.0000 </r>
     <r>    11.0441     0.1105     0.1105     0.1105     0.0000    -0.0000     0.0000 </r>
     <r>    11.0541     0.1077     0.1077     0.1077     0.0000    -0.0000    -0.0000 </r>
     <r>    11.0641     0.1051     0.1051     0.1051    -0.0000    -0.0000    -0.0000 </r>
     <r>    11.0741     0.1025     0.1025     0.1025     0.0000     0.0000     0.0000 </r>
     <r>    11.0841     0.1001     0.1001     0.1001    -0.0000    -0.0000    -0.0000 </r>
     <r>    11.0941     0.0979     0.0979     0.0979    -0.0000     0.0000     0.0000 </r>
     <r>    11.1041     0.0958     0.0958     0.0958     0.0000     0.0000     0.0000 </r>
     <r>    11.1141     0.0939     0.0939     0.0939    -0.0000    -0.0000    -0.0000 </r>
     <r>    11.1241     0.0922     0.0922     0.0922    -0.0000     0.0000    -0.0000 </r>
     <r>    11.1342     0.0907     0.0907     0.0907     0.0000    -0.0000     0.0000 </r>
     <r>    11.1442     0.0894     0.0894     0.0894     0.0000    -0.0000    -0.0000 </r>
    </set>
   </array>
  </conductivity>
  <dos>
   <i name="efermi">      6.14416275 </i>
   <total>
    <array>
     <dimension dim="1">gridpoints</dimension>
     <dimension dim="2">spin</dimension>
     <field>energy</field>
     <field>total</field>
     <field>integrated</field>
     <set>
      <set comment="spin 1">
       <r>    -8.1446     0.0000     0.0000 </r>
       <r>    -8.0577     0.0000     0.0000 </r>
       <r>    -7.9708     0.0000     0.0000 </r>
       <r>    -7.8838     0.0000     0.0000 </r>
       <r>    -7.7969     0.0000     0.0000 </r>
       <r>    -7.7100     0.0000     0.0000 </r>
       <r>    -7.6231     0.0000     0.0000 </r>
       <r>    -7.5361     0.0000     0.0000 </r>
       <r>    -7.4492     0.0000     0.0000 </r>
       <r>    -7.3623     0.0000     0.0000 </r>
       <r>    -7.2754     0.0000     0.0000 </r>
       <r>    -7.1885     0.0000     0.0000 </r>
       <r>    -7.1015     0.0000     0.0000 </r>
       <r>    -7.0146     0.0000     0.0000 </r>
       <r>    -6.9277     0.0000     0.0000 </r>
       <r>    -6.8408     0.0000     0.0000 </r>
       <r>    -6.7538     0.0000     0.0000 </r>
       <r>    -6.6669     0.0002     0.0000 </r>
       <r>    -6.5800     0.0017     0.0002 </r>
       <r>    -6.4931     0.0117     0.0012 </r>
       <r>    -6.4062     0.0553     0.0060 </r>
       <r>    -6.3192     0.1847     0.0221 </r>
       <r>    -6.2323     0.4410     0.0604 </r>
       <r>    -6.1454     0.7650     0.1269 </r>
       <r>    -6.0585     0.9933     0.2132 </r>
       <r>    -5.9716     1.0162     0.3015 </r>
       <r>    -5.8846     0.8877     0.3787 </r>
       <r>    -5.7977     0.7321     0.4423 </r>
       <r>    -5.7108     0.6160     0.4959 </r>
       <r>    -5.6239     0.5413     0.5429 </r>
       <r>    -5.5369     0.4917     0.5857 </r>
       <r>    -5.4500     0.4557     0.6253 </r>
       <r>    -5.3631     0.4277     0.6625 </r>
       <r>    -5.2762     0.4051     0.6977 </r>
       <r>    -5.1893     0.3864     0.7313 </r>
       <r>    -5.1023     0.3708     0.7635 </r>
       <r>    -5.0154     0.3574     0.7946 </r>
       <r>    -4.9285     0.3460     0.8246 </r>
       <r>    -4.8416     0.3363     0.8539 </r>
       <r>    -4.7546     0.3280     0.8824 </r>
       <r>    -4.6677     0.3210     0.9103 </r>
       <r>    -4.5808     0.3153     0.9377 </r>
       <r>    -4.4939     0.3111     0.9647 </r>
       <r>    -4.4070     0.3082     0.9915 </r>
       <r>    -4.3200     0.3070     1.0182 </r>
       <r>    -4.2331     0.3090     1.0451 </r>
       <r>    -4.1462     0.3170     1.0726 </r>
       <r>    -4.0593     0.3334     1.1016 </r>
       <r>    -3.9724     0.3564     1.1326 </r>
       <r>    -3.8854     0.3738     1.1651 </r>
       <r>    -3.7985     0.3615     1.1965 </r>
       <r>    -3.7116     0.3077     1.2233 </r>
       <r>    -3.6247     0.2380     1.2439 </r>
       <r>    -3.5377     0.1906     1.2605 </r>
       <r>    -3.4508     0.1713     1.2754 </r>
       <r>    -3.3639     0.1601     1.2893 </r>
       <r>    -3.2770     0.1529     1.3026 </r>
       <r>    -3.1901     0.1584     1.3164 </r>
       <r>    -3.1031     0.1662     1.3308 </r>
       <r>    -3.0162     0.1649     1.3452 </r>
       <r>    -2.9293     0.1817     1.3609 </r>
       <r>    -2.8424     0.2696     1.3844 </r>
       <r>    -2.7554     0.4683     1.4251 </r>
       <r>    -2.6685     0.7613     1.4913 </r>
       <r>    -2.5816     1.0357     1.5813 </r>
       <r>    -2.4947     1.1416     1.6805 </r>
       <r>    -2.4078     1.0324     1.7703 </r>
       <r>    -2.3208     0.8006     1.8398 </r>
       <r>    -2.2339     0.5843     1.8906 </r>
       <r>    -2.1470     0.4726     1.9317 </r>
       <r>    -2.0601     0.4601     1.9717 </r>
       <r>    -1.9732     0.4678     2.0124 </r>
       <r>    -1.8862     0.4307     2.0498 </r>
       <r>    -1.7993     0.3639     2.0814 </r>
       <r>    -1.7124     0.3251     2.1097 </r>
       <r>    -1.6255     0.3452     2.1397 </r>
       <r>    -1.5385     0.4209     2.1763 </r>
       <r>    -1.4516     0.5453     2.2237 </r>
       <r>    -1.3647     0.7165     2.2860 </r>
       <r>    -1.2778     0.9166     2.3656 </r>
       <r>    -1.1909     1.0768     2.4592 </r>
       <r>    -1.1039     1.0872     2.5537 </r>
       <r>    -1.0170     0.9036     2.6323 </r>
       <r>    -0.9301     0.6279     2.6868 </r>
       <r>    -0.8432     0.4119     2.7226 </r>
       <r>    -0.7562     0.3100     2.7496 </r>
       <r>    -0.6693     0.2693     2.7730 </r>
       <r>    -0.5824     0.2348     2.7934 </r>
       <r>    -0.4955     0.2106     2.8117 </r>
       <r>    -0.4086     0.2112     2.8301 </r>
       <r>    -0.3216     0.2195     2.8491 </r>
       <r>    -0.2347     0.2172     2.8680 </r>
       <r>    -0.1478     0.2075     2.8861 </r>
       <r>    -0.0609     0.1959     2.9031 </r>
       <r>     0.0260     0.1857     2.9192 </r>
       <r>     0.1130     0.1872     2.9355 </r>
       <r>     0.1999     0.2003     2.9529 </r>
       <r>     0.2868     0.2035     2.9706 </r>
       <r>     0.3737     0.1847     2.9867 </r>
       <r>     0.4607     0.1652     3.0010 </r>
       <r>     0.5476     0.1699     3.0158 </r>
       <r>     0.6345     0.1904     3.0323 </r>
       <r>     0.7214     0.1964     3.0494 </r>
       <r>     0.8083     0.1783     3.0649 </r>
       <r>     0.8953     0.1584     3.0787 </r>
       <r>     0.9822     0.1595     3.0925 </r>
       <r>     1.0691     0.1826     3.1084 </r>
       <r>     1.1560     0.2236     3.1278 </r>
       <r>     1.2430     0.3090     3.1547 </r>
       <r>     1.3299     0.4884     3.1971 </r>
       <r>     1.4168     0.7502     3.2624 </r>
       <r>     1.5037     0.9676     3.3465 </r>
       <r>     1.5906     1.0066     3.4340 </r>
       <r>     1.6776     0.8743     3.5099 </r>
       <r>     1.7645     0.6911     3.5700 </r>
       <r>     1.8514     0.5551     3.6183 </r>
       <r>     1.9383     0.4882     3.6607 </r>
       <r>     2.0252     0.4691     3.7015 </r>
       <r>     2.1122     0.4693     3.7423 </r>
       <r>     2.1991     0.4779     3.7838 </r>
       <r>     2.2860     0.5169     3.8287 </r>
       <r>     2.3729     0.6242     3.8830 </r>
       <r>     2.4599     0.7975     3.9523 </r>
       <r>     2.5468     0.9613     4.0359 </r>
       <r>     2.6337     1.0422     4.1265 </r>
       <r>     2.7206     1.0788     4.2202 </r>
       <r>     2.8075     1.1793     4.3227 </r>
       <r>     2.8945     1.3640     4.4413 </r>
       <r>     2.9814     1.5096     4.5725 </r>
       <r>     3.0683     1.4874     4.7018 </r>
       <r>     3.1552     1.3224     4.8168 </r>
       <r>     3.2422     1.1496     4.9167 </r>
       <r>     3.3291     1.0479     5.0078 </r>
       <r>     3.4160     0.9887     5.0937 </r>
       <r>     3.5029     0.9170     5.1734 </r>
       <r>     3.5898     0.8193     5.2446 </r>
       <r>     3.6768     0.7219     5.3074 </r>
       <r>     3.7637     0.6597     5.3647 </r>
       <r>     3.8506     0.6425     5.4206 </r>
       <r>     3.9375     0.6401     5.4762 </r>
       <r>     4.0244     0.6191     5.5300 </r>
       <r>     4.1114     0.5844     5.5808 </r>
       <r>     4.1983     0.5711     5.6304 </r>
       <r>     4.2852     0.6001     5.6826 </r>
       <r>     4.3721     0.6720     5.7410 </r>
       <r>     4.4591     0.8137     5.8118 </r>
       <r>     4.5460     1.0644     5.9043 </r>
       <r>     4.6329     1.3688     6.0233 </r>
       <r>     4.7198     1.5669     6.1594 </r>
       <r>     4.8067     1.5665     6.2956 </r>
       <r>     4.8937     1.4411     6.4209 </r>
       <r>     4.9806     1.3091     6.5347 </r>
       <r>     5.0675     1.2195     6.6407 </r>
       <r>     5.1544     1.1735     6.7427 </r>
       <r>     5.2414     1.1681     6.8442 </r>
       <r>     5.3283     1.1992     6.9484 </r>
       <r>     5.4152     1.2647     7.0584 </r>
       <r>     5.5021     1.3846     7.1787 </r>
       <r>     5.5890     1.5999     7.3178 </r>
       <r>     5.6760     1.8802     7.4812 </r>
       <r>     5.7629     2.0265     7.6574 </r>
       <r>     5.8498     1.8010     7.8139 </r>
       <r>     5.9367     1.2294     7.9208 </r>
       <r>     6.0236     0.6213     7.9748 </r>
       <r>     6.1106     0.2408     7.9957 </r>
       <r>     6.1975     0.1250     8.0065 </r>
       <r>     6.2844     0.2084     8.0247 </r>
       <r>     6.3713     0.4348     8.0625 </r>
       <r>     6.4583     0.7223     8.1252 </r>
       <r>     6.5452     0.9401     8.2070 </r>
       <r>     6.6321     0.9910     8.2931 </r>
       <r>     6.7190     0.8969     8.3711 </r>
       <r>     6.8059     0.7657     8.4376 </r>
       <r>     6.8929     0.6894     8.4975 </r>
       <r>     6.9798     0.6884     8.5574 </r>
       <r>     7.0667     0.7299     8.6208 </r>
       <r>     7.1536     0.7847     8.6890 </r>
       <r>     7.2406     0.8608     8.7638 </r>
       <r>     7.3275     0.9660     8.8478 </r>
       <r>     7.4144     1.0574     8.9397 </r>
       <r>     7.5013     1.0751     9.0332 </r>
       <r>     7.5882     1.0194     9.1218 </r>
       <r>     7.6752     0.9406     9.2035 </r>
       <r>     7.7621     0.8723     9.2794 </r>
       <r>     7.8490     0.8216     9.3508 </r>
       <r>     7.9359     0.7975     9.4201 </r>
       <r>     8.0228     0.8107     9.4906 </r>
       <r>     8.1098     0.8811     9.5671 </r>
       <r>     8.1967     1.0844     9.6614 </r>
       <r>     8.2836     1.5121     9.7928 </r>
       <r>     8.3705     2.0859     9.9742 </r>
       <r>     8.4575     2.4980    10.1913 </r>
       <r>     8.5444     2.5137    10.4098 </r>
       <r>     8.6313     2.2440    10.6048 </r>
       <r>     8.7182     1.9569    10.7749 </r>
       <r>     8.8051     1.7711    10.9289 </r>
       <r>     8.8921     1.6613    11.0733 </r>
       <r>     8.9790     1.6362    11.2155 </r>
       <r>     9.0659     1.7992    11.3719 </r>
       <r>     9.1528     2.1819    11.5615 </r>
       <r>     9.2398     2.5653    11.7845 </r>
       <r>     9.3267     2.6235    12.0126 </r>
       <r>     9.4136     2.2718    12.2100 </r>
       <r>     9.5005     1.7329    12.3607 </r>
       <r>     9.5874     1.2664    12.4707 </r>
       <r>     9.6744     0.9643    12.5546 </r>
       <r>     9.7613     0.8013    12.6242 </r>
       <r>     9.8482     0.7484    12.6893 </r>
       <r>     9.9351     0.7858    12.7576 </r>
       <r>    10.0220     0.8543    12.8318 </r>
       <r>    10.1090     0.8661    12.9071 </r>
       <r>    10.1959     0.7988    12.9765 </r>
       <r>    10.2828     0.7225    13.0393 </r>
       <r>    10.3697     0.7043    13.1006 </r>
       <r>    10.4567     0.7251    13.1636 </r>
       <r>    10.5436     0.7207    13.2262 </r>
       <r>    10.6305     0.6864    13.2859 </r>
       <r>    10.7174     0.6751    13.3446 </r>
       <r>    10.8043     0.6977    13.4052 </r>
       <r>    10.8913     0.7092    13.4669 </r>
       <r>    10.9782     0.6778    13.5258 </r>
       <r>    11.0651     0.6060    13.5785 </r>
       <r>    11.1520     0.5257    13.6242 </r>
       <r>    11.2390     0.4995    13.6676 </r>
       <r>    11.3259     0.5749    13.7176 </r>
       <r>    11.4128     0.7184    13.7800 </r>
       <r>    11.4997     0.8304    13.8522 </r>
       <r>    11.5866     0.8417    13.9253 </r>
       <r>    11.6736     0.7838    13.9935 </r>
       <r>    11.7605     0.7406    14.0578 </r>
       <r>    11.8474     0.7435    14.1225 </r>
       <r>    11.9343     0.7542    14.1880 </r>
       <r>    12.0212     0.7232    14.2509 </r>
       <r>    12.1082     0.6404    14.3066 </r>
       <r>    12.1951     0.5527    14.3546 </r>
       <r>    12.2820     0.5140    14.3993 </r>
       <r>    12.3689     0.5193    14.4444 </r>
       <r>    12.4559     0.5346    14.4909 </r>
       <r>    12.5428     0.5443    14.5382 </r>
       <r>    12.6297     0.5400    14.5851 </r>
       <r>    12.7166     0.5269    14.6309 </r>
       <r>    12.8035     0.5278    14.6768 </r>
       <r>    12.8905     0.5445    14.7241 </r>
       <r>    12.9774     0.5503    14.7720 </r>
       <r>    13.0643     0.5353    14.8185 </r>
       <r>    13.1512     0.5296    14.8645 </r>
       <r>    13.2382     0.5604    14.9132 </r>
       <r>    13.3251     0.6055    14.9659 </r>
       <r>    13.4120     0.6352    15.0211 </r>
       <r>    13.4989     0.6773    15.0799 </r>
       <r>    13.5858     0.7659    15.1465 </r>
       <r>    13.6728     0.8529    15.2207 </r>
       <r>    13.7597     0.8421    15.2939 </r>
       <r>    13.8466     0.6950    15.3543 </r>
       <r>    13.9335     0.4715    15.3953 </r>
       <r>    14.0204     0.2830    15.4199 </r>
       <r>    14.1074     0.2046    15.4376 </r>
       <r>    14.1943     0.2203    15.4568 </r>
       <r>    14.2812     0.2532    15.4788 </r>
       <r>    14.3681     0.2477    15.5003 </r>
       <r>    14.4551     0.2119    15.5187 </r>
       <r>    14.5420     0.1844    15.5348 </r>
       <r>    14.6289     0.1858    15.5509 </r>
       <r>    14.7158     0.2070    15.5689 </r>
       <r>    14.8027     0.2260    15.5886 </r>
       <r>    14.8897     0.2290    15.6085 </r>
       <r>    14.9766     0.2177    15.6274 </r>
       <r>    15.0635     0.2070    15.6454 </r>
       <r>    15.1504     0.2171    15.6642 </r>
       <r>    15.2374     0.2443    15.6855 </r>
       <r>    15.3243     0.2577    15.7079 </r>
       <r>    15.4112     0.2508    15.7297 </r>
       <r>    15.4981     0.2541    15.7518 </r>
       <r>    15.5850     0.2898    15.7770 </r>
       <r>    15.6720     0.3547    15.8078 </r>
       <r>    15.7589     0.4340    15.8455 </r>
       <r>    15.8458     0.4975    15.8888 </r>
       <r>    15.9327     0.4954    15.9318 </r>
       <r>    16.0196     0.3965    15.9663 </r>
       <r>    16.1066     0.2401    15.9872 </r>
       <r>    16.1935     0.1058    15.9964 </r>
       <r>    16.2804     0.0333    15.9992 </r>
       <r>    16.3673     0.0074    15.9999 </r>
       <r>    16.4543     0.0011    16.0000 </r>
       <r>    16.5412     0.0001    16.0000 </r>
       <r>    16.6281     0.0000    16.0000 </r>
       <r>    16.7150     0.0000    16.0000 </r>
       <r>    16.8019     0.0000    16.0000 </r>
       <r>    16.8889     0.0000    16.0000 </r>
       <r>    16.9758     0.0000    16.0000 </r>
       <r>    17.0627     0.0000    16.0000 </r>
       <r>    17.1496     0.0000    16.0000 </r>
       <r>    17.2366     0.0000    16.0000 </r>
       <r>    17.3235     0.0000    16.0000 </r>
       <r>    17.4104     0.0000    16.0000 </r>
       <r>    17.4973     0.0000    16.0000 </r>
       <r>    17.5842     0.0000    16.0000 </r>
       <r>    17.6712     0.0000    16.0000 </r>
       <r>    17.7581     0.0000    16.0000 </r>
       <r>    17.8450     0.0000    16.0000 </r>
       <r>    17.9319     0.0000    16.0000 </r>
      </set>
     </set>
    </array>
   </total>
  </dos>
 </calculation>
 <structure name="finalpos" >
  <crystal>
   <varray name="basis" >
    <v>       2.71500000       2.71500000       0.00000000 </v>
    <v>       0.00000000       2.71500000       2.71500000 </v>
    <v>       2.71500000       0.00000000       2.71500000 </v>
   </varray>
   <i name="volume">     40.02575175 </i>
   <varray name="rec_basis" >
    <v>       0.18416206       0.18416206      -0.18416206 </v>
    <v>      -0.18416206       0.18416206       0.18416206 </v>
    <v>       0.18416206      -0.18416206       0.18416206 </v>
   </varray>
  </crystal>
  <varray name="positions" >
   <v>       0.00000000       0.00000000       0.00000000 </v>
   <v>       0.25000000       0.25000000       0.25000000 </v>
  </varray>
 </structure>
</modeling>
