<?xml version="1.0" encoding="ISO-8859-1"?>
<modeling>
 <generator>
  <i name="program" type="string">vasp </i>
  <i name="version" type="string">5.4.4.18Apr17-6-g9f103f2a35  </i>
  <i name="subversion" type="string">(build May 20 2018 16:52:39) complex            parallel </i>
  <i name="platform" type="string">LinuxIFC </i>
  <i name="date" type="string">2022 10 29 </i>
  <i name="time" type="string">10:58:28 </i>
 </generator>
 <incar>
  <i type="string" name="SYSTEM"> NiO_af2</i>
  <i type="string" name="PREC">normal</i>
  <i type="int" name="ISPIN">     2</i>
  <v name="RWIGS">      1.28600000      0.82000000</v>
  <v name="MAGMOM">      2.00000000     -2.00000000      0.00000000      0.00000000</v>
  <i type="int" name="ISMEAR">    -5</i>
  <i type="logical" name="LWAVE"> F  </i>
  <i type="int" name="LORBIT">    11</i>
  <v type="int" name="KPOINT_BSE">    -1     0     0     0</v>
  <i type="logical" name="LDAU"> T  </i>
  <v type="int" name="LDAUTYPE">     2</v>
  <v type="int" name="LDAUL">     2    -1</v>
  <v name="LDAUU">      7.00000000      0.00000000</v>
 </incar>
 <structure name="primitive_cell" >
  <crystal>
   <varray name="basis" >
    <v>       2.08500000       0.00000000      -2.08500000 </v>
    <v>       0.00000000       2.08500000      -2.08500000 </v>
    <v>       2.08500000       2.08500000       0.00000000 </v>
   </varray>
   <i name="volume">     18.12792825 </i>
   <varray name="rec_basis" >
    <v>       0.23980815      -0.23980815      -0.23980815 </v>
    <v>      -0.23980815       0.23980815      -0.23980815 </v>
    <v>       0.23980815       0.23980815       0.23980815 </v>
   </varray>
  </crystal>
  <varray name="positions" >
   <v>       0.00000000       0.00000000       0.00000000 </v>
   <v>      -0.50000000      -0.50000000      -0.50000000 </v>
  </varray>
 </structure>
 <varray name="primitive_index" >
  <v type="int" >        1 </v>
  <v type="int" >        3 </v>
 </varray>
 <kpoints>
  <generation param="Monkhorst-Pack">
   <v type="int" name="divisions">       4        4        4 </v>
   <v name="usershift">      0.00000000       0.00000000       0.00000000 </v>
   <v name="genvec1">      0.25000000       0.00000000       0.00000000 </v>
   <v name="genvec2">      0.00000000       0.25000000       0.00000000 </v>
   <v name="genvec3">      0.00000000       0.00000000       0.25000000 </v>
   <v name="shift">      0.50000000       0.50000000       0.50000000 </v>
  </generation>
  <varray name="kpointlist" >
   <v>       0.12500000       0.12500000       0.12500000 </v>
   <v>       0.37500000       0.12500000       0.12500000 </v>
   <v>      -0.37500000       0.12500000       0.12500000 </v>
   <v>      -0.12500000       0.12500000       0.12500000 </v>
   <v>       0.37500000       0.37500000       0.12500000 </v>
   <v>      -0.37500000       0.37500000       0.12500000 </v>
   <v>      -0.12500000       0.37500000       0.12500000 </v>
   <v>      -0.37500000      -0.37500000       0.12500000 </v>
   <v>       0.37500000       0.37500000       0.37500000 </v>
   <v>      -0.37500000       0.37500000       0.37500000 </v>
  </varray>
  <varray name="weights" >
   <v>       0.03125000 </v>
   <v>       0.09375000 </v>
   <v>       0.09375000 </v>
   <v>       0.09375000 </v>
   <v>       0.09375000 </v>
   <v>       0.18750000 </v>
   <v>       0.18750000 </v>
   <v>       0.09375000 </v>
   <v>       0.03125000 </v>
   <v>       0.09375000 </v>
  </varray>
  <varray name="tetrahedronlist"  type="int" >
   <v type="int" >       12        1        2        5        9 </v>
   <v type="int" >       12        2        5        6       10 </v>
   <v type="int" >       12        2        3        6       10 </v>
   <v type="int" >       12        2        5        9       10 </v>
   <v type="int" >       12        3        6        7        8 </v>
   <v type="int" >       12        3        4        7        8 </v>
   <v type="int" >       12        3        6        8       10 </v>
   <v type="int" >       12        2        4        5        7 </v>
   <v type="int" >       12        1        2        4        5 </v>
   <v type="int" >       12        4        5        7        8 </v>
   <v type="int" >       12        5        6        8       10 </v>
   <v type="int" >       12        5        6       10       10 </v>
   <v type="int" >       12        5        9       10       10 </v>
   <v type="int" >       24        6        6        7        8 </v>
   <v type="int" >       24        6        6        7        7 </v>
   <v type="int" >       12        6        6        8       10 </v>
   <v type="int" >        6        6        6       10       10 </v>
   <v type="int" >       24        3        6        7        7 </v>
   <v type="int" >       12        2        3        6        7 </v>
   <v type="int" >       12        2        5        6        7 </v>
   <v type="int" >       12        5        6        7        8 </v>
   <v type="int" >        6        4        4        7        7 </v>
   <v type="int" >       12        3        4        7        7 </v>
   <v type="int" >       12        1        2        4        4 </v>
   <v type="int" >       12        2        4        4        7 </v>
   <v type="int" >       12        2        3        4        7 </v>
   <v type="int" >        6        9        9       10       10 </v>
   <v type="int" >        6        6        6        8        8 </v>
   <v type="int" >       12        5        6        8        8 </v>
   <v type="int" >       12        2        3        3        7 </v>
   <v type="int" >        6        3        3        7        7 </v>
   <v type="int" >        6        1        1        4        4 </v>
  </varray>
  <i name="volumeweight">      0.00260417 </i>
 </kpoints>
 <parameters>
  <separator name="general" >
   <i type="string" name="SYSTEM">NiO_af2</i>
   <i type="logical" name="LCOMPAT"> F  </i>
  </separator>
  <separator name="electronic" >
   <i type="string" name="PREC">normal</i>
   <i name="ENMAX">    400.00000000</i>
   <i name="ENAUG">    605.39200000</i>
   <i name="EDIFF">      0.00010000</i>
   <i type="int" name="IALGO">    38</i>
   <i type="int" name="IWAVPR">    10</i>
   <i type="int" name="NBANDS">    20</i>
   <i name="NELECT">     32.00000000</i>
   <i type="int" name="TURBO">     0</i>
   <i type="int" name="IRESTART">     0</i>
   <i type="int" name="NREBOOT">     0</i>
   <i type="int" name="NMIN">     0</i>
   <i name="EREF">      0.00000000</i>
   <separator name="electronic smearing" >
    <i type="int" name="ISMEAR">    -5</i>
    <i name="SIGMA">      0.20000000</i>
    <i name="KSPACING">      0.50000000</i>
    <i type="logical" name="KGAMMA"> T  </i>
   </separator>
   <separator name="electronic projectors" >
    <i type="logical" name="LREAL"> F  </i>
    <v name="ROPT">      0.00000000      0.00000000</v>
    <i type="int" name="LMAXPAW">  -100</i>
    <i type="int" name="LMAXMIX">     2</i>
    <i type="logical" name="NLSPLINE"> F  </i>
   </separator>
   <separator name="electronic startup" >
    <i type="int" name="ISTART">     0</i>
    <i type="int" name="ICHARG">     2</i>
    <i type="int" name="INIWAV">     1</i>
   </separator>
   <separator name="electronic spin" >
    <i type="int" name="ISPIN">     2</i>
    <i type="logical" name="LNONCOLLINEAR"> F  </i>
    <v name="MAGMOM">      2.00000000     -2.00000000      0.00000000      0.00000000</v>
    <i name="NUPDOWN">     -1.00000000</i>
    <i type="logical" name="LSORBIT"> F  </i>
    <v name="SAXIS">      0.00000000      0.00000000      1.00000000</v>
    <i type="logical" name="LSPIRAL"> F  </i>
    <v name="QSPIRAL">      0.00000000      0.00000000      0.00000000</v>
    <i type="logical" name="LZEROZ"> F  </i>
   </separator>
   <separator name="electronic exchange-correlation" >
    <i type="logical" name="LASPH"> F  </i>
    <i type="logical" name="LMETAGGA"> F  </i>
   </separator>
   <separator name="electronic convergence" >
    <i type="int" name="NELM">    60</i>
    <i type="int" name="NELMDL">    -5</i>
    <i type="int" name="NELMIN">     2</i>
    <i name="ENINI">    400.00000000</i>
    <separator name="electronic convergence detail" >
     <i type="logical" name="LDIAG"> T  </i>
     <i type="logical" name="LSUBROT"> F  </i>
     <i name="WEIMIN">      0.00000000</i>
     <i name="EBREAK">      0.00000125</i>
     <i name="DEPER">      0.30000000</i>
     <i type="int" name="NRMM">     4</i>
     <i name="TIME">      0.40000000</i>
    </separator>
   </separator>
   <separator name="electronic mixer" >
    <i name="AMIX">      0.40000000</i>
    <i name="BMIX">      1.00000000</i>
    <i name="AMIN">      0.10000000</i>
    <i name="AMIX_MAG">      1.60000000</i>
    <i name="BMIX_MAG">      1.00000000</i>
    <separator name="electronic mixer details" >
     <i type="int" name="IMIX">     4</i>
     <i type="logical" name="MIXFIRST"> F  </i>
     <i type="int" name="MAXMIX">   -45</i>
     <i name="WC">    100.00000000</i>
     <i type="int" name="INIMIX">     1</i>
     <i type="int" name="MIXPRE">     1</i>
     <i type="int" name="MREMOVE">     5</i>
    </separator>
   </separator>
   <separator name="electronic dipolcorrection" >
    <i type="logical" name="LDIPOL"> F  </i>
    <i type="logical" name="LMONO"> F  </i>
    <i type="int" name="IDIPOL">     0</i>
    <i name="EPSILON">      1.00000000</i>
    <v name="DIPOL">   -100.00000000   -100.00000000   -100.00000000</v>
    <i name="EFIELD">      0.00000000</i>
   </separator>
  </separator>
  <separator name="grids" >
   <i type="int" name="NGX">    28</i>
   <i type="int" name="NGY">    28</i>
   <i type="int" name="NGZ">    28</i>
   <i type="int" name="NGXF">    56</i>
   <i type="int" name="NGYF">    56</i>
   <i type="int" name="NGZF">    56</i>
   <i type="logical" name="ADDGRID"> F  </i>
  </separator>
  <separator name="ionic" >
   <i type="int" name="NSW">     0</i>
   <i type="int" name="IBRION">    -1</i>
   <i type="int" name="MDALGO">     0</i>
   <i type="int" name="ISIF">     2</i>
   <i name="PSTRESS">      0.00000000</i>
   <i name="EDIFFG">      0.00100000</i>
   <i type="int" name="NFREE">     0</i>
   <i name="POTIM">      0.50000000</i>
   <i name="SMASS">     -3.00000000</i>
   <i name="SCALEE">      1.00000000</i>
  </separator>
  <separator name="ionic md" >
   <i name="TEBEG">      0.00010000</i>
   <i name="TEEND">      0.00010000</i>
   <i type="int" name="NBLOCK">     1</i>
   <i type="int" name="KBLOCK">     1</i>
   <i type="int" name="NPACO">   256</i>
   <i name="APACO">     16.00000000</i>
  </separator>
  <separator name="symmetry" >
   <i type="int" name="ISYM">     2</i>
   <i name="SYMPREC">      0.00001000</i>
  </separator>
  <separator name="dos" >
   <i type="int" name="LORBIT">    11</i>
   <v name="RWIGS">      1.28600000      0.82000000</v>
   <i type="int" name="NEDOS">   301</i>
   <i name="EMIN">     10.00000000</i>
   <i name="EMAX">    -10.00000000</i>
   <i name="EFERMI">      0.00000000</i>
  </separator>
  <separator name="writing" >
   <i type="int" name="NWRITE">     2</i>
   <i type="logical" name="LWAVE"> F  </i>
   <i type="logical" name="LDOWNSAMPLE"> F  </i>
   <i type="logical" name="LCHARG"> T  </i>
   <i type="logical" name="LPARD"> F  </i>
   <i type="logical" name="LVTOT"> F  </i>
   <i type="logical" name="LVHAR"> F  </i>
   <i type="logical" name="LELF"> F  </i>
   <i type="logical" name="LOPTICS"> F  </i>
   <v name="STM">      0.00000000      0.00000000      0.00000000      0.00000000      0.00000000      0.00000000      0.00000000</v>
  </separator>
  <separator name="performance" >
   <i type="int" name="NPAR">     1</i>
   <i type="int" name="NSIM">     4</i>
   <i type="int" name="NBLK">    -1</i>
   <i type="logical" name="LPLANE"> T  </i>
   <i type="logical" name="LSCALAPACK"> T  </i>
   <i type="logical" name="LSCAAWARE"> F  </i>
   <i type="logical" name="LSCALU"> F  </i>
   <i type="logical" name="LASYNC"> F  </i>
   <i type="logical" name="LORBITALREAL"> F  </i>
  </separator>
  <separator name="miscellaneous" >
   <i type="int" name="IDIOT">     3</i>
   <i type="int" name="ISPECIAL">     0</i>
   <i type="logical" name="LMUSIC"> F  </i>
   <v name="POMASS">     58.69000000     16.00000000</v>
   <v name="DARWINR">      0.00000000      0.00000000</v>
   <v name="DARWINV">      1.00000000      1.00000000</v>
   <i type="logical" name="LCORR"> T  </i>
  </separator>
  <i type="logical" name="GGA_COMPAT"> T  </i>
  <i type="logical" name="LBERRY"> F  </i>
  <i type="int" name="ICORELEVEL">     0</i>
  <i type="logical" name="LDAU"> T  </i>
  <v type="int" name="LDAUTYPE">     2</v>
  <v type="int" name="LDAUL">     2</v>
  <v name="LDAUU">      7.00000000</v>
  <v name="LDAUJ">      0.00000000</v>
  <i type="int" name="LDAUPRINT">     0</i>
  <i type="int" name="I_CONSTRAINED_M">     0</i>
  <separator name="electronic exchange-correlation" >
   <i type="string" name="GGA">--</i>
   <i type="int" name="VOSKOWN">     0</i>
   <i type="logical" name="LHFCALC"> F  </i>
   <i type="string" name="PRECFOCK"></i>
   <i type="logical" name="LSYMGRAD"> F  </i>
   <i type="logical" name="LHFONE"> F  </i>
   <i type="logical" name="LRHFCALC"> F  </i>
   <i type="logical" name="LTHOMAS"> F  </i>
   <i type="logical" name="LMODELHF"> F  </i>
   <i name="ENCUT4O">     -1.00000000</i>
   <i type="int" name="EXXOEP">     0</i>
   <i type="int" name="FOURORBIT">     0</i>
   <i name="AEXX">      0.00000000</i>
   <i name="HFALPHA">      0.00000000</i>
   <i name="MCALPHA">      0.00000000</i>
   <i name="ALDAX">      1.00000000</i>
   <i name="AGGAX">      1.00000000</i>
   <i name="ALDAC">      1.00000000</i>
   <i name="AGGAC">      1.00000000</i>
   <i type="int" name="NKREDX">     1</i>
   <i type="int" name="NKREDY">     1</i>
   <i type="int" name="NKREDZ">     1</i>
   <i type="logical" name="SHIFTRED"> F  </i>
   <i type="logical" name="ODDONLY"> F  </i>
   <i type="logical" name="EVENONLY"> F  </i>
   <i type="int" name="LMAXFOCK">     0</i>
   <i type="int" name="NMAXFOCKAE">     0</i>
   <i type="logical" name="LFOCKAEDFT"> F  </i>
   <i name="HFSCREEN">      0.00000000</i>
   <i name="HFSCREENC">      0.00000000</i>
   <i type="int" name="NBANDSGWLOW">     0</i>
  </separator>
  <separator name="vdW DFT" >
   <i type="logical" name="LUSE_VDW"> F  </i>
   <i name="Zab_VDW">     -0.84910000</i>
   <i name="PARAM1">      0.12340000</i>
   <i name="PARAM2">      1.00000000</i>
   <i name="PARAM3">      0.00000000</i>
  </separator>
  <separator name="model GW" >
   <i type="int" name="MODEL_GW">     0</i>
   <i name="MODEL_EPS0">      5.43837847</i>
   <i name="MODEL_ALPHA">      1.00000000</i>
  </separator>
  <separator name="linear response parameters" >
   <i type="logical" name="LEPSILON"> F  </i>
   <i type="logical" name="LRPA"> F  </i>
   <i type="logical" name="LNABLA"> F  </i>
   <i type="logical" name="LVEL"> F  </i>
   <i type="int" name="KINTER">     0</i>
   <i name="CSHIFT">      0.10000000</i>
   <i name="OMEGAMAX">     -1.00000000</i>
   <i name="DEG_THRESHOLD">      0.00200000</i>
   <i name="RTIME">     -0.10000000</i>
   <i name="WPLASMAI">      0.00000000</i>
   <v name="DFIELD">      0.00000000      0.00000000      0.00000000</v>
   <v name="WPLASMA">      0.00000000      0.00000000      0.00000000      0.00000000      0.00000000      0.00000000      0.00000000      0.00000000      0.00000000</v>
  </separator>
  <separator name="orbital magnetization" >
   <i type="logical" name="NUCIND"> F  </i>
   <v name="MAGPOS">      0.00000000      0.00000000      0.00000000</v>
   <i type="logical" name="LNICSALL"> T  </i>
   <i type="logical" name="ORBITALMAG"> F  </i>
   <i type="logical" name="LMAGBLOCH"> F  </i>
   <i type="logical" name="LCHIMAG"> F  </i>
   <i type="logical" name="LGAUGE"> T  </i>
   <i type="int" name="MAGATOM">     0</i>
   <v name="MAGDIPOL">      0.00000000      0.00000000      0.00000000</v>
   <v name="AVECCONST">      0.00000000      0.00000000      0.00000000</v>
  </separator>
  <separator name="response functions" >
   <i type="logical" name="LADDER"> F  </i>
   <i type="logical" name="LRPAFORCE"> F  </i>
   <i type="logical" name="LFXC"> F  </i>
   <i type="logical" name="LHARTREE"> T  </i>
   <i type="int" name="IBSE">     0</i>
   <v type="int" name="KPOINT">    -1     0     0     0</v>
   <i type="logical" name="LTCTE"> F  </i>
   <i type="logical" name="LTETE"> F  </i>
   <i type="logical" name="LTRIPLET"> F  </i>
   <i type="logical" name="LFXCEPS"> F  </i>
   <i type="logical" name="LFXHEG"> F  </i>
   <i type="int" name="NATURALO">     2</i>
   <i type="logical" name="L2ORDER"> F  </i>
   <i type="logical" name="LMP2LT"> F  </i>
   <i type="logical" name="LUSEW"> F  </i>
   <i name="ENCUTGW">     -2.00000000</i>
   <i name="ENCUTGWSOFT">     -2.00000000</i>
   <i name="ENCUTLF">     -1.00000000</i>
   <i type="int" name="LMAXMP2">    -1</i>
   <i name="SCISSOR">      0.00000000</i>
   <i type="int" name="NOMEGA">     0</i>
   <i type="int" name="NOMEGAR">     0</i>
   <i type="int" name="NBANDSGW">    -1</i>
   <i type="int" name="NBANDSO">    -1</i>
   <i type="int" name="NBANDSV">    -1</i>
   <i type="int" name="NELM">     1</i>
   <i type="int" name="NELMHF">     1</i>
   <i type="int" name="DIM">     3</i>
   <i type="int" name="ANTIRES">     0</i>
   <i name="OMEGAMAX">    -30.00000000</i>
   <i name="OMEGAMIN">    -30.00000000</i>
   <i name="OMEGATL">   -200.00000000</i>
   <i type="int" name="OMEGAGRID">   140</i>
   <i name="CSHIFT">     -0.10000000</i>
   <i type="logical" name="SELFENERGY"> F  </i>
   <i type="logical" name="LSPECTRAL"> F  </i>
   <i type="logical" name="LSPECTRALGW"> F  </i>
   <i type="logical" name="LSINGLES"> F  </i>
   <i type="logical" name="LFERMIGW"> F  </i>
   <i type="logical" name="ODDONLYGW"> F  </i>
   <i type="logical" name="EVENONLYGW"> F  </i>
   <i type="int" name="NKREDLFX">     1</i>
   <i type="int" name="NKREDLFY">     1</i>
   <i type="int" name="NKREDLFZ">     1</i>
   <i type="int" name="MAXMEM">  2800</i>
   <i type="int" name="TELESCOPE">     0</i>
   <i type="int" name="TAUPAR">     1</i>
   <i type="int" name="OMEGAPAR">    -1</i>
   <i name="LAMBDA">      1.00000000</i>
  </separator>
  <separator name="External order field" >
   <i name="OFIELD_KAPPA">      0.00000000</i>
   <v name="OFIELD_K">      0.00000000      0.00000000      0.00000000</v>
   <i name="OFIELD_Q6_NEAR">      0.00000000</i>
   <i name="OFIELD_Q6_FAR">      0.00000000</i>
   <i name="OFIELD_A">      0.00000000</i>
  </separator>
 </parameters>
 <atominfo>
  <atoms>       4 </atoms>
  <types>       2 </types>
  <array name="atoms" >
   <dimension dim="1">ion</dimension>
   <field type="string">element</field>
   <field type="int">atomtype</field>
   <set>
    <rc><c>Ni</c><c>   1</c></rc>
    <rc><c>Ni</c><c>   1</c></rc>
    <rc><c>O </c><c>   2</c></rc>
    <rc><c>O </c><c>   2</c></rc>
   </set>
  </array>
  <array name="atomtypes" >
   <dimension dim="1">type</dimension>
   <field type="int">atomspertype</field>
   <field type="string">element</field>
   <field>mass</field>
   <field>valence</field>
   <field type="string">pseudopotential</field>
   <set>
    <rc><c>   2</c><c>Ni</c><c>     58.69000000</c><c>     10.00000000</c><c>  PAW Ni                                </c></rc>
    <rc><c>   2</c><c>O </c><c>     16.00000000</c><c>      6.00000000</c><c>  PAW O                                 </c></rc>
   </set>
  </array>
 </atominfo>
 <structure name="initialpos" >
  <crystal>
   <varray name="basis" >
    <v>       4.17000000       2.08500000       2.08500000 </v>
    <v>       2.08500000       4.17000000       2.08500000 </v>
    <v>       2.08500000       2.08500000       4.17000000 </v>
   </varray>
   <i name="volume">     36.25585650 </i>
   <varray name="rec_basis" >
    <v>       0.35971223      -0.11990408      -0.11990408 </v>
    <v>      -0.11990408       0.35971223      -0.11990408 </v>
    <v>      -0.11990408      -0.11990408       0.35971223 </v>
   </varray>
  </crystal>
  <varray name="positions" >
   <v>       0.00000000       0.00000000       0.00000000 </v>
   <v>       0.50000000       0.50000000       0.50000000 </v>
   <v>       0.25000000       0.25000000       0.25000000 </v>
   <v>       0.75000000       0.75000000       0.75000000 </v>
  </varray>
 </structure>
 <calculation>
  <scstep>
   <time name="dav">    1.00    1.66</time>
   <time name="total">    1.92    3.55</time>
   <energy>
    <i name="alphaZ">    217.71629331 </i>
    <i name="ewald">  -2604.77031634 </i>
    <i name="hartreedc">   -652.85252222 </i>
    <i name="XCdc">    118.86465051 </i>
    <i name="pawpsdc">   2234.65535088 </i>
    <i name="pawaedc">  -2320.91104823 </i>
    <i name="eentropy">      0.00000000 </i>
    <i name="bandstr">    216.42116831 </i>
    <i name="atom">   3024.74254395 </i>
    <i name="e_fr_energy">    233.86612016 </i>
    <i name="e_wo_entrp">    233.86612016 </i>
    <i name="e_0_energy">    233.86612016 </i>
   </energy>
  </scstep>
  <scstep>
   <time name="dav">    1.00    1.63</time>
   <time name="total">    1.01    1.63</time>
   <energy>
    <i name="e_fr_energy">      6.91610416 </i>
    <i name="e_wo_entrp">      6.91610416 </i>
    <i name="e_0_energy">      6.91610416 </i>
   </energy>
  </scstep>
  <scstep>
   <time name="dav">    1.05    1.41</time>
   <time name="total">    1.05    1.41</time>
   <energy>
    <i name="e_fr_energy">    -17.76265172 </i>
    <i name="e_wo_entrp">    -17.76265172 </i>
    <i name="e_0_energy">    -17.76265172 </i>
   </energy>
  </scstep>
  <scstep>
   <time name="dav">    1.05    1.46</time>
   <time name="total">    1.05    1.46</time>
   <energy>
    <i name="e_fr_energy">    -18.30806846 </i>
    <i name="e_wo_entrp">    -18.30806846 </i>
    <i name="e_0_energy">    -18.30806846 </i>
   </energy>
  </scstep>
  <scstep>
   <time name="dav">    1.05    2.08</time>
   <time name="total">    1.20    2.22</time>
   <energy>
    <i name="e_fr_energy">    -18.31686552 </i>
    <i name="e_wo_entrp">    -18.31686552 </i>
    <i name="e_0_energy">    -18.31686552 </i>
   </energy>
  </scstep>
  <scstep>
   <time name="dav">    1.43    1.69</time>
   <time name="total">    2.48    3.12</time>
   <energy>
    <i name="e_fr_energy">    -19.45283162 </i>
    <i name="e_wo_entrp">    -19.45283162 </i>
    <i name="e_0_energy">    -19.45283162 </i>
   </energy>
  </scstep>
  <scstep>
   <time name="dav">    1.12    2.24</time>
   <time name="total">    2.17    4.35</time>
   <energy>
    <i name="e_fr_energy">    -19.68418831 </i>
    <i name="e_wo_entrp">    -19.68418831 </i>
    <i name="e_0_energy">    -19.68418831 </i>
   </energy>
  </scstep>
  <scstep>
   <time name="dav">    1.18    1.45</time>
   <time name="total">    2.24    3.32</time>
   <energy>
    <i name="e_fr_energy">    -19.76025988 </i>
    <i name="e_wo_entrp">    -19.76025988 </i>
    <i name="e_0_energy">    -19.76025988 </i>
   </energy>
  </scstep>
  <scstep>
   <time name="dav">    1.22    2.25</time>
   <time name="total">    2.26    4.35</time>
   <energy>
    <i name="e_fr_energy">    -19.74226864 </i>
    <i name="e_wo_entrp">    -19.74226864 </i>
    <i name="e_0_energy">    -19.74226864 </i>
   </energy>
  </scstep>
  <scstep>
   <time name="dav">    1.17    2.00</time>
   <time name="total">    2.22    3.84</time>
   <energy>
    <i name="e_fr_energy">    -19.75203508 </i>
    <i name="e_wo_entrp">    -19.75203508 </i>
    <i name="e_0_energy">    -19.75203508 </i>
   </energy>
  </scstep>
  <scstep>
   <time name="dav">    1.14    1.70</time>
   <time name="total">    2.19    3.53</time>
   <energy>
    <i name="e_fr_energy">    -19.75222778 </i>
    <i name="e_wo_entrp">    -19.75222778 </i>
    <i name="e_0_energy">    -19.75222778 </i>
   </energy>
  </scstep>
  <scstep>
   <time name="dav">    0.96    1.36</time>
   <time name="total">    1.87    2.76</time>
   <energy>
    <i name="alphaZ">    217.71629331 </i>
    <i name="ewald">  -2604.77031634 </i>
    <i name="hartreedc">   -632.42494170 </i>
    <i name="XCdc">    119.27041788 </i>
    <i name="pawpsdc">   2353.76745992 </i>
    <i name="pawaedc">  -2441.93578751 </i>
    <i name="eentropy">      0.00000000 </i>
    <i name="bandstr">    -56.11798364 </i>
    <i name="atom">   3024.74254395 </i>
    <i name="e_fr_energy">    -19.75231413 </i>
    <i name="e_wo_entrp">    -19.75231413 </i>
    <i name="e_0_energy">    -19.75231413 </i>
   </energy>
  </scstep>
  <structure>
   <crystal>
    <varray name="basis" >
     <v>       4.17000000       2.08500000       2.08500000 </v>
     <v>       2.08500000       4.17000000       2.08500000 </v>
     <v>       2.08500000       2.08500000       4.17000000 </v>
    </varray>
    <i name="volume">     36.25585650 </i>
    <varray name="rec_basis" >
     <v>       0.35971223      -0.11990408      -0.11990408 </v>
     <v>      -0.11990408       0.35971223      -0.11990408 </v>
     <v>      -0.11990408      -0.11990408       0.35971223 </v>
    </varray>
   </crystal>
   <varray name="positions" >
    <v>       0.00000000       0.00000000       0.00000000 </v>
    <v>       0.50000000       0.50000000       0.50000000 </v>
    <v>       0.25000000       0.25000000       0.25000000 </v>
    <v>       0.75000000       0.75000000       0.75000000 </v>
   </varray>
  </structure>
  <varray name="forces" >
   <v>      -0.00000000       0.00000000      -0.00000000 </v>
   <v>      -0.00000000       0.00000000      -0.00000000 </v>
   <v>      -0.00000000      -0.00000000       0.00000000 </v>
   <v>       0.00000000      -0.00000000      -0.00000000 </v>
  </varray>
  <varray name="stress" >
   <v>     -39.49048295      -2.45638734      -2.45638734 </v>
   <v>      -2.45638734     -39.49048295      -2.45638734 </v>
   <v>      -2.45638734      -2.45638734     -39.49048295 </v>
  </varray>
  <energy>
   <i name="e_fr_energy">    -19.75231413 </i>
   <i name="e_wo_entrp">    -19.75231413 </i>
   <i name="e_0_energy">      0.00000000 </i>
  </energy>
  <time name="totalsc">   24.96   41.34</time>
  <eigenvalues>
   <array>
    <dimension dim="1">band</dimension>
    <dimension dim="2">kpoint</dimension>
    <dimension dim="3">spin</dimension>
    <field>eigene</field>
    <field>occ</field>
    <set>
     <set comment="spin 1">
      <set comment="kpoint 1">
       <r>  -14.6507    1.0000 </r>
       <r>  -13.3029    1.0000 </r>
       <r>   -3.4217    1.0000 </r>
       <r>   -2.8590    1.0000 </r>
       <r>   -2.8590    1.0000 </r>
       <r>   -1.0599    1.0000 </r>
       <r>   -1.0599    1.0000 </r>
       <r>   -0.8202    1.0000 </r>
       <r>    0.0655    1.0000 </r>
       <r>    0.0655    1.0000 </r>
       <r>    1.3317    1.0000 </r>
       <r>    2.4964    1.0000 </r>
       <r>    2.4964    1.0000 </r>
       <r>    2.5063    1.0000 </r>
       <r>    3.0186    1.0000 </r>
       <r>    3.0186    1.0000 </r>
       <r>    7.3613    0.0000 </r>
       <r>    7.8480    0.0000 </r>
       <r>    7.8480    0.0000 </r>
       <r>   10.9609    0.0000 </r>
      </set>
      <set comment="kpoint 2">
       <r>  -14.0368    1.0000 </r>
       <r>  -13.2586    1.0000 </r>
       <r>   -3.2227    1.0000 </r>
       <r>   -2.7503    1.0000 </r>
       <r>   -2.0644    1.0000 </r>
       <r>   -1.6851    1.0000 </r>
       <r>   -0.9866    1.0000 </r>
       <r>   -0.9321    1.0000 </r>
       <r>   -0.5695    1.0000 </r>
       <r>    0.2244    1.0000 </r>
       <r>    0.7849    1.0000 </r>
       <r>    1.3978    1.0000 </r>
       <r>    2.0381    1.0000 </r>
       <r>    2.2135    1.0000 </r>
       <r>    2.6084    1.0000 </r>
       <r>    2.8016    1.0000 </r>
       <r>    7.2685    0.0000 </r>
       <r>    7.8944    0.0000 </r>
       <r>   10.5732    0.0000 </r>
       <r>   13.2207    0.0000 </r>
      </set>
      <set comment="kpoint 3">
       <r>  -13.3794    1.0000 </r>
       <r>  -13.1463    1.0000 </r>
       <r>   -2.9612    1.0000 </r>
       <r>   -2.7505    1.0000 </r>
       <r>   -2.7088    1.0000 </r>
       <r>   -1.9336    1.0000 </r>
       <r>   -1.1099    1.0000 </r>
       <r>   -0.6679    1.0000 </r>
       <r>   -0.6225    1.0000 </r>
       <r>    0.2469    1.0000 </r>
       <r>    0.6024    1.0000 </r>
       <r>    1.1554    1.0000 </r>
       <r>    1.5686    1.0000 </r>
       <r>    1.6959    1.0000 </r>
       <r>    2.3958    1.0000 </r>
       <r>    2.8861    1.0000 </r>
       <r>    7.8414    0.0000 </r>
       <r>    7.8737    0.0000 </r>
       <r>   12.5006    0.0000 </r>
       <r>   12.7191    0.0000 </r>
      </set>
      <set comment="kpoint 4">
       <r>  -14.0988    1.0000 </r>
       <r>  -13.1881    1.0000 </r>
       <r>   -2.8354    1.0000 </r>
       <r>   -2.7613    1.0000 </r>
       <r>   -2.5433    1.0000 </r>
       <r>   -1.7859    1.0000 </r>
       <r>   -1.0012    1.0000 </r>
       <r>   -0.7351    1.0000 </r>
       <r>   -0.6313    1.0000 </r>
       <r>    0.3365    1.0000 </r>
       <r>    0.9169    1.0000 </r>
       <r>    1.2562    1.0000 </r>
       <r>    1.7244    1.0000 </r>
       <r>    1.7819    1.0000 </r>
       <r>    3.0328    1.0000 </r>
       <r>    3.2471    1.0000 </r>
       <r>    7.7039    0.0000 </r>
       <r>    7.7639    0.0000 </r>
       <r>    9.7727    0.0000 </r>
       <r>   13.3525    0.0000 </r>
      </set>
      <set comment="kpoint 5">
       <r>  -13.9146    1.0000 </r>
       <r>  -13.4021    1.0000 </r>
       <r>   -2.9787    1.0000 </r>
       <r>   -2.7407    1.0000 </r>
       <r>   -2.1055    1.0000 </r>
       <r>   -1.9847    1.0000 </r>
       <r>   -0.9763    1.0000 </r>
       <r>   -0.8430    1.0000 </r>
       <r>   -0.5244    1.0000 </r>
       <r>    0.2528    1.0000 </r>
       <r>    0.7285    1.0000 </r>
       <r>    1.2825    1.0000 </r>
       <r>    1.7991    1.0000 </r>
       <r>    1.8369    1.0000 </r>
       <r>    3.0278    1.0000 </r>
       <r>    3.2361    1.0000 </r>
       <r>    7.6479    0.0000 </r>
       <r>    7.8188    0.0000 </r>
       <r>   10.2422    0.0000 </r>
       <r>   12.4655    0.0000 </r>
      </set>
      <set comment="kpoint 6">
       <r>  -13.3400    1.0000 </r>
       <r>  -13.1909    1.0000 </r>
       <r>   -2.9507    1.0000 </r>
       <r>   -2.6978    1.0000 </r>
       <r>   -2.3500    1.0000 </r>
       <r>   -2.2293    1.0000 </r>
       <r>   -1.4025    1.0000 </r>
       <r>   -0.7132    1.0000 </r>
       <r>   -0.2981    1.0000 </r>
       <r>    0.1254    1.0000 </r>
       <r>    0.8728    1.0000 </r>
       <r>    1.1220    1.0000 </r>
       <r>    1.2974    1.0000 </r>
       <r>    1.6239    1.0000 </r>
       <r>    2.5512    1.0000 </r>
       <r>    2.7506    1.0000 </r>
       <r>    7.7512    0.0000 </r>
       <r>    7.8828    0.0000 </r>
       <r>   12.7527    0.0000 </r>
       <r>   13.2294    0.0000 </r>
      </set>
      <set comment="kpoint 7">
       <r>  -13.3888    1.0000 </r>
       <r>  -13.1479    1.0000 </r>
       <r>   -3.1508    1.0000 </r>
       <r>   -2.4967    1.0000 </r>
       <r>   -2.0274    1.0000 </r>
       <r>   -1.8136    1.0000 </r>
       <r>   -1.6848    1.0000 </r>
       <r>   -1.1584    1.0000 </r>
       <r>   -0.1807    1.0000 </r>
       <r>   -0.0313    1.0000 </r>
       <r>    0.9220    1.0000 </r>
       <r>    1.1706    1.0000 </r>
       <r>    1.2821    1.0000 </r>
       <r>    1.7454    1.0000 </r>
       <r>    2.2601    1.0000 </r>
       <r>    2.6640    1.0000 </r>
       <r>    7.5324    0.0000 </r>
       <r>    8.1182    0.0000 </r>
       <r>   12.5992    0.0000 </r>
       <r>   13.8975    0.0000 </r>
      </set>
      <set comment="kpoint 8">
       <r>  -13.3138    1.0000 </r>
       <r>  -13.2071    1.0000 </r>
       <r>   -3.4761    1.0000 </r>
       <r>   -2.7692    1.0000 </r>
       <r>   -2.5436    1.0000 </r>
       <r>   -1.5440    1.0000 </r>
       <r>   -1.3410    1.0000 </r>
       <r>   -0.6442    1.0000 </r>
       <r>   -0.3904    1.0000 </r>
       <r>    0.3430    1.0000 </r>
       <r>    0.5024    1.0000 </r>
       <r>    1.2707    1.0000 </r>
       <r>    1.4406    1.0000 </r>
       <r>    1.4934    1.0000 </r>
       <r>    2.8375    1.0000 </r>
       <r>    2.8794    1.0000 </r>
       <r>    8.0125    0.0000 </r>
       <r>    8.1375    0.0000 </r>
       <r>   11.2420    0.0000 </r>
       <r>   11.6926    0.0000 </r>
      </set>
      <set comment="kpoint 9">
       <r>  -14.3002    1.0000 </r>
       <r>  -13.7497    1.0000 </r>
       <r>   -2.8081    1.0000 </r>
       <r>   -2.8081    1.0000 </r>
       <r>   -2.5277    1.0000 </r>
       <r>   -1.2484    1.0000 </r>
       <r>   -1.0264    1.0000 </r>
       <r>   -1.0264    1.0000 </r>
       <r>   -0.0641    1.0000 </r>
       <r>   -0.0641    1.0000 </r>
       <r>    1.0874    1.0000 </r>
       <r>    1.6437    1.0000 </r>
       <r>    2.1814    1.0000 </r>
       <r>    2.1814    1.0000 </r>
       <r>    3.4465    1.0000 </r>
       <r>    3.4465    1.0000 </r>
       <r>    7.7475    0.0000 </r>
       <r>    7.7475    0.0000 </r>
       <r>    8.9710    0.0000 </r>
       <r>   10.4436    0.0000 </r>
      </set>
      <set comment="kpoint 10">
       <r>  -13.7636    1.0000 </r>
       <r>  -13.5600    1.0000 </r>
       <r>   -3.2354    1.0000 </r>
       <r>   -2.7293    1.0000 </r>
       <r>   -1.9645    1.0000 </r>
       <r>   -1.6369    1.0000 </r>
       <r>   -1.0249    1.0000 </r>
       <r>   -0.9602    1.0000 </r>
       <r>   -0.4292    1.0000 </r>
       <r>    0.1473    1.0000 </r>
       <r>    0.5336    1.0000 </r>
       <r>    1.3496    1.0000 </r>
       <r>    2.2182    1.0000 </r>
       <r>    2.3432    1.0000 </r>
       <r>    2.4610    1.0000 </r>
       <r>    2.7965    1.0000 </r>
       <r>    7.2692    0.0000 </r>
       <r>    7.9470    0.0000 </r>
       <r>   11.5213    0.0000 </r>
       <r>   11.7959    0.0000 </r>
      </set>
     </set>
     <set comment="spin 2">
      <set comment="kpoint 1">
       <r>  -14.6507    1.0000 </r>
       <r>  -13.3029    1.0000 </r>
       <r>   -3.4217    1.0000 </r>
       <r>   -2.8590    1.0000 </r>
       <r>   -2.8590    1.0000 </r>
       <r>   -1.0599    1.0000 </r>
       <r>   -1.0599    1.0000 </r>
       <r>   -0.8202    1.0000 </r>
       <r>    0.0655    1.0000 </r>
       <r>    0.0655    1.0000 </r>
       <r>    1.3317    1.0000 </r>
       <r>    2.4964    1.0000 </r>
       <r>    2.4964    1.0000 </r>
       <r>    2.5063    1.0000 </r>
       <r>    3.0186    1.0000 </r>
       <r>    3.0186    1.0000 </r>
       <r>    7.3613    0.0000 </r>
       <r>    7.8480    0.0000 </r>
       <r>    7.8480    0.0000 </r>
       <r>   10.9609    0.0000 </r>
      </set>
      <set comment="kpoint 2">
       <r>  -14.0368    1.0000 </r>
       <r>  -13.2586    1.0000 </r>
       <r>   -3.2227    1.0000 </r>
       <r>   -2.7503    1.0000 </r>
       <r>   -2.0644    1.0000 </r>
       <r>   -1.6851    1.0000 </r>
       <r>   -0.9866    1.0000 </r>
       <r>   -0.9321    1.0000 </r>
       <r>   -0.5695    1.0000 </r>
       <r>    0.2244    1.0000 </r>
       <r>    0.7849    1.0000 </r>
       <r>    1.3978    1.0000 </r>
       <r>    2.0381    1.0000 </r>
       <r>    2.2135    1.0000 </r>
       <r>    2.6084    1.0000 </r>
       <r>    2.8016    1.0000 </r>
       <r>    7.2685    0.0000 </r>
       <r>    7.8944    0.0000 </r>
       <r>   10.5732    0.0000 </r>
       <r>   13.2207    0.0000 </r>
      </set>
      <set comment="kpoint 3">
       <r>  -13.3794    1.0000 </r>
       <r>  -13.1463    1.0000 </r>
       <r>   -2.9612    1.0000 </r>
       <r>   -2.7505    1.0000 </r>
       <r>   -2.7088    1.0000 </r>
       <r>   -1.9336    1.0000 </r>
       <r>   -1.1099    1.0000 </r>
       <r>   -0.6679    1.0000 </r>
       <r>   -0.6225    1.0000 </r>
       <r>    0.2469    1.0000 </r>
       <r>    0.6024    1.0000 </r>
       <r>    1.1554    1.0000 </r>
       <r>    1.5686    1.0000 </r>
       <r>    1.6959    1.0000 </r>
       <r>    2.3958    1.0000 </r>
       <r>    2.8861    1.0000 </r>
       <r>    7.8414    0.0000 </r>
       <r>    7.8737    0.0000 </r>
       <r>   12.5006    0.0000 </r>
       <r>   12.7191    0.0000 </r>
      </set>
      <set comment="kpoint 4">
       <r>  -14.0988    1.0000 </r>
       <r>  -13.1881    1.0000 </r>
       <r>   -2.8354    1.0000 </r>
       <r>   -2.7613    1.0000 </r>
       <r>   -2.5433    1.0000 </r>
       <r>   -1.7859    1.0000 </r>
       <r>   -1.0012    1.0000 </r>
       <r>   -0.7351    1.0000 </r>
       <r>   -0.6313    1.0000 </r>
       <r>    0.3365    1.0000 </r>
       <r>    0.9169    1.0000 </r>
       <r>    1.2562    1.0000 </r>
       <r>    1.7244    1.0000 </r>
       <r>    1.7819    1.0000 </r>
       <r>    3.0328    1.0000 </r>
       <r>    3.2471    1.0000 </r>
       <r>    7.7039    0.0000 </r>
       <r>    7.7639    0.0000 </r>
       <r>    9.7727    0.0000 </r>
       <r>   13.3525    0.0000 </r>
      </set>
      <set comment="kpoint 5">
       <r>  -13.9146    1.0000 </r>
       <r>  -13.4021    1.0000 </r>
       <r>   -2.9787    1.0000 </r>
       <r>   -2.7407    1.0000 </r>
       <r>   -2.1055    1.0000 </r>
       <r>   -1.9847    1.0000 </r>
       <r>   -0.9763    1.0000 </r>
       <r>   -0.8430    1.0000 </r>
       <r>   -0.5244    1.0000 </r>
       <r>    0.2528    1.0000 </r>
       <r>    0.7285    1.0000 </r>
       <r>    1.2825    1.0000 </r>
       <r>    1.7991    1.0000 </r>
       <r>    1.8369    1.0000 </r>
       <r>    3.0278    1.0000 </r>
       <r>    3.2361    1.0000 </r>
       <r>    7.6479    0.0000 </r>
       <r>    7.8188    0.0000 </r>
       <r>   10.2422    0.0000 </r>
       <r>   12.4655    0.0000 </r>
      </set>
      <set comment="kpoint 6">
       <r>  -13.3400    1.0000 </r>
       <r>  -13.1909    1.0000 </r>
       <r>   -2.9507    1.0000 </r>
       <r>   -2.6978    1.0000 </r>
       <r>   -2.3500    1.0000 </r>
       <r>   -2.2293    1.0000 </r>
       <r>   -1.4025    1.0000 </r>
       <r>   -0.7132    1.0000 </r>
       <r>   -0.2981    1.0000 </r>
       <r>    0.1254    1.0000 </r>
       <r>    0.8728    1.0000 </r>
       <r>    1.1220    1.0000 </r>
       <r>    1.2974    1.0000 </r>
       <r>    1.6239    1.0000 </r>
       <r>    2.5512    1.0000 </r>
       <r>    2.7506    1.0000 </r>
       <r>    7.7512    0.0000 </r>
       <r>    7.8828    0.0000 </r>
       <r>   12.7527    0.0000 </r>
       <r>   13.2294    0.0000 </r>
      </set>
      <set comment="kpoint 7">
       <r>  -13.3888    1.0000 </r>
       <r>  -13.1479    1.0000 </r>
       <r>   -3.1508    1.0000 </r>
       <r>   -2.4967    1.0000 </r>
       <r>   -2.0274    1.0000 </r>
       <r>   -1.8136    1.0000 </r>
       <r>   -1.6848    1.0000 </r>
       <r>   -1.1584    1.0000 </r>
       <r>   -0.1807    1.0000 </r>
       <r>   -0.0313    1.0000 </r>
       <r>    0.9220    1.0000 </r>
       <r>    1.1706    1.0000 </r>
       <r>    1.2821    1.0000 </r>
       <r>    1.7454    1.0000 </r>
       <r>    2.2601    1.0000 </r>
       <r>    2.6640    1.0000 </r>
       <r>    7.5324    0.0000 </r>
       <r>    8.1182    0.0000 </r>
       <r>   12.5992    0.0000 </r>
       <r>   13.8975    0.0000 </r>
      </set>
      <set comment="kpoint 8">
       <r>  -13.3138    1.0000 </r>
       <r>  -13.2071    1.0000 </r>
       <r>   -3.4761    1.0000 </r>
       <r>   -2.7692    1.0000 </r>
       <r>   -2.5436    1.0000 </r>
       <r>   -1.5440    1.0000 </r>
       <r>   -1.3410    1.0000 </r>
       <r>   -0.6442    1.0000 </r>
       <r>   -0.3904    1.0000 </r>
       <r>    0.3430    1.0000 </r>
       <r>    0.5024    1.0000 </r>
       <r>    1.2707    1.0000 </r>
       <r>    1.4406    1.0000 </r>
       <r>    1.4934    1.0000 </r>
       <r>    2.8375    1.0000 </r>
       <r>    2.8794    1.0000 </r>
       <r>    8.0125    0.0000 </r>
       <r>    8.1375    0.0000 </r>
       <r>   11.2420    0.0000 </r>
       <r>   11.6926    0.0000 </r>
      </set>
      <set comment="kpoint 9">
       <r>  -14.3002    1.0000 </r>
       <r>  -13.7497    1.0000 </r>
       <r>   -2.8081    1.0000 </r>
       <r>   -2.8081    1.0000 </r>
       <r>   -2.5277    1.0000 </r>
       <r>   -1.2484    1.0000 </r>
       <r>   -1.0264    1.0000 </r>
       <r>   -1.0264    1.0000 </r>
       <r>   -0.0641    1.0000 </r>
       <r>   -0.0641    1.0000 </r>
       <r>    1.0874    1.0000 </r>
       <r>    1.6437    1.0000 </r>
       <r>    2.1814    1.0000 </r>
       <r>    2.1814    1.0000 </r>
       <r>    3.4465    1.0000 </r>
       <r>    3.4465    1.0000 </r>
       <r>    7.7475    0.0000 </r>
       <r>    7.7475    0.0000 </r>
       <r>    8.9710    0.0000 </r>
       <r>   10.4436    0.0000 </r>
      </set>
      <set comment="kpoint 10">
       <r>  -13.7636    1.0000 </r>
       <r>  -13.5600    1.0000 </r>
       <r>   -3.2354    1.0000 </r>
       <r>   -2.7293    1.0000 </r>
       <r>   -1.9645    1.0000 </r>
       <r>   -1.6369    1.0000 </r>
       <r>   -1.0249    1.0000 </r>
       <r>   -0.9602    1.0000 </r>
       <r>   -0.4292    1.0000 </r>
       <r>    0.1473    1.0000 </r>
       <r>    0.5336    1.0000 </r>
       <r>    1.3496    1.0000 </r>
       <r>    2.2182    1.0000 </r>
       <r>    2.3432    1.0000 </r>
       <r>    2.4610    1.0000 </r>
       <r>    2.7965    1.0000 </r>
       <r>    7.2692    0.0000 </r>
       <r>    7.9470    0.0000 </r>
       <r>   11.5213    0.0000 </r>
       <r>   11.7959    0.0000 </r>
      </set>
     </set>
    </set>
   </array>
  </eigenvalues>
  <separator name="orbital magnetization" >
   <v name="MAGDIPOLOUT">      0.00000000      0.00000000      0.00000000</v>
  </separator>
  <dos>
   <i name="efermi">      3.44779479 </i>
   <total>
    <array>
     <dimension dim="1">gridpoints</dimension>
     <dimension dim="2">spin</dimension>
     <field>energy</field>
     <field>total</field>
     <field>integrated</field>
     <set>
      <set comment="spin 1">
       <r>   -16.6507     0.0000     0.0000 </r>
       <r>   -16.5422     0.0000     0.0000 </r>
       <r>   -16.4337     0.0000     0.0000 </r>
       <r>   -16.3252     0.0000     0.0000 </r>
       <r>   -16.2167     0.0000     0.0000 </r>
       <r>   -16.1082     0.0000     0.0000 </r>
       <r>   -15.9997     0.0000     0.0000 </r>
       <r>   -15.8913     0.0000     0.0000 </r>
       <r>   -15.7828     0.0000     0.0000 </r>
       <r>   -15.6743     0.0000     0.0000 </r>
       <r>   -15.5658     0.0000     0.0000 </r>
       <r>   -15.4573     0.0000     0.0000 </r>
       <r>   -15.3488     0.0000     0.0000 </r>
       <r>   -15.2403     0.0000     0.0000 </r>
       <r>   -15.1318     0.0000     0.0000 </r>
       <r>   -15.0233     0.0000     0.0000 </r>
       <r>   -14.9148     0.0000     0.0000 </r>
       <r>   -14.8063     0.0000     0.0000 </r>
       <r>   -14.6978     0.0000     0.0000 </r>
       <r>   -14.5893     0.0223     0.0007 </r>
       <r>   -14.4808     0.0786     0.0059 </r>
       <r>   -14.3723     0.1563     0.0185 </r>
       <r>   -14.2638     0.2664     0.0408 </r>
       <r>   -14.1553     0.4091     0.0774 </r>
       <r>   -14.0469     0.5283     0.1290 </r>
       <r>   -13.9384     0.6450     0.1926 </r>
       <r>   -13.8299     0.7570     0.2688 </r>
       <r>   -13.7214     0.9323     0.3574 </r>
       <r>   -13.6129     1.2964     0.4787 </r>
       <r>   -13.5044     1.6486     0.6378 </r>
       <r>   -13.3959     2.0940     0.8399 </r>
       <r>   -13.2874     2.0214     1.2839 </r>
       <r>   -13.1789     8.6761     1.7110 </r>
       <r>   -13.0704     0.0000     2.0000 </r>
       <r>   -12.9619     0.0000     2.0000 </r>
       <r>   -12.8534     0.0000     2.0000 </r>
       <r>   -12.7449     0.0000     2.0000 </r>
       <r>   -12.6364     0.0000     2.0000 </r>
       <r>   -12.5279     0.0000     2.0000 </r>
       <r>   -12.4194     0.0000     2.0000 </r>
       <r>   -12.3110     0.0000     2.0000 </r>
       <r>   -12.2025     0.0000     2.0000 </r>
       <r>   -12.0940     0.0000     2.0000 </r>
       <r>   -11.9855     0.0000     2.0000 </r>
       <r>   -11.8770     0.0000     2.0000 </r>
       <r>   -11.7685     0.0000     2.0000 </r>
       <r>   -11.6600     0.0000     2.0000 </r>
       <r>   -11.5515     0.0000     2.0000 </r>
       <r>   -11.4430     0.0000     2.0000 </r>
       <r>   -11.3345     0.0000     2.0000 </r>
       <r>   -11.2260     0.0000     2.0000 </r>
       <r>   -11.1175     0.0000     2.0000 </r>
       <r>   -11.0090     0.0000     2.0000 </r>
       <r>   -10.9005     0.0000     2.0000 </r>
       <r>   -10.7920     0.0000     2.0000 </r>
       <r>   -10.6835     0.0000     2.0000 </r>
       <r>   -10.5750     0.0000     2.0000 </r>
       <r>   -10.4666     0.0000     2.0000 </r>
       <r>   -10.3581     0.0000     2.0000 </r>
       <r>   -10.2496     0.0000     2.0000 </r>
       <r>   -10.1411     0.0000     2.0000 </r>
       <r>   -10.0326     0.0000     2.0000 </r>
       <r>    -9.9241     0.0000     2.0000 </r>
       <r>    -9.8156     0.0000     2.0000 </r>
       <r>    -9.7071     0.0000     2.0000 </r>
       <r>    -9.5986     0.0000     2.0000 </r>
       <r>    -9.4901     0.0000     2.0000 </r>
       <r>    -9.3816     0.0000     2.0000 </r>
       <r>    -9.2731     0.0000     2.0000 </r>
       <r>    -9.1646     0.0000     2.0000 </r>
       <r>    -9.0561     0.0000     2.0000 </r>
       <r>    -8.9476     0.0000     2.0000 </r>
       <r>    -8.8391     0.0000     2.0000 </r>
       <r>    -8.7307     0.0000     2.0000 </r>
       <r>    -8.6222     0.0000     2.0000 </r>
       <r>    -8.5137     0.0000     2.0000 </r>
       <r>    -8.4052     0.0000     2.0000 </r>
       <r>    -8.2967     0.0000     2.0000 </r>
       <r>    -8.1882     0.0000     2.0000 </r>
       <r>    -8.0797     0.0000     2.0000 </r>
       <r>    -7.9712     0.0000     2.0000 </r>
       <r>    -7.8627     0.0000     2.0000 </r>
       <r>    -7.7542     0.0000     2.0000 </r>
       <r>    -7.6457     0.0000     2.0000 </r>
       <r>    -7.5372     0.0000     2.0000 </r>
       <r>    -7.4287     0.0000     2.0000 </r>
       <r>    -7.3202     0.0000     2.0000 </r>
       <r>    -7.2117     0.0000     2.0000 </r>
       <r>    -7.1032     0.0000     2.0000 </r>
       <r>    -6.9947     0.0000     2.0000 </r>
       <r>    -6.8863     0.0000     2.0000 </r>
       <r>    -6.7778     0.0000     2.0000 </r>
       <r>    -6.6693     0.0000     2.0000 </r>
       <r>    -6.5608     0.0000     2.0000 </r>
       <r>    -6.4523     0.0000     2.0000 </r>
       <r>    -6.3438     0.0000     2.0000 </r>
       <r>    -6.2353     0.0000     2.0000 </r>
       <r>    -6.1268     0.0000     2.0000 </r>
       <r>    -6.0183     0.0000     2.0000 </r>
       <r>    -5.9098     0.0000     2.0000 </r>
       <r>    -5.8013     0.0000     2.0000 </r>
       <r>    -5.6928     0.0000     2.0000 </r>
       <r>    -5.5843     0.0000     2.0000 </r>
       <r>    -5.4758     0.0000     2.0000 </r>
       <r>    -5.3673     0.0000     2.0000 </r>
       <r>    -5.2588     0.0000     2.0000 </r>
       <r>    -5.1504     0.0000     2.0000 </r>
       <r>    -5.0419     0.0000     2.0000 </r>
       <r>    -4.9334     0.0000     2.0000 </r>
       <r>    -4.8249     0.0000     2.0000 </r>
       <r>    -4.7164     0.0000     2.0000 </r>
       <r>    -4.6079     0.0000     2.0000 </r>
       <r>    -4.4994     0.0000     2.0000 </r>
       <r>    -4.3909     0.0000     2.0000 </r>
       <r>    -4.2824     0.0000     2.0000 </r>
       <r>    -4.1739     0.0000     2.0000 </r>
       <r>    -4.0654     0.0000     2.0000 </r>
       <r>    -3.9569     0.0000     2.0000 </r>
       <r>    -3.8484     0.0000     2.0000 </r>
       <r>    -3.7399     0.0000     2.0000 </r>
       <r>    -3.6314     0.0000     2.0000 </r>
       <r>    -3.5229     0.0000     2.0000 </r>
       <r>    -3.4144     0.0990     2.0027 </r>
       <r>    -3.3060     0.5120     2.0331 </r>
       <r>    -3.1975     1.6465     2.1319 </r>
       <r>    -3.0890     4.5879     2.4691 </r>
       <r>    -2.9805     2.3249     2.9087 </r>
       <r>    -2.8720     0.2179     2.9956 </r>
       <r>    -2.7635     4.1297     3.1224 </r>
       <r>    -2.6550     3.1887     3.7699 </r>
       <r>    -2.5465     1.7173     4.0381 </r>
       <r>    -2.4380     1.5800     4.1885 </r>
       <r>    -2.3295     2.1706     4.3963 </r>
       <r>    -2.2210     2.2955     4.6401 </r>
       <r>    -2.1125     2.5737     4.9063 </r>
       <r>    -2.0040     1.5670     5.1288 </r>
       <r>    -1.8955     2.4552     5.3246 </r>
       <r>    -1.7870     3.0626     5.6494 </r>
       <r>    -1.6785     1.0211     5.8384 </r>
       <r>    -1.5701     1.2351     5.9591 </r>
       <r>    -1.4616     1.5788     6.1126 </r>
       <r>    -1.3531     1.8686     6.3024 </r>
       <r>    -1.2446     1.6224     6.4855 </r>
       <r>    -1.1361     1.5839     6.6552 </r>
       <r>    -1.0276     3.3085     6.8620 </r>
       <r>    -0.9191     3.0709     7.2790 </r>
       <r>    -0.8106     3.4298     7.6484 </r>
       <r>    -0.7021     1.8583     7.9408 </r>
       <r>    -0.5936     0.8467     8.0155 </r>
       <r>    -0.4851     2.4253     8.1930 </r>
       <r>    -0.3766     3.5175     8.5445 </r>
       <r>    -0.2681     2.2461     8.8516 </r>
       <r>    -0.1596     0.2062     8.9838 </r>
       <r>    -0.0511     0.0828     8.9976 </r>
       <r>     0.0574     2.1788     9.1100 </r>
       <r>     0.1659     5.2782     9.4859 </r>
       <r>     0.2743     2.1217     9.9286 </r>
       <r>     0.3828     0.0000    10.0000 </r>
       <r>     0.4913     0.0000    10.0000 </r>
       <r>     0.5998     1.2162    10.0533 </r>
       <r>     0.7083     2.4457    10.2600 </r>
       <r>     0.8168     3.1375    10.5643 </r>
       <r>     0.9253     0.4799    10.9191 </r>
       <r>     1.0338     0.3098    10.9620 </r>
       <r>     1.1423     4.3651    11.0306 </r>
       <r>     1.2508     4.5329    11.5867 </r>
       <r>     1.3593     2.5343    12.0175 </r>
       <r>     1.4678     1.9118    12.2501 </r>
       <r>     1.5763     2.4580    12.4734 </r>
       <r>     1.6848     3.9454    12.8133 </r>
       <r>     1.7933     2.2020    13.2097 </r>
       <r>     1.9018     1.7823    13.4231 </r>
       <r>     2.0102     1.5781    13.6037 </r>
       <r>     2.1187     1.4494    13.7693 </r>
       <r>     2.2272     0.9183    13.9227 </r>
       <r>     2.3357     1.3814    14.0372 </r>
       <r>     2.4442     1.5728    14.2007 </r>
       <r>     2.5527     1.9281    14.4163 </r>
       <r>     2.6612     1.3890    14.5904 </r>
       <r>     2.7697     4.7261    14.9447 </r>
       <r>     2.8782     2.7086    15.4171 </r>
       <r>     2.9867     2.0268    15.6612 </r>
       <r>     3.0952     1.3129    15.8531 </r>
       <r>     3.2037     0.6318    15.9632 </r>
       <r>     3.3122     0.1225    15.9936 </r>
       <r>     3.4207     0.0112    15.9999 </r>
       <r>     3.5292     0.0000    16.0000 </r>
       <r>     3.6377     0.0000    16.0000 </r>
       <r>     3.7462     0.0000    16.0000 </r>
       <r>     3.8546     0.0000    16.0000 </r>
       <r>     3.9631     0.0000    16.0000 </r>
       <r>     4.0716     0.0000    16.0000 </r>
       <r>     4.1801     0.0000    16.0000 </r>
       <r>     4.2886     0.0000    16.0000 </r>
       <r>     4.3971     0.0000    16.0000 </r>
       <r>     4.5056     0.0000    16.0000 </r>
       <r>     4.6141     0.0000    16.0000 </r>
       <r>     4.7226     0.0000    16.0000 </r>
       <r>     4.8311     0.0000    16.0000 </r>
       <r>     4.9396     0.0000    16.0000 </r>
       <r>     5.0481     0.0000    16.0000 </r>
       <r>     5.1566     0.0000    16.0000 </r>
       <r>     5.2651     0.0000    16.0000 </r>
       <r>     5.3736     0.0000    16.0000 </r>
       <r>     5.4821     0.0000    16.0000 </r>
       <r>     5.5906     0.0000    16.0000 </r>
       <r>     5.6990     0.0000    16.0000 </r>
       <r>     5.8075     0.0000    16.0000 </r>
       <r>     5.9160     0.0000    16.0000 </r>
       <r>     6.0245     0.0000    16.0000 </r>
       <r>     6.1330     0.0000    16.0000 </r>
       <r>     6.2415     0.0000    16.0000 </r>
       <r>     6.3500     0.0000    16.0000 </r>
       <r>     6.4585     0.0000    16.0000 </r>
       <r>     6.5670     0.0000    16.0000 </r>
       <r>     6.6755     0.0000    16.0000 </r>
       <r>     6.7840     0.0000    16.0000 </r>
       <r>     6.8925     0.0000    16.0000 </r>
       <r>     7.0010     0.0000    16.0000 </r>
       <r>     7.1095     0.0000    16.0000 </r>
       <r>     7.2180     0.0000    16.0000 </r>
       <r>     7.3265     0.3760    16.0103 </r>
       <r>     7.4349     1.2632    16.0997 </r>
       <r>     7.5434     2.0885    16.2741 </r>
       <r>     7.6519     2.9030    16.5740 </r>
       <r>     7.7604     1.7692    16.8255 </r>
       <r>     7.8689     3.6142    17.1688 </r>
       <r>     7.9774     3.6363    17.6927 </r>
       <r>     8.0859     1.2926    17.9745 </r>
       <r>     8.1944     0.0107    18.0017 </r>
       <r>     8.3029     0.0149    18.0031 </r>
       <r>     8.4114     0.0195    18.0050 </r>
       <r>     8.5199     0.0244    18.0074 </r>
       <r>     8.6284     0.0297    18.0103 </r>
       <r>     8.7369     0.0355    18.0138 </r>
       <r>     8.8454     0.0416    18.0180 </r>
       <r>     8.9539     0.0480    18.0229 </r>
       <r>     9.0624     0.0561    18.0285 </r>
       <r>     9.1709     0.0644    18.0350 </r>
       <r>     9.2793     0.0726    18.0425 </r>
       <r>     9.3878     0.0809    18.0508 </r>
       <r>     9.4963     0.0891    18.0600 </r>
       <r>     9.6048     0.0973    18.0701 </r>
       <r>     9.7133     0.1055    18.0811 </r>
       <r>     9.8218     0.1136    18.0930 </r>
       <r>     9.9303     0.1220    18.1058 </r>
       <r>    10.0388     0.1309    18.1195 </r>
       <r>    10.1473     0.1403    18.1342 </r>
       <r>    10.2558     0.1502    18.1500 </r>
       <r>    10.3643     0.1610    18.1668 </r>
       <r>    10.4728     0.1743    18.1849 </r>
       <r>    10.5813     0.1934    18.2049 </r>
       <r>    10.6898     0.2144    18.2270 </r>
       <r>    10.7983     0.2373    18.2515 </r>
       <r>    10.9068     0.2620    18.2785 </r>
       <r>    11.0152     0.2894    18.3084 </r>
       <r>    11.1237     0.3187    18.3414 </r>
       <r>    11.2322     0.3489    18.3776 </r>
       <r>    11.3407     0.3729    18.4168 </r>
       <r>    11.4492     0.3997    18.4587 </r>
       <r>    11.5577     0.4302    18.5036 </r>
       <r>    11.6662     0.4589    18.5519 </r>
       <r>    11.7747     0.5108    18.6040 </r>
       <r>    11.8832     0.5933    18.6640 </r>
       <r>    11.9917     0.6632    18.7323 </r>
       <r>    12.1002     0.7179    18.8073 </r>
       <r>    12.2087     0.7573    18.8875 </r>
       <r>    12.3172     0.7815    18.9711 </r>
       <r>    12.4257     0.7903    19.0565 </r>
       <r>    12.5342     1.0492    19.1466 </r>
       <r>    12.6427     1.4876    19.2912 </r>
       <r>    12.7512     0.4873    19.4137 </r>
       <r>    12.8596     0.5076    19.4663 </r>
       <r>    12.9681     0.5527    19.5238 </r>
       <r>    13.0766     0.5952    19.5861 </r>
       <r>    13.1851     0.6354    19.6529 </r>
       <r>    13.2936     0.6920    19.7244 </r>
       <r>    13.4021     0.7033    19.8024 </r>
       <r>    13.5106     0.5977    19.8732 </r>
       <r>    13.6191     0.4650    19.9311 </r>
       <r>    13.7276     0.3050    19.9731 </r>
       <r>    13.8361     0.1179    19.9963 </r>
       <r>    13.9446     0.0000    20.0000 </r>
       <r>    14.0531     0.0000    20.0000 </r>
       <r>    14.1616     0.0000    20.0000 </r>
       <r>    14.2701     0.0000    20.0000 </r>
       <r>    14.3786     0.0000    20.0000 </r>
       <r>    14.4871     0.0000    20.0000 </r>
       <r>    14.5955     0.0000    20.0000 </r>
       <r>    14.7040     0.0000    20.0000 </r>
       <r>    14.8125     0.0000    20.0000 </r>
       <r>    14.9210     0.0000    20.0000 </r>
       <r>    15.0295     0.0000    20.0000 </r>
       <r>    15.1380     0.0000    20.0000 </r>
       <r>    15.2465     0.0000    20.0000 </r>
       <r>    15.3550     0.0000    20.0000 </r>
       <r>    15.4635     0.0000    20.0000 </r>
       <r>    15.5720     0.0000    20.0000 </r>
       <r>    15.6805     0.0000    20.0000 </r>
       <r>    15.7890     0.0000    20.0000 </r>
       <r>    15.8975     0.0000    20.0000 </r>
      </set>
      <set comment="spin 2">
       <r>   -16.6507     0.0000     0.0000 </r>
       <r>   -16.5422     0.0000     0.0000 </r>
       <r>   -16.4337     0.0000     0.0000 </r>
       <r>   -16.3252     0.0000     0.0000 </r>
       <r>   -16.2167     0.0000     0.0000 </r>
       <r>   -16.1082     0.0000     0.0000 </r>
       <r>   -15.9997     0.0000     0.0000 </r>
       <r>   -15.8913     0.0000     0.0000 </r>
       <r>   -15.7828     0.0000     0.0000 </r>
       <r>   -15.6743     0.0000     0.0000 </r>
       <r>   -15.5658     0.0000     0.0000 </r>
       <r>   -15.4573     0.0000     0.0000 </r>
       <r>   -15.3488     0.0000     0.0000 </r>
       <r>   -15.2403     0.0000     0.0000 </r>
       <r>   -15.1318     0.0000     0.0000 </r>
       <r>   -15.0233     0.0000     0.0000 </r>
       <r>   -14.9148     0.0000     0.0000 </r>
       <r>   -14.8063     0.0000     0.0000 </r>
       <r>   -14.6978     0.0000     0.0000 </r>
       <r>   -14.5893     0.0223     0.0007 </r>
       <r>   -14.4808     0.0786     0.0059 </r>
       <r>   -14.3723     0.1563     0.0185 </r>
       <r>   -14.2638     0.2664     0.0408 </r>
       <r>   -14.1553     0.4091     0.0774 </r>
       <r>   -14.0469     0.5283     0.1290 </r>
       <r>   -13.9384     0.6450     0.1926 </r>
       <r>   -13.8299     0.7570     0.2688 </r>
       <r>   -13.7214     0.9323     0.3574 </r>
       <r>   -13.6129     1.2964     0.4787 </r>
       <r>   -13.5044     1.6486     0.6378 </r>
       <r>   -13.3959     2.0940     0.8399 </r>
       <r>   -13.2874     2.0214     1.2839 </r>
       <r>   -13.1789     8.6761     1.7110 </r>
       <r>   -13.0704     0.0000     2.0000 </r>
       <r>   -12.9619     0.0000     2.0000 </r>
       <r>   -12.8534     0.0000     2.0000 </r>
       <r>   -12.7449     0.0000     2.0000 </r>
       <r>   -12.6364     0.0000     2.0000 </r>
       <r>   -12.5279     0.0000     2.0000 </r>
       <r>   -12.4194     0.0000     2.0000 </r>
       <r>   -12.3110     0.0000     2.0000 </r>
       <r>   -12.2025     0.0000     2.0000 </r>
       <r>   -12.0940     0.0000     2.0000 </r>
       <r>   -11.9855     0.0000     2.0000 </r>
       <r>   -11.8770     0.0000     2.0000 </r>
       <r>   -11.7685     0.0000     2.0000 </r>
       <r>   -11.6600     0.0000     2.0000 </r>
       <r>   -11.5515     0.0000     2.0000 </r>
       <r>   -11.4430     0.0000     2.0000 </r>
       <r>   -11.3345     0.0000     2.0000 </r>
       <r>   -11.2260     0.0000     2.0000 </r>
       <r>   -11.1175     0.0000     2.0000 </r>
       <r>   -11.0090     0.0000     2.0000 </r>
       <r>   -10.9005     0.0000     2.0000 </r>
       <r>   -10.7920     0.0000     2.0000 </r>
       <r>   -10.6835     0.0000     2.0000 </r>
       <r>   -10.5750     0.0000     2.0000 </r>
       <r>   -10.4666     0.0000     2.0000 </r>
       <r>   -10.3581     0.0000     2.0000 </r>
       <r>   -10.2496     0.0000     2.0000 </r>
       <r>   -10.1411     0.0000     2.0000 </r>
       <r>   -10.0326     0.0000     2.0000 </r>
       <r>    -9.9241     0.0000     2.0000 </r>
       <r>    -9.8156     0.0000     2.0000 </r>
       <r>    -9.7071     0.0000     2.0000 </r>
       <r>    -9.5986     0.0000     2.0000 </r>
       <r>    -9.4901     0.0000     2.0000 </r>
       <r>    -9.3816     0.0000     2.0000 </r>
       <r>    -9.2731     0.0000     2.0000 </r>
       <r>    -9.1646     0.0000     2.0000 </r>
       <r>    -9.0561     0.0000     2.0000 </r>
       <r>    -8.9476     0.0000     2.0000 </r>
       <r>    -8.8391     0.0000     2.0000 </r>
       <r>    -8.7307     0.0000     2.0000 </r>
       <r>    -8.6222     0.0000     2.0000 </r>
       <r>    -8.5137     0.0000     2.0000 </r>
       <r>    -8.4052     0.0000     2.0000 </r>
       <r>    -8.2967     0.0000     2.0000 </r>
       <r>    -8.1882     0.0000     2.0000 </r>
       <r>    -8.0797     0.0000     2.0000 </r>
       <r>    -7.9712     0.0000     2.0000 </r>
       <r>    -7.8627     0.0000     2.0000 </r>
       <r>    -7.7542     0.0000     2.0000 </r>
       <r>    -7.6457     0.0000     2.0000 </r>
       <r>    -7.5372     0.0000     2.0000 </r>
       <r>    -7.4287     0.0000     2.0000 </r>
       <r>    -7.3202     0.0000     2.0000 </r>
       <r>    -7.2117     0.0000     2.0000 </r>
       <r>    -7.1032     0.0000     2.0000 </r>
       <r>    -6.9947     0.0000     2.0000 </r>
       <r>    -6.8863     0.0000     2.0000 </r>
       <r>    -6.7778     0.0000     2.0000 </r>
       <r>    -6.6693     0.0000     2.0000 </r>
       <r>    -6.5608     0.0000     2.0000 </r>
       <r>    -6.4523     0.0000     2.0000 </r>
       <r>    -6.3438     0.0000     2.0000 </r>
       <r>    -6.2353     0.0000     2.0000 </r>
       <r>    -6.1268     0.0000     2.0000 </r>
       <r>    -6.0183     0.0000     2.0000 </r>
       <r>    -5.9098     0.0000     2.0000 </r>
       <r>    -5.8013     0.0000     2.0000 </r>
       <r>    -5.6928     0.0000     2.0000 </r>
       <r>    -5.5843     0.0000     2.0000 </r>
       <r>    -5.4758     0.0000     2.0000 </r>
       <r>    -5.3673     0.0000     2.0000 </r>
       <r>    -5.2588     0.0000     2.0000 </r>
       <r>    -5.1504     0.0000     2.0000 </r>
       <r>    -5.0419     0.0000     2.0000 </r>
       <r>    -4.9334     0.0000     2.0000 </r>
       <r>    -4.8249     0.0000     2.0000 </r>
       <r>    -4.7164     0.0000     2.0000 </r>
       <r>    -4.6079     0.0000     2.0000 </r>
       <r>    -4.4994     0.0000     2.0000 </r>
       <r>    -4.3909     0.0000     2.0000 </r>
       <r>    -4.2824     0.0000     2.0000 </r>
       <r>    -4.1739     0.0000     2.0000 </r>
       <r>    -4.0654     0.0000     2.0000 </r>
       <r>    -3.9569     0.0000     2.0000 </r>
       <r>    -3.8484     0.0000     2.0000 </r>
       <r>    -3.7399     0.0000     2.0000 </r>
       <r>    -3.6314     0.0000     2.0000 </r>
       <r>    -3.5229     0.0000     2.0000 </r>
       <r>    -3.4144     0.0990     2.0027 </r>
       <r>    -3.3060     0.5120     2.0331 </r>
       <r>    -3.1975     1.6465     2.1319 </r>
       <r>    -3.0890     4.5879     2.4691 </r>
       <r>    -2.9805     2.3249     2.9087 </r>
       <r>    -2.8720     0.2179     2.9956 </r>
       <r>    -2.7635     4.1297     3.1224 </r>
       <r>    -2.6550     3.1887     3.7699 </r>
       <r>    -2.5465     1.7173     4.0381 </r>
       <r>    -2.4380     1.5800     4.1885 </r>
       <r>    -2.3295     2.1706     4.3963 </r>
       <r>    -2.2210     2.2955     4.6401 </r>
       <r>    -2.1125     2.5737     4.9063 </r>
       <r>    -2.0040     1.5670     5.1288 </r>
       <r>    -1.8955     2.4552     5.3246 </r>
       <r>    -1.7870     3.0626     5.6494 </r>
       <r>    -1.6785     1.0211     5.8384 </r>
       <r>    -1.5701     1.2351     5.9591 </r>
       <r>    -1.4616     1.5788     6.1126 </r>
       <r>    -1.3531     1.8686     6.3024 </r>
       <r>    -1.2446     1.6224     6.4855 </r>
       <r>    -1.1361     1.5839     6.6552 </r>
       <r>    -1.0276     3.3085     6.8620 </r>
       <r>    -0.9191     3.0709     7.2790 </r>
       <r>    -0.8106     3.4298     7.6484 </r>
       <r>    -0.7021     1.8583     7.9408 </r>
       <r>    -0.5936     0.8467     8.0155 </r>
       <r>    -0.4851     2.4253     8.1930 </r>
       <r>    -0.3766     3.5175     8.5445 </r>
       <r>    -0.2681     2.2461     8.8516 </r>
       <r>    -0.1596     0.2062     8.9838 </r>
       <r>    -0.0511     0.0828     8.9976 </r>
       <r>     0.0574     2.1788     9.1100 </r>
       <r>     0.1659     5.2782     9.4859 </r>
       <r>     0.2743     2.1217     9.9286 </r>
       <r>     0.3828     0.0000    10.0000 </r>
       <r>     0.4913     0.0000    10.0000 </r>
       <r>     0.5998     1.2162    10.0533 </r>
       <r>     0.7083     2.4457    10.2600 </r>
       <r>     0.8168     3.1375    10.5643 </r>
       <r>     0.9253     0.4799    10.9191 </r>
       <r>     1.0338     0.3098    10.9620 </r>
       <r>     1.1423     4.3651    11.0306 </r>
       <r>     1.2508     4.5329    11.5867 </r>
       <r>     1.3593     2.5343    12.0175 </r>
       <r>     1.4678     1.9118    12.2501 </r>
       <r>     1.5763     2.4580    12.4734 </r>
       <r>     1.6848     3.9454    12.8133 </r>
       <r>     1.7933     2.2020    13.2097 </r>
       <r>     1.9018     1.7823    13.4231 </r>
       <r>     2.0102     1.5781    13.6037 </r>
       <r>     2.1187     1.4494    13.7693 </r>
       <r>     2.2272     0.9183    13.9227 </r>
       <r>     2.3357     1.3814    14.0372 </r>
       <r>     2.4442     1.5728    14.2007 </r>
       <r>     2.5527     1.9281    14.4163 </r>
       <r>     2.6612     1.3890    14.5904 </r>
       <r>     2.7697     4.7261    14.9447 </r>
       <r>     2.8782     2.7086    15.4171 </r>
       <r>     2.9867     2.0268    15.6612 </r>
       <r>     3.0952     1.3129    15.8531 </r>
       <r>     3.2037     0.6318    15.9632 </r>
       <r>     3.3122     0.1225    15.9936 </r>
       <r>     3.4207     0.0112    15.9999 </r>
       <r>     3.5292     0.0000    16.0000 </r>
       <r>     3.6377     0.0000    16.0000 </r>
       <r>     3.7462     0.0000    16.0000 </r>
       <r>     3.8546     0.0000    16.0000 </r>
       <r>     3.9631     0.0000    16.0000 </r>
       <r>     4.0716     0.0000    16.0000 </r>
       <r>     4.1801     0.0000    16.0000 </r>
       <r>     4.2886     0.0000    16.0000 </r>
       <r>     4.3971     0.0000    16.0000 </r>
       <r>     4.5056     0.0000    16.0000 </r>
       <r>     4.6141     0.0000    16.0000 </r>
       <r>     4.7226     0.0000    16.0000 </r>
       <r>     4.8311     0.0000    16.0000 </r>
       <r>     4.9396     0.0000    16.0000 </r>
       <r>     5.0481     0.0000    16.0000 </r>
       <r>     5.1566     0.0000    16.0000 </r>
       <r>     5.2651     0.0000    16.0000 </r>
       <r>     5.3736     0.0000    16.0000 </r>
       <r>     5.4821     0.0000    16.0000 </r>
       <r>     5.5906     0.0000    16.0000 </r>
       <r>     5.6990     0.0000    16.0000 </r>
       <r>     5.8075     0.0000    16.0000 </r>
       <r>     5.9160     0.0000    16.0000 </r>
       <r>     6.0245     0.0000    16.0000 </r>
       <r>     6.1330     0.0000    16.0000 </r>
       <r>     6.2415     0.0000    16.0000 </r>
       <r>     6.3500     0.0000    16.0000 </r>
       <r>     6.4585     0.0000    16.0000 </r>
       <r>     6.5670     0.0000    16.0000 </r>
       <r>     6.6755     0.0000    16.0000 </r>
       <r>     6.7840     0.0000    16.0000 </r>
       <r>     6.8925     0.0000    16.0000 </r>
       <r>     7.0010     0.0000    16.0000 </r>
       <r>     7.1095     0.0000    16.0000 </r>
       <r>     7.2180     0.0000    16.0000 </r>
       <r>     7.3265     0.3760    16.0103 </r>
       <r>     7.4349     1.2632    16.0997 </r>
       <r>     7.5434     2.0885    16.2741 </r>
       <r>     7.6519     2.9030    16.5740 </r>
       <r>     7.7604     1.7692    16.8255 </r>
       <r>     7.8689     3.6142    17.1688 </r>
       <r>     7.9774     3.6363    17.6927 </r>
       <r>     8.0859     1.2926    17.9745 </r>
       <r>     8.1944     0.0107    18.0017 </r>
       <r>     8.3029     0.0149    18.0031 </r>
       <r>     8.4114     0.0195    18.0050 </r>
       <r>     8.5199     0.0244    18.0074 </r>
       <r>     8.6284     0.0297    18.0103 </r>
       <r>     8.7369     0.0355    18.0138 </r>
       <r>     8.8454     0.0416    18.0180 </r>
       <r>     8.9539     0.0480    18.0229 </r>
       <r>     9.0624     0.0561    18.0285 </r>
       <r>     9.1709     0.0644    18.0350 </r>
       <r>     9.2793     0.0726    18.0425 </r>
       <r>     9.3878     0.0809    18.0508 </r>
       <r>     9.4963     0.0891    18.0600 </r>
       <r>     9.6048     0.0973    18.0701 </r>
       <r>     9.7133     0.1055    18.0811 </r>
       <r>     9.8218     0.1136    18.0930 </r>
       <r>     9.9303     0.1220    18.1058 </r>
       <r>    10.0388     0.1309    18.1195 </r>
       <r>    10.1473     0.1403    18.1342 </r>
       <r>    10.2558     0.1502    18.1500 </r>
       <r>    10.3643     0.1610    18.1668 </r>
       <r>    10.4728     0.1743    18.1849 </r>
       <r>    10.5813     0.1934    18.2049 </r>
       <r>    10.6898     0.2144    18.2270 </r>
       <r>    10.7983     0.2373    18.2515 </r>
       <r>    10.9068     0.2620    18.2785 </r>
       <r>    11.0152     0.2894    18.3084 </r>
       <r>    11.1237     0.3187    18.3414 </r>
       <r>    11.2322     0.3489    18.3776 </r>
       <r>    11.3407     0.3729    18.4168 </r>
       <r>    11.4492     0.3997    18.4587 </r>
       <r>    11.5577     0.4302    18.5036 </r>
       <r>    11.6662     0.4589    18.5519 </r>
       <r>    11.7747     0.5108    18.6040 </r>
       <r>    11.8832     0.5933    18.6640 </r>
       <r>    11.9917     0.6632    18.7323 </r>
       <r>    12.1002     0.7179    18.8073 </r>
       <r>    12.2087     0.7573    18.8875 </r>
       <r>    12.3172     0.7815    18.9711 </r>
       <r>    12.4257     0.7903    19.0565 </r>
       <r>    12.5342     1.0492    19.1466 </r>
       <r>    12.6427     1.4876    19.2912 </r>
       <r>    12.7512     0.4873    19.4137 </r>
       <r>    12.8596     0.5076    19.4663 </r>
       <r>    12.9681     0.5527    19.5238 </r>
       <r>    13.0766     0.5952    19.5861 </r>
       <r>    13.1851     0.6354    19.6529 </r>
       <r>    13.2936     0.6920    19.7244 </r>
       <r>    13.4021     0.7033    19.8024 </r>
       <r>    13.5106     0.5977    19.8732 </r>
       <r>    13.6191     0.4650    19.9311 </r>
       <r>    13.7276     0.3050    19.9731 </r>
       <r>    13.8361     0.1179    19.9963 </r>
       <r>    13.9446     0.0000    20.0000 </r>
       <r>    14.0531     0.0000    20.0000 </r>
       <r>    14.1616     0.0000    20.0000 </r>
       <r>    14.2701     0.0000    20.0000 </r>
       <r>    14.3786     0.0000    20.0000 </r>
       <r>    14.4871     0.0000    20.0000 </r>
       <r>    14.5955     0.0000    20.0000 </r>
       <r>    14.7040     0.0000    20.0000 </r>
       <r>    14.8125     0.0000    20.0000 </r>
       <r>    14.9210     0.0000    20.0000 </r>
       <r>    15.0295     0.0000    20.0000 </r>
       <r>    15.1380     0.0000    20.0000 </r>
       <r>    15.2465     0.0000    20.0000 </r>
       <r>    15.3550     0.0000    20.0000 </r>
       <r>    15.4635     0.0000    20.0000 </r>
       <r>    15.5720     0.0000    20.0000 </r>
       <r>    15.6805     0.0000    20.0000 </r>
       <r>    15.7890     0.0000    20.0000 </r>
       <r>    15.8975     0.0000    20.0000 </r>
      </set>
     </set>
    </array>
   </total>
   <partial>
    <array>
     <dimension dim="1">gridpoints</dimension>
     <dimension dim="2">spin</dimension>
     <dimension dim="3">ion</dimension>
     <field>energy</field>
     <field>    s</field>
     <field>   py</field>
     <field>   pz</field>
     <field>   px</field>
     <field>  dxy</field>
     <field>  dyz</field>
     <field>  dz2</field>
     <field>  dxz</field>
     <field>x2-y2</field>
     <set>
      <set comment="ion 1">
       <set comment="spin 1">
        <r>   -16.6507     0.0000     0.0000     0.0000     0.0000     0.0000     0.0000     0.0000     0.0000     0.0000 </r>
        <r>   -16.5422     0.0000     0.0000     0.0000     0.0000     0.0000     0.0000     0.0000     0.0000     0.0000 </r>
        <r>   -16.4337     0.0000     0.0000     0.0000     0.0000     0.0000     0.0000     0.0000     0.0000     0.0000 </r>
        <r>   -16.3252     0.0000     0.0000     0.0000     0.0000     0.0000     0.0000     0.0000     0.0000     0.0000 </r>
        <r>   -16.2167     0.0000     0.0000     0.0000     0.0000     0.0000     0.0000     0.0000     0.0000     0.0000 </r>
        <r>   -16.1082     0.0000     0.0000     0.0000     0.0000     0.0000     0.0000     0.0000     0.0000     0.0000 </r>
        <r>   -15.9997     0.0000     0.0000     0.0000     0.0000     0.0000     0.0000     0.0000     0.0000     0.0000 </r>
        <r>   -15.8913     0.0000     0.0000     0.0000     0.0000     0.0000     0.0000     0.0000     0.0000     0.0000 </r>
        <r>   -15.7828     0.0000     0.0000     0.0000     0.0000     0.0000     0.0000     0.0000     0.0000     0.0000 </r>
        <r>   -15.6743     0.0000     0.0000     0.0000     0.0000     0.0000     0.0000     0.0000     0.0000     0.0000 </r>
        <r>   -15.5658     0.0000     0.0000     0.0000     0.0000     0.0000     0.0000     0.0000     0.0000     0.0000 </r>
        <r>   -15.4573     0.0000     0.0000     0.0000     0.0000     0.0000     0.0000     0.0000     0.0000     0.0000 </r>
        <r>   -15.3488     0.0000     0.0000     0.0000     0.0000     0.0000     0.0000     0.0000     0.0000     0.0000 </r>
        <r>   -15.2403     0.0000     0.0000     0.0000     0.0000     0.0000     0.0000     0.0000     0.0000     0.0000 </r>
        <r>   -15.1318     0.0000     0.0000     0.0000     0.0000     0.0000     0.0000     0.0000     0.0000     0.0000 </r>
        <r>   -15.0233     0.0000     0.0000     0.0000     0.0000     0.0000     0.0000     0.0000     0.0000     0.0000 </r>
        <r>   -14.9148     0.0000     0.0000     0.0000     0.0000     0.0000     0.0000     0.0000     0.0000     0.0000 </r>
        <r>   -14.8063     0.0000     0.0000     0.0000     0.0000     0.0000     0.0000     0.0000     0.0000     0.0000 </r>
        <r>   -14.6978     0.0000     0.0000     0.0000     0.0000     0.0000     0.0000     0.0000     0.0000     0.0000 </r>
        <r>   -14.5893     0.0011     0.0000     0.0000     0.0001     0.0000     0.0000     0.0000     0.0000     0.0000 </r>
        <r>   -14.4808     0.0037     0.0001     0.0001     0.0004     0.0000     0.0000     0.0000     0.0000     0.0001 </r>
        <r>   -14.3723     0.0071     0.0003     0.0002     0.0008     0.0000     0.0000     0.0001     0.0000     0.0002 </r>
        <r>   -14.2638     0.0116     0.0006     0.0004     0.0015     0.0000     0.0000     0.0002     0.0000     0.0005 </r>
        <r>   -14.1553     0.0167     0.0009     0.0007     0.0025     0.0000     0.0000     0.0004     0.0000     0.0011 </r>
        <r>   -14.0469     0.0178     0.0017     0.0009     0.0038     0.0000     0.0000     0.0014     0.0000     0.0022 </r>
        <r>   -13.9384     0.0179     0.0025     0.0011     0.0049     0.0000     0.0000     0.0029     0.0000     0.0039 </r>
        <r>   -13.8299     0.0173     0.0032     0.0013     0.0055     0.0000     0.0000     0.0053     0.0000     0.0064 </r>
        <r>   -13.7214     0.0177     0.0044     0.0019     0.0061     0.0000     0.0000     0.0086     0.0000     0.0092 </r>
        <r>   -13.6129     0.0227     0.0066     0.0041     0.0072     0.0000     0.0000     0.0137     0.0000     0.0121 </r>
        <r>   -13.5044     0.0248     0.0084     0.0063     0.0082     0.0000     0.0000     0.0214     0.0000     0.0154 </r>
        <r>   -13.3959     0.0264     0.0109     0.0094     0.0101     0.0000     0.0000     0.0305     0.0000     0.0190 </r>
        <r>   -13.2874     0.0144     0.0129     0.0181     0.0098     0.0000     0.0000     0.0219     0.0000     0.0150 </r>
        <r>   -13.1789     0.0220     0.0416     0.0774     0.0455     0.0000     0.0001     0.0716     0.0000     0.1461 </r>
        <r>   -13.0704     0.0000     0.0000     0.0000     0.0000     0.0000     0.0000     0.0000     0.0000     0.0000 </r>
        <r>   -12.9619     0.0000     0.0000     0.0000     0.0000     0.0000     0.0000     0.0000     0.0000     0.0000 </r>
        <r>   -12.8534     0.0000     0.0000     0.0000     0.0000     0.0000     0.0000     0.0000     0.0000     0.0000 </r>
        <r>   -12.7449     0.0000     0.0000     0.0000     0.0000     0.0000     0.0000     0.0000     0.0000     0.0000 </r>
        <r>   -12.6364     0.0000     0.0000     0.0000     0.0000     0.0000     0.0000     0.0000     0.0000     0.0000 </r>
        <r>   -12.5279     0.0000     0.0000     0.0000     0.0000     0.0000     0.0000     0.0000     0.0000     0.0000 </r>
        <r>   -12.4194     0.0000     0.0000     0.0000     0.0000     0.0000     0.0000     0.0000     0.0000     0.0000 </r>
        <r>   -12.3110     0.0000     0.0000     0.0000     0.0000     0.0000     0.0000     0.0000     0.0000     0.0000 </r>
        <r>   -12.2025     0.0000     0.0000     0.0000     0.0000     0.0000     0.0000     0.0000     0.0000     0.0000 </r>
        <r>   -12.0940     0.0000     0.0000     0.0000     0.0000     0.0000     0.0000     0.0000     0.0000     0.0000 </r>
        <r>   -11.9855     0.0000     0.0000     0.0000     0.0000     0.0000     0.0000     0.0000     0.0000     0.0000 </r>
        <r>   -11.8770     0.0000     0.0000     0.0000     0.0000     0.0000     0.0000     0.0000     0.0000     0.0000 </r>
        <r>   -11.7685     0.0000     0.0000     0.0000     0.0000     0.0000     0.0000     0.0000     0.0000     0.0000 </r>
        <r>   -11.6600     0.0000     0.0000     0.0000     0.0000     0.0000     0.0000     0.0000     0.0000     0.0000 </r>
        <r>   -11.5515     0.0000     0.0000     0.0000     0.0000     0.0000     0.0000     0.0000     0.0000     0.0000 </r>
        <r>   -11.4430     0.0000     0.0000     0.0000     0.0000     0.0000     0.0000     0.0000     0.0000     0.0000 </r>
        <r>   -11.3345     0.0000     0.0000     0.0000     0.0000     0.0000     0.0000     0.0000     0.0000     0.0000 </r>
        <r>   -11.2260     0.0000     0.0000     0.0000     0.0000     0.0000     0.0000     0.0000     0.0000     0.0000 </r>
        <r>   -11.1175     0.0000     0.0000     0.0000     0.0000     0.0000     0.0000     0.0000     0.0000     0.0000 </r>
        <r>   -11.0090     0.0000     0.0000     0.0000     0.0000     0.0000     0.0000     0.0000     0.0000     0.0000 </r>
        <r>   -10.9005     0.0000     0.0000     0.0000     0.0000     0.0000     0.0000     0.0000     0.0000     0.0000 </r>
        <r>   -10.7920     0.0000     0.0000     0.0000     0.0000     0.0000     0.0000     0.0000     0.0000     0.0000 </r>
        <r>   -10.6835     0.0000     0.0000     0.0000     0.0000     0.0000     0.0000     0.0000     0.0000     0.0000 </r>
        <r>   -10.5750     0.0000     0.0000     0.0000     0.0000     0.0000     0.0000     0.0000     0.0000     0.0000 </r>
        <r>   -10.4666     0.0000     0.0000     0.0000     0.0000     0.0000     0.0000     0.0000     0.0000     0.0000 </r>
        <r>   -10.3581     0.0000     0.0000     0.0000     0.0000     0.0000     0.0000     0.0000     0.0000     0.0000 </r>
        <r>   -10.2496     0.0000     0.0000     0.0000     0.0000     0.0000     0.0000     0.0000     0.0000     0.0000 </r>
[...]
        <r>  0.0000  0.1499  0.0000  0.1499  0.0000  0.0000  0.0000  0.0000  0.0000 </r>
       </set>
       <set comment="band 14">
        <r>  0.0342  0.0069  0.0000  0.0069  0.1251  0.1720  0.0018  0.1720  0.0000 </r>
        <r>  0.0102  0.0097  0.0003  0.0097  0.0214  0.0072  0.0000  0.0072  0.0000 </r>
        <r>  0.0001  0.0722  0.0099  0.0722  0.0000  0.0000  0.0000  0.0000  0.0000 </r>
        <r>  0.0001  0.0722  0.0099  0.0722  0.0000  0.0000  0.0000  0.0000  0.0000 </r>
       </set>
       <set comment="band 15">
        <r>  0.0000  0.0035  0.0000  0.0035  0.0000  0.0267  0.0000  0.0267  0.1571 </r>
        <r>  0.0000  0.0000  0.0000  0.0000  0.0000  0.0126  0.0000  0.0126  0.1485 </r>
        <r>  0.0000  0.1233  0.0000  0.1233  0.0000  0.0000  0.0000  0.0000  0.0000 </r>
        <r>  0.0000  0.1233  0.0000  0.1233  0.0000  0.0000  0.0000  0.0000  0.0000 </r>
       </set>
       <set comment="band 16">
        <r>  0.0000  0.0014  0.0049  0.0014  0.0289  0.0093  0.1313  0.0093  0.0000 </r>
        <r>  0.0001  0.0000  0.0013  0.0000  0.0217  0.0036  0.1782  0.0036  0.0000 </r>
        <r>  0.0065  0.0423  0.1557  0.0423  0.0000  0.0000  0.0000  0.0000  0.0000 </r>
        <r>  0.0065  0.0423  0.1557  0.0423  0.0000  0.0000  0.0000  0.0000  0.0000 </r>
       </set>
       <set comment="band 17">
        <r>  0.0000  0.0001  0.0000  0.0001  0.0000  0.0005  0.0000  0.0005  0.8092 </r>
        <r>  0.0000  0.0012  0.0000  0.0012  0.0000  0.0003  0.0000  0.0003  0.0189 </r>
        <r>  0.0000  0.0359  0.0000  0.0359  0.0000  0.0000  0.0000  0.0000  0.0000 </r>
        <r>  0.0000  0.0359  0.0000  0.0359  0.0000  0.0000  0.0000  0.0000  0.0000 </r>
       </set>
       <set comment="band 18">
        <r>  0.0007  0.0004  0.0011  0.0004  0.0007  0.0001  0.8056  0.0001  0.0000 </r>
        <r>  0.0006  0.0016  0.0035  0.0016  0.0005  0.0001  0.0101  0.0001  0.0000 </r>
        <r>  0.0125  0.0104  0.0380  0.0104  0.0000  0.0000  0.0000  0.0000  0.0000 </r>
        <r>  0.0125  0.0104  0.0380  0.0104  0.0000  0.0000  0.0000  0.0000  0.0000 </r>
       </set>
       <set comment="band 19">
        <r>  0.0001  0.0575  0.0520  0.0575  0.0013  0.0000  0.0071  0.0000  0.0000 </r>
        <r>  0.0071  0.0557  0.0539  0.0557  0.0016  0.0000  0.0030  0.0000  0.0000 </r>
        <r>  0.0543  0.0007  0.0142  0.0007  0.0000  0.0000  0.0000  0.0000  0.0000 </r>
        <r>  0.0543  0.0007  0.0142  0.0007  0.0000  0.0000  0.0000  0.0000  0.0000 </r>
       </set>
       <set comment="band 20">
        <r>  0.3260  0.0004  0.0016  0.0004  0.0001  0.0000  0.0096  0.0000  0.0000 </r>
        <r>  0.3565  0.0031  0.0000  0.0031  0.0000  0.0000  0.0017  0.0000  0.0000 </r>
        <r>  0.0199  0.0027  0.0040  0.0027  0.0000  0.0000  0.0000  0.0000  0.0000 </r>
        <r>  0.0199  0.0027  0.0040  0.0027  0.0000  0.0000  0.0000  0.0000  0.0000 </r>
       </set>
      </set>
      <set comment="kpoint 9">
       <set comment="band 1">
        <r>  0.0453  0.0030  0.0030  0.0030  0.0000  0.0000  0.0000  0.0000  0.0000 </r>
        <r>  0.0483  0.0028  0.0028  0.0028  0.0000  0.0000  0.0000  0.0000  0.0000 </r>
        <r>  0.3468  0.0002  0.0002  0.0002  0.0000  0.0000  0.0000  0.0000  0.0000 </r>
        <r>  0.3468  0.0002  0.0002  0.0002  0.0000  0.0000  0.0000  0.0000  0.0000 </r>
       </set>
       <set comment="band 2">
        <r>  0.0244  0.0067  0.0067  0.0067  0.0000  0.0000  0.0000  0.0000  0.0000 </r>
        <r>  0.0231  0.0070  0.0070  0.0070  0.0000  0.0000  0.0000  0.0000  0.0000 </r>
        <r>  0.3650  0.0002  0.0002  0.0002  0.0000  0.0000  0.0000  0.0000  0.0000 </r>
        <r>  0.3650  0.0002  0.0002  0.0002  0.0000  0.0000  0.0000  0.0000  0.0000 </r>
       </set>
       <set comment="band 3">
        <r>  0.0000  0.0002  0.0002  0.0003  0.0006  0.0006  0.0005  0.0006  0.0006 </r>
        <r>  0.0000  0.0000  0.0000  0.0000  0.0099  0.0103  0.4011  0.0102  0.4191 </r>
        <r>  0.0000  0.0155  0.0150  0.0156  0.0000  0.0000  0.0000  0.0000  0.0000 </r>
        <r>  0.0000  0.0155  0.0150  0.0156  0.0000  0.0000  0.0000  0.0000  0.0000 </r>
       </set>
       <set comment="band 4">
        <r>  0.0000  0.0002  0.0003  0.0002  0.0006  0.0006  0.0006  0.0006  0.0005 </r>
        <r>  0.0000  0.0000  0.0000  0.0000  0.0104  0.0100  0.4191  0.0101  0.4011 </r>
        <r>  0.0000  0.0153  0.0157  0.0151  0.0000  0.0000  0.0000  0.0000  0.0000 </r>
        <r>  0.0000  0.0153  0.0157  0.0151  0.0000  0.0000  0.0000  0.0000  0.0000 </r>
       </set>
       <set comment="band 5">
        <r>  0.0352  0.0016  0.0016  0.0016  0.0327  0.0327  0.0000  0.0327  0.0000 </r>
        <r>  0.0490  0.0007  0.0007  0.0007  0.1342  0.1342  0.0000  0.1342  0.0000 </r>
        <r>  0.0080  0.0342  0.0342  0.0342  0.0000  0.0000  0.0000  0.0000  0.0000 </r>
        <r>  0.0080  0.0342  0.0342  0.0342  0.0000  0.0000  0.0000  0.0000  0.0000 </r>
       </set>
       <set comment="band 6">
        <r>  0.0354  0.0006  0.0006  0.0006  0.1295  0.1295  0.0000  0.1295  0.0000 </r>
        <r>  0.0003  0.0021  0.0021  0.0021  0.0983  0.0983  0.0000  0.0983  0.0000 </r>
        <r>  0.0053  0.0234  0.0234  0.0234  0.0000  0.0000  0.0000  0.0000  0.0000 </r>
        <r>  0.0053  0.0234  0.0234  0.0234  0.0000  0.0000  0.0000  0.0000  0.0000 </r>
       </set>
       <set comment="band 7">
        <r>  0.0000  0.0002  0.0002  0.0002  0.0023  0.0023  0.0000  0.0023  0.0000 </r>
        <r>  0.0000  0.0000  0.0000  0.0000  0.3051  0.3057  0.0219  0.3056  0.0219 </r>
        <r>  0.0000  0.0003  0.0003  0.0003  0.0000  0.0000  0.0000  0.0000  0.0000 </r>
        <r>  0.0000  0.0003  0.0003  0.0003  0.0000  0.0000  0.0000  0.0000  0.0000 </r>
       </set>
       <set comment="band 8">
        <r>  0.0000  0.0002  0.0002  0.0002  0.0023  0.0023  0.0000  0.0023  0.0000 </r>
        <r>  0.0000  0.0000  0.0000  0.0000  0.3059  0.3053  0.0219  0.3053  0.0219 </r>
        <r>  0.0000  0.0003  0.0003  0.0003  0.0000  0.0000  0.0000  0.0000  0.0000 </r>
        <r>  0.0000  0.0003  0.0003  0.0003  0.0000  0.0000  0.0000  0.0000  0.0000 </r>
       </set>
       <set comment="band 9">
        <r>  0.0000  0.0000  0.0000  0.0000  0.2860  0.2861  0.0069  0.2861  0.0070 </r>
        <r>  0.0000  0.0009  0.0009  0.0009  0.0014  0.0014  0.0042  0.0014  0.0042 </r>
        <r>  0.0000  0.0099  0.0099  0.0099  0.0000  0.0000  0.0000  0.0000  0.0000 </r>
        <r>  0.0000  0.0099  0.0099  0.0099  0.0000  0.0000  0.0000  0.0000  0.0000 </r>
       </set>
       <set comment="band 10">
        <r>  0.0000  0.0000  0.0000  0.0000  0.2861  0.2861  0.0070  0.2860  0.0069 </r>
        <r>  0.0000  0.0009  0.0009  0.0009  0.0014  0.0014  0.0042  0.0014  0.0042 </r>
        <r>  0.0000  0.0099  0.0099  0.0099  0.0000  0.0000  0.0000  0.0000  0.0000 </r>
        <r>  0.0000  0.0099  0.0099  0.0099  0.0000  0.0000  0.0000  0.0000  0.0000 </r>
       </set>
       <set comment="band 11">
        <r>  0.0046  0.0011  0.0011  0.0011  0.0424  0.0424  0.0000  0.0424  0.0000 </r>
        <r>  0.1019  0.0002  0.0002  0.0002  0.0916  0.0916  0.0000  0.0916  0.0000 </r>
        <r>  0.0143  0.0531  0.0531  0.0531  0.0000  0.0000  0.0000  0.0000  0.0000 </r>
        <r>  0.0143  0.0531  0.0531  0.0531  0.0000  0.0000  0.0000  0.0000  0.0000 </r>
       </set>
       <set comment="band 12">
        <r>  0.0829  0.0008  0.0008  0.0008  0.1195  0.1195  0.0000  0.1195  0.0000 </r>
        <r>  0.0093  0.0012  0.0012  0.0012  0.0015  0.0015  0.0000  0.0015  0.0000 </r>
        <r>  0.0168  0.0596  0.0596  0.0596  0.0000  0.0000  0.0000  0.0000  0.0000 </r>
        <r>  0.0168  0.0596  0.0596  0.0596  0.0000  0.0000  0.0000  0.0000  0.0000 </r>
       </set>
       <set comment="band 13">
        <r>  0.0000  0.0002  0.0002  0.0002  0.0354  0.0354  0.0803  0.0353  0.0803 </r>
        <r>  0.0000  0.0038  0.0038  0.0038  0.0006  0.0006  0.0018  0.0006  0.0018 </r>
        <r>  0.0000  0.0936  0.0937  0.0936  0.0000  0.0000  0.0000  0.0000  0.0000 </r>
        <r>  0.0000  0.0936  0.0937  0.0936  0.0000  0.0000  0.0000  0.0000  0.0000 </r>
       </set>
       <set comment="band 14">
        <r>  0.0000  0.0002  0.0002  0.0002  0.0353  0.0353  0.0803  0.0354  0.0803 </r>
        <r>  0.0000  0.0038  0.0038  0.0038  0.0006  0.0006  0.0018  0.0006  0.0018 </r>
        <r>  0.0000  0.0937  0.0936  0.0936  0.0000  0.0000  0.0000  0.0000  0.0000 </r>
        <r>  0.0000  0.0937  0.0936  0.0936  0.0000  0.0000  0.0000  0.0000  0.0000 </r>
       </set>
       <set comment="band 15">
        <r>  0.0000  0.0063  0.0063  0.0063  0.0003  0.0003  0.0047  0.0003  0.0047 </r>
        <r>  0.0000  0.0004  0.0004  0.0004  0.0076  0.0076  0.0736  0.0076  0.0736 </r>
        <r>  0.0000  0.1094  0.1094  0.1094  0.0000  0.0000  0.0000  0.0000  0.0000 </r>
        <r>  0.0000  0.1094  0.1094  0.1094  0.0000  0.0000  0.0000  0.0000  0.0000 </r>
       </set>
       <set comment="band 16">
        <r>  0.0000  0.0063  0.0063  0.0063  0.0003  0.0003  0.0047  0.0003  0.0047 </r>
        <r>  0.0000  0.0004  0.0004  0.0004  0.0076  0.0076  0.0736  0.0076  0.0736 </r>
        <r>  0.0000  0.1094  0.1094  0.1094  0.0000  0.0000  0.0000  0.0000  0.0000 </r>
        <r>  0.0000  0.1094  0.1094  0.1094  0.0000  0.0000  0.0000  0.0000  0.0000 </r>
       </set>
       <set comment="band 17">
        <r>  0.0000  0.0000  0.0000  0.0000  0.0004  0.0004  0.3989  0.0004  0.3991 </r>
        <r>  0.0000  0.0036  0.0036  0.0036  0.0000  0.0000  0.0026  0.0000  0.0026 </r>
        <r>  0.0000  0.0240  0.0241  0.0241  0.0000  0.0000  0.0000  0.0000  0.0000 </r>
        <r>  0.0000  0.0240  0.0241  0.0241  0.0000  0.0000  0.0000  0.0000  0.0000 </r>
       </set>
       <set comment="band 18">
        <r>  0.0000  0.0000  0.0000  0.0000  0.0004  0.0004  0.3991  0.0004  0.3989 </r>
        <r>  0.0000  0.0036  0.0036  0.0036  0.0000  0.0000  0.0026  0.0000  0.0026 </r>
        <r>  0.0000  0.0241  0.0241  0.0240  0.0000  0.0000  0.0000  0.0000  0.0000 </r>
        <r>  0.0000  0.0241  0.0241  0.0240  0.0000  0.0000  0.0000  0.0000  0.0000 </r>
       </set>
       <set comment="band 19">
        <r>  0.1275  0.0120  0.0120  0.0120  0.0007  0.0007  0.0000  0.0007  0.0000 </r>
        <r>  0.1462  0.0103  0.0103  0.0103  0.0008  0.0008  0.0000  0.0008  0.0000 </r>
        <r>  0.0935  0.0309  0.0309  0.0309  0.0000  0.0000  0.0000  0.0000  0.0000 </r>
        <r>  0.0935  0.0309  0.0309  0.0309  0.0000  0.0000  0.0000  0.0000  0.0000 </r>
       </set>
       <set comment="band 20">
        <r>  0.0815  0.0290  0.0290  0.0290  0.0019  0.0019  0.0000  0.0019  0.0000 </r>
        <r>  0.0694  0.0330  0.0330  0.0330  0.0017  0.0017  0.0000  0.0017  0.0000 </r>
        <r>  0.0721  0.0264  0.0264  0.0264  0.0000  0.0000  0.0000  0.0000  0.0000 </r>
        <r>  0.0721  0.0264  0.0264  0.0264  0.0000  0.0000  0.0000  0.0000  0.0000 </r>
       </set>
      </set>
      <set comment="kpoint 10">
       <set comment="band 1">
        <r>  0.0324  0.0000  0.0000  0.0112  0.0000  0.0000  0.0012  0.0000  0.0036 </r>
        <r>  0.0161  0.0016  0.0016  0.0097  0.0000  0.0000  0.0053  0.0000  0.0158 </r>
        <r>  0.3644  0.0000  0.0000  0.0005  0.0000  0.0000  0.0000  0.0000  0.0000 </r>
        <r>  0.3644  0.0000  0.0000  0.0005  0.0000  0.0000  0.0000  0.0000  0.0000 </r>
       </set>
       <set comment="band 2">
        <r>  0.0078  0.0102  0.0102  0.0000  0.0000  0.0001  0.0014  0.0000  0.0041 </r>
        <r>  0.0265  0.0088  0.0088  0.0019  0.0000  0.0001  0.0008  0.0000  0.0024 </r>
        <r>  0.3722  0.0003  0.0003  0.0001  0.0000  0.0000  0.0000  0.0000  0.0000 </r>
        <r>  0.3722  0.0003  0.0003  0.0001  0.0000  0.0000  0.0000  0.0000  0.0000 </r>
       </set>
       <set comment="band 3">
        <r>  0.0440  0.0001  0.0001  0.0043  0.0000  0.0184  0.0000  0.0000  0.0001 </r>
        <r>  0.0015  0.0002  0.0002  0.0047  0.0022  0.0438  0.1436  0.0022  0.4308 </r>
        <r>  0.0003  0.0235  0.0235  0.0422  0.0000  0.0000  0.0000  0.0000  0.0000 </r>
        <r>  0.0003  0.0235  0.0235  0.0422  0.0000  0.0000  0.0000  0.0000  0.0000 </r>
       </set>
       <set comment="band 4">
        <r>  0.0000  0.0000  0.0000  0.0000  0.0010  0.0000  0.0050  0.0010  0.0017 </r>
        <r>  0.0000  0.0003  0.0003  0.0000  0.0000  0.0000  0.6320  0.0000  0.2107 </r>
        <r>  0.0000  0.0241  0.0241  0.0000  0.0000  0.0000  0.0000  0.0000  0.0000 </r>
        <r>  0.0000  0.0241  0.0241  0.0000  0.0000  0.0000  0.0000  0.0000  0.0000 </r>
       </set>
       <set comment="band 5">
        <r>  0.0060  0.0000  0.0000  0.0145  0.0340  0.0176  0.0041  0.0340  0.0123 </r>
        <r>  0.0513  0.0000  0.0000  0.0003  0.0537  0.2710  0.0213  0.0537  0.0640 </r>
        <r>  0.0067  0.0231  0.0231  0.0491  0.0000  0.0000  0.0000  0.0000  0.0000 </r>
        <r>  0.0067  0.0231  0.0231  0.0491  0.0000  0.0000  0.0000  0.0000  0.0000 </r>
       </set>
       <set comment="band 6">
        <r>  0.0007  0.0006  0.0006  0.0032  0.0145  0.0059  0.0015  0.0145  0.0046 </r>
        <r>  0.0068  0.0009  0.0009  0.0131  0.2583  0.2110  0.0001  0.2583  0.0004 </r>
        <r>  0.0012  0.0061  0.0061  0.0375  0.0000  0.0000  0.0000  0.0000  0.0000 </r>
        <r>  0.0012  0.0061  0.0061  0.0375  0.0000  0.0000  0.0000  0.0000  0.0000 </r>
       </set>
       <set comment="band 7">
        <r>  0.0033  0.0002  0.0002  0.0004  0.0006  0.4207  0.0041  0.0006  0.0123 </r>
        <r>  0.0289  0.0000  0.0000  0.0035  0.0245  0.2485  0.0004  0.0245  0.0012 </r>
        <r>  0.0035  0.0177  0.0177  0.0180  0.0000  0.0000  0.0000  0.0000  0.0000 </r>
        <r>  0.0035  0.0177  0.0177  0.0180  0.0000  0.0000  0.0000  0.0000  0.0000 </r>
       </set>
       <set comment="band 8">
        <r>  0.0000  0.0015  0.0015  0.0000  0.0016  0.0000  0.0008  0.0016  0.0003 </r>
        <r>  0.0000  0.0016  0.0016  0.0000  0.4556  0.0000  0.0000  0.4556  0.0000 </r>
        <r>  0.0000  0.0092  0.0092  0.0000  0.0000  0.0000  0.0000  0.0000  0.0000 </r>
        <r>  0.0000  0.0092  0.0092  0.0000  0.0000  0.0000  0.0000  0.0000  0.0000 </r>
       </set>
       <set comment="band 9">
        <r>  0.0040  0.0033  0.0033  0.0060  0.2708  0.0302  0.0000  0.2708  0.0000 </r>
        <r>  0.0020  0.0034  0.0034  0.0026  0.0458  0.0422  0.0113  0.0458  0.0339 </r>
        <r>  0.0023  0.0218  0.0218  0.0202  0.0000  0.0000  0.0000  0.0000  0.0000 </r>
        <r>  0.0023  0.0218  0.0218  0.0202  0.0000  0.0000  0.0000  0.0000  0.0000 </r>
       </set>
       <set comment="band 10">
        <r>  0.0000  0.0025  0.0025  0.0000  0.4286  0.0000  0.0004  0.4286  0.0001 </r>
        <r>  0.0000  0.0022  0.0022  0.0000  0.0091  0.0000  0.0033  0.0091  0.0011 </r>
        <r>  0.0000  0.0153  0.0153  0.0000  0.0000  0.0000  0.0000  0.0000  0.0000 </r>
        <r>  0.0000  0.0153  0.0153  0.0000  0.0000  0.0000  0.0000  0.0000  0.0000 </r>
       </set>
       <set comment="band 11">
        <r>  0.0171  0.0001  0.0001  0.0040  0.0273  0.1803  0.0106  0.0273  0.0317 </r>
        <r>  0.0352  0.0000  0.0000  0.0159  0.0335  0.0443  0.0366  0.0335  0.1099 </r>
        <r>  0.0151  0.0032  0.0032  0.1105  0.0000  0.0000  0.0000  0.0000  0.0000 </r>
        <r>  0.0151  0.0032  0.0032  0.1105  0.0000  0.0000  0.0000  0.0000  0.0000 </r>
       </set>
       <set comment="band 12">
        <r>  0.0773  0.0008  0.0008  0.0002  0.0036  0.2837  0.0000  0.0036  0.0001 </r>
        <r>  0.0123  0.0000  0.0000  0.0050  0.0181  0.0978  0.0233  0.0181  0.0699 </r>
        <r>  0.0137  0.0469  0.0469  0.0293  0.0000  0.0000  0.0000  0.0000  0.0000 </r>
        <r>  0.0137  0.0469  0.0469  0.0292  0.0000  0.0000  0.0000  0.0000  0.0000 </r>
       </set>
       <set comment="band 13">
        <r>  0.0000  0.0113  0.0113  0.0000  0.0413  0.0000  0.0617  0.0413  0.0206 </r>
        <r>  0.0000  0.0090  0.0090  0.0000  0.0235  0.0000  0.0202  0.0235  0.0067 </r>
        <r>  0.0000  0.1408  0.1408  0.0000  0.0000  0.0000  0.0000  0.0000  0.0000 </r>
        <r>  0.0000  0.1408  0.1408  0.0000  0.0000  0.0000  0.0000  0.0000  0.0000 </r>
       </set>
       <set comment="band 14">
        <r>  0.0014  0.0113  0.0113  0.0141  0.0030  0.0001  0.0008  0.0030  0.0025 </r>
        <r>  0.0015  0.0127  0.0127  0.0027  0.0489  0.0097  0.0110  0.0489  0.0329 </r>
        <r>  0.0019  0.1169  0.1169  0.0649  0.0000  0.0000  0.0000  0.0000  0.0000 </r>
        <r>  0.0019  0.1169  0.1169  0.0649  0.0000  0.0000  0.0000  0.0000  0.0000 </r>
       </set>
       <set comment="band 15">
        <r>  0.0018  0.0028  0.0028  0.0236  0.1391  0.0061  0.0019  0.1391  0.0056 </r>
        <r>  0.0019  0.0024  0.0024  0.0217  0.0091  0.0001  0.0014  0.0091  0.0042 </r>
        <r>  0.0007  0.0294  0.0294  0.1874  0.0000  0.0000  0.0000  0.0000  0.0000 </r>
        <r>  0.0007  0.0294  0.0294  0.1874  0.0000  0.0000  0.0000  0.0000  0.0000 </r>
       </set>
       <set comment="band 16">
        <r>  0.0000  0.0038  0.0038  0.0000  0.0192  0.0000  0.0819  0.0192  0.0273 </r>
        <r>  0.0000  0.0066  0.0066  0.0000  0.0034  0.0000  0.1037  0.0034  0.0346 </r>
        <r>  0.0000  0.1369  0.1369  0.0000  0.0000  0.0000  0.0000  0.0000  0.0000 </r>
        <r>  0.0000  0.1369  0.1369  0.0000  0.0000  0.0000  0.0000  0.0000  0.0000 </r>
       </set>
       <set comment="band 17">
        <r>  0.0025  0.0008  0.0008  0.0000  0.0002  0.0002  0.2039  0.0002  0.6116 </r>
        <r>  0.0506  0.0002  0.0002  0.0032  0.0000  0.0000  0.0001  0.0000  0.0004 </r>
        <r>  0.0241  0.0018  0.0018  0.0034  0.0000  0.0000  0.0000  0.0000  0.0000 </r>
        <r>  0.0241  0.0018  0.0018  0.0034  0.0000  0.0000  0.0000  0.0000  0.0000 </r>
       </set>
       <set comment="band 18">
        <r>  0.0000  0.0000  0.0000  0.0000  0.0000  0.0000  0.5942  0.0000  0.1981 </r>
        <r>  0.0000  0.0004  0.0004  0.0000  0.0000  0.0000  0.0171  0.0000  0.0057 </r>
        <r>  0.0000  0.0389  0.0389  0.0000  0.0000  0.0000  0.0000  0.0000  0.0000 </r>
        <r>  0.0000  0.0389  0.0389  0.0000  0.0000  0.0000  0.0000  0.0000  0.0000 </r>
       </set>
       <set comment="band 19">
        <r>  0.2167  0.0009  0.0009  0.0082  0.0000  0.0000  0.0089  0.0000  0.0268 </r>
        <r>  0.0692  0.0107  0.0107  0.0026  0.0001  0.0001  0.0081  0.0001  0.0242 </r>
        <r>  0.0475  0.0071  0.0071  0.1318  0.0000  0.0000  0.0000  0.0000  0.0000 </r>
        <r>  0.0475  0.0071  0.0071  0.1318  0.0000  0.0000  0.0000  0.0000  0.0000 </r>
       </set>
       <set comment="band 20">
        <r>  0.0150  0.0378  0.0378  0.0004  0.0003  0.0003  0.0114  0.0003  0.0341 </r>
        <r>  0.1367  0.0310  0.0310  0.0045  0.0002  0.0002  0.0002  0.0002  0.0005 </r>
        <r>  0.0477  0.0594  0.0594  0.0198  0.0000  0.0000  0.0000  0.0000  0.0000 </r>
        <r>  0.0477  0.0594  0.0594  0.0198  0.0000  0.0000  0.0000  0.0000  0.0000 </r>
       </set>
      </set>
     </set>
    </set>
   </array>
  </projected>
 </calculation>
 <structure name="finalpos" >
  <crystal>
   <varray name="basis" >
    <v>       4.17000000       2.08500000       2.08500000 </v>
    <v>       2.08500000       4.17000000       2.08500000 </v>
    <v>       2.08500000       2.08500000       4.17000000 </v>
   </varray>
   <i name="volume">     36.25585650 </i>
   <varray name="rec_basis" >
    <v>       0.35971223      -0.11990408      -0.11990408 </v>
    <v>      -0.11990408       0.35971223      -0.11990408 </v>
    <v>      -0.11990408      -0.11990408       0.35971223 </v>
   </varray>
  </crystal>
  <varray name="positions" >
   <v>       0.00000000       0.00000000       0.00000000 </v>
   <v>       0.50000000       0.50000000       0.50000000 </v>
   <v>       0.25000000       0.25000000       0.25000000 </v>
   <v>       0.75000000       0.75000000       0.75000000 </v>
  </varray>
 </structure>
</modeling>
