   7   7   0   0
  0.2704671E+02  0.3160000E-09  0.3160000E-09  0.1896000E-08  0.5000000E-15
  1.000000000000000E-004
  CAR 
 unknown system                          
      7.13269382     -8.29543667  301      2.76351530      1.00000000
     -8.295  0.0000E+00  0.0000E+00
     -8.244  0.0000E+00  0.0000E+00
     -8.193  0.0000E+00  0.0000E+00
     -8.141  0.0000E+00  0.0000E+00
     -8.090  0.0000E+00  0.0000E+00
     -8.038  0.0000E+00  0.0000E+00
     -7.987  0.0000E+00  0.0000E+00
     -7.935  0.0000E+00  0.0000E+00
     -7.884  0.0000E+00  0.0000E+00
     -7.833  0.0000E+00  0.0000E+00
     -7.781  0.0000E+00  0.0000E+00
     -7.730  0.0000E+00  0.0000E+00
     -7.678  0.0000E+00  0.0000E+00
     -7.627  0.0000E+00  0.0000E+00
     -7.575  0.0000E+00  0.0000E+00
     -7.524  0.0000E+00  0.0000E+00
     -7.473  0.0000E+00  0.0000E+00
     -7.421  0.0000E+00  0.0000E+00
     -7.370  0.0000E+00  0.0000E+00
     -7.318  0.0000E+00  0.0000E+00
     -7.267  0.0000E+00  0.0000E+00
     -7.215  0.0000E+00  0.0000E+00
     -7.164  0.0000E+00  0.0000E+00
     -7.113  0.0000E+00  0.0000E+00
     -7.061  0.0000E+00  0.0000E+00
     -7.010  0.0000E+00  0.0000E+00
     -6.958  0.0000E+00  0.0000E+00
     -6.907  0.0000E+00  0.0000E+00
     -6.855  0.0000E+00  0.0000E+00
     -6.804  0.0000E+00  0.0000E+00
     -6.753  0.0000E+00  0.0000E+00
     -6.701  0.0000E+00  0.0000E+00
     -6.650  0.0000E+00  0.0000E+00
     -6.598  0.0000E+00  0.0000E+00
     -6.547  0.0000E+00  0.0000E+00
     -6.495  0.0000E+00  0.0000E+00
     -6.444  0.0000E+00  0.0000E+00
     -6.393  0.0000E+00  0.0000E+00
     -6.341  0.0000E+00  0.0000E+00
     -6.290  0.3442E-01  0.9732E-04
     -6.238  0.3474E+00  0.9917E-02
     -6.187  0.2475E+00  0.2530E-01
     -6.135  0.2679E+00  0.3819E-01
     -6.084  0.3042E+00  0.5290E-01
     -6.033  0.2829E+00  0.6846E-01
     -5.981  0.2699E+00  0.8234E-01
     -5.930  0.2781E+00  0.9643E-01
     -5.878  0.2864E+00  0.1109E+00
     -5.827  0.2971E+00  0.1259E+00
     -5.776  0.3010E+00  0.1415E+00
     -5.724  0.2860E+00  0.1565E+00
     -5.673  0.2880E+00  0.1712E+00
     -5.621  0.2899E+00  0.1861E+00
     -5.570  0.2940E+00  0.2011E+00
     -5.518  0.3012E+00  0.2164E+00
     -5.467  0.3085E+00  0.2320E+00
     -5.416  0.3146E+00  0.2481E+00
     -5.364  0.3034E+00  0.2640E+00
     -5.313  0.3039E+00  0.2796E+00
     -5.261  0.3069E+00  0.2953E+00
     -5.210  0.3101E+00  0.3111E+00
     -5.158  0.3144E+00  0.3272E+00
     -5.107  0.7219E+00  0.3531E+00
     -5.056  0.6052E+00  0.3873E+00
     -5.004  0.6595E+00  0.4198E+00
     -4.953  0.6912E+00  0.4550E+00
     -4.901  0.6481E+00  0.4891E+00
     -4.850  0.6637E+00  0.5228E+00
     -4.798  0.6792E+00  0.5574E+00
     -4.747  0.6977E+00  0.5927E+00
     -4.696  0.6867E+00  0.6285E+00
     -4.644  0.6917E+00  0.6638E+00
     -4.593  0.7043E+00  0.6997E+00
     -4.541  0.7166E+00  0.7363E+00
     -4.490  0.7311E+00  0.7735E+00
     -4.438  0.7431E+00  0.8115E+00
     -4.387  0.7404E+00  0.8495E+00
     -4.336  0.7490E+00  0.8878E+00
     -4.284  0.7574E+00  0.9266E+00
     -4.233  0.7723E+00  0.9659E+00
     -4.181  0.7865E+00  0.1006E+01
     -4.130  0.8006E+00  0.1047E+01
     -4.078  0.8141E+00  0.1088E+01
     -4.027  0.8273E+00  0.1131E+01
     -3.976  0.8398E+00  0.1173E+01
     -3.924  0.8551E+00  0.1217E+01
     -3.873  0.8793E+00  0.1262E+01
     -3.821  0.8994E+00  0.1307E+01
     -3.770  0.9216E+00  0.1354E+01
     -3.718  0.9542E+00  0.1402E+01
     -3.667  0.9763E+00  0.1452E+01
     -3.616  0.9983E+00  0.1503E+01
     -3.564  0.1586E+01  0.1571E+01
     -3.513  0.1558E+01  0.1649E+01
     -3.461  0.1662E+01  0.1733E+01
     -3.410  0.1732E+01  0.1820E+01
     -3.358  0.1930E+01  0.1913E+01
     -3.307  0.2094E+01  0.2017E+01
     -3.256  0.2385E+01  0.2131E+01
     -3.204  0.2871E+01  0.2261E+01
     -3.153  0.3694E+01  0.2448E+01
     -3.101  0.3307E+01  0.2609E+01
     -3.050  0.4395E+01  0.2833E+01
     -2.998  0.3944E+01  0.3023E+01
     -2.947  0.5868E+01  0.3280E+01
     -2.896  0.4003E+01  0.3507E+01
     -2.844  0.3377E+01  0.3695E+01
     -2.793  0.3236E+01  0.3866E+01
     -2.741  0.3430E+01  0.4037E+01
     -2.690  0.3381E+01  0.4211E+01
     -2.638  0.4709E+01  0.4398E+01
     -2.587  0.4899E+01  0.4666E+01
     -2.536  0.4295E+01  0.4895E+01
     -2.484  0.4309E+01  0.5119E+01
     -2.433  0.4055E+01  0.5338E+01
     -2.381  0.4070E+01  0.5544E+01
     -2.330  0.4370E+01  0.5766E+01
     -2.278  0.4945E+01  0.5996E+01
     -2.227  0.5501E+01  0.6246E+01
     -2.176  0.6489E+01  0.6578E+01
     -2.124  0.4850E+01  0.6854E+01
     -2.073  0.4827E+01  0.7097E+01
     -2.021  0.5115E+01  0.7357E+01
     -1.970  0.6780E+01  0.7654E+01
     -1.918  0.7299E+01  0.8015E+01
     -1.867  0.8094E+01  0.8398E+01
     -1.816  0.4454E+01  0.8787E+01
     -1.764  0.3828E+01  0.8994E+01
     -1.713  0.5142E+01  0.9225E+01
     -1.661  0.6690E+01  0.9533E+01
     -1.610  0.6063E+01  0.9873E+01
     -1.558  0.5281E+01  0.1016E+02
     -1.507  0.6105E+01  0.1049E+02
     -1.456  0.5029E+01  0.1077E+02
     -1.404  0.6735E+01  0.1105E+02
     -1.353  0.8681E+01  0.1147E+02
     -1.301  0.1122E+02  0.1201E+02
     -1.250  0.5438E+01  0.1243E+02
     -1.198  0.5088E+01  0.1270E+02
     -1.147  0.6878E+01  0.1301E+02
     -1.096  0.5659E+01  0.1334E+02
     -1.044  0.5517E+01  0.1363E+02
     -0.993  0.4740E+01  0.1389E+02
     -0.941  0.4903E+01  0.1416E+02
     -0.890  0.5000E+01  0.1441E+02
     -0.839  0.4773E+01  0.1468E+02
     -0.787  0.4472E+01  0.1490E+02
     -0.736  0.5246E+01  0.1514E+02
     -0.684  0.4713E+01  0.1540E+02
     -0.633  0.4092E+01  0.1566E+02
     -0.581  0.3260E+01  0.1582E+02
     -0.530  0.1093E+02  0.1610E+02
     -0.479  0.1076E+02  0.1663E+02
     -0.427  0.1018E+02  0.1719E+02
     -0.376  0.1162E+02  0.1773E+02
     -0.324  0.1241E+02  0.1840E+02
     -0.273  0.1195E+02  0.1898E+02
     -0.221  0.9727E+01  0.1956E+02
     -0.170  0.8790E+01  0.2001E+02
     -0.119  0.8877E+01  0.2046E+02
     -0.067  0.1067E+02  0.2096E+02
     -0.016  0.7076E+01  0.2138E+02
      0.036  0.6700E+01  0.2173E+02
      0.087  0.5162E+01  0.2207E+02
      0.139  0.6477E+01  0.2234E+02
      0.190  0.8052E+01  0.2268E+02
      0.241  0.1028E+02  0.2315E+02
      0.293  0.1147E+02  0.2377E+02
      0.344  0.8638E+01  0.2430E+02
      0.396  0.9151E+01  0.2483E+02
      0.447  0.9298E+01  0.2531E+02
      0.499  0.9266E+01  0.2580E+02
      0.550  0.9297E+01  0.2627E+02
      0.601  0.9760E+01  0.2683E+02
      0.653  0.8580E+01  0.2729E+02
      0.704  0.8412E+01  0.2775E+02
      0.756  0.8704E+01  0.2821E+02
      0.807  0.8837E+01  0.2866E+02
      0.859  0.9824E+01  0.2916E+02
      0.910  0.1092E+02  0.2968E+02
      0.961  0.9650E+01  0.3021E+02
      1.013  0.8989E+01  0.3070E+02
      1.064  0.8755E+01  0.3115E+02
      1.116  0.9440E+01  0.3161E+02
      1.167  0.8742E+01  0.3207E+02
      1.219  0.7210E+01  0.3248E+02
      1.270  0.6867E+01  0.3283E+02
      1.321  0.6232E+01  0.3317E+02
      1.373  0.5645E+01  0.3348E+02
      1.424  0.5566E+01  0.3377E+02
      1.476  0.5300E+01  0.3405E+02
      1.527  0.5016E+01  0.3432E+02
      1.579  0.5264E+01  0.3458E+02
      1.630  0.5023E+01  0.3485E+02
      1.681  0.4249E+01  0.3509E+02
      1.733  0.4232E+01  0.3530E+02
      1.784  0.4886E+01  0.3557E+02
      1.836  0.4457E+01  0.3579E+02
      1.887  0.3569E+01  0.3602E+02
      1.939  0.4822E+01  0.3621E+02
      1.990  0.5305E+01  0.3649E+02
      2.041  0.5264E+01  0.3676E+02
      2.093  0.5228E+01  0.3703E+02
      2.144  0.6989E+01  0.3734E+02
      2.196  0.6720E+01  0.3776E+02
      2.247  0.7444E+01  0.3815E+02
      2.299  0.8822E+01  0.3856E+02
      2.350  0.1035E+02  0.3900E+02
      2.401  0.9609E+01  0.3957E+02
      2.453  0.7803E+01  0.4004E+02
      2.504  0.4636E+01  0.4037E+02
      2.556  0.4706E+01  0.4059E+02
      2.607  0.5652E+01  0.4084E+02
      2.659  0.7579E+01  0.4121E+02
      2.710  0.6303E+01  0.4160E+02
      2.761  0.7835E+01  0.4198E+02
      2.813  0.7396E+01  0.4235E+02
      2.864  0.5680E+01  0.4268E+02
      2.916  0.5353E+01  0.4296E+02
      2.967  0.5215E+01  0.4324E+02
      3.019  0.5098E+01  0.4350E+02
      3.070  0.5757E+01  0.4378E+02
      3.121  0.6440E+01  0.4410E+02
      3.173  0.4505E+01  0.4436E+02
      3.224  0.5220E+01  0.4462E+02
      3.276  0.4879E+01  0.4488E+02
      3.327  0.4672E+01  0.4512E+02
      3.379  0.4472E+01  0.4536E+02
      3.430  0.5202E+01  0.4561E+02
      3.481  0.5683E+01  0.4588E+02
      3.533  0.4361E+01  0.4612E+02
      3.584  0.6534E+01  0.4637E+02
      3.636  0.7555E+01  0.4675E+02
      3.687  0.4403E+01  0.4702E+02
      3.739  0.3947E+01  0.4723E+02
      3.790  0.3833E+01  0.4743E+02
      3.841  0.4196E+01  0.4763E+02
      3.893  0.4030E+01  0.4784E+02
      3.944  0.4370E+01  0.4805E+02
      3.996  0.4477E+01  0.4828E+02
      4.047  0.3445E+01  0.4847E+02
      4.098  0.3279E+01  0.4865E+02
      4.150  0.3829E+01  0.4883E+02
      4.201  0.2750E+01  0.4901E+02
      4.253  0.2727E+01  0.4915E+02
      4.304  0.2685E+01  0.4929E+02
      4.356  0.2245E+01  0.4941E+02
      4.407  0.2080E+01  0.4952E+02
      4.458  0.1860E+01  0.4962E+02
      4.510  0.1998E+01  0.4972E+02
      4.561  0.1561E+01  0.4981E+02
      4.613  0.8216E+00  0.4987E+02
      4.664  0.5770E+00  0.4991E+02
      4.716  0.4633E+00  0.4993E+02
      4.767  0.3698E+00  0.4995E+02
      4.818  0.2660E+00  0.4997E+02
      4.870  0.1622E+00  0.4998E+02
      4.921  0.1129E+00  0.4999E+02
      4.973  0.8538E-01  0.4999E+02
      5.024  0.5790E-01  0.5000E+02
      5.076  0.3043E-01  0.5000E+02
      5.127  0.2949E-02  0.5000E+02
      5.178  0.0000E+00  0.5000E+02
      5.230  0.0000E+00  0.5000E+02
      5.281  0.0000E+00  0.5000E+02
      5.333  0.0000E+00  0.5000E+02
      5.384  0.0000E+00  0.5000E+02
      5.436  0.0000E+00  0.5000E+02
      5.487  0.0000E+00  0.5000E+02
      5.538  0.0000E+00  0.5000E+02
      5.590  0.0000E+00  0.5000E+02
      5.641  0.0000E+00  0.5000E+02
      5.693  0.0000E+00  0.5000E+02
      5.744  0.0000E+00  0.5000E+02
      5.796  0.0000E+00  0.5000E+02
      5.847  0.0000E+00  0.5000E+02
      5.898  0.0000E+00  0.5000E+02
      5.950  0.0000E+00  0.5000E+02
      6.001  0.0000E+00  0.5000E+02
      6.053  0.0000E+00  0.5000E+02
      6.104  0.0000E+00  0.5000E+02
      6.156  0.0000E+00  0.5000E+02
      6.207  0.0000E+00  0.5000E+02
      6.258  0.0000E+00  0.5000E+02
      6.310  0.0000E+00  0.5000E+02
      6.361  0.0000E+00  0.5000E+02
      6.413  0.0000E+00  0.5000E+02
      6.464  0.0000E+00  0.5000E+02
      6.516  0.0000E+00  0.5000E+02
      6.567  0.0000E+00  0.5000E+02
      6.618  0.0000E+00  0.5000E+02
      6.670  0.0000E+00  0.5000E+02
      6.721  0.0000E+00  0.5000E+02
      6.773  0.0000E+00  0.5000E+02
      6.824  0.0000E+00  0.5000E+02
      6.876  0.0000E+00  0.5000E+02
      6.927  0.0000E+00  0.5000E+02
      6.978  0.0000E+00  0.5000E+02
      7.030  0.0000E+00  0.5000E+02
      7.081  0.0000E+00  0.5000E+02
      7.133  0.0000E+00  0.5000E+02
