    7    7    1    1
  0.2704671E+02  0.3160000E-09  0.3160000E-09  0.1896000E-08  0.5000000E-15
  1.000000000000000E-004
  CAR 
 unknown system                          
     42    198     25
 
  0.0000000E+00  0.0000000E+00  0.0000000E+00  0.6250000E-03
    1       -6.295432   1.000000
    2       -5.154544   1.000000
    3       -3.606672   1.000000
    4       -2.788436   1.000000
    5       -2.666128   1.000000
    6       -2.244710   1.000000
    7       -2.083544   1.000000
    8       -1.700235   1.000000
    9       -1.334284   1.000000
   10       -0.979588   1.000000
   11        0.321729   1.000000
   12        1.557045   1.000000
   13        1.557045   1.000000
   14        1.695253   1.000000
   15        1.695253   1.000000
   16        1.785017   1.000000
   17        1.861195   1.000000
   18        2.124047   1.000000
   19        2.124047   1.000000
   20        2.420299   1.000000
   21        2.433242   1.000000
   22        2.510182   1.000000
   23        2.783944   0.563557
   24        2.783944   0.000000
   25        3.398887   0.000000
 
  0.5000000E-01  0.0000000E+00  0.0000000E+00  0.2500000E-02
    1       -6.238078   1.000000
    2       -5.105980   1.000000
    3       -3.574149   1.000000
    4       -2.746761   1.000000
    5       -2.628531   1.000000
    6       -2.228187   1.000000
    7       -2.047971   1.000000
    8       -1.665394   1.000000
    9       -1.316743   1.000000
   10       -0.956655   1.000000
   11        0.299368   1.000000
   12        1.464887   1.000000
   13        1.484119   1.000000
   14        1.497971   1.000000
   15        1.529911   1.000000
   16        1.883084   1.000000
   17        1.950406   1.000000
   18        2.102838   1.000000
   19        2.167887   1.000000
   20        2.342472   1.000000
   21        2.511024   1.000000
   22        2.613200   1.000000
   23        2.630434   1.160854
   24        2.945856   0.000000
   25        3.418980   0.000000
 
  0.1000000E+00  0.0000000E+00  0.0000000E+00  0.2500000E-02
    1       -6.068012   1.000000
    2       -4.963602   1.000000
    3       -3.483742   1.000000
    4       -2.636616   1.000000
    5       -2.506363   1.000000
    6       -2.205523   1.000000
    7       -1.939729   1.000000
    8       -1.557115   1.000000
    9       -1.321016   1.000000
   10       -0.829642   1.000000
   11        0.280000   1.000000
   12        1.222553   1.000000
   13        1.230294   1.000000
   14        1.241980   1.000000
   15        1.459334   1.000000
   16        1.787411   1.000000
   17        1.798129   1.000000
   18        2.131519   1.000000
   19        2.187632   1.000000
   20        2.492926   1.000000
   21        2.520758   1.000000
   22        2.597188   1.097066
   23        2.738467   0.505836
   24        3.242902   0.000000
   25        3.479691   0.000000
 
  0.1500000E+00  0.0000000E+00  0.0000000E+00  0.2500000E-02
    1       -5.791377   1.000000
    2       -4.737650   1.000000
    3       -3.356748   1.000000
    4       -2.484640   1.000000
    5       -2.290993   1.000000
    6       -2.215368   1.000000
    7       -1.793090   1.000000
    8       -1.394457   1.000000
    9       -1.358599   1.000000
   10       -0.545039   1.000000
   11        0.358983   1.000000
   12        0.914995   1.000000
   13        0.923268   1.000000
   14        1.089482   1.000000
   15        1.369222   1.000000
   16        1.519041   1.000000
   17        1.662243   1.000000
   18        2.020021   1.000000
   19        2.092129   1.000000
   20        2.510547   1.000000
   21        2.610031   1.000000
   22        2.810893   0.107835
   23        2.828612  -0.013089
   24        3.533237   0.000000
   25        3.540121   0.000000
 
  0.2000000E+00  0.0000000E+00  0.0000000E+00  0.2500000E-02
    1       -5.418633   1.000000
    2       -4.445959   1.000000
    3       -3.226344   1.000000
    4       -2.302682   1.000000
    5       -2.275889   1.000000
    6       -2.007042   1.000000
    7       -1.664123   1.000000
    8       -1.493621   1.000000
    9       -1.055662   1.000000
   10       -0.131993   1.000000
   11        0.587303   1.000000
   12        0.603166   1.000000
   13        0.614772   1.000000
   14        1.071246   1.000000
   15        1.242614   1.000000
   16        1.286546   1.000000
   17        1.445014   1.000000
   18        1.927775   1.000000
   19        1.978164   1.000000
   20        2.420777   1.000000
   21        2.477292   1.000000
   22        3.109499   0.000000
   23        3.115042   0.000000
   24        3.625551   0.000000
   25        3.650442   0.000000
 
  0.2500000E+00  0.0000000E+00  0.0000000E+00  0.2500000E-02
    1       -4.965112   1.000000
    2       -4.115305   1.000000
    3       -3.128899   1.000000
    4       -2.380306   1.000000
    5       -2.119548   1.000000
    6       -1.698579   1.000000
    7       -1.564140   1.000000
    8       -1.550051   1.000000
    9       -0.679253   1.000000
   10        0.289082   1.000000
   11        0.316668   1.000000
   12        0.368698   1.000000
   13        0.997823   1.000000
   14        1.007815   1.000000
   15        1.169019   1.000000
   16        1.191676   1.000000
   17        1.255780   1.000000
   18        1.829679   1.000000
   19        1.915869   1.000000
   20        2.226496   1.000000
   21        2.394308   1.000000
   22        3.285297   0.000000
   23        3.345344   0.000000
   24        3.541318   0.000000
   25        3.581979   0.000000
 
  0.3000000E+00  0.0000000E+00  0.0000000E+00  0.2500000E-02
    1       -4.451893   1.000000
    2       -3.782633   1.000000
    3       -3.086479   1.000000
    4       -2.499798   1.000000
    5       -2.013344   1.000000
    6       -1.505061   1.000000
    7       -1.484026   1.000000
    8       -1.382973   1.000000
    9       -0.284989   1.000000
   10        0.033558   1.000000
   11        0.049720   1.000000
   12        0.820168   1.000000
   13        0.896540   1.000000
   14        0.904014   1.000000
   15        1.175704   1.000000
   16        1.442110   1.000000
   17        1.606598   1.000000
   18        1.689132   1.000000
   19        1.945610   1.000000
   20        1.997225   1.000000
   21        2.301906   1.000000
   22        3.263959   0.000000
   23        3.321180   0.000000
   24        3.361685   0.000000
   25        3.376745   0.000000
 
  0.3500000E+00  0.0000000E+00  0.0000000E+00  0.2500000E-02
    1       -3.908452   1.000000
    2       -3.494812   1.000000
    3       -3.092039   1.000000
    4       -2.599314   1.000000
    5       -2.009762   1.000000
    6       -1.417592   1.000000
    7       -1.375155   1.000000
    8       -1.079706   1.000000
    9       -0.171648   1.000000
   10       -0.170285   1.000000
   11        0.079870   1.000000
   12        0.665151   1.000000
   13        0.676891   1.000000
   14        1.200531   1.000000
   15        1.365520   1.000000
   16        1.462961   1.000000
   17        1.792020   1.000000
   18        1.819778   1.000000
   19        1.930226   1.000000
   20        2.184183   1.000000
   21        2.319992   1.064881
   22        2.989102   0.000000
   23        3.144389   0.000000
   24        3.265373   0.000000
   25        3.446546   0.000000
 
  0.4000000E+00  0.0000000E+00  0.0000000E+00  0.2500000E-02
    1       -3.387480   1.000000
    2       -3.299478   1.000000
    3       -3.105086   1.000000
    4       -2.649565   1.000000
    5       -2.056673   1.000000
    6       -1.360751   1.000000
    7       -1.337006   1.000000
    8       -0.717338   1.000000
    9       -0.333189   1.000000
   10       -0.321521   1.000000
   11        0.394811   1.000000
   12        0.492440   1.000000
   13        0.575285   1.000000
   14        1.080875   1.000000
   15        1.190488   1.000000
   16        1.639182   1.000000
   17        1.797464   1.000000
   18        2.012432   1.000000
   19        2.068563   1.000000
   20        2.128850   1.000000
   21        2.913888   0.168482
   22        2.933566   0.000000
   23        2.942318   0.000000
   24        3.212199   0.000000
   25        3.713713   0.000000
 
  0.4500000E+00  0.0000000E+00  0.0000000E+00  0.2500000E-02
    1       -3.210571   1.000000
    2       -3.192880   1.000000
    3       -2.851584   1.000000
    4       -2.650361   1.000000
    5       -2.153464   1.000000
    6       -1.392529   1.000000
    7       -1.317120   1.000000
    8       -0.433006   1.000000
    9       -0.412744   1.000000
   10       -0.302480   1.000000
   11        0.386495   1.000000
   12        0.514207   1.000000
   13        0.657314   1.000000
   14        0.659455   1.000000
   15        1.106585   1.000000
   16        1.547760   1.000000
   17        1.986531   1.000000
   18        2.047917   1.000000
   19        2.062825   1.000000
   20        2.260228   1.000000
   21        2.802528  -0.114757
   22        3.028611   0.000000
   23        3.131115   0.000000
   24        3.404332   0.000000
   25        3.895864   0.000000
 
  0.5000000E+00  0.0000000E+00  0.0000000E+00  0.1250000E-02
    1       -3.195070   1.000000
    2       -3.189773   1.000000
    3       -2.642348   1.000000
    4       -2.597118   1.000000
    5       -2.266140   1.000000
    6       -1.434651   1.000000
    7       -1.299876   1.000000
    8       -0.466612   1.000000
    9       -0.443379   1.000000
   10        0.042661   1.000000
   11        0.307500   1.000000
   12        0.350847   1.000000
   13        0.493763   1.000000
   14        0.810116   1.000000
   15        1.009451   1.000000
   16        1.517687   1.000000
   17        1.957170   1.000000
   18        2.083682   1.000000
   19        2.137983   1.000000
   20        2.281757   1.000000
   21        2.752844   0.810343
   22        3.104073   0.000000
   23        3.105756   0.000000
   24        3.516896   0.000000
   25        4.062394   0.000000
 
  0.5000000E-01  0.5000000E-01  0.0000000E+00  0.2500000E-02
    1       -6.181036   1.000000
    2       -5.057189   1.000000
    3       -3.540437   1.000000
    4       -2.702668   1.000000
    5       -2.593415   1.000000
    6       -2.205855   1.000000
    7       -2.014685   1.000000
    8       -1.631086   1.000000
    9       -1.287642   1.000000
   10       -0.946391   1.000000
   11        0.271135   1.000000
   12        1.311956   1.000000
   13        1.427151   1.000000
   14        1.444067   1.000000
   15        1.447947   1.000000
   16        1.858816   1.000000
   17        1.938302   1.000000
   18        2.176063   1.000000
   19        2.194492   1.000000
   20        2.271123   1.000000
   21        2.446473   1.000000
   22        2.713722   1.017487
   23        2.805801   0.214105
   24        2.872399   0.000000
   25        3.456166   0.000000
 
  0.1000000E+00  0.5000000E-01  0.0000000E+00  0.5000000E-02
    1       -6.011987   1.000000
    2       -4.914152   1.000000
    3       -3.446534   1.000000
    4       -2.586647   1.000000
    5       -2.477366   1.000000
    6       -2.170108   1.000000
    7       -1.908667   1.000000
    8       -1.525155   1.000000
    9       -1.268463   1.000000
   10       -0.846346   1.000000
   11        0.234730   1.000000
   12        1.088237   1.000000
   13        1.211546   1.000000
   14        1.226528   1.000000
   15        1.358452   1.000000
   16        1.660190   1.000000
   17        1.857485   1.000000
   18        2.184566   1.000000
   19        2.228695   1.000000
   20        2.386615   1.000000
   21        2.411787   1.000000
   22        2.750159   0.722873
   23        2.816941   0.036447
   24        3.175760   0.000000
   25        3.542670   0.000000
 
  0.1500000E+00  0.5000000E-01  0.0000000E+00  0.5000000E-02
    1       -5.737136   1.000000
    2       -4.687143   1.000000
    3       -3.314039   1.000000
    4       -2.432090   1.000000
    5       -2.265163   1.000000
    6       -2.169383   1.000000
    7       -1.754536   1.000000
    8       -1.335172   1.000000
    9       -1.333219   1.000000
   10       -0.575265   1.000000
   11        0.281155   1.000000
   12        0.854428   1.000000
   13        0.919687   1.000000
   14        1.044488   1.000000
   15        1.257911   1.000000
   16        1.408951   1.000000
   17        1.637049   1.000000
   18        2.112802   1.000000
   19        2.126170   1.000000
   20        2.449157   1.000000
   21        2.477131   1.000000
   22        2.867530  -0.032264
   23        2.924457  -0.018086
   24        3.403139   0.000000
   25        3.620694   0.000000
 
  0.2000000E+00  0.5000000E-01  0.0000000E+00  0.5000000E-02
    1       -5.367037   1.000000
    2       -4.394061   1.000000
    3       -3.177123   1.000000
    4       -2.249311   1.000000
    5       -2.223606   1.000000
    6       -1.983322   1.000000
    7       -1.614724   1.000000
    8       -1.436155   1.000000
    9       -1.038150   1.000000
   10       -0.174828   1.000000
   11        0.395607   1.000000
   12        0.581582   1.000000
   13        0.718078   1.000000
   14        0.993866   1.000000
   15        1.175425   1.000000
   16        1.177317   1.000000
   17        1.332235   1.000000
   18        1.986006   1.000000
   19        2.064284   1.000000
   20        2.326302   1.000000
   21        2.433170   1.000000
   22        3.078981  -0.022702
   23        3.162048   0.000000
   24        3.398543   0.000000
   25        3.625475   0.000000
 
  0.2500000E+00  0.5000000E-01  0.0000000E+00  0.5000000E-02
    1       -4.917148   1.000000
    2       -4.061835   1.000000
    3       -3.073928   1.000000
    4       -2.325019   1.000000
    5       -2.063447   1.000000
    6       -1.679458   1.000000
    7       -1.508977   1.000000
    8       -1.497922   1.000000
    9       -0.667925   1.000000
   10        0.198106   1.000000
   11        0.236660   1.000000
   12        0.415520   1.000000
   13        0.910274   1.000000
   14        0.944961   1.000000
   15        1.077436   1.000000
   16        1.125376   1.000000
   17        1.171673   1.000000
   18        1.786976   1.000000
   19        2.016756   1.000000
   20        2.176306   1.000000
   21        2.333009   1.000000
   22        3.190054   0.000000
   23        3.407342   0.000000
   24        3.422980   0.000000
   25        3.612462   0.000000
 
  0.3000000E+00  0.5000000E-01  0.0000000E+00  0.5000000E-02
    1       -4.408499   1.000000
    2       -3.727543   1.000000
    3       -3.028080   1.000000
    4       -2.443718   1.000000
    5       -1.954193   1.000000
    6       -1.451380   1.000000
    7       -1.428115   1.000000
    8       -1.381677   1.000000
    9       -0.284459   1.000000
   10        0.005214   1.000000
   11        0.011362   1.000000
   12        0.730833   1.000000
   13        0.758891   1.000000
   14        0.918452   1.000000
   15        1.097488   1.000000
   16        1.347730   1.000000
   17        1.554069   1.000000
   18        1.580143   1.000000
   19        1.989801   1.000000
   20        2.069391   1.000000
   21        2.207412   1.000000
   22        3.077123  -0.022429
   23        3.406630   0.000000
   24        3.418834   0.000000
   25        3.578776   0.000000
 
  0.3500000E+00  0.5000000E-01  0.0000000E+00  0.5000000E-02
    1       -3.869965   1.000000
    2       -3.438138   1.000000
    3       -3.032760   1.000000
    4       -2.543694   1.000000
    5       -1.952598   1.000000
    6       -1.365294   1.000000
    7       -1.327380   1.000000
    8       -1.093533   1.000000
    9       -0.194840   1.000000
   10       -0.191845   1.000000
   11        0.049802   1.000000
   12        0.585735   1.000000
   13        0.619861   1.000000
   14        1.134900   1.000000
   15        1.237598   1.000000
   16        1.383711   1.000000
   17        1.712579   1.000000
   18        1.884668   1.000000
   19        1.982939   1.000000
   20        2.108655   1.000000
   21        2.286768   1.037838
   22        2.882917  -0.027704
   23        3.227973   0.000000
   24        3.293018   0.000000
   25        3.583770   0.000000
 
  0.4000000E+00  0.5000000E-01  0.0000000E+00  0.5000000E-02
    1       -3.350211   1.000000
    2       -3.241346   1.000000
    3       -3.049044   1.000000
    4       -2.594923   1.000000
    5       -2.005351   1.000000
    6       -1.315558   1.000000
    7       -1.308563   1.000000
    8       -0.739278   1.000000
    9       -0.350062   1.000000
   10       -0.338281   1.000000
   11        0.250440   1.000000
   12        0.518780   1.000000
   13        0.543189   1.000000
   14        0.960702   1.000000
   15        1.137264   1.000000
   16        1.690118   1.000000
   17        1.779927   1.000000
   18        1.796531   1.000000
   19        2.160863   1.000000
   20        2.234632   1.000000
   21        2.779413   0.600281
   22        2.829438   0.041044
   23        3.067638   0.000000
   24        3.175220   0.000000
   25        3.771120   0.000000
 
  0.4500000E+00  0.5000000E-01  0.0000000E+00  0.5000000E-02
    1       -3.151566   1.000000
    2       -3.133830   1.000000
    3       -2.817718   1.000000
    4       -2.596353   1.000000
    5       -2.113186   1.000000
    6       -1.377064   1.000000
    7       -1.279456   1.000000
    8       -0.447182   1.000000
    9       -0.428440   1.000000
   10       -0.340509   1.000000
   11        0.259741   1.000000
   12        0.438272   1.000000
   13        0.619074   1.000000
   14        0.696935   1.000000
   15        1.044280   1.000000
   16        1.638069   1.000000
   17        1.762407   1.000000
   18        2.016187   1.000000
   19        2.286818   1.000000
   20        2.304596   1.000000
   21        2.753924   0.731464
   22        2.977369  -0.078863
   23        3.077289   0.000000
   24        3.355558   0.000000
   25        3.877946   0.000000
 
  0.5000000E+00  0.5000000E-01  0.0000000E+00  0.2500000E-02
    1       -3.135163   1.000000
    2       -3.130563   1.000000
    3       -2.588451   1.000000
    4       -2.556106   1.000000
    5       -2.240088   1.000000
    6       -1.421999   1.000000
    7       -1.265516   1.000000
    8       -0.478725   1.000000
    9       -0.458894   1.000000
   10       -0.035275   1.000000
   11        0.246284   1.000000
   12        0.257073   1.000000
   13        0.481824   1.000000
   14        0.882315   1.000000
   15        0.885983   1.000000
   16        1.610472   1.000000
   17        1.773963   1.000000
   18        2.105728   1.000000
   19        2.299842   1.000000
   20        2.324113   1.000000
   21        2.741898   0.967011
   22        2.938433  -0.050702
   23        3.131592   0.000000
   24        3.480465   0.000000
   25        4.006009   0.000000
 
  0.1000000E+00  0.1000000E+00  0.0000000E+00  0.2500000E-02
    1       -5.846067   1.000000
    2       -4.769181   1.000000
    3       -3.342168   1.000000
    4       -2.447656   1.000000
    5       -2.385134   1.000000
    6       -2.093452   1.000000
    7       -1.811488   1.000000
    8       -1.426098   1.000000
    9       -1.156535   1.000000
   10       -0.850247   1.000000
   11        0.152949   1.000000
   12        0.896551   1.000000
   13        1.087816   1.000000
   14        1.088118   1.000000
   15        1.181617   1.000000
   16        1.433970   1.000000
   17        1.788661   1.000000
   18        2.168359   1.000000
   19        2.279427   1.000000
   20        2.366726   1.000000
   21        2.366806   1.000000
   22        2.801613   0.174312
   23        2.946537   0.000000
   24        3.237281   0.000000
   25        3.655574   0.000000
 
  0.1500000E+00  0.1000000E+00  0.0000000E+00  0.5000000E-02
    1       -5.576751   1.000000
    2       -4.539024   1.000000
    3       -3.192904   1.000000
    4       -2.280308   1.000000
    5       -2.187652   1.000000
    6       -2.048762   1.000000
    7       -1.647924   1.000000
    8       -1.251319   1.000000
    9       -1.167203   1.000000
   10       -0.656360   1.000000
   11        0.130690   1.000000
   12        0.704586   1.000000
   13        0.867922   1.000000
   14        0.901664   1.000000
   15        1.047746   1.000000
   16        1.219810   1.000000
   17        1.434949   1.000000
   18        2.190713   1.000000
   19        2.284763   1.000000
   20        2.328162   1.000000
   21        2.355499   1.000000
   22        2.708484   0.803720
   23        3.095826   0.000000
   24        3.471285   0.000000
   25        3.573111   0.000000
 
  0.2000000E+00  0.1000000E+00  0.0000000E+00  0.5000000E-02
    1       -5.214996   1.000000
    2       -4.241836   1.000000
    3       -3.035540   1.000000
    4       -2.099198   1.000000
    5       -2.076592   1.000000
    6       -1.908347   1.000000
    7       -1.476438   1.000000
    8       -1.270028   1.000000
    9       -0.982770   1.000000
   10       -0.295339   1.000000
   11        0.179023   1.000000
   12        0.498310   1.000000
   13        0.700970   1.000000
   14        0.800595   1.000000
   15        0.945755   1.000000
   16        1.041029   1.000000
   17        1.085094   1.000000
   18        1.923258   1.000000
   19        2.189348   1.000000
   20        2.254370   1.000000
   21        2.355628   1.000000
   22        2.837539   0.116105
   23        3.277447   0.000000
   24        3.478482   0.000000
   25        3.566868   0.000000
 
  0.2500000E+00  0.1000000E+00  0.0000000E+00  0.5000000E-02
    1       -4.776669   1.000000
    2       -3.904985   1.000000
    3       -2.913709   1.000000
    4       -2.165875   1.000000
    5       -1.906659   1.000000
    6       -1.621151   1.000000
    7       -1.350162   1.000000
    8       -1.343801   1.000000
    9       -0.634506   1.000000
   10        0.004798   1.000000
   11        0.108666   1.000000
   12        0.407121   1.000000
   13        0.633147   1.000000
   14        0.791281   1.000000
   15        0.870746   1.000000
   16        0.959167   1.000000
   17        1.039304   1.000000
   18        1.553190   1.000000
   19        2.142325   1.000000
   20        2.216649   1.000000
   21        2.218973   1.000000
   22        2.909262  -0.027177
   23        3.328198   0.000000
   24        3.621864   0.000000
   25        3.650574   0.000000
 
  0.3000000E+00  0.1000000E+00  0.0000000E+00  0.5000000E-02
    1       -4.282920   1.000000
    2       -3.566033   1.000000
    3       -2.856487   1.000000
    4       -2.281070   1.000000
    5       -1.783562   1.000000
    6       -1.393031   1.000000
    7       -1.281892   1.000000
    8       -1.266513   1.000000
    9       -0.287377   1.000000
   10       -0.091185   1.000000
   11       -0.069129   1.000000
   12        0.479534   1.000000
   13        0.568345   1.000000
   14        0.862479   1.000000
   15        0.871697   1.000000
   16        1.097819   1.000000
   17        1.308186   1.000000
   18        1.451986   1.000000
   19        1.932552   1.000000
   20        2.175048   1.000000
   21        2.212129   1.000000
   22        2.830874   0.170987
   23        3.300050   0.000000
   24        3.652418   0.000000
   25        3.802261   0.000000
 
  0.3500000E+00  0.1000000E+00  0.0000000E+00  0.5000000E-02
    1       -3.761218   1.000000
    2       -3.272155   1.000000
    3       -2.857924   1.000000
    4       -2.382200   1.000000
    5       -1.787212   1.000000
    6       -1.258103   1.000000
    7       -1.217452   1.000000
    8       -1.067790   1.000000
    9       -0.259101   1.000000
   10       -0.249022   1.000000
   11       -0.045415   1.000000
   12        0.433847   1.000000
   13        0.490172   1.000000
   14        0.910934   1.000000
   15        0.960891   1.000000
   16        1.242460   1.000000
   17        1.561518   1.000000
   18        1.641490   1.000000
   19        2.058411   1.000000
   20        2.205614   1.000000
   21        2.251475   1.003788
   22        2.712345   0.765007
   23        3.177568   0.000000
   24        3.411245   0.000000
   25        3.845445   0.000000
 
  0.4000000E+00  0.1000000E+00  0.0000000E+00  0.5000000E-02
    1       -3.250964   1.000000
    2       -3.071096   1.000000
    3       -2.881193   1.000000
    4       -2.436726   1.000000
    5       -1.861573   1.000000
    6       -1.274512   1.000000
    7       -1.195083   1.000000
    8       -0.749553   1.000000
    9       -0.391200   1.000000
   10       -0.384908   1.000000
   11        0.040743   1.000000
   12        0.401754   1.000000
   13        0.513145   1.000000
   14        0.749662   1.000000
   15        0.961224   1.000000
   16        1.491709   1.000000
   17        1.559104   1.000000
   18        1.857228   1.000000
   19        2.224563   1.000000
   20        2.390996   1.000000
   21        2.601182   1.027082
   22        2.683134   0.940325
   23        3.016221   0.000000
   24        3.253278   0.000000
   25        3.952906   0.000000
 
  0.4500000E+00  0.1000000E+00  0.0000000E+00  0.5000000E-02
    1       -2.978537   1.000000
    2       -2.962408   1.000000
    3       -2.728371   1.000000
    4       -2.440630   1.000000
    5       -2.008781   1.000000
    6       -1.357576   1.000000
    7       -1.187685   1.000000
    8       -0.488760   1.000000
    9       -0.469998   1.000000
   10       -0.389825   1.000000
   11        0.072165   1.000000
   12        0.321666   1.000000
   13        0.510635   1.000000
   14        0.591344   1.000000
   15        0.957799   1.000000
   16        1.474172   1.000000
   17        1.731810   1.000000
   18        1.985282   1.000000
   19        2.323557   1.000000
   20        2.518585   1.000000
   21        2.688537   1.020188
   22        2.732233   0.616700
   23        3.158790   0.000000
   24        3.257569   0.000000
   25        3.971316   0.000000
 
  0.5000000E+00  0.1000000E+00  0.0000000E+00  0.2500000E-02
    1       -2.958875   1.000000
    2       -2.956823   1.000000
    3       -2.449646   1.000000
    4       -2.433292   1.000000
    5       -2.182600   1.000000
    6       -1.399614   1.000000
    7       -1.186178   1.000000
    8       -0.509341   1.000000
    9       -0.498784   1.000000
   10       -0.172247   1.000000
   11        0.084225   1.000000
   12        0.206178   1.000000
   13        0.408841   1.000000
   14        0.614512   1.000000
   15        0.946357   1.000000
   16        1.495946   1.000000
   17        1.762764   1.000000
   18        2.043207   1.000000
   19        2.363491   1.000000
   20        2.581842   1.000000
   21        2.658704   1.000000
   22        2.687172   0.772208
   23        3.303621   0.000000
   24        3.308921   0.000000
   25        4.003610   0.000000
 
  0.1500000E+00  0.1500000E+00  0.0000000E+00  0.2500000E-02
    1       -5.317285   1.000000
    2       -4.303790   1.000000
    3       -3.015552   1.000000
    4       -2.076741   1.000000
    5       -2.030376   1.000000
    6       -1.918883   1.000000
    7       -1.484790   1.000000
    8       -1.101539   1.000000
    9       -0.975053   1.000000
   10       -0.702592   1.000000
   11        0.022723   1.000000
   12        0.541893   1.000000
   13        0.709332   1.000000
   14        0.717420   1.000000
   15        0.852174   1.000000
   16        1.044821   1.000000
   17        1.104965   1.000000
   18        1.983005   1.000000
   19        2.236958   1.000000
   20        2.365839   1.000000
   21        2.398331   1.000000
   22        2.597665   1.068842
   23        3.172777   0.000000
   24        3.486652   0.000000
   25        3.716003   0.000000
 
  0.2000000E+00  0.1500000E+00  0.0000000E+00  0.5000000E-02
    1       -4.970751   1.000000
    2       -4.000084   1.000000
    3       -2.821685   1.000000
    4       -1.906786   1.000000
    5       -1.873451   1.000000
    6       -1.747786   1.000000
    7       -1.279891   1.000000
    8       -1.022567   1.000000
    9       -0.878076   1.000000
   10       -0.457152   1.000000
   11        0.002096   1.000000
   12        0.387417   1.000000
   13        0.515833   1.000000
   14        0.572176   1.000000
   15        0.709254   1.000000
   16        0.829950   1.000000
   17        0.899542   1.000000
   18        1.568778   1.000000
   19        2.158199   1.000000
   20        2.367529   1.000000
   21        2.384563   1.000000
   22        2.676174   0.971641
   23        3.062114   0.000000
   24        3.651666   0.000000
   25        3.672038   0.000000
 
  0.2500000E+00  0.1500000E+00  0.0000000E+00  0.5000000E-02
    1       -4.554025   1.000000
    2       -3.655960   1.000000
    3       -2.664041   1.000000
    4       -1.927491   1.000000
    5       -1.718532   1.000000
    6       -1.476836   1.000000
    7       -1.110903   1.000000
    8       -1.110317   1.000000
    9       -0.579842   1.000000
   10       -0.205710   1.000000
   11       -0.038303   1.000000
   12        0.300005   1.000000
   13        0.326231   1.000000
   14        0.556601   1.000000
   15        0.604830   1.000000
   16        0.818767   1.000000
   17        0.873588   1.000000
   18        1.215293   1.000000
   19        1.928339   1.000000
   20        2.350538   1.000000
   21        2.353228   1.000000
   22        2.695247   0.897980
   23        3.055438   0.000000
   24        3.688435   0.000000
   25        3.842592   0.000000
 
  0.3000000E+00  0.1500000E+00  0.0000000E+00  0.5000000E-02
    1       -4.089053   1.000000
    2       -3.310117   1.000000
    3       -2.583591   1.000000
    4       -2.031361   1.000000
    5       -1.549603   1.000000
    6       -1.377034   1.000000
    7       -1.033482   1.000000
    8       -1.020497   1.000000
    9       -0.315734   1.000000
   10       -0.223582   1.000000
   11       -0.160466   1.000000
   12        0.197156   1.000000
   13        0.391277   1.000000