 vasp.5.4.4.18Apr17-6-g9f103f2a35 (build May 20 2018 16:52:39) complex          
  
 executed on             LinuxIFC date 2022.11.15  15:16:17
 running on    1 total cores
 distrk:  each k-point on    1 cores,    1 groups
 distr:  one band on NCORES_PER_BAND=   1 cores,    1 groups


--------------------------------------------------------------------------------------------------------


 INCAR:
 POTCAR:    PAW W                                 
 POTCAR:    PAW W                                 
   VRHFIN =W: 5p6s5d                                                            
   LEXCH  = CA                                                                  
   EATOM  =   206.5370 eV,   15.1800 Ry                                         
                                                                                
   TITEL  = PAW W                                                               
   LULTRA =        F    use ultrasoft PP ?                                      
   IUNSCR =        1    unscreen: 0-lin 1-nonlin 2-no                           
   RPACOR =    2.330    partial core radius                                     
   POMASS =  183.850; ZVAL   =    6.000    mass and valenz                      
   RCORE  =    2.750    outmost cutoff radius                                   
   RWIGS  =    2.750; RWIGS  =    1.455    wigner-seitz radius (au A)           
   ENMAX  =  223.126; ENMIN  =  167.344 eV                                      
   RCLOC  =    2.147    cutoff for local pot                                    
   LCOR   =        T    correct aug charges                                     
   LPAW   =        T    paw PP                                                  
   EAUG   =  373.438                                                            
   DEXC   =    -.048                                                            
   RMAX   =    3.087    core radius for proj-oper                               
   RAUG   =    1.300    factor for augmentation sphere                          
   RDEP   =    2.886    radius for radial grids                                 
   QCUT   =   -4.050; QGAM   =    8.099    optimization parameters              
                                                                                
   Description                                                                  
     l     E      TYP  RCUT    TYP  RCUT                                        
     2   .000     23  2.500                                                     
     2   .000     23  2.500                                                     
     0   .000     23  2.500                                                     
     0   .000     23  2.500                                                     
     1   .200     23  2.750                                                     
     1  2.000     23  2.750                                                     
     3   .000      7   .000                                                     
  local pseudopotential read in
  partial core-charges read in
  atomic valenz-charges read in
  non local Contribution for L=           2  read in
    real space projection operators read in
  non local Contribution for L=           2  read in
    real space projection operators read in
  non local Contribution for L=           0  read in
    real space projection operators read in
  non local Contribution for L=           0  read in
    real space projection operators read in
  non local Contribution for L=           1  read in
    real space projection operators read in
  non local Contribution for L=           1  read in
    real space projection operators read in
    PAW grid and wavefunctions read in
 
   number of l-projection  operators is LMAX  =           6
   number of lm-projection operators is LMMAX =          18
 
  PAW W                                 :
 energy of atom  1       EATOM= -206.5370
 kinetic energy error for atom=    0.0005 (will be added to EATOM!!)
 
 
 POSCAR: BCC W 7-layers                          
  positions in direct lattice
  No initial velocities read in
 exchange correlation table for  LEXCH =        2
   RHO(1)=    0.500       N(1)  =     2000
   RHO(2)=  100.500       N(2)  =     4000
 


--------------------------------------------------------------------------------------------------------


 ion  position               nearest neighbor table
   1  0.000  0.000  0.000-   2 2.74   2 2.74   2 2.74   2 2.74   3 3.16
   2  0.500  0.500  0.083-   1 2.74   1 2.74   1 2.74   1 2.74   3 2.74   3 2.74   3 2.74   3 2.74
                             4 3.16
   3  0.000  0.000  0.167-   4 2.74   4 2.74   4 2.74   4 2.74   2 2.74   2 2.74   2 2.74   2 2.74
                             5 3.16   1 3.16
   4  0.500  0.500  0.250-   3 2.74   5 2.74   3 2.74   5 2.74   3 2.74   5 2.74   3 2.74   5 2.74
                             2 3.16   6 3.16
   5  0.000  0.000  0.333-   4 2.74   4 2.74   4 2.74   4 2.74   6 2.74   6 2.74   6 2.74   6 2.74
                             3 3.16   7 3.16
   6  0.500  0.500  0.417-   7 2.74   7 2.74   7 2.74   7 2.74   5 2.74   5 2.74   5 2.74   5 2.74
                             4 3.16
   7  0.000  0.000  0.500-   6 2.74   6 2.74   6 2.74   6 2.74   5 3.16
 
  LATTYP: Found a simple tetragonal cell.
 ALAT       =     3.1600000000
 C/A-ratio  =     6.0000000000
  
  Lattice vectors:
  
 A1 = (   3.1600000000,   0.0000000000,   0.0000000000)
 A2 = (   0.0000000000,   3.1600000000,   0.0000000000)
 A3 = (   0.0000000000,   0.0000000000,  18.9600000000)


Analysis of symmetry for initial positions (statically):
=====================================================================
 Subroutine PRICEL returns:
 Original cell was already a primitive cell.
 

 Routine SETGRP: Setting up the symmetry group for a 
 simple tetragonal supercell.


 Subroutine GETGRP returns: Found 16 space group operations
 (whereof  8 operations were pure point group operations)
 out of a pool of 16 trial point group operations.


The static configuration has the point symmetry C_4v.
 The point group associated with its full space group is D_4h.


Analysis of symmetry for dynamics (positions and initial velocities):
=====================================================================
 Subroutine PRICEL returns:
 Original cell was already a primitive cell.
 

 Routine SETGRP: Setting up the symmetry group for a 
 simple tetragonal supercell.


 Subroutine GETGRP returns: Found 16 space group operations
 (whereof  8 operations were pure point group operations)
 out of a pool of 16 trial point group operations.


The dynamic configuration has the point symmetry C_4v.
 The point group associated with its full space group is D_4h.


 Subroutine INISYM returns: Found 16 space group operations
 (whereof  8 operations are pure point group operations),
 and found     1 'primitive' translations

 
 
 KPOINTS: Gamma 20*20*4                           

Automatic generation of k-mesh.
Space group operators:
 irot       det(A)        alpha          n_x          n_y          n_z        tau_x        tau_y        tau_z
    1     1.000000     0.000000     1.000000     0.000000     0.000000     0.000000     0.000000     0.000000
    2     1.000000    90.000000     0.000000     0.000000    -1.000000     0.000000     0.000000     0.000000
    3     1.000000   180.000000     0.000000     0.000000     1.000000     0.000000     0.000000     0.000000
    4     1.000000    90.000000     0.000000     0.000000     1.000000     0.000000     0.000000     0.000000
    5    -1.000000   179.999999     0.000000     1.000000     0.000000     0.000000     0.000000     0.000000
    6    -1.000000   180.000000     0.707107     0.707107     0.000000     0.000000     0.000000     0.000000
    7    -1.000000   180.000000     1.000000     0.000000     0.000000     0.000000     0.000000     0.000000
    8    -1.000000   180.000000     0.707107    -0.707107     0.000000     0.000000     0.000000     0.000000
    9    -1.000000     0.000000     1.000000     0.000000     0.000000     0.000000     0.000000     0.500000
   10    -1.000000    90.000000     0.000000     0.000000    -1.000000     0.000000     0.000000     0.500000
   11    -1.000000   180.000000     0.000000     0.000000     1.000000     0.000000     0.000000     0.500000
   12    -1.000000    90.000000     0.000000     0.000000     1.000000     0.000000     0.000000     0.500000
   13     1.000000   179.999999     0.000000     1.000000     0.000000     0.000000     0.000000     0.500000
   14     1.000000   180.000000     0.707107     0.707107     0.000000     0.000000     0.000000     0.500000
   15     1.000000   180.000000     1.000000     0.000000     0.000000     0.000000     0.000000     0.500000
   16     1.000000   180.000000     0.707107    -0.707107     0.000000     0.000000     0.000000     0.500000
 
 Subroutine IBZKPT returns following result:
 ===========================================
 
 Found    198 irreducible k-points:
 
 Following reciprocal coordinates:
            Coordinates               Weight
  0.000000  0.000000  0.000000      1.000000
  0.050000  0.000000  0.000000      4.000000
  0.100000  0.000000  0.000000      4.000000
  0.150000  0.000000  0.000000      4.000000
  0.200000  0.000000  0.000000      4.000000
  0.250000  0.000000  0.000000      4.000000
  0.300000  0.000000  0.000000      4.000000
  0.350000  0.000000  0.000000      4.000000
  0.400000  0.000000  0.000000      4.000000
  0.450000  0.000000  0.000000      4.000000
  0.500000  0.000000  0.000000      2.000000
  0.050000  0.050000  0.000000      4.000000
  0.100000  0.050000  0.000000      8.000000
  0.150000  0.050000  0.000000      8.000000
  0.200000  0.050000  0.000000      8.000000
  0.250000  0.050000  0.000000      8.000000
  0.300000  0.050000  0.000000      8.000000
  0.350000  0.050000  0.000000      8.000000
  0.400000  0.050000  0.000000      8.000000
  0.450000  0.050000  0.000000      8.000000
  0.500000  0.050000  0.000000      4.000000
  0.100000  0.100000  0.000000      4.000000
  0.150000  0.100000  0.000000      8.000000
  0.200000  0.100000  0.000000      8.000000
  0.250000  0.100000  0.000000      8.000000
  0.300000  0.100000  0.000000      8.000000
  0.350000  0.100000  0.000000      8.000000
  0.400000  0.100000  0.000000      8.000000
  0.450000  0.100000  0.000000      8.000000
  0.500000  0.100000  0.000000      4.000000
  0.150000  0.150000  0.000000      4.000000
  0.200000  0.150000  0.000000      8.000000
  0.250000  0.150000  0.000000      8.000000
  0.300000  0.150000  0.000000      8.000000
  0.350000  0.150000  0.000000      8.000000
  0.400000  0.150000  0.000000      8.000000
  0.450000  0.150000  0.000000      8.000000
  0.500000  0.150000  0.000000      4.000000
  0.200000  0.200000  0.000000      4.000000
  0.250000  0.200000  0.000000      8.000000
  0.300000  0.200000  0.000000      8.000000
  0.350000  0.200000  0.000000      8.000000
  0.400000  0.200000  0.000000      8.000000
  0.450000  0.200000  0.000000      8.000000
  0.500000  0.200000  0.000000      4.000000
  0.250000  0.250000  0.000000      4.000000
  0.300000  0.250000  0.000000      8.000000
  0.350000  0.250000  0.000000      8.000000
  0.400000  0.250000  0.000000      8.000000
  0.450000  0.250000  0.000000      8.000000
  0.500000  0.250000  0.000000      4.000000
  0.300000  0.300000  0.000000      4.000000
  0.350000  0.300000  0.000000      8.000000
  0.400000  0.300000  0.000000      8.000000
  0.450000  0.300000  0.000000      8.000000
  0.500000  0.300000  0.000000      4.000000
  0.350000  0.350000  0.000000      4.000000
  0.400000  0.350000  0.000000      8.000000
  0.450000  0.350000  0.000000      8.000000
  0.500000  0.350000  0.000000      4.000000
  0.400000  0.400000  0.000000      4.000000
  0.450000  0.400000  0.000000      8.000000
  0.500000  0.400000  0.000000      4.000000
  0.450000  0.450000  0.000000      4.000000
  0.500000  0.450000  0.000000      4.000000
  0.500000  0.500000  0.000000      1.000000
  0.000000  0.000000  0.250000      2.000000
  0.050000  0.000000  0.250000      8.000000
  0.100000  0.000000  0.250000      8.000000
  0.150000  0.000000  0.250000      8.000000
  0.200000  0.000000  0.250000      8.000000
  0.250000  0.000000  0.250000      8.000000
  0.300000  0.000000  0.250000      8.000000
  0.350000  0.000000  0.250000      8.000000
  0.400000  0.000000  0.250000      8.000000
  0.450000  0.000000  0.250000      8.000000
  0.500000  0.000000  0.250000      4.000000
  0.050000  0.050000  0.250000      8.000000
  0.100000  0.050000  0.250000     16.000000
  0.150000  0.050000  0.250000     16.000000
  0.200000  0.050000  0.250000     16.000000
  0.250000  0.050000  0.250000     16.000000
  0.300000  0.050000  0.250000     16.000000
  0.350000  0.050000  0.250000     16.000000
  0.400000  0.050000  0.250000     16.000000
  0.450000  0.050000  0.250000     16.000000
  0.500000  0.050000  0.250000      8.000000
  0.100000  0.100000  0.250000      8.000000
  0.150000  0.100000  0.250000     16.000000
  0.200000  0.100000  0.250000     16.000000
  0.250000  0.100000  0.250000     16.000000
  0.300000  0.100000  0.250000     16.000000
  0.350000  0.100000  0.250000     16.000000
  0.400000  0.100000  0.250000     16.000000
  0.450000  0.100000  0.250000     16.000000
  0.500000  0.100000  0.250000      8.000000
  0.150000  0.150000  0.250000      8.000000
  0.200000  0.150000  0.250000     16.000000
  0.250000  0.150000  0.250000     16.000000
  0.300000  0.150000  0.250000     16.000000
  0.350000  0.150000  0.250000     16.000000
  0.400000  0.150000  0.250000     16.000000
  0.450000  0.150000  0.250000     16.000000
  0.500000  0.150000  0.250000      8.000000
  0.200000  0.200000  0.250000      8.000000
  0.250000  0.200000  0.250000     16.000000
  0.300000  0.200000  0.250000     16.000000
  0.350000  0.200000  0.250000     16.000000
  0.400000  0.200000  0.250000     16.000000
  0.450000  0.200000  0.250000     16.000000
  0.500000  0.200000  0.250000      8.000000
  0.250000  0.250000  0.250000      8.000000
  0.300000  0.250000  0.250000     16.000000
  0.350000  0.250000  0.250000     16.000000
  0.400000  0.250000  0.250000     16.000000
  0.450000  0.250000  0.250000     16.000000
  0.500000  0.250000  0.250000      8.000000
  0.300000  0.300000  0.250000      8.000000
  0.350000  0.300000  0.250000     16.000000
  0.400000  0.300000  0.250000     16.000000
  0.450000  0.300000  0.250000     16.000000
  0.500000  0.300000  0.250000      8.000000
  0.350000  0.350000  0.250000      8.000000
  0.400000  0.350000  0.250000     16.000000
  0.450000  0.350000  0.250000     16.000000
  0.500000  0.350000  0.250000      8.000000
  0.400000  0.400000  0.250000      8.000000
  0.450000  0.400000  0.250000     16.000000
  0.500000  0.400000  0.250000      8.000000
  0.450000  0.450000  0.250000      8.000000
  0.500000  0.450000  0.250000      8.000000
  0.500000  0.500000  0.250000      2.000000
  0.000000  0.000000  0.500000      1.000000
  0.050000  0.000000  0.500000      4.000000
  0.100000  0.000000  0.500000      4.000000
  0.150000  0.000000  0.500000      4.000000
  0.200000  0.000000  0.500000      4.000000
  0.250000  0.000000  0.500000      4.000000
  0.300000  0.000000  0.500000      4.000000
  0.350000  0.000000  0.500000      4.000000
  0.400000  0.000000  0.500000      4.000000
  0.450000  0.000000  0.500000      4.000000
  0.500000  0.000000  0.500000      2.000000
  0.050000  0.050000  0.500000      4.000000
  0.100000  0.050000  0.500000      8.000000
  0.150000  0.050000  0.500000      8.000000
  0.200000  0.050000  0.500000      8.000000
  0.250000  0.050000  0.500000      8.000000
  0.300000  0.050000  0.500000      8.000000
  0.350000  0.050000  0.500000      8.000000
  0.400000  0.050000  0.500000      8.000000
  0.450000  0.050000  0.500000      8.000000
  0.500000  0.050000  0.500000      4.000000
  0.100000  0.100000  0.500000      4.000000
  0.150000  0.100000  0.500000      8.000000
  0.200000  0.100000  0.500000      8.000000
  0.250000  0.100000  0.500000      8.000000
  0.300000  0.100000  0.500000      8.000000
  0.350000  0.100000  0.500000      8.000000
  0.400000  0.100000  0.500000      8.000000
  0.450000  0.100000  0.500000      8.000000
  0.500000  0.100000  0.500000      4.000000
  0.150000  0.150000  0.500000      4.000000
  0.200000  0.150000  0.500000      8.000000
  0.250000  0.150000  0.500000      8.000000
  0.300000  0.150000  0.500000      8.000000
  0.350000  0.150000  0.500000      8.000000
  0.400000  0.150000  0.500000      8.000000
  0.450000  0.150000  0.500000      8.000000
  0.500000  0.150000  0.500000      4.000000
  0.200000  0.200000  0.500000      4.000000
  0.250000  0.200000  0.500000      8.000000
  0.300000  0.200000  0.500000      8.000000
  0.350000  0.200000  0.500000      8.000000
  0.400000  0.200000  0.500000      8.000000
  0.450000  0.200000  0.500000      8.000000
  0.500000  0.200000  0.500000      4.000000
  0.250000  0.250000  0.500000      4.000000
  0.300000  0.250000  0.500000      8.000000
  0.350000  0.250000  0.500000      8.000000
  0.400000  0.250000  0.500000      8.000000
  0.450000  0.250000  0.500000      8.000000
  0.500000  0.250000  0.500000      4.000000
  0.300000  0.300000  0.500000      4.000000
  0.350000  0.300000  0.500000      8.000000
  0.400000  0.300000  0.500000      8.000000
  0.450000  0.300000  0.500000      8.000000
  0.500000  0.300000  0.500000      4.000000
  0.350000  0.350000  0.500000      4.000000
  0.400000  0.350000  0.500000      8.000000
  0.450000  0.350000  0.500000      8.000000
  0.500000  0.350000  0.500000      4.000000
  0.400000  0.400000  0.500000      4.000000
  0.450000  0.400000  0.500000      8.000000
  0.500000  0.400000  0.500000      4.000000
  0.450000  0.450000  0.500000      4.000000
  0.500000  0.450000  0.500000      4.000000
  0.500000  0.500000  0.500000      1.000000
 
 Following cartesian coordinates:
            Coordinates               Weight
  0.000000  0.000000  0.000000      1.000000
  0.050000  0.000000  0.000000      4.000000
  0.100000  0.000000  0.000000      4.000000
  0.150000  0.000000  0.000000      4.000000
  0.200000  0.000000  0.000000      4.000000
  0.250000  0.000000  0.000000      4.000000
  0.300000  0.000000  0.000000      4.000000
  0.350000  0.000000  0.000000      4.000000
  0.400000  0.000000  0.000000      4.000000
  0.450000  0.000000  0.000000      4.000000
  0.500000  0.000000  0.000000      2.000000
  0.050000  0.050000  0.000000      4.000000
  0.100000  0.050000  0.000000      8.000000
  0.150000  0.050000  0.000000      8.000000
  0.200000  0.050000  0.000000      8.000000
  0.250000  0.050000  0.000000      8.000000
  0.300000  0.050000  0.000000      8.000000
  0.350000  0.050000  0.000000      8.000000
  0.400000  0.050000  0.000000      8.000000
  0.450000  0.050000  0.000000      8.000000
  0.500000  0.050000  0.000000      4.000000
  0.100000  0.100000  0.000000      4.000000
  0.150000  0.100000  0.000000      8.000000
  0.200000  0.100000  0.000000      8.000000
  0.250000  0.100000  0.000000      8.000000
  0.300000  0.100000  0.000000      8.000000
  0.350000  0.100000  0.000000      8.000000
  0.400000  0.100000  0.000000      8.000000
  0.450000  0.100000  0.000000      8.000000
  0.500000  0.100000  0.000000      4.000000
  0.150000  0.150000  0.000000      4.000000
  0.200000  0.150000  0.000000      8.000000
  0.250000  0.150000  0.000000      8.000000
  0.300000  0.150000  0.000000      8.000000
  0.350000  0.150000  0.000000      8.000000
  0.400000  0.150000  0.000000      8.000000
  0.450000  0.150000  0.000000      8.000000
  0.500000  0.150000  0.000000      4.000000
  0.200000  0.200000  0.000000      4.000000
  0.250000  0.200000  0.000000      8.000000
  0.300000  0.200000  0.000000      8.000000
  0.350000  0.200000  0.000000      8.000000
  0.400000  0.200000  0.000000      8.000000
  0.450000  0.200000  0.000000      8.000000
  0.500000  0.200000  0.000000      4.000000
  0.250000  0.250000  0.000000      4.000000
  0.300000  0.250000  0.000000      8.000000
  0.350000  0.250000  0.000000      8.000000
  0.400000  0.250000  0.000000      8.000000
  0.450000  0.250000  0.000000      8.000000
  0.500000  0.250000  0.000000      4.000000
  0.300000  0.300000  0.000000      4.000000
  0.350000  0.300000  0.000000      8.000000
  0.400000  0.300000  0.000000      8.000000
  0.450000  0.300000  0.000000      8.000000
  0.500000  0.300000  0.000000      4.000000
  0.350000  0.350000  0.000000      4.000000
  0.400000  0.350000  0.000000      8.000000
  0.450000  0.350000  0.000000      8.000000
  0.500000  0.350000  0.000000      4.000000
  0.400000  0.400000  0.000000      4.000000
  0.450000  0.400000  0.000000      8.000000
  0.500000  0.400000  0.000000      4.000000
  0.450000  0.450000  0.000000      4.000000
  0.500000  0.450000  0.000000      4.000000
  0.500000  0.500000  0.000000      1.000000
  0.000000  0.000000  0.041667      2.000000
  0.050000  0.000000  0.041667      8.000000
  0.100000  0.000000  0.041667      8.000000
  0.150000  0.000000  0.041667      8.000000
  0.200000  0.000000  0.041667      8.000000
  0.250000  0.000000  0.041667      8.000000
  0.300000  0.000000  0.041667      8.000000
  0.350000  0.000000  0.041667      8.000000
  0.400000  0.000000  0.041667      8.000000
  0.450000  0.000000  0.041667      8.000000
  0.500000  0.000000  0.041667      4.000000
  0.050000  0.050000  0.041667      8.000000
  0.100000  0.050000  0.041667     16.000000
  0.150000  0.050000  0.041667     16.000000
  0.200000  0.050000  0.041667     16.000000
  0.250000  0.050000  0.041667     16.000000
  0.300000  0.050000  0.041667     16.000000
  0.350000  0.050000  0.041667     16.000000
  0.400000  0.050000  0.041667     16.000000
  0.450000  0.050000  0.041667     16.000000
  0.500000  0.050000  0.041667      8.000000
  0.100000  0.100000  0.041667      8.000000
  0.150000  0.100000  0.041667     16.000000
  0.200000  0.100000  0.041667     16.000000
  0.250000  0.100000  0.041667     16.000000
  0.300000  0.100000  0.041667     16.000000
  0.350000  0.100000  0.041667     16.000000
  0.400000  0.100000  0.041667     16.000000
  0.450000  0.100000  0.041667     16.000000
  0.500000  0.100000  0.041667      8.000000
  0.150000  0.150000  0.041667      8.000000
  0.200000  0.150000  0.041667     16.000000
  0.250000  0.150000  0.041667     16.000000
  0.300000  0.150000  0.041667     16.000000
  0.350000  0.150000  0.041667     16.000000
  0.400000  0.150000  0.041667     16.000000
  0.450000  0.150000  0.041667     16.000000
  0.500000  0.150000  0.041667      8.000000
  0.200000  0.200000  0.041667      8.000000
  0.250000  0.200000  0.041667     16.000000
  0.300000  0.200000  0.041667     16.000000
  0.350000  0.200000  0.041667     16.000000
  0.400000  0.200000  0.041667     16.000000
  0.450000  0.200000  0.041667     16.000000
  0.500000  0.200000  0.041667      8.000000
  0.250000  0.250000  0.041667      8.000000
  0.300000  0.250000  0.041667     16.000000
  0.350000  0.250000  0.041667     16.000000
  0.400000  0.250000  0.041667     16.000000
  0.450000  0.250000  0.041667     16.000000
  0.500000  0.250000  0.041667      8.000000
  0.300000  0.300000  0.041667      8.000000
  0.350000  0.300000  0.041667     16.000000
  0.400000  0.300000  0.041667     16.000000
  0.450000  0.300000  0.041667     16.000000
  0.500000  0.300000  0.041667      8.000000
  0.350000  0.350000  0.041667      8.000000
  0.400000  0.350000  0.041667     16.000000
  0.450000  0.350000  0.041667     16.000000
  0.500000  0.350000  0.041667      8.000000
  0.400000  0.400000  0.041667      8.000000
  0.450000  0.400000  0.041667     16.000000
  0.500000  0.400000  0.041667      8.000000
  0.450000  0.450000  0.041667      8.000000
  0.500000  0.450000  0.041667      8.000000
  0.500000  0.500000  0.041667      2.000000
  0.000000  0.000000  0.083333      1.000000
  0.050000  0.000000  0.083333      4.000000
  0.100000  0.000000  0.083333      4.000000
  0.150000  0.000000  0.083333      4.000000
  0.200000  0.000000  0.083333      4.000000
  0.250000  0.000000  0.083333      4.000000
  0.300000  0.000000  0.083333      4.000000
  0.350000  0.000000  0.083333      4.000000
  0.400000  0.000000  0.083333      4.000000
  0.450000  0.000000  0.083333      4.000000
  0.500000  0.000000  0.083333      2.000000
  0.050000  0.050000  0.083333      4.000000
  0.100000  0.050000  0.083333      8.000000
  0.150000  0.050000  0.083333      8.000000
  0.200000  0.050000  0.083333      8.000000
  0.250000  0.050000  0.083333      8.000000
  0.300000  0.050000  0.083333      8.000000
  0.350000  0.050000  0.083333      8.000000
  0.400000  0.050000  0.083333      8.000000
  0.450000  0.050000  0.083333      8.000000
  0.500000  0.050000  0.083333      4.000000
  0.100000  0.100000  0.083333      4.000000
  0.150000  0.100000  0.083333      8.000000
  0.200000  0.100000  0.083333      8.000000
  0.250000  0.100000  0.083333      8.000000
  0.300000  0.100000  0.083333      8.000000
  0.350000  0.100000  0.083333      8.000000
  0.400000  0.100000  0.083333      8.000000
  0.450000  0.100000  0.083333      8.000000
  0.500000  0.100000  0.083333      4.000000
  0.150000  0.150000  0.083333      4.000000
  0.200000  0.150000  0.083333      8.000000
  0.250000  0.150000  0.083333      8.000000
  0.300000  0.150000  0.083333      8.000000
  0.350000  0.150000  0.083333      8.000000
  0.400000  0.150000  0.083333      8.000000
  0.450000  0.150000  0.083333      8.000000
  0.500000  0.150000  0.083333      4.000000
  0.200000  0.200000  0.083333      4.000000
  0.250000  0.200000  0.083333      8.000000
  0.300000  0.200000  0.083333      8.000000
  0.350000  0.200000  0.083333      8.000000
  0.400000  0.200000  0.083333      8.000000
  0.450000  0.200000  0.083333      8.000000
  0.500000  0.200000  0.083333      4.000000
  0.250000  0.250000  0.083333      4.000000
  0.300000  0.250000  0.083333      8.000000
  0.350000  0.250000  0.083333      8.000000
  0.400000  0.250000  0.083333      8.000000
  0.450000  0.250000  0.083333      8.000000
  0.500000  0.250000  0.083333      4.000000
  0.300000  0.300000  0.083333      4.000000
  0.350000  0.300000  0.083333      8.000000
  0.400000  0.300000  0.083333      8.000000
  0.450000  0.300000  0.083333      8.000000
  0.500000  0.300000  0.083333      4.000000
  0.350000  0.350000  0.083333      4.000000
  0.400000  0.350000  0.083333      8.000000
  0.450000  0.350000  0.083333      8.000000
  0.500000  0.350000  0.083333      4.000000
  0.400000  0.400000  0.083333      4.000000
  0.450000  0.400000  0.083333      8.000000
  0.500000  0.400000  0.083333      4.000000
  0.450000  0.450000  0.083333      4.000000
  0.500000  0.450000  0.083333      4.000000
  0.500000  0.500000  0.083333      1.000000
 
 TETIRR: Found   2400 inequivalent tetrahedra from     9600


--------------------------------------------------------------------------------------------------------




 Dimension of arrays:
   k-points           NKPTS =    198   k-points in BZ     NKDIM =    198   number of bands    NBANDS=     25
   number of dos      NEDOS =    301   number of ions     NIONS =      7
   non local maximal  LDIM  =      6   non local SUM 2l+1 LMDIM =     18
   total plane-waves  NPLWV =  48000
   max r-space proj   IRMAX =      1   max aug-charges    IRDMAX=  14669
   dimension x,y,z NGX =    20 NGY =   20 NGZ =  120
   dimension x,y,z NGXF=    40 NGYF=   40 NGZF=  240
   support grid    NGXF=    40 NGYF=   40 NGZF=  240
   ions per type =               7
   NGX,Y,Z   is equivalent  to a cutoff of  10.52, 10.52, 10.52 a.u.
   NGXF,Y,Z  is equivalent  to a cutoff of  21.04, 21.04, 21.04 a.u.

 SYSTEM =  unknown system                          
 POSCAR =  BCC W 7-layers                          

 Startparameter for this run:
   NWRITE =      2    write-flag & timer
   PREC   = normal    normal or accurate (medium, high low for compatibility)
   ISTART =      0    job   : 0-new  1-cont  2-samecut
   ICHARG =      2    charge: 1-file 2-atom 10-const
   ISPIN  =      1    spin polarized calculation?
   LNONCOLLINEAR =      F non collinear calculations
   LSORBIT =      F    spin-orbit coupling
   INIWAV =      1    electr: 0-lowe 1-rand  2-diag
   LASPH  =      F    aspherical Exc in radial PAW
   METAGGA=      F    non-selfconsistent MetaGGA calc.

 Electronic Relaxation 1
   ENCUT  =  600.0 eV  44.10 Ry    6.64 a.u.   6.31  6.31 37.87*2*pi/ulx,y,z
   ENINI  =  600.0     initial cutoff
   ENAUG  =  373.4 eV  augmentation charge cutoff
   NELM   =     60;   NELMIN=  2; NELMDL= -5     # of ELM steps 
   EDIFF  = 0.1E-05   stopping-criterion for ELM
   LREAL  =      F    real-space projection
   NLSPLINE    = F    spline interpolate recip. space projectors
   LCOMPAT=      F    compatible to vasp.4.4
   GGA_COMPAT  = T    GGA compatible to vasp.4.4-vasp.4.6
   LMAXPAW     = -100 max onsite density
   LMAXMIX     =    2 max onsite mixed and CHGCAR
   VOSKOWN=      0    Vosko Wilk Nusair interpolation
   ROPT   =    0.00000
 Ionic relaxation
   EDIFFG = 0.1E-04   stopping-criterion for IOM
   NSW    =      0    number of steps for IOM
   NBLOCK =      1;   KBLOCK =      1    inner block; outer block 
   IBRION =     -1    ionic relax: 0-MD 1-quasi-New 2-CG
   NFREE  =      0    steps in history (QN), initial steepest desc. (CG)
   ISIF   =      2    stress and relaxation
   IWAVPR =     10    prediction:  0-non 1-charg 2-wave 3-comb
   ISYM   =      2    0-nonsym 1-usesym 2-fastsym
   LCORR  =      T    Harris-Foulkes like correction to forces

   POTIM  = 0.5000    time-step for ionic-motion
   TEIN   =    0.0    initial temperature
   TEBEG  =    0.0;   TEEND  =   0.0 temperature during run
   SMASS  =  -3.00    Nose mass-parameter (am)
   estimated Nose-frequenzy (Omega)   =  0.10E-29 period in steps =****** mass=  -0.228E-27a.u.
   SCALEE = 1.0000    scale energy and forces
   NPACO  =    256;   APACO  = 16.0  distance and # of slots for P.C.
   PSTRESS=    0.0 pullay stress

  Mass of Ions in am
   POMASS = 183.85
  Ionic Valenz
   ZVAL   =   6.00
  Atomic Wigner-Seitz radii
   RWIGS  =  -1.00
  virtual crystal weights 
   VCA    =   1.00
   NELECT =      42.0000    total number of electrons
   NUPDOWN=      -1.0000    fix difference up-down

 DOS related values:
   EMIN   =  10.00;   EMAX   =-10.00  energy-range for DOS
   EFERMI =   0.00
   ISMEAR =    -5;   SIGMA  =   0.20  broadening in eV -4-tet -1-fermi 0-gaus

 Electronic relaxation 2 (details)
   IALGO  =     38    algorithm
   LDIAG  =      T    sub-space diagonalisation (order eigenvalues)
   LSUBROT=      F    optimize rotation matrix (better conditioning)
   TURBO    =      0    0=normal 1=particle mesh
   IRESTART =      0    0=no restart 2=restart with 2 vectors
   NREBOOT  =      0    no. of reboots
   NMIN     =      0    reboot dimension
   EREF     =   0.00    reference energy to select bands
   IMIX   =      4    mixing-type and parameters
     AMIX     =   0.40;   BMIX     =  1.00
     AMIX_MAG =   1.60;   BMIX_MAG =  1.00
     AMIN     =   0.10
     WC   =   100.;   INIMIX=   1;  MIXPRE=   1;  MAXMIX= -45

 Intra band minimization:
   WEIMIN = 0.0000     energy-eigenvalue tresh-hold
   EBREAK =  0.10E-07  absolut break condition
   DEPER  =   0.30     relativ break condition  

   TIME   =   0.40     timestep for ELM

  volume/ion in A,a.u.               =      27.05       182.52
  Fermi-wavevector in a.u.,A,eV,Ry     =   0.991031  1.872776 13.362850  0.982142
  Thomas-Fermi vector in A             =   2.122743
 
 Write flags
   LWAVE        =      T    write WAVECAR
   LDOWNSAMPLE  =      F    k-point downsampling of WAVECAR
   LCHARG       =      T    write CHGCAR
   LVTOT        =      F    write LOCPOT, total local potential
   LVHAR        =      F    write LOCPOT, Hartree potential only
   LELF         =      F    write electronic localiz. function (ELF)
   LORBIT       =      0    0 simple, 1 ext, 2 COOP (PROOUT), +10 PAW based schemes


 Dipole corrections
   LMONO  =      F    monopole corrections only (constant potential shift)
   LDIPOL =      F    correct potential (dipole corrections)
   IDIPOL =      0    1-x, 2-y, 3-z, 4-all directions 
   EPSILON=  1.0000000 bulk dielectric constant

 Exchange correlation treatment:
   GGA     =    --    GGA type
   LEXCH   =     2    internal setting for exchange type
   VOSKOWN=      0    Vosko Wilk Nusair interpolation
   LHFCALC =     F    Hartree Fock is set to
   LHFONE  =     F    Hartree Fock one center treatment
   AEXX    =    0.0000 exact exchange contribution

 Linear response parameters
   LEPSILON=     F    determine dielectric tensor
   LRPA    =     F    only Hartree local field effects (RPA)
   LNABLA  =     F    use nabla operator in PAW spheres
   LVEL    =     F    velocity operator in full k-point grid
   LINTERFAST=   F  fast interpolation
   KINTER  =     0    interpolate to denser k-point grid
   CSHIFT  =0.1000    complex shift for real part using Kramers Kronig
   OMEGAMAX=  -1.0    maximum frequency
   DEG_THRESHOLD= 0.2000000E-02 threshold for treating states as degnerate
   RTIME   =   -0.100 relaxation time in fs
  (WPLASMAI=    0.000 imaginary part of plasma frequency in eV, 0.658/RTIME)
   DFIELD  = 0.0000000 0.0000000 0.0000000 field for delta impulse in time
 
 Orbital magnetization related:
   ORBITALMAG=     F  switch on orbital magnetization
   LCHIMAG   =     F  perturbation theory with respect to B field
   DQ        =  0.001000  dq finite difference perturbation B field
   LLRAUG    =     F  two centre corrections for induced B field



--------------------------------------------------------------------------------------------------------


 Static calculation
 charge density and potential will be updated during run
 non-spin polarized calculation
 Variant of blocked Davidson
 Davidson routine will perform the subspace rotation
 perform sub-space diagonalisation
    after iterative eigenvector-optimisation
 modified Broyden-mixing scheme, WC =      100.0
 initial mixing is a Kerker type mixing with AMIX =  0.4000 and BMIX =      1.0000
 Hartree-type preconditioning will be used
 using additional bands            4
 reciprocal scheme for non local part
 use partial core corrections
 calculate Harris-corrections to forces 
   (improved forces if not selfconsistent)
 use of overlap-Matrix (Vanderbilt PP)
 Fermi weights with tetrahedron method with Bloechl corrections


--------------------------------------------------------------------------------------------------------


  energy-cutoff  :      600.00
  volume of cell :      189.33
      direct lattice vectors                 reciprocal lattice vectors
     3.160000000  0.000000000  0.000000000     0.316455696  0.000000000  0.000000000
     0.000000000  3.160000000  0.000000000     0.000000000  0.316455696  0.000000000
     0.000000000  0.000000000 18.960000000     0.000000000  0.000000000  0.052742616

  length of vectors
     3.160000000  3.160000000 18.960000000     0.316455696  0.316455696  0.052742616


 
 k-points in units of 2pi/SCALE and weight: Gamma 20*20*4                           
   0.00000000  0.00000000  0.00000000       0.001
   0.05000000  0.00000000  0.00000000       0.003
   0.10000000  0.00000000  0.00000000       0.003
   0.15000000  0.00000000  0.00000000       0.003
   0.20000000  0.00000000  0.00000000       0.003
   0.25000000  0.00000000  0.00000000       0.003
   0.30000000  0.00000000  0.00000000       0.003
   0.35000000  0.00000000  0.00000000       0.003
   0.40000000  0.00000000  0.00000000       0.003
   0.45000000  0.00000000  0.00000000       0.003
   0.50000000  0.00000000  0.00000000       0.001
   0.05000000  0.05000000  0.00000000       0.003
   0.10000000  0.05000000  0.00000000       0.005
   0.15000000  0.05000000  0.00000000       0.005
   0.20000000  0.05000000  0.00000000       0.005
   0.25000000  0.05000000  0.00000000       0.005
   0.30000000  0.05000000  0.00000000       0.005
   0.35000000  0.05000000  0.00000000       0.005
   0.40000000  0.05000000  0.00000000       0.005
   0.45000000  0.05000000  0.00000000       0.005
   0.50000000  0.05000000  0.00000000       0.003
   0.10000000  0.10000000  0.00000000       0.003
   0.15000000  0.10000000  0.00000000       0.005
   0.20000000  0.10000000  0.00000000       0.005
   0.25000000  0.10000000  0.00000000       0.005
   0.30000000  0.10000000  0.00000000       0.005
   0.35000000  0.10000000  0.00000000       0.005
   0.40000000  0.10000000  0.00000000       0.005
   0.45000000  0.10000000  0.00000000       0.005
   0.50000000  0.10000000  0.00000000       0.003
   0.15000000  0.15000000  0.00000000       0.003
   0.20000000  0.15000000  0.00000000       0.005
   0.25000000  0.15000000  0.00000000       0.005
   0.30000000  0.15000000  0.00000000       0.005
   0.35000000  0.15000000  0.00000000       0.005
   0.40000000  0.15000000  0.00000000       0.005
   0.45000000  0.15000000  0.00000000       0.005
   0.50000000  0.15000000  0.00000000       0.003
   0.20000000  0.20000000  0.00000000       0.003
   0.25000000  0.20000000  0.00000000       0.005
   0.30000000  0.20000000  0.00000000       0.005
   0.35000000  0.20000000  0.00000000       0.005
   0.40000000  0.20000000  0.00000000       0.005
   0.45000000  0.20000000  0.00000000       0.005
   0.50000000  0.20000000  0.00000000       0.003
   0.25000000  0.25000000  0.00000000       0.003
   0.30000000  0.25000000  0.00000000       0.005
   0.35000000  0.25000000  0.00000000       0.005
   0.40000000  0.25000000  0.00000000       0.005
   0.45000000  0.25000000  0.00000000       0.005
   0.50000000  0.25000000  0.00000000       0.003
   0.30000000  0.30000000  0.00000000       0.003
   0.35000000  0.30000000  0.00000000       0.005
   0.40000000  0.30000000  0.00000000       0.005
   0.45000000  0.30000000  0.00000000       0.005
   0.50000000  0.30000000  0.00000000       0.003
   0.35000000  0.35000000  0.00000000       0.003
   0.40000000  0.35000000  0.00000000       0.005
   0.45000000  0.35000000  0.00000000       0.005
   0.50000000  0.35000000  0.00000000       0.003
   0.40000000  0.40000000  0.00000000       0.003
   0.45000000  0.40000000  0.00000000       0.005
   0.50000000  0.40000000  0.00000000       0.003
   0.45000000  0.45000000  0.00000000       0.003
   0.50000000  0.45000000  0.00000000       0.003
   0.50000000  0.50000000  0.00000000       0.001
   0.00000000  0.00000000  0.04166667       0.001
   0.05000000  0.00000000  0.04166667       0.005
   0.10000000  0.00000000  0.04166667       0.005
   0.15000000  0.00000000  0.04166667       0.005
   0.20000000  0.00000000  0.04166667       0.005
   0.25000000  0.00000000  0.04166667       0.005
   0.30000000  0.00000000  0.04166667       0.005
   0.35000000  0.00000000  0.04166667       0.005
   0.40000000  0.00000000  0.04166667       0.005
   0.45000000  0.00000000  0.04166667       0.005
   0.50000000  0.00000000  0.04166667       0.003
   0.05000000  0.05000000  0.04166667       0.005
   0.10000000  0.05000000  0.04166667       0.010
   0.15000000  0.05000000  0.04166667       0.010
   0.20000000  0.05000000  0.04166667       0.010
   0.25000000  0.05000000  0.04166667       0.010
   0.30000000  0.05000000  0.04166667       0.010
   0.35000000  0.05000000  0.04166667       0.010
   0.40000000  0.05000000  0.04166667       0.010
   0.45000000  0.05000000  0.04166667       0.010
   0.50000000  0.05000000  0.04166667       0.005
   0.10000000  0.10000000  0.04166667       0.005
   0.15000000  0.10000000  0.04166667       0.010
   0.20000000  0.10000000  0.04166667       0.010
   0.25000000  0.10000000  0.04166667       0.010
   0.30000000  0.10000000  0.04166667       0.010
   0.35000000  0.10000000  0.04166667       0.010
   0.40000000  0.10000000  0.04166667       0.010
   0.45000000  0.10000000  0.04166667       0.010
   0.50000000  0.10000000  0.04166667       0.005
   0.15000000  0.15000000  0.04166667       0.005
   0.20000000  0.15000000  0.04166667       0.010
   0.25000000  0.15000000  0.04166667       0.010
   0.30000000  0.15000000  0.04166667       0.010
   0.35000000  0.15000000  0.04166667       0.010
   0.40000000  0.15000000  0.04166667       0.010
   0.45000000  0.15000000  0.04166667       0.010
   0.50000000  0.15000000  0.04166667       0.005
   0.20000000  0.20000000  0.04166667       0.005
   0.25000000  0.20000000  0.04166667       0.010
   0.30000000  0.20000000  0.04166667       0.010
   0.35000000  0.20000000  0.04166667       0.010
   0.40000000  0.20000000  0.04166667       0.010
   0.45000000  0.20000000  0.04166667       0.010
   0.50000000  0.20000000  0.04166667       0.005
   0.25000000  0.25000000  0.04166667       0.005
   0.30000000  0.25000000  0.04166667       0.010
   0.35000000  0.25000000  0.04166667       0.010
   0.40000000  0.25000000  0.04166667       0.010
   0.45000000  0.25000000  0.04166667       0.010
   0.50000000  0.25000000  0.04166667       0.005
   0.30000000  0.30000000  0.04166667       0.005
   0.35000000  0.30000000  0.04166667       0.010
   0.40000000  0.30000000  0.04166667       0.010
   0.45000000  0.30000000  0.04166667       0.010
   0.50000000  0.30000000  0.04166667       0.005
   0.35000000  0.35000000  0.04166667       0.005
   0.40000000  0.35000000  0.04166667       0.010
   0.45000000  0.35000000  0.04166667       0.010
   0.50000000  0.35000000  0.04166667       0.005
   0.40000000  0.40000000  0.04166667       0.005
   0.45000000  0.40000000  0.04166667       0.010
   0.50000000  0.40000000  0.04166667       0.005
   0.45000000  0.45000000  0.04166667       0.005
   0.50000000  0.45000000  0.04166667       0.005
   0.50000000  0.50000000  0.04166667       0.001
   0.00000000  0.00000000  0.08333333       0.001
   0.05000000  0.00000000  0.08333333       0.003
   0.10000000  0.00000000  0.08333333       0.003
   0.15000000  0.00000000  0.08333333       0.003
   0.20000000  0.00000000  0.08333333       0.003
   0.25000000  0.00000000  0.08333333       0.003
   0.30000000  0.00000000  0.08333333       0.003
   0.35000000  0.00000000  0.08333333       0.003
   0.40000000  0.00000000  0.08333333       0.003
   0.45000000  0.00000000  0.08333333       0.003
   0.50000000  0.00000000  0.08333333       0.001
   0.05000000  0.05000000  0.08333333       0.003
   0.10000000  0.05000000  0.08333333       0.005
   0.15000000  0.05000000  0.08333333       0.005
   0.20000000  0.05000000  0.08333333       0.005
   0.25000000  0.05000000  0.08333333       0.005
   0.30000000  0.05000000  0.08333333       0.005
   0.35000000  0.05000000  0.08333333       0.005
   0.40000000  0.05000000  0.08333333       0.005
   0.45000000  0.05000000  0.08333333       0.005
   0.50000000  0.05000000  0.08333333       0.003
   0.10000000  0.10000000  0.08333333       0.003
   0.15000000  0.10000000  0.08333333       0.005
   0.20000000  0.10000000  0.08333333       0.005
   0.25000000  0.10000000  0.08333333       0.005
   0.30000000  0.10000000  0.08333333       0.005
   0.35000000  0.10000000  0.08333333       0.005
   0.40000000  0.10000000  0.08333333       0.005
   0.45000000  0.10000000  0.08333333       0.005
   0.50000000  0.10000000  0.08333333       0.003
   0.15000000  0.15000000  0.08333333       0.003
   0.20000000  0.15000000  0.08333333       0.005
   0.25000000  0.15000000  0.08333333       0.005
   0.30000000  0.15000000  0.08333333       0.005
   0.35000000  0.15000000  0.08333333       0.005
   0.40000000  0.15000000  0.08333333       0.005
   0.45000000  0.15000000  0.08333333       0.005
   0.50000000  0.15000000  0.08333333       0.003
   0.20000000  0.20000000  0.08333333       0.003
   0.25000000  0.20000000  0.08333333       0.005
   0.30000000  0.20000000  0.08333333       0.005
   0.35000000  0.20000000  0.08333333       0.005
   0.40000000  0.20000000  0.08333333       0.005
   0.45000000  0.20000000  0.08333333       0.005
   0.50000000  0.20000000  0.08333333       0.003
   0.25000000  0.25000000  0.08333333       0.003
   0.30000000  0.25000000  0.08333333       0.005
   0.35000000  0.25000000  0.08333333       0.005
   0.40000000  0.25000000  0.08333333       0.005
   0.45000000  0.25000000  0.08333333       0.005
   0.50000000  0.25000000  0.08333333       0.003
   0.30000000  0.30000000  0.08333333       0.003
   0.35000000  0.30000000  0.08333333       0.005
   0.40000000  0.30000000  0.08333333       0.005
   0.45000000  0.30000000  0.08333333       0.005
   0.50000000  0.30000000  0.08333333       0.003
   0.35000000  0.35000000  0.08333333       0.003
   0.40000000  0.35000000  0.08333333       0.005
   0.45000000  0.35000000  0.08333333       0.005
   0.50000000  0.35000000  0.08333333       0.003
   0.40000000  0.40000000  0.08333333       0.003
   0.45000000  0.40000000  0.08333333       0.005
   0.50000000  0.40000000  0.08333333       0.003
   0.45000000  0.45000000  0.08333333       0.003
   0.50000000  0.45000000  0.08333333       0.003
   0.50000000  0.50000000  0.08333333       0.001
 
 k-points in reciprocal lattice and weights: Gamma 20*20*4                           
   0.00000000  0.00000000  0.00000000       0.001
   0.05000000  0.00000000  0.00000000       0.003
   0.10000000  0.00000000  0.00000000       0.003
   0.15000000  0.00000000  0.00000000       0.003
   0.20000000  0.00000000  0.00000000       0.003
   0.25000000  0.00000000  0.00000000       0.003
   0.30000000  0.00000000  0.00000000       0.003
   0.35000000  0.00000000  0.00000000       0.003
   0.40000000  0.00000000  0.00000000       0.003
   0.45000000  0.00000000  0.00000000       0.003
   0.50000000  0.00000000  0.00000000       0.001
   0.05000000  0.05000000  0.00000000       0.003
   0.10000000  0.05000000  0.00000000       0.005
   0.15000000  0.05000000  0.00000000       0.005
   0.20000000  0.05000000  0.00000000       0.005
   0.25000000  0.05000000  0.00000000       0.005
   0.30000000  0.05000000  0.00000000       0.005
   0.35000000  0.05000000  0.00000000       0.005
   0.40000000  0.05000000  0.00000000       0.005
   0.45000000  0.05000000  0.00000000       0.005
   0.50000000  0.05000000  0.00000000       0.003
   0.10000000  0.10000000  0.00000000       0.003
   0.15000000  0.10000000  0.00000000       0.005
   0.20000000  0.10000000  0.00000000       0.005
   0.25000000  0.10000000  0.00000000       0.005
   0.30000000  0.10000000  0.00000000       0.005
   0.35000000  0.10000000  0.00000000       0.005
   0.40000000  0.10000000  0.00000000       0.005
   0.45000000  0.10000000  0.00000000       0.005
   0.50000000  0.10000000  0.00000000       0.003
   0.15000000  0.15000000  0.00000000       0.003
   0.20000000  0.15000000  0.00000000       0.005
   0.25000000  0.15000000  0.00000000       0.005
   0.30000000  0.15000000  0.00000000       0.005
   0.35000000  0.15000000  0.00000000       0.005
   0.40000000  0.15000000  0.00000000       0.005
   0.45000000  0.15000000  0.00000000       0.005
   0.50000000  0.15000000  0.00000000       0.003
   0.20000000  0.20000000  0.00000000       0.003
   0.25000000  0.20000000  0.00000000       0.005
   0.30000000  0.20000000  0.00000000       0.005
   0.35000000  0.20000000  0.00000000       0.005
   0.40000000  0.20000000  0.00000000       0.005
   0.45000000  0.20000000  0.00000000       0.005
   0.50000000  0.20000000  0.00000000       0.003
   0.25000000  0.25000000  0.00000000       0.003
   0.30000000  0.25000000  0.00000000       0.005
   0.35000000  0.25000000  0.00000000       0.005
   0.40000000  0.25000000  0.00000000       0.005
   0.45000000  0.25000000  0.00000000       0.005
   0.50000000  0.25000000  0.00000000       0.003
   0.30000000  0.30000000  0.00000000       0.003
   0.35000000  0.30000000  0.00000000       0.005
   0.40000000  0.30000000  0.00000000       0.005
   0.45000000  0.30000000  0.00000000       0.005
   0.50000000  0.30000000  0.00000000       0.003
   0.35000000  0.35000000  0.00000000       0.003
   0.40000000  0.35000000  0.00000000       0.005
   0.45000000  0.35000000  0.00000000       0.005
   0.50000000  0.35000000  0.00000000       0.003
   0.40000000  0.40000000  0.00000000       0.003
   0.45000000  0.40000000  0.00000000       0.005
   0.50000000  0.40000000  0.00000000       0.003
   0.45000000  0.45000000  0.00000000       0.003
   0.50000000  0.45000000  0.00000000       0.003
   0.50000000  0.50000000  0.00000000       0.001
   0.00000000  0.00000000  0.25000000       0.001
   0.05000000  0.00000000  0.25000000       0.005
   0.10000000  0.00000000  0.25000000       0.005
   0.15000000  0.00000000  0.25000000       0.005
   0.20000000  0.00000000  0.25000000       0.005
   0.25000000  0.00000000  0.25000000       0.005
   0.30000000  0.00000000  0.25000000       0.005
   0.35000000  0.00000000  0.25000000       0.005
   0.40000000  0.00000000  0.25000000       0.005
   0.45000000  0.00000000  0.25000000       0.005
   0.50000000  0.00000000  0.25000000       0.003
   0.05000000  0.05000000  0.25000000       0.005
   0.10000000  0.05000000  0.25000000       0.010
   0.15000000  0.05000000  0.25000000       0.010
   0.20000000  0.05000000  0.25000000       0.010
   0.25000000  0.05000000  0.25000000       0.010
   0.30000000  0.05000000  0.25000000       0.010
   0.35000000  0.05000000  0.25000000       0.010
   0.40000000  0.05000000  0.25000000       0.010
   0.45000000  0.05000000  0.25000000       0.010
   0.50000000  0.05000000  0.25000000       0.005
   0.10000000  0.10000000  0.25000000       0.005
   0.15000000  0.10000000  0.25000000       0.010
   0.20000000  0.10000000  0.25000000       0.010
   0.25000000  0.10000000  0.25000000       0.010
   0.30000000  0.10000000  0.25000000       0.010
   0.35000000  0.10000000  0.25000000       0.010
   0.40000000  0.10000000  0.25000000       0.010
   0.45000000  0.10000000  0.25000000       0.010
   0.50000000  0.10000000  0.25000000       0.005
   0.15000000  0.15000000  0.25000000       0.005
   0.20000000  0.15000000  0.25000000       0.010
   0.25000000  0.15000000  0.25000000       0.010
   0.30000000  0.15000000  0.25000000       0.010
   0.35000000  0.15000000  0.25000000       0.010
   0.40000000  0.15000000  0.25000000       0.010
   0.45000000  0.15000000  0.25000000       0.010
   0.50000000  0.15000000  0.25000000       0.005
   0.20000000  0.20000000  0.25000000       0.005
   0.25000000  0.20000000  0.25000000       0.010
   0.30000000  0.20000000  0.25000000       0.010
   0.35000000  0.20000000  0.25000000       0.010
   0.40000000  0.20000000  0.25000000       0.010
   0.45000000  0.20000000  0.25000000       0.010
   0.50000000  0.20000000  0.25000000       0.005
   0.25000000  0.25000000  0.25000000       0.005
   0.30000000  0.25000000  0.25000000       0.010
   0.35000000  0.25000000  0.25000000       0.010
   0.40000000  0.25000000  0.25000000       0.010
   0.45000000  0.25000000  0.25000000       0.010
   0.50000000  0.25000000  0.25000000       0.005
   0.30000000  0.30000000  0.25000000       0.005
   0.35000000  0.30000000  0.25000000       0.010
   0.40000000  0.30000000  0.25000000       0.010
   0.45000000  0.30000000  0.25000000       0.010
   0.50000000  0.30000000  0.25000000       0.005
   0.35000000  0.35000000  0.25000000       0.005
   0.40000000  0.35000000  0.25000000       0.010
   0.45000000  0.35000000  0.25000000       0.010
   0.50000000  0.35000000  0.25000000       0.005
   0.40000000  0.40000000  0.25000000       0.005
   0.45000000  0.40000000  0.25000000       0.010
   0.50000000  0.40000000  0.25000000       0.005
   0.45000000  0.45000000  0.25000000       0.005
   0.50000000  0.45000000  0.25000000       0.005
   0.50000000  0.50000000  0.25000000       0.001
   0.00000000  0.00000000  0.50000000       0.001
   0.05000000  0.00000000  0.50000000       0.003
   0.10000000  0.00000000  0.50000000       0.003
   0.15000000  0.00000000  0.50000000       0.003
   0.20000000  0.00000000  0.50000000       0.003
   0.25000000  0.00000000  0.50000000       0.003
   0.30000000  0.00000000  0.50000000       0.003
   0.35000000  0.00000000  0.50000000       0.003
   0.40000000  0.00000000  0.50000000       0.003
   0.45000000  0.00000000  0.50000000       0.003
   0.50000000  0.00000000  0.50000000       0.001
   0.05000000  0.05000000  0.50000000       0.003
   0.10000000  0.05000000  0.50000000       0.005
   0.15000000  0.05000000  0.50000000       0.005
   0.20000000  0.05000000  0.50000000       0.005
   0.25000000  0.05000000  0.50000000       0.005
   0.30000000  0.05000000  0.50000000       0.005
   0.35000000  0.05000000  0.50000000       0.005
   0.40000000  0.05000000  0.50000000       0.005
   0.45000000  0.05000000  0.50000000       0.005
   0.50000000  0.05000000  0.50000000       0.003
   0.10000000  0.10000000  0.50000000       0.003
   0.15000000  0.10000000  0.50000000       0.005
   0.20000000  0.10000000  0.50000000       0.005
   0.25000000  0.10000000  0.50000000       0.005
   0.30000000  0.10000000  0.50000000       0.005
   0.35000000  0.10000000  0.50000000       0.005
   0.40000000  0.10000000  0.50000000       0.005
   0.45000000  0.10000000  0.50000000       0.005
   0.50000000  0.10000000  0.50000000       0.003
   0.15000000  0.15000000  0.50000000       0.003
   0.20000000  0.15000000  0.50000000       0.005
   0.25000000  0.15000000  0.50000000       0.005
   0.30000000  0.15000000  0.50000000       0.005
   0.35000000  0.15000000  0.50000000       0.005
   0.40000000  0.15000000  0.50000000       0.005
   0.45000000  0.15000000  0.50000000       0.005
   0.50000000  0.15000000  0.50000000       0.003
   0.20000000  0.20000000  0.50000000       0.003
   0.25000000  0.20000000  0.50000000       0.005
   0.30000000  0.20000000  0.50000000       0.005
   0.35000000  0.20000000  0.50000000       0.005
   0.40000000  0.20000000  0.50000000       0.005
   0.45000000  0.20000000  0.50000000       0.005
   0.50000000  0.20000000  0.50000000       0.003
   0.25000000  0.25000000  0.50000000       0.003
   0.30000000  0.25000000  0.50000000       0.005
   0.35000000  0.25000000  0.50000000       0.005
   0.40000000  0.25000000  0.50000000       0.005
   0.45000000  0.25000000  0.50000000       0.005
   0.50000000  0.25000000  0.50000000       0.003
   0.30000000  0.30000000  0.50000000       0.003
   0.35000000  0.30000000  0.50000000       0.005
   0.40000000  0.30000000  0.50000000       0.005
   0.45000000  0.30000000  0.50000000       0.005
   0.50000000  0.30000000  0.50000000       0.003
   0.35000000  0.35000000  0.50000000       0.003
   0.40000000  0.35000000  0.50000000       0.005
   0.45000000  0.35000000  0.50000000       0.005
   0.50000000  0.35000000  0.50000000       0.003
   0.40000000  0.40000000  0.50000000       0.003
   0.45000000  0.40000000  0.50000000       0.005
   0.50000000  0.40000000  0.50000000       0.003
   0.45000000  0.45000000  0.50000000       0.003
   0.50000000  0.45000000  0.50000000       0.003
   0.50000000  0.50000000  0.50000000       0.001
 
 position of ions in fractional coordinates (direct lattice) 
   0.00000000  0.00000000  0.00000000
   0.50000000  0.50000000  0.08333333
   0.00000000  0.00000000  0.16666667
   0.50000000  0.50000000  0.25000000
   0.00000000  0.00000000  0.33333333
   0.50000000  0.50000000  0.41666667
   0.00000000  0.00000000  0.50000000
 
 position of ions in cartesian coordinates  (Angst):
   0.00000000  0.00000000  0.00000000
   1.58000000  1.58000000  1.58000000
   0.00000000  0.00000000  3.16000000
   1.58000000  1.58000000  4.74000000
   0.00000000  0.00000000  6.32000000
   1.58000000  1.58000000  7.90000000
   0.00000000  0.00000000  9.48000000
 


--------------------------------------------------------------------------------------------------------


 k-point  1 :   0.0000 0.0000 0.0000  plane waves:    6283
 k-point  2 :   0.0500 0.0000 0.0000  plane waves:    6279
 k-point  3 :   0.1000 0.0000 0.0000  plane waves:    6307
 k-point  4 :   0.1500 0.0000 0.0000  plane waves:    6341
 k-point  5 :   0.2000 0.0000 0.0000  plane waves:    6323
 k-point  6 :   0.2500 0.0000 0.0000  plane waves:    6335
 k-point  7 :   0.3000 0.0000 0.0000  plane waves:    6335
 k-point  8 :   0.3500 0.0000 0.0000  plane waves:    6348
 k-point  9 :   0.4000 0.0000 0.0000  plane waves:    6348
 k-point 10 :   0.4500 0.0000 0.0000  plane waves:    6354
 k-point 11 :   0.5000 0.0000 0.0000  plane waves:    6352
 k-point 12 :   0.0500 0.0500 0.0000  plane waves:    6299
 k-point 13 :   0.1000 0.0500 0.0000  plane waves:    6321
 k-point 14 :   0.1500 0.0500 0.0000  plane waves:    6328
 k-point 15 :   0.2000 0.0500 0.0000  plane waves:    6329
 k-point 16 :   0.2500 0.0500 0.0000  plane waves:    6343
 k-point 17 :   0.3000 0.0500 0.0000  plane waves:    6341
 k-point 18 :   0.3500 0.0500 0.0000  plane waves:    6338
 k-point 19 :   0.4000 0.0500 0.0000  plane waves:    6352
 k-point 20 :   0.4500 0.0500 0.0000  plane waves:    6353
 k-point 21 :   0.5000 0.0500 0.0000  plane waves:    6340
 k-point 22 :   0.1000 0.1000 0.0000  plane waves:    6327
 k-point 23 :   0.1500 0.1000 0.0000  plane waves:    6335
 k-point 24 :   0.2000 0.1000 0.0000  plane waves:    6321
 k-point 25 :   0.2500 0.1000 0.0000  plane waves:    6311
 k-point 26 :   0.3000 0.1000 0.0000  plane waves:    6312
 k-point 27 :   0.3500 0.1000 0.0000  plane waves:    6321
 k-point 28 :   0.4000 0.1000 0.0000  plane waves:    6345
 k-point 29 :   0.4500 0.1000 0.0000  plane waves:    6345
 k-point 30 :   0.5000 0.1000 0.0000  plane waves:    6326
 k-point 31 :   0.1500 0.1500 0.0000  plane waves:    6335
 k-point 32 :   0.2000 0.1500 0.0000  plane waves:    6337
 k-point 33 :   0.2500 0.1500 0.0000  plane waves:    6323
 k-point 34 :   0.3000 0.1500 0.0000  plane waves:    6310
 k-point 35 :   0.3500 0.1500 0.0000  plane waves:    6311
 k-point 36 :   0.4000 0.1500 0.0000  plane waves:    6316
 k-point 37 :   0.4500 0.1500 0.0000  plane waves:    6323
 k-point 38 :   0.5000 0.1500 0.0000  plane waves:    6328
 k-point 39 :   0.2000 0.2000 0.0000  plane waves:    6313
 k-point 40 :   0.2500 0.2000 0.0000  plane waves:    6317
 k-point 41 :   0.3000 0.2000 0.0000  plane waves:    6301
 k-point 42 :   0.3500 0.2000 0.0000  plane waves:    6311
 k-point 43 :   0.4000 0.2000 0.0000  plane waves:    6327
 k-point 44 :   0.4500 0.2000 0.0000  plane waves:    6315
 k-point 45 :   0.5000 0.2000 0.0000  plane waves:    6316
 k-point 46 :   0.2500 0.2500 0.0000  plane waves:    6299
 k-point 47 :   0.3000 0.2500 0.0000  plane waves:    6300
 k-point 48 :   0.3500 0.2500 0.0000  plane waves:    6311
 k-point 49 :   0.4000 0.2500 0.0000  plane waves:    6318
 k-point 50 :   0.4500 0.2500 0.0000  plane waves:    6311
 k-point 51 :   0.5000 0.2500 0.0000  plane waves:    6306
 k-point 52 :   0.3000 0.3000 0.0000  plane waves:    6311
 k-point 53 :   0.3500 0.3000 0.0000  plane waves:    6300
 k-point 54 :   0.4000 0.3000 0.0000  plane waves:    6291
 k-point 55 :   0.4500 0.3000 0.0000  plane waves:    6306
 k-point 56 :   0.5000 0.3000 0.0000  plane waves:    6310
 k-point 57 :   0.3500 0.3500 0.0000  plane waves:    6287
 k-point 58 :   0.4000 0.3500 0.0000  plane waves:    6291
 k-point 59 :   0.4500 0.3500 0.0000  plane waves:    6290
 k-point 60 :   0.5000 0.3500 0.0000  plane waves:    6290
 k-point 61 :   0.4000 0.4000 0.0000  plane waves:    6287
 k-point 62 :   0.4500 0.4000 0.0000  plane waves:    6279
 k-point 63 :   0.5000 0.4000 0.0000  plane waves:    6294
 k-point 64 :   0.4500 0.4500 0.0000  plane waves:    6293
 k-point 65 :   0.5000 0.4500 0.0000  plane waves:    6284
 k-point 66 :   0.5000 0.5000 0.0000  plane waves:    6280
 k-point 67 :   0.0000 0.0000 0.2500  plane waves:    6276
 k-point 68 :   0.0500 0.0000 0.2500  plane waves:    6301
 k-point 69 :   0.1000 0.0000 0.2500  plane waves:    6301
 k-point 70 :   0.1500 0.0000 0.2500  plane waves:    6326
 k-point 71 :   0.2000 0.0000 0.2500  plane waves:    6345
 k-point 72 :   0.2500 0.0000 0.2500  plane waves:    6351
 k-point 73 :   0.3000 0.0000 0.2500  plane waves:    6336
 k-point 74 :   0.3500 0.0000 0.2500  plane waves:    6347
 k-point 75 :   0.4000 0.0000 0.2500  plane waves:    6343
 k-point 76 :   0.4500 0.0000 0.2500  plane waves:    6349
 k-point 77 :   0.5000 0.0000 0.2500  plane waves:    6356
 k-point 78 :   0.0500 0.0500 0.2500  plane waves:    6312
 k-point 79 :   0.1000 0.0500 0.2500  plane waves:    6318
 k-point 80 :   0.1500 0.0500 0.2500  plane waves:    6319
 k-point 81 :   0.2000 0.0500 0.2500  plane waves:    6326
 k-point 82 :   0.2500 0.0500 0.2500  plane waves:    6333
 k-point 83 :   0.3000 0.0500 0.2500  plane waves:    6336
 k-point 84 :   0.3500 0.0500 0.2500  plane waves:    6346
 k-point 85 :   0.4000 0.0500 0.2500  plane waves:    6343
 k-point 86 :   0.4500 0.0500 0.2500  plane waves:    6349
 k-point 87 :   0.5000 0.0500 0.2500  plane waves:    6354
 k-point 88 :   0.1000 0.1000 0.2500  plane waves:    6334
 k-point 89 :   0.1500 0.1000 0.2500  plane waves:    6337
 k-point 90 :   0.2000 0.1000 0.2500  plane waves:    6331
 k-point 91 :   0.2500 0.1000 0.2500  plane waves:    6322
 k-point 92 :   0.3000 0.1000 0.2500  plane waves:    6328
 k-point 93 :   0.3500 0.1000 0.2500  plane waves:    6321
 k-point 94 :   0.4000 0.1000 0.2500  plane waves:    6329
 k-point 95 :   0.4500 0.1000 0.2500  plane waves:    6342
 k-point 96 :   0.5000 0.1000 0.2500  plane waves:    6332
 k-point 97 :   0.1500 0.1500 0.2500  plane waves:    6336
 k-point 98 :   0.2000 0.1500 0.2500  plane waves:    6331
 k-point 99 :   0.2500 0.1500 0.2500  plane waves:    6325
 k-point ** :   0.3000 0.1500 0.2500  plane waves:    6323
 k-point ** :   0.3500 0.1500 0.2500  plane waves:    6315
 k-point ** :   0.4000 0.1500 0.2500  plane waves:    6321
 k-point ** :   0.4500 0.1500 0.2500  plane waves:    6316
 k-point ** :   0.5000 0.1500 0.2500  plane waves:    6316
 k-point ** :   0.2000 0.2000 0.2500  plane waves:    6319
 k-point ** :   0.2500 0.2000 0.2500  plane waves:    6312
 k-point ** :   0.3000 0.2000 0.2500  plane waves:    6311
 k-point ** :   0.3500 0.2000 0.2500  plane waves:    6311
 k-point ** :   0.4000 0.2000 0.2500  plane waves:    6308
 k-point ** :   0.4500 0.2000 0.2500  plane waves:    6316
 k-point ** :   0.5000 0.2000 0.2500  plane waves:    6312
 k-point ** :   0.2500 0.2500 0.2500  plane waves:    6307
 k-point ** :   0.3000 0.2500 0.2500  plane waves:    6298
 k-point ** :   0.3500 0.2500 0.2500  plane waves:    6306
 k-point ** :   0.4000 0.2500 0.2500  plane waves:    6311
 k-point ** :   0.4500 0.2500 0.2500  plane waves:    6315
 k-point ** :   0.5000 0.2500 0.2500  plane waves:    6320
 k-point ** :   0.3000 0.3000 0.2500  plane waves:    6285
 k-point ** :   0.3500 0.3000 0.2500  plane waves:    6296
 k-point ** :   0.4000 0.3000 0.2500  plane waves:    6291
 k-point ** :   0.4500 0.3000 0.2500  plane waves:    6292
 k-point ** :   0.5000 0.3000 0.2500  plane waves:    6296
 k-point ** :   0.3500 0.3500 0.2500  plane waves:    6293
 k-point ** :   0.4000 0.3500 0.2500  plane waves:    6289
 k-point ** :   0.4500 0.3500 0.2500  plane waves:    6297
 k-point ** :   0.5000 0.3500 0.2500  plane waves:    6304
 k-point ** :   0.4000 0.4000 0.2500  plane waves:    6302
 k-point ** :   0.4500 0.4000 0.2500  plane waves:    6300
 k-point ** :   0.5000 0.4000 0.2500  plane waves:    6300
 k-point ** :   0.4500 0.4500 0.2500  plane waves:    6294
 k-point ** :   0.5000 0.4500 0.2500  plane waves:    6288
 k-point ** :   0.5000 0.5000 0.2500  plane waves:    6280
 k-point ** :   0.0000 0.0000 0.5000  plane waves:    6268
 k-point ** :   0.0500 0.0000 0.5000  plane waves:    6290
 k-point ** :   0.1000 0.0000 0.5000  plane waves:    6306
 k-point ** :   0.1500 0.0000 0.5000  plane waves:    6328
 k-point ** :   0.2000 0.0000 0.5000  plane waves:    6350
 k-point ** :   0.2500 0.0000 0.5000  plane waves:    6326
 k-point ** :   0.3000 0.0000 0.5000  plane waves:    6346
 k-point ** :   0.3500 0.0000 0.5000  plane waves:    6352
 k-point ** :   0.4000 0.0000 0.5000  plane waves:    6346
 k-point ** :   0.4500 0.0000 0.5000  plane waves:    6338
 k-point ** :   0.5000 0.0000 0.5000  plane waves:    6376
 k-point ** :   0.0500 0.0500 0.5000  plane waves:    6304
 k-point ** :   0.1000 0.0500 0.5000  plane waves:    6314
 k-point ** :   0.1500 0.0500 0.5000  plane waves:    6330
 k-point ** :   0.2000 0.0500 0.5000  plane waves:    6330
 k-point ** :   0.2500 0.0500 0.5000  plane waves:    6326
 k-point ** :   0.3000 0.0500 0.5000  plane waves:    6330
 k-point ** :   0.3500 0.0500 0.5000  plane waves:    6338
 k-point ** :   0.4000 0.0500 0.5000  plane waves:    6338
 k-point ** :   0.4500 0.0500 0.5000  plane waves:    6336
 k-point ** :   0.5000 0.0500 0.5000  plane waves:    6368
 k-point ** :   0.1000 0.1000 0.5000  plane waves:    6324
 k-point ** :   0.1500 0.1000 0.5000  plane waves:    6338
 k-point ** :   0.2000 0.1000 0.5000  plane waves:    6336
 k-point ** :   0.2500 0.1000 0.5000  plane waves:    6322
 k-point ** :   0.3000 0.1000 0.5000  plane waves:    6326
 k-point ** :   0.3500 0.1000 0.5000  plane waves:    6334
 k-point ** :   0.4000 0.1000 0.5000  plane waves:    6340
 k-point ** :   0.4500 0.1000 0.5000  plane waves:    6340
 k-point ** :   0.5000 0.1000 0.5000  plane waves:    6340
 k-point ** :   0.1500 0.1500 0.5000  plane waves:    6340
 k-point ** :   0.2000 0.1500 0.5000  plane waves:    6330
 k-point ** :   0.2500 0.1500 0.5000  plane waves:    6320
 k-point ** :   0.3000 0.1500 0.5000  plane waves:    6318
 k-point ** :   0.3500 0.1500 0.5000  plane waves:    6320
 k-point ** :   0.4000 0.1500 0.5000  plane waves:    6320
 k-point ** :   0.4500 0.1500 0.5000  plane waves:    6328
 k-point ** :   0.5000 0.1500 0.5000  plane waves:    6304
 k-point ** :   0.2000 0.2000 0.5000  plane waves:    6318
 k-point ** :   0.2500 0.2000 0.5000  plane waves:    6308
 k-point ** :   0.3000 0.2000 0.5000  plane waves:    6310
 k-point ** :   0.3500 0.2000 0.5000  plane waves:    6316
 k-point ** :   0.4000 0.2000 0.5000  plane waves:    6308
 k-point ** :   0.4500 0.2000 0.5000  plane waves:    6308
 k-point ** :   0.5000 0.2000 0.5000  plane waves:    6304
 k-point ** :   0.2500 0.2500 0.5000  plane waves:    6340
 k-point ** :   0.3000 0.2500 0.5000  plane waves:    6308
 k-point ** :   0.3500 0.2500 0.5000  plane waves:    6304
 k-point ** :   0.4000 0.2500 0.5000  plane waves:    6302
 k-point ** :   0.4500 0.2500 0.5000  plane waves:    6308
 k-point ** :   0.5000 0.2500 0.5000  plane waves:    6312
 k-point ** :   0.3000 0.3000 0.5000  plane waves:    6280
 k-point ** :   0.3500 0.3000 0.5000  plane waves:    6288
 k-point ** :   0.4000 0.3000 0.5000  plane waves:    6298
 k-point ** :   0.4500 0.3000 0.5000  plane waves:    6292
 k-point ** :   0.5000 0.3000 0.5000  plane waves:    6300
 k-point ** :   0.3500 0.3500 0.5000  plane waves:    6278
 k-point ** :   0.4000 0.3500 0.5000  plane waves:    6288
 k-point ** :   0.4500 0.3500 0.5000  plane waves:    6308
 k-point ** :   0.5000 0.3500 0.5000  plane waves:    6300
 k-point ** :   0.4000 0.4000 0.5000  plane waves:    6298
 k-point ** :   0.4500 0.4000 0.5000  plane waves:    6314
 k-point ** :   0.5000 0.4000 0.5000  plane waves:    6300
 k-point ** :   0.4500 0.4500 0.5000  plane waves:    6306
 k-point ** :   0.5000 0.4500 0.5000  plane waves:    6312
 k-point ** :   0.5000 0.5000 0.5000  plane waves:    6288

 maximum and minimum number of plane-waves per node :      6376     6268

 maximum number of plane-waves:      6376
 maximum index in each direction: 
   IXMAX=    6   IYMAX=    6   IZMAX=   37
   IXMIN=   -6   IYMIN=   -6   IZMIN=  -38


 serial   3D FFT for wavefunctions
 parallel 3D FFT for charge:
    minimum data exchange during FFTs selected (reduces bandwidth)


 total amount of memory used by VASP MPI-rank0   785940. kBytes
=======================================================================

   base      :      30000. kBytes
   nonl-proj :     182506. kBytes
   fftplans  :      26112. kBytes
   grid      :      32256. kBytes
   one-center:        108. kBytes
   wavefun   :     514958. kBytes
 
     INWAV:  cpu time    0.0001: real time    0.0003
 Broyden mixing: mesh for mixing (old mesh)
   NGX = 13   NGY = 13   NGZ = 75
  (NGX  = 40   NGY  = 40   NGZ  =240)
  gives a total of  12675 points

 initial charge density was supplied:
 charge density of overlapping atoms calculated
 number of electron      42.0000000 magnetization 
 keeping initial charge density in first step


--------------------------------------------------------------------------------------------------------


 Maximum index for augmentation-charges        13949 (set IRDMAX)


--------------------------------------------------------------------------------------------------------


 First call to EWALD:  gamma=   0.309
 Maximum number of real-space cells 5x 5x 1
 Maximum number of reciprocal cells 2x 2x 8

    FEWALD:  cpu time    0.0016: real time    0.0016


--------------------------------------- Iteration      1(   1)  ---------------------------------------


    POTLOK:  cpu time    0.0670: real time    0.0688
    SETDIJ:  cpu time    0.0197: real time    0.0197
     EDDAV:  cpu time   40.7941: real time   40.9168
 BZINTS: Fermi energy: 14.159160; 42.000000 electrons
         Band energy: 259.461369;  BLOECHL correction: -0.132621
       DOS:  cpu time    0.1078: real time    0.1081
    --------------------------------------------
      LOOP:  cpu time   40.9886: real time   41.1136

 eigenvalue-minimisations  :  9908
 total energy-change (2. order) : 0.1973947E+03  (-0.1878562E+04)
 number of electron      42.0000000 magnetization 
 augmentation part       42.0000000 magnetization 

 Free energy of the ion-electron system (eV)
  ---------------------------------------------------
  alpha Z        PSCENC =       180.65856384
  Ewald energy   TEWEN  =      2440.32004124
  -Hartree energ DENC   =     -4199.91370984
  -exchange      EXHF   =         0.00000000
  -V(xc)+E(xc)   XCENC  =      -332.97047246
  PAW double counting   =      1284.74431790     -880.66065667
  entropy T*S    EENTRO =         0.00000000
  eigenvalues    EBANDS =       259.46136855
  atomic energy  EATOM  =      1445.75525229
  Solvation  Ediel_sol  =         0.00000000
  ---------------------------------------------------
  free energy    TOTEN  =       197.39470485 eV

  energy without entropy =      197.39470485  energy(sigma->0) =      197.39470485


--------------------------------------------------------------------------------------------------------




--------------------------------------- Iteration      1(   2)  ---------------------------------------


     EDDAV:  cpu time   49.4574: real time   49.6050
 BZINTS: Fermi energy:  4.282284; 42.000000 electrons
         Band energy:  -9.532030;  BLOECHL correction: -0.094150
       DOS:  cpu time    0.1123: real time    0.1126
    --------------------------------------------
      LOOP:  cpu time   49.5697: real time   49.7176

 eigenvalue-minimisations  : 12844
 total energy-change (2. order) :-0.2689934E+03  (-0.2616323E+03)
 number of electron      42.0000000 magnetization 
 augmentation part       42.0000000 magnetization 

 Free energy of the ion-electron system (eV)
  ---------------------------------------------------
  alpha Z        PSCENC =       180.65856384
  Ewald energy   TEWEN  =      2440.32004124
  -Hartree energ DENC   =     -4199.91370984
  -exchange      EXHF   =         0.00000000
  -V(xc)+E(xc)   XCENC  =      -332.97047246
  PAW double counting   =      1284.74431790     -880.66065667
  entropy T*S    EENTRO =         0.00000000
  eigenvalues    EBANDS =        -9.53202964
  atomic energy  EATOM  =      1445.75525229
  Solvation  Ediel_sol  =         0.00000000
  ---------------------------------------------------
  free energy    TOTEN  =       -71.59869334 eV

  energy without entropy =      -71.59869334  energy(sigma->0) =      -71.59869334


--------------------------------------------------------------------------------------------------------




--------------------------------------- Iteration      1(   3)  ---------------------------------------


     EDDAV:  cpu time   55.1420: real time   55.3057
 BZINTS: Fermi energy:  3.047458; 42.000000 electrons
         Band energy: -36.357140;  BLOECHL correction: -0.029450
       DOS:  cpu time    0.1088: real time    0.1091
    --------------------------------------------
      LOOP:  cpu time   55.2508: real time   55.4148

 eigenvalue-minimisations  : 14818
 total energy-change (2. order) :-0.2682511E+02  (-0.2633993E+02)
 number of electron      42.0000000 magnetization 
 augmentation part       42.0000000 magnetization 

 Free energy of the ion-electron system (eV)
  ---------------------------------------------------
  alpha Z        PSCENC =       180.65856384
  Ewald energy   TEWEN  =      2440.32004124
  -Hartree energ DENC   =     -4199.91370984
  -exchange      EXHF   =         0.00000000
  -V(xc)+E(xc)   XCENC  =      -332.97047246
  PAW double counting   =      1284.74431790     -880.66065667
  entropy T*S    EENTRO =         0.00000000
  eigenvalues    EBANDS =       -36.35714050
  atomic energy  EATOM  =      1445.75525229
  Solvation  Ediel_sol  =         0.00000000
  ---------------------------------------------------
  free energy    TOTEN  =       -98.42380420 eV

  energy without entropy =      -98.42380420  energy(sigma->0) =      -98.42380420


--------------------------------------------------------------------------------------------------------




--------------------------------------- Iteration      1(   4)  ---------------------------------------


     EDDAV:  cpu time   58.6449: real time   58.8202
 BZINTS: Fermi energy:  2.889060; 42.000000 electrons
         Band energy: -38.120205;  BLOECHL correction: -0.026089
       DOS:  cpu time    0.1040: real time    0.1043
    --------------------------------------------
      LOOP:  cpu time   58.7488: real time   58.9245

 eigenvalue-minimisations  : 16003
 total energy-change (2. order) :-0.1763065E+01  (-0.1704820E+01)
 number of electron      42.0000000 magnetization 
 augmentation part       42.0000000 magnetization 

 Free energy of the ion-electron system (eV)
  ---------------------------------------------------
  alpha Z        PSCENC =       180.65856384
  Ewald energy   TEWEN  =      2440.32004124
  -Hartree energ DENC   =     -4199.91370984
  -exchange      EXHF   =         0.00000000
  -V(xc)+E(xc)   XCENC  =      -332.97047246
  PAW double counting   =      1284.74431790     -880.66065667
  entropy T*S    EENTRO =         0.00000000
  eigenvalues    EBANDS =       -38.12020534
  atomic energy  EATOM  =      1445.75525229
  Solvation  Ediel_sol  =         0.00000000
  ---------------------------------------------------
  free energy    TOTEN  =      -100.18686904 eV

  energy without entropy =     -100.18686904  energy(sigma->0) =     -100.18686904


--------------------------------------------------------------------------------------------------------




--------------------------------------- Iteration      1(   5)  ---------------------------------------


     EDDAV:  cpu time   57.3998: real time   57.5711
 BZINTS: Fermi energy:  2.861605; 42.000000 electrons
         Band energy: -38.249385;  BLOECHL correction: -0.025329
       DOS:  cpu time    0.1006: real time    0.1008
    CHARGE:  cpu time    3.3625: real time    3.3715
    MIXING:  cpu time    0.0124: real time    0.0124
    --------------------------------------------
      LOOP:  cpu time   60.8753: real time   61.0559

 eigenvalue-minimisations  : 15599
 total energy-change (2. order) :-0.1291799E+00  (-0.1253759E+00)
 number of electron      42.0000002 magnetization 
 augmentation part        4.3859171 magnetization 

 Broyden mixing:
  rms(total) = 0.11775E+01    rms(broyden)= 0.11775E+01
  rms(prec ) = 0.16330E+01
  weight for this iteration     100.00

 Free energy of the ion-electron system (eV)
  ---------------------------------------------------
  alpha Z        PSCENC =       180.65856384
  Ewald energy   TEWEN  =      2440.32004124
  -Hartree energ DENC   =     -4199.91370984
  -exchange      EXHF   =         0.00000000
  -V(xc)+E(xc)   XCENC  =      -332.97047246
  PAW double counting   =      1284.74431790     -880.66065667
  entropy T*S    EENTRO =         0.00000000
  eigenvalues    EBANDS =       -38.24938524
  atomic energy  EATOM  =      1445.75525229
  Solvation  Ediel_sol  =         0.00000000
  ---------------------------------------------------
  free energy    TOTEN  =      -100.31604894 eV

  energy without entropy =     -100.31604894  energy(sigma->0) =     -100.31604894


--------------------------------------------------------------------------------------------------------




--------------------------------------- Iteration      1(   6)  ---------------------------------------


    POTLOK:  cpu time    0.0595: real time    0.0599
    SETDIJ:  cpu time    0.0192: real time    0.0192
     EDDAV:  cpu time   59.2178: real time   59.3966
 BZINTS: Fermi energy:  3.015354; 42.000000 electrons
         Band energy:  15.108015;  BLOECHL correction: -0.040699
       DOS:  cpu time    0.1092: real time    0.1095
    CHARGE:  cpu time    3.2040: real time    3.2125
    MIXING:  cpu time    0.0110: real time    0.0110
    --------------------------------------------
      LOOP:  cpu time   62.6207: real time   62.8088

 eigenvalue-minimisations  : 16344
 total energy-change (2. order) :-0.3873110E+01  (-0.1224000E+02)
 number of electron      42.0000002 magnetization 
 augmentation part        4.6867612 magnetization 

 Broyden mixing:
  rms(total) = 0.15602E+01    rms(broyden)= 0.15602E+01
  rms(prec ) = 0.33414E+01
  weight for this iteration     100.00

 eigenvalues of (default mixing * dielectric matrix)
  average eigenvalue GAMMA=   0.4281
  0.4281

 Free energy of the ion-electron system (eV)
  ---------------------------------------------------
  alpha Z        PSCENC =       180.65856384
  Ewald energy   TEWEN  =      2440.32004124
  -Hartree energ DENC   =     -4253.55851973
  -exchange      EXHF   =         0.00000000
  -V(xc)+E(xc)   XCENC  =      -331.77660661
  PAW double counting   =      1391.64690655     -992.34281215
  entropy T*S    EENTRO =         0.00000000
  eigenvalues    EBANDS =        15.10801548
  atomic energy  EATOM  =      1445.75525229
  Solvation  Ediel_sol  =         0.00000000
  ---------------------------------------------------
  free energy    TOTEN  =      -104.18915910 eV

  energy without entropy =     -104.18915910  energy(sigma->0) =     -104.18915910


--------------------------------------------------------------------------------------------------------




--------------------------------------- Iteration      1(   7)  ---------------------------------------


    POTLOK:  cpu time    0.0573: real time    0.0577
    SETDIJ:  cpu time    0.0191: real time    0.0192
     EDDAV:  cpu time   59.9271: real time   60.1070
 BZINTS: Fermi energy:  2.799719; 42.000000 electrons
         Band energy: -24.628362;  BLOECHL correction: -0.018044
       DOS:  cpu time    0.0993: real time    0.0996
    CHARGE:  cpu time    3.1940: real time    3.2026
    MIXING:  cpu time    0.0116: real time    0.0117
    --------------------------------------------
      LOOP:  cpu time   63.3085: real time   63.4977

 eigenvalue-minimisations  : 16617
 total energy-change (2. order) : 0.1016534E+02  (-0.1024701E+02)
 number of electron      42.0000002 magnetization 
 augmentation part        4.6471318 magnetization 

 Broyden mixing:
  rms(total) = 0.52530E+00    rms(broyden)= 0.52530E+00
[...]
      2      -2.4254      2.00000
      3      -1.8362      2.00000
      4      -1.5818      2.00000
      5      -1.1932      2.00000
      6      -0.7774      2.00000
      7      -0.6890      2.00000
      8      -0.5059      2.00000
      9      -0.2559      2.00000
     10      -0.2409      2.00000
     11      -0.1604      2.00000
     12      -0.1277      2.00000
     13       0.2069      2.00000
     14       0.3945      2.00000
     15       0.5861      2.00000
     16       0.7682      2.00000
     17       0.9128      2.00000
     18       1.2393      2.00000
     19       1.3457      2.00000
     20       3.2133     -0.14728
     21       3.2361     -0.03958
     22       3.6097      0.00000
     23       3.6518      0.00000
     24       4.1560      0.00000
     25       4.3416      0.00000

 k-point   191 :       0.4500    0.3500    0.5000
  band No.  band energies     occupation 
      1      -2.8632      2.00000
      2      -2.6042      2.00000
      3      -1.8436      2.00000
      4      -1.6419      2.00000
      5      -1.1286      2.00000
      6      -0.8829      2.00000
      7      -0.7573      2.00000
      8      -0.4831      2.00000
      9      -0.3310      2.00000
     10      -0.2844      2.00000
     11      -0.2494      2.00000
     12      -0.0592      2.00000
     13       0.3308      2.00000
     14       0.4629      2.00000
     15       0.5663      2.00000
     16       0.9049      2.00000
     17       1.0662      2.00000
     18       1.4977      2.00000
     19       1.6270      2.00000
     20       3.2915     -0.06593
     21       3.3044      0.00000
     22       4.0063      0.00000
     23       4.0232      0.00000
     24       4.3800      0.00000
     25       4.4208      0.00000

 k-point   192 :       0.5000    0.3500    0.5000
  band No.  band energies     occupation 
      1      -2.7696      2.00000
      2      -2.7303      2.00000
      3      -1.8517      2.00000
      4      -1.6621      2.00000
      5      -1.0348      2.00000
      6      -1.0234      2.00000
      7      -0.7481      2.00000
      8      -0.4420      2.00000
      9      -0.3936      2.00000
     10      -0.3445      2.00000
     11      -0.2311      2.00000
     12      -0.0924      2.00000
     13       0.3973      2.00000
     14       0.4760      2.00000
     15       0.5804      2.00000
     16       1.0035      2.00000
     17       1.1063      2.00000
     18       1.6049      2.00000
     19       1.7236      2.00000
     20       3.3028      0.00000
     21       3.3326      0.00000
     22       4.1422      0.00000
     23       4.1785      0.00000
     24       4.4474      0.00000
     25       4.4852      0.00000

 k-point   193 :       0.4000    0.4000    0.5000
  band No.  band energies     occupation 
      1      -2.9602      2.00000
      2      -2.6238      2.00000
      3      -1.8616      2.00000
      4      -1.6435      2.00000
      5      -1.1006      2.00000
      6      -0.6241      2.00000
      7      -0.6080      2.00000
      8      -0.5542      2.00000
      9      -0.3814      2.00000
     10      -0.3293      2.00000
     11      -0.2148      2.00000
     12      -0.0256      2.00000
     13       0.2882      2.00000
     14       0.3583      2.00000
     15       0.5879      2.00000
     16       0.7236      2.00000
     17       0.9821      2.00000
     18       1.6350      2.00000
     19       1.7384      2.00000
     20       3.7265      0.00000
     21       3.8252      0.00000
     22       3.8273      0.00000
     23       3.8288      0.00000
     24       4.3513      0.00000
     25       4.4702      0.00000

 k-point   194 :       0.4500    0.4000    0.5000
  band No.  band energies     occupation 
      1      -2.9435      2.00000
      2      -2.7763      2.00000
      3      -1.9011      2.00000
      4      -1.6851      2.00000
      5      -1.0160      2.00000
      6      -0.6959      2.00000
      7      -0.6588      2.00000
      8      -0.5249      2.00000
      9      -0.4693      2.00000
     10      -0.3584      2.00000
     11      -0.2619      2.00000
     12       0.1042      2.00000
     13       0.1704      2.00000
     14       0.4044      2.00000
     15       0.5605      2.00000
     16       0.9104      2.00000
     17       1.1173      2.00000
     18       1.9529      2.00000
     19       2.0386      2.00000
     20       3.9108      0.00000
     21       3.9429      0.00000
     22       4.2739      0.00000
     23       4.3290      0.00000
     24       4.5082      0.00000
     25       4.5215      0.00000

 k-point   195 :       0.5000    0.4000    0.5000
  band No.  band energies     occupation 
      1      -2.9023      2.00000
      2      -2.8646      2.00000
      3      -1.9173      2.00000
      4      -1.6999      2.00000
      5      -0.9441      2.00000
      6      -0.8075      2.00000
      7      -0.6243      2.00000
      8      -0.6063      2.00000
      9      -0.4200      2.00000
     10      -0.3290      2.00000
     11      -0.3262      2.00000
     12       0.0617      2.00000
     13       0.1669      2.00000
     14       0.4661      2.00000
     15       0.5350      2.00000
     16       1.0440      2.00000
     17       1.1418      2.00000
     18       2.0958      2.00000
     19       2.1311      2.00000
     20       3.9608      0.00000
     21       3.9834      0.00000
     22       4.4868      0.00000
     23       4.5112      0.00000
     24       4.5370      0.00000
     25       4.5820      0.00000

 k-point   196 :       0.4500    0.4500    0.5000
  band No.  band energies     occupation 
      1      -2.9844      2.00000
      2      -2.8969      2.00000
      3      -1.9484      2.00000
      4      -1.7192      2.00000
      5      -0.9152      2.00000
      6      -0.7301      2.00000
      7      -0.6449      2.00000
      8      -0.6133      2.00000
      9      -0.5043      2.00000
     10      -0.3707      2.00000
     11      -0.2221      2.00000
     12      -0.0059      2.00000
     13       0.2865      2.00000
     14       0.3664      2.00000
     15       0.4099      2.00000
     16       1.1237      2.00000
     17       1.2411      2.00000
     18       2.3100      2.00000
     19       2.3677      2.00000
     20       4.4767      0.00000
     21       4.4811      0.00000
     22       4.5130      0.00000
     23       4.5412      0.00000
     24       4.5856      0.00000
     25       4.7253      0.00000

 k-point   197 :       0.5000    0.4500    0.5000
  band No.  band energies     occupation 
      1      -2.9866      2.00000
      2      -2.9500      2.00000
      3      -1.9656      2.00000
      4      -1.7318      2.00000
      5      -0.8351      2.00000
      6      -0.7275      2.00000
      7      -0.7249      2.00000
      8      -0.6839      2.00000
      9      -0.4971      2.00000
     10      -0.2718      2.00000
     11      -0.2679      2.00000
     12      -0.0910      2.00000
     13       0.3118      2.00000
     14       0.3451      2.00000
     15       0.4111      2.00000
     16       1.2413      2.00000
     17       1.2728      2.00000
     18       2.4695      2.00000
     19       2.4719      2.00000
     20       4.5444      0.00000
     21       4.5632      0.00000
     22       4.6207      0.00000
     23       4.7535      0.00000
     24       4.7586      0.00000
     25       4.8868      0.00000

 k-point   198 :       0.5000    0.5000    0.5000
  band No.  band energies     occupation 
      1      -3.0155      2.00000
      2      -2.9791      2.00000
      3      -1.9826      2.00000
      4      -1.7436      2.00000
      5      -0.7667      2.00000
      6      -0.7667      2.00000
      7      -0.7266      2.00000
      8      -0.6336      2.00000
      9      -0.6336      2.00000
     10      -0.2238      2.00000
     11      -0.2238      2.00000
     12      -0.1780      2.00000
     13       0.2447      2.00000
     14       0.3936      2.00000
     15       0.3936      2.00000
     16       1.3306      2.00000
     17       1.3306      2.00000
     18       2.6088      2.00000
     19       2.6088      2.00000
     20       4.6121      0.00000
     21       4.6302      0.00000
     22       4.8716      0.00000
     23       4.8716      0.00000
     24       5.1327      0.00000
     25       5.1327      0.00000


--------------------------------------------------------------------------------------------------------


 soft charge-density along one line, spin component           1
         0         1         2         3         4         5         6         7         8         9
 total charge-density along one line
 
 pseudopotential strength for first ion, spin component:           1
 -7.746   0.000   0.000   0.000  -0.000   0.000   0.000   0.000   0.000   0.000   0.046   0.000   0.000   0.000  -0.000   0.000
  0.000   0.000  -7.775   0.000  -0.000   0.000   0.000   0.000  -0.000   0.000   0.000   0.000   0.044   0.000  -0.000   0.000
 -0.000   0.000  -0.000   0.000  -7.805   0.000   0.000   0.000   0.000   0.000  -0.000   0.000  -0.000   0.000   0.042   0.000
  0.000   0.000   0.000   0.000   0.000   0.000  -7.775   0.000  -0.000   0.000   0.000   0.000   0.000   0.000   0.000   0.000
  0.000   0.000  -0.000   0.000   0.000   0.000  -0.000   0.000  -7.761   0.000   0.000   0.000  -0.000   0.000   0.000   0.000
  0.046   0.000   0.000   0.000  -0.000   0.000   0.000   0.000   0.000   0.000   0.079   0.000   0.000   0.000  -0.000   0.000
  0.000   0.000   0.044   0.000  -0.000   0.000   0.000   0.000  -0.000   0.000   0.000   0.000   0.078   0.000   0.000   0.000
 -0.000   0.000  -0.000   0.000   0.042   0.000   0.000   0.000   0.000   0.000  -0.000   0.000   0.000   0.000   0.078   0.000
  0.000   0.000   0.000   0.000   0.000   0.000   0.044   0.000  -0.000   0.000   0.000   0.000   0.000   0.000  -0.000   0.000
  0.000   0.000  -0.000   0.000   0.000   0.000  -0.000   0.000   0.045   0.000  -0.000   0.000  -0.000   0.000   0.000   0.000
 -0.000   0.000  -0.000   0.000   0.016   0.000  -0.000   0.000   0.000   0.000  -0.000   0.000  -0.000   0.000   0.001   0.000
  0.000   0.000   0.000   0.000  -0.002   0.000   0.000   0.000  -0.000   0.000   0.000   0.000   0.000   0.000  -0.000   0.000
 -0.000   0.000  -0.025   0.000   0.000   0.000  -0.000   0.000   0.000   0.000  -0.000   0.000  -0.001   0.000   0.000   0.000
 -0.000   0.000  -0.000   0.000  -0.046   0.000  -0.000   0.000  -0.000   0.000   0.000   0.000  -0.000   0.000  -0.001   0.000
 -0.000   0.000  -0.000   0.000   0.000   0.000  -0.025   0.000  -0.000   0.000  -0.000   0.000   0.000   0.000   0.000   0.000
  0.000   0.000   0.021   0.000  -0.000   0.000   0.000   0.000  -0.000   0.000   0.000   0.000   0.001   0.000  -0.000   0.000
  0.000   0.000   0.000   0.000   0.033   0.000   0.000   0.000   0.000   0.000  -0.000   0.000   0.000   0.000   0.001   0.000
  0.000   0.000   0.000   0.000  -0.000   0.000   0.021   0.000   0.000   0.000   0.000   0.000  -0.000   0.000  -0.000   0.000
 total augmentation occupancy for first ion, spin component:           1
  1.017   0.000   0.000   0.000   0.000  -0.454  -0.000   0.000   0.000   0.000   0.000   0.000   0.000   0.000  -0.000   0.000
  0.000   1.001   0.000   0.000   0.000   0.000  -0.417   0.000   0.000   0.000  -0.000  -0.000   0.121   0.000   0.000  -0.024
  0.000   0.000   0.745   0.000   0.000   0.000   0.000  -0.392   0.000   0.000  -0.042   0.058  -0.000   0.098  -0.000   0.000
  0.000   0.000   0.000   1.001  -0.000  -0.000   0.000  -0.000  -0.417  -0.000   0.000  -0.000   0.000   0.000   0.121   0.000
  0.000   0.000   0.000   0.000   0.828  -0.000   0.000   0.000   0.000  -0.456   0.000   0.000   0.000   0.000   0.000   0.000
 -0.454   0.000   0.000  -0.000  -0.000   0.281   0.000   0.000   0.000   0.000   0.000   0.000   0.000   0.000   0.000   0.000
  0.000  -0.417   0.000   0.000   0.000   0.000   0.274   0.000   0.000   0.000  -0.000  -0.000  -0.112  -0.000   0.000   0.015
  0.000  -0.000  -0.392  -0.000   0.000   0.000   0.000   0.297   0.000   0.000   0.055  -0.031   0.000  -0.093   0.000  -0.000
  0.000   0.000   0.000  -0.417   0.000   0.000   0.000   0.000   0.274   0.000   0.000   0.000   0.000   0.000  -0.112   0.000
 -0.000   0.000   0.000   0.000  -0.456   0.000   0.000   0.000   0.000   0.356   0.000   0.000   0.000   0.000   0.000   0.000
  0.000  -0.000  -0.042   0.000   0.000   0.000   0.000   0.055   0.000   0.000   1.405  -0.155   0.000   0.132  -0.000   0.000
  0.000  -0.000   0.058   0.000   0.000   0.000   0.000  -0.031   0.000   0.000  -0.155   0.034   0.000  -0.024  -0.000   0.000
  0.000   0.121  -0.000   0.000   0.000   0.000  -0.112   0.000   0.000   0.000   0.000   0.000   0.164  -0.000   0.000  -0.013
  0.000   0.000   0.098   0.000   0.000   0.000   0.000  -0.093   0.000   0.000   0.132  -0.024   0.000   0.098   0.000   0.000
  0.000   0.000  -0.000   0.121   0.000  -0.000   0.000   0.000  -0.112   0.000  -0.000   0.000   0.000   0.000   0.164   0.000
  0.000  -0.024  -0.000   0.000   0.000   0.000   0.015  -0.000  -0.000   0.000   0.000   0.000  -0.013   0.000   0.000   0.001
  0.000   0.000  -0.028  -0.000   0.000   0.000   0.000   0.017   0.000   0.000  -0.019   0.001   0.000  -0.011   0.000   0.000
  0.000  -0.000  -0.000  -0.024   0.000   0.000   0.000   0.000   0.015  -0.000   0.000   0.000  -0.000   0.000  -0.013   0.000


------------------------ aborting loop because EDIFF is reached ----------------------------------------


    CHARGE:  cpu time    3.2281: real time    3.2380
    FORLOC:  cpu time    0.0351: real time    0.0352
    FORNL :  cpu time   30.3291: real time   30.4167
    STRESS:  cpu time   25.2241: real time   25.3009
    FORCOR:  cpu time    0.0971: real time    0.0974
    FORHAR:  cpu time    0.0852: real time    0.0855
    MIXING:  cpu time    0.0236: real time    0.0237
    OFIELD:  cpu time    0.0001: real time    0.0001

  FORCE on cell =-STRESS in cart. coord.  units (eV):
  Direction    XX          YY          ZZ          XY          YZ          ZX
  --------------------------------------------------------------------------------------
  Alpha Z   180.65856   180.65856   180.65856
  Ewald    3798.59004  3798.59004 -5156.86231     0.00000     0.00000     0.00000
  Hartree  4199.12754  4199.12754 -4183.23305    -0.00000    -0.00000    -0.00000
  E(xc)    -187.63808  -187.63808  -186.37104    -0.00000     0.00000     0.00000
  Local   -8494.82373 -8494.82373  8848.60383    -0.00000     0.00000    -0.00000
  n-local  -100.59070   -84.19561   -97.13528     5.01644    -0.00132     0.00502
  augment    36.51773    36.51773    36.44111    -0.00000     0.00000    -0.00000
  Kinetic   518.82504   570.21930   545.37785     4.76118    -0.00030    -0.01052
  Fock        0.00000     0.00000     0.00000     0.00000     0.00000     0.00000
  -------------------------------------------------------------------------------------
  Total     -15.43892   -15.43892   -12.52033     0.00000     0.00000    -0.00000
  in kB    -130.65171  -130.65171  -105.95314     0.00000     0.00000    -0.00000
  external pressure =     -122.42 kB  Pullay stress =        0.00 kB


 VOLUME and BASIS-vectors are now :
 -----------------------------------------------------------------------------
  energy-cutoff  :      600.00
  volume of cell :      189.33
      direct lattice vectors                 reciprocal lattice vectors
     3.160000000  0.000000000  0.000000000     0.316455696  0.000000000  0.000000000
     0.000000000  3.160000000  0.000000000     0.000000000  0.316455696  0.000000000
     0.000000000  0.000000000 18.960000000     0.000000000  0.000000000  0.052742616

  length of vectors
     3.160000000  3.160000000 18.960000000     0.316455696  0.316455696  0.052742616


 FORCES acting on ions
    electron-ion (+dipol)            ewald-force                    non-local-force                 convergence-correction
 -----------------------------------------------------------------------------------------------
   -.181E-14 0.269E-14 0.784E+03   0.639E-14 -.114E-14 -.777E+03   0.000E+00 0.254E-20 -.456E+01   -.728E-15 -.176E-15 0.934E-05
   -.115E-14 0.458E-14 0.545E+03   0.206E-14 -.218E-14 -.546E+03   -.169E-20 0.000E+00 -.123E+00   -.103E-14 -.110E-14 0.104E-02
   -.155E-14 0.429E-14 0.272E+03   0.505E-14 -.214E-14 -.272E+03   -.254E-20 0.000E+00 -.477E+00   0.827E-15 0.102E-15 0.974E-03
   -.316E-14 -.158E-13 0.115E-11   0.337E-14 -.196E-14 0.000E+00   0.000E+00 0.165E-23 -.993E-23   -.185E-14 -.322E-15 -.197E-12
   -.165E-14 0.438E-14 -.272E+03   0.170E-14 -.179E-14 0.272E+03   -.254E-20 0.000E+00 0.477E+00   0.377E-15 0.109E-14 -.974E-03
   -.154E-14 -.258E-13 -.545E+03   0.469E-14 -.174E-14 0.546E+03   -.169E-20 0.000E+00 0.123E+00   -.147E-14 0.149E-15 -.104E-02
   -.316E-14 0.349E-14 -.784E+03   0.349E-15 -.278E-14 0.777E+03   0.000E+00 -.127E-20 0.456E+01   -.129E-14 0.185E-14 -.934E-05
 -----------------------------------------------------------------------------------------------
   -.140E-13 -.221E-13 0.223E-11   0.236E-13 -.137E-13 -.114E-12   -.847E-20 0.127E-20 0.000E+00   -.517E-14 0.160E-14 -.422E-12
 
 
 POSITION                                       TOTAL-FORCE (eV/Angst)
 -----------------------------------------------------------------------------------
      0.00000      0.00000      0.00000        -0.000000      0.000000      2.431231
      1.58000      1.58000      1.58000         0.000000      0.000000     -1.672442
      0.00000      0.00000      3.16000        -0.000000     -0.000000      0.007972
      1.58000      1.58000      4.74000        -0.000000      0.000000     -0.000000
      0.00000      0.00000      6.32000        -0.000000      0.000000     -0.007972
      1.58000      1.58000      7.90000        -0.000000     -0.000000      1.672442
      0.00000      0.00000      9.48000         0.000000      0.000000     -2.431231
 -----------------------------------------------------------------------------------
    total drift:                                0.000000     -0.000000      0.000000


--------------------------------------------------------------------------------------------------------



  FREE ENERGIE OF THE ION-ELECTRON SYSTEM (eV)
  ---------------------------------------------------
  free  energy   TOTEN  =       -93.32912503 eV

  energy  without entropy=      -93.32912503  energy(sigma->0) =      -93.32912503
 


--------------------------------------------------------------------------------------------------------


    POTLOK:  cpu time    0.0819: real time    0.0822


--------------------------------------------------------------------------------------------------------


 writing wavefunctions
     LOOP+:  cpu time 1179.7218: real time 1183.3513
    4ORBIT:  cpu time    0.0000: real time    0.0000
 BZINTS: Fermi energy:  2.763515; 42.000000 electrons
         Band energy:  -9.381224;  BLOECHL correction: -0.024267

 total amount of memory used by VASP MPI-rank0   785940. kBytes
=======================================================================

   base      :      30000. kBytes
   nonl-proj :     182506. kBytes
   fftplans  :      26112. kBytes
   grid      :      32256. kBytes
   one-center:        108. kBytes
   wavefun   :     514958. kBytes
 
  
  
 General timing and accounting informations for this job:
 ========================================================
  
                  Total CPU time used (sec):     1186.985
                            User time (sec):     1185.055
                          System time (sec):        1.930
                         Elapsed time (sec):     1190.689
  
                   Maximum memory used (kb):      879720.
                   Average memory used (kb):           0.
  
                          Minor page faults:       142163
                          Major page faults:            0
                 Voluntary context switches:          308
