 running on    1 total cores
 distrk:  each k-point on    1 cores,    1 groups
 distr:  one band on    1 cores,    1 groups
 using from now: INCAR     
 vasp.5.4.4.18Apr17-6-g9f103f2a35 (build May 20 2018 16:52:39) complex          
  
 POSCAR found type information on POSCAR  W 
 POSCAR found :  1 types and       7 ions
 scaLAPACK will be used
 LDA part: xc-table for Ceperly-Alder, standard interpolation
 POSCAR, INCAR and KPOINTS ok, starting setup
 FFT: planning ...
 WAVECAR not read
 entering main loop
       N       E                     dE             d eps       ncg     rms          rms(c)
DAV:   1     0.197394704855E+03    0.19739E+03   -0.18786E+04  9908   0.158E+03
DAV:   2    -0.715986933441E+02   -0.26899E+03   -0.26163E+03 12844   0.314E+02
DAV:   3    -0.984238041980E+02   -0.26825E+02   -0.26340E+02 14818   0.793E+01
DAV:   4    -0.100186869044E+03   -0.17631E+01   -0.17048E+01 16003   0.190E+01
DAV:   5    -0.100316048942E+03   -0.12918E+00   -0.12538E+00 15599   0.397E+00    0.118E+01
DAV:   6    -0.104189159095E+03   -0.38731E+01   -0.12240E+02 16344   0.345E+01    0.156E+01
DAV:   7    -0.940238209720E+02    0.10165E+02   -0.10247E+02 16617   0.406E+01    0.525E+00
DAV:   8    -0.939245120356E+02    0.99309E-01   -0.16554E+01 15390   0.183E+01    0.410E+00
DAV:   9    -0.933740186862E+02    0.55049E+00   -0.30521E+00 15660   0.831E+00    0.144E+00
DAV:  10    -0.933480379502E+02    0.25981E-01   -0.11846E+00 16112   0.412E+00    0.781E-01
DAV:  11    -0.933334818886E+02    0.14556E-01   -0.88235E-02 14377   0.148E+00    0.378E-01
DAV:  12    -0.933295200930E+02    0.39618E-02   -0.22067E-02 16502   0.545E-01    0.111E-01
DAV:  13    -0.933292011411E+02    0.31895E-03   -0.22820E-03 16137   0.195E-01    0.546E-02
DAV:  14    -0.933284193688E+02    0.78177E-03   -0.18985E-03 16277   0.160E-01    0.454E-02
DAV:  15    -0.933287939289E+02   -0.37456E-03   -0.34879E-04 13264   0.889E-02    0.270E-02
DAV:  16    -0.933290285403E+02   -0.23461E-03   -0.34768E-04 16079   0.641E-02    0.149E-02
DAV:  17    -0.933291040288E+02   -0.75488E-04   -0.77688E-05 13954   0.358E-02    0.374E-03
DAV:  18    -0.933291163787E+02   -0.12350E-04   -0.92628E-06 12398   0.117E-02    0.194E-03
DAV:  19    -0.933291243678E+02   -0.79891E-05   -0.24403E-06  9007   0.595E-03    0.115E-03
DAV:  20    -0.933291250261E+02   -0.65835E-06   -0.48914E-07  8758   0.350E-03
   1 F= -.93329125E+02 E0= -.93329125E+02  d E =0.000000E+00
 writing wavefunctions
