<?xml version="1.0" encoding="ISO-8859-1"?>
<modeling>
 <generator>
  <i name="program" type="string">vasp </i>
  <i name="version" type="string">5.4.4.18Apr17-6-g9f103f2a35  </i>
  <i name="subversion" type="string">(build May 20 2018 16:52:39) complex            parallel </i>
  <i name="platform" type="string">LinuxIFC </i>
  <i name="date" type="string">2022 11 15 </i>
  <i name="time" type="string">15:16:17 </i>
 </generator>
 <incar>
  <i type="string" name="PREC">normal</i>
  <i name="EDIFF">      0.00000100</i>
  <i name="ENCUT">    600.00000000</i>
  <i type="int" name="ISMEAR">    -5</i>
  <v type="int" name="KPOINT_BSE">    -1     0     0     0</v>
 </incar>
 <structure name="primitive_cell" >
  <crystal>
   <varray name="basis" >
    <v>       3.16000000       0.00000000       0.00000000 </v>
    <v>       0.00000000       3.16000000       0.00000000 </v>
    <v>       0.00000000       0.00000000      18.96000000 </v>
   </varray>
   <i name="volume">    189.32697600 </i>
   <varray name="rec_basis" >
    <v>       0.31645570       0.00000000       0.00000000 </v>
    <v>       0.00000000       0.31645570       0.00000000 </v>
    <v>       0.00000000       0.00000000       0.05274262 </v>
   </varray>
  </crystal>
  <varray name="positions" >
   <v>       0.00000000       0.00000000       0.00000000 </v>
   <v>      -0.50000000      -0.50000000       0.08333333 </v>
   <v>       0.00000000       0.00000000       0.16666667 </v>
   <v>      -0.50000000      -0.50000000       0.25000000 </v>
   <v>       0.00000000       0.00000000       0.33333333 </v>
   <v>      -0.50000000      -0.50000000       0.41666667 </v>
   <v>       0.00000000       0.00000000      -0.50000000 </v>
  </varray>
 </structure>
 <varray name="primitive_index" >
  <v type="int" >        1 </v>
  <v type="int" >        2 </v>
  <v type="int" >        3 </v>
  <v type="int" >        4 </v>
  <v type="int" >        5 </v>
  <v type="int" >        6 </v>
  <v type="int" >        7 </v>
 </varray>
 <kpoints>
  <generation param="Gamma">
   <v type="int" name="divisions">      20       20        4 </v>
   <v name="usershift">      0.00000000       0.00000000       0.00000000 </v>
   <v name="genvec1">      0.05000000       0.00000000       0.00000000 </v>
   <v name="genvec2">      0.00000000       0.05000000       0.00000000 </v>
   <v name="genvec3">      0.00000000       0.00000000       0.25000000 </v>
   <v name="shift">      0.00000000       0.00000000       0.00000000 </v>
  </generation>
  <varray name="kpointlist" >
   <v>       0.00000000       0.00000000       0.00000000 </v>
   <v>       0.05000000       0.00000000       0.00000000 </v>
   <v>       0.10000000       0.00000000       0.00000000 </v>
   <v>       0.15000000       0.00000000       0.00000000 </v>
   <v>       0.20000000       0.00000000       0.00000000 </v>
   <v>       0.25000000       0.00000000       0.00000000 </v>
   <v>       0.30000000       0.00000000       0.00000000 </v>
   <v>       0.35000000       0.00000000       0.00000000 </v>
   <v>       0.40000000       0.00000000       0.00000000 </v>
   <v>       0.45000000       0.00000000       0.00000000 </v>
   <v>       0.50000000       0.00000000       0.00000000 </v>
   <v>       0.05000000       0.05000000       0.00000000 </v>
   <v>       0.10000000       0.05000000       0.00000000 </v>
   <v>       0.15000000       0.05000000       0.00000000 </v>
   <v>       0.20000000       0.05000000       0.00000000 </v>
   <v>       0.25000000       0.05000000       0.00000000 </v>
   <v>       0.30000000       0.05000000       0.00000000 </v>
   <v>       0.35000000       0.05000000       0.00000000 </v>
   <v>       0.40000000       0.05000000       0.00000000 </v>
   <v>       0.45000000       0.05000000       0.00000000 </v>
   <v>       0.50000000       0.05000000       0.00000000 </v>
   <v>       0.10000000       0.10000000       0.00000000 </v>
   <v>       0.15000000       0.10000000       0.00000000 </v>
   <v>       0.20000000       0.10000000       0.00000000 </v>
   <v>       0.25000000       0.10000000       0.00000000 </v>
   <v>       0.30000000       0.10000000       0.00000000 </v>
   <v>       0.35000000       0.10000000       0.00000000 </v>
   <v>       0.40000000       0.10000000       0.00000000 </v>
   <v>       0.45000000       0.10000000       0.00000000 </v>
   <v>       0.50000000       0.10000000       0.00000000 </v>
   <v>       0.15000000       0.15000000       0.00000000 </v>
   <v>       0.20000000       0.15000000       0.00000000 </v>
   <v>       0.25000000       0.15000000       0.00000000 </v>
   <v>       0.30000000       0.15000000       0.00000000 </v>
   <v>       0.35000000       0.15000000       0.00000000 </v>
   <v>       0.40000000       0.15000000       0.00000000 </v>
   <v>       0.45000000       0.15000000       0.00000000 </v>
   <v>       0.50000000       0.15000000       0.00000000 </v>
   <v>       0.20000000       0.20000000       0.00000000 </v>
   <v>       0.25000000       0.20000000       0.00000000 </v>
   <v>       0.30000000       0.20000000       0.00000000 </v>
   <v>       0.35000000       0.20000000       0.00000000 </v>
   <v>       0.40000000       0.20000000       0.00000000 </v>
   <v>       0.45000000       0.20000000       0.00000000 </v>
   <v>       0.50000000       0.20000000       0.00000000 </v>
   <v>       0.25000000       0.25000000       0.00000000 </v>
   <v>       0.30000000       0.25000000       0.00000000 </v>
   <v>       0.35000000       0.25000000       0.00000000 </v>
   <v>       0.40000000       0.25000000       0.00000000 </v>
   <v>       0.45000000       0.25000000       0.00000000 </v>
   <v>       0.50000000       0.25000000       0.00000000 </v>
   <v>       0.30000000       0.30000000       0.00000000 </v>
   <v>       0.35000000       0.30000000       0.00000000 </v>
   <v>       0.40000000       0.30000000       0.00000000 </v>
   <v>       0.45000000       0.30000000       0.00000000 </v>
   <v>       0.50000000       0.30000000       0.00000000 </v>
   <v>       0.35000000       0.35000000       0.00000000 </v>
   <v>       0.40000000       0.35000000       0.00000000 </v>
   <v>       0.45000000       0.35000000       0.00000000 </v>
   <v>       0.50000000       0.35000000       0.00000000 </v>
   <v>       0.40000000       0.40000000       0.00000000 </v>
   <v>       0.45000000       0.40000000       0.00000000 </v>
   <v>       0.50000000       0.40000000       0.00000000 </v>
   <v>       0.45000000       0.45000000       0.00000000 </v>
   <v>       0.50000000       0.45000000       0.00000000 </v>
   <v>       0.50000000       0.50000000       0.00000000 </v>
   <v>       0.00000000       0.00000000       0.25000000 </v>
   <v>       0.05000000       0.00000000       0.25000000 </v>
   <v>       0.10000000       0.00000000       0.25000000 </v>
   <v>       0.15000000       0.00000000       0.25000000 </v>
   <v>       0.20000000       0.00000000       0.25000000 </v>
   <v>       0.25000000       0.00000000       0.25000000 </v>
   <v>       0.30000000       0.00000000       0.25000000 </v>
   <v>       0.35000000       0.00000000       0.25000000 </v>
   <v>       0.40000000       0.00000000       0.25000000 </v>
   <v>       0.45000000       0.00000000       0.25000000 </v>
   <v>       0.50000000       0.00000000       0.25000000 </v>
   <v>       0.05000000       0.05000000       0.25000000 </v>
   <v>       0.10000000       0.05000000       0.25000000 </v>
   <v>       0.15000000       0.05000000       0.25000000 </v>
   <v>       0.20000000       0.05000000       0.25000000 </v>
   <v>       0.25000000       0.05000000       0.25000000 </v>
   <v>       0.30000000       0.05000000       0.25000000 </v>
   <v>       0.35000000       0.05000000       0.25000000 </v>
   <v>       0.40000000       0.05000000       0.25000000 </v>
   <v>       0.45000000       0.05000000       0.25000000 </v>
   <v>       0.50000000       0.05000000       0.25000000 </v>
   <v>       0.10000000       0.10000000       0.25000000 </v>
   <v>       0.15000000       0.10000000       0.25000000 </v>
   <v>       0.20000000       0.10000000       0.25000000 </v>
   <v>       0.25000000       0.10000000       0.25000000 </v>
   <v>       0.30000000       0.10000000       0.25000000 </v>
   <v>       0.35000000       0.10000000       0.25000000 </v>
   <v>       0.40000000       0.10000000       0.25000000 </v>
   <v>       0.45000000       0.10000000       0.25000000 </v>
   <v>       0.50000000       0.10000000       0.25000000 </v>
   <v>       0.15000000       0.15000000       0.25000000 </v>
   <v>       0.20000000       0.15000000       0.25000000 </v>
   <v>       0.25000000       0.15000000       0.25000000 </v>
   <v>       0.30000000       0.15000000       0.25000000 </v>
   <v>       0.35000000       0.15000000       0.25000000 </v>
   <v>       0.40000000       0.15000000       0.25000000 </v>
   <v>       0.45000000       0.15000000       0.25000000 </v>
   <v>       0.50000000       0.15000000       0.25000000 </v>
   <v>       0.20000000       0.20000000       0.25000000 </v>
   <v>       0.25000000       0.20000000       0.25000000 </v>
   <v>       0.30000000       0.20000000       0.25000000 </v>
   <v>       0.35000000       0.20000000       0.25000000 </v>
   <v>       0.40000000       0.20000000       0.25000000 </v>
   <v>       0.45000000       0.20000000       0.25000000 </v>
   <v>       0.50000000       0.20000000       0.25000000 </v>
   <v>       0.25000000       0.25000000       0.25000000 </v>
   <v>       0.30000000       0.25000000       0.25000000 </v>
   <v>       0.35000000       0.25000000       0.25000000 </v>
   <v>       0.40000000       0.25000000       0.25000000 </v>
   <v>       0.45000000       0.25000000       0.25000000 </v>
   <v>       0.50000000       0.25000000       0.25000000 </v>
   <v>       0.30000000       0.30000000       0.25000000 </v>
   <v>       0.35000000       0.30000000       0.25000000 </v>
   <v>       0.40000000       0.30000000       0.25000000 </v>
   <v>       0.45000000       0.30000000       0.25000000 </v>
   <v>       0.50000000       0.30000000       0.25000000 </v>
   <v>       0.35000000       0.35000000       0.25000000 </v>
   <v>       0.40000000       0.35000000       0.25000000 </v>
   <v>       0.45000000       0.35000000       0.25000000 </v>
   <v>       0.50000000       0.35000000       0.25000000 </v>
   <v>       0.40000000       0.40000000       0.25000000 </v>
   <v>       0.45000000       0.40000000       0.25000000 </v>
   <v>       0.50000000       0.40000000       0.25000000 </v>
   <v>       0.45000000       0.45000000       0.25000000 </v>
   <v>       0.50000000       0.45000000       0.25000000 </v>
   <v>       0.50000000       0.50000000       0.25000000 </v>
   <v>       0.00000000       0.00000000       0.50000000 </v>
   <v>       0.05000000       0.00000000       0.50000000 </v>
   <v>       0.10000000       0.00000000       0.50000000 </v>
   <v>       0.15000000       0.00000000       0.50000000 </v>
   <v>       0.20000000       0.00000000       0.50000000 </v>
   <v>       0.25000000       0.00000000       0.50000000 </v>
   <v>       0.30000000       0.00000000       0.50000000 </v>
   <v>       0.35000000       0.00000000       0.50000000 </v>
   <v>       0.40000000       0.00000000       0.50000000 </v>
   <v>       0.45000000       0.00000000       0.50000000 </v>
   <v>       0.50000000       0.00000000       0.50000000 </v>
   <v>       0.05000000       0.05000000       0.50000000 </v>
   <v>       0.10000000       0.05000000       0.50000000 </v>
   <v>       0.15000000       0.05000000       0.50000000 </v>
   <v>       0.20000000       0.05000000       0.50000000 </v>
   <v>       0.25000000       0.05000000       0.50000000 </v>
   <v>       0.30000000       0.05000000       0.50000000 </v>
   <v>       0.35000000       0.05000000       0.50000000 </v>
   <v>       0.40000000       0.05000000       0.50000000 </v>
   <v>       0.45000000       0.05000000       0.50000000 </v>
   <v>       0.50000000       0.05000000       0.50000000 </v>
   <v>       0.10000000       0.10000000       0.50000000 </v>
   <v>       0.15000000       0.10000000       0.50000000 </v>
   <v>       0.20000000       0.10000000       0.50000000 </v>
   <v>       0.25000000       0.10000000       0.50000000 </v>
   <v>       0.30000000       0.10000000       0.50000000 </v>
   <v>       0.35000000       0.10000000       0.50000000 </v>
   <v>       0.40000000       0.10000000       0.50000000 </v>
   <v>       0.45000000       0.10000000       0.50000000 </v>
   <v>       0.50000000       0.10000000       0.50000000 </v>
   <v>       0.15000000       0.15000000       0.50000000 </v>
   <v>       0.20000000       0.15000000       0.50000000 </v>
   <v>       0.25000000       0.15000000       0.50000000 </v>
   <v>       0.30000000       0.15000000       0.50000000 </v>
   <v>       0.35000000       0.15000000       0.50000000 </v>
   <v>       0.40000000       0.15000000       0.50000000 </v>
   <v>       0.45000000       0.15000000       0.50000000 </v>
   <v>       0.50000000       0.15000000       0.50000000 </v>
   <v>       0.20000000       0.20000000       0.50000000 </v>
   <v>       0.25000000       0.20000000       0.50000000 </v>
   <v>       0.30000000       0.20000000       0.50000000 </v>
   <v>       0.35000000       0.20000000       0.50000000 </v>
   <v>       0.40000000       0.20000000       0.50000000 </v>
   <v>       0.45000000       0.20000000       0.50000000 </v>
   <v>       0.50000000       0.20000000       0.50000000 </v>
   <v>       0.25000000       0.25000000       0.50000000 </v>
   <v>       0.30000000       0.25000000       0.50000000 </v>
   <v>       0.35000000       0.25000000       0.50000000 </v>
   <v>       0.40000000       0.25000000       0.50000000 </v>
   <v>       0.45000000       0.25000000       0.50000000 </v>
   <v>       0.50000000       0.25000000       0.50000000 </v>
   <v>       0.30000000       0.30000000       0.50000000 </v>
   <v>       0.35000000       0.30000000       0.50000000 </v>
   <v>       0.40000000       0.30000000       0.50000000 </v>
   <v>       0.45000000       0.30000000       0.50000000 </v>
   <v>       0.50000000       0.30000000       0.50000000 </v>
   <v>       0.35000000       0.35000000       0.50000000 </v>
   <v>       0.40000000       0.35000000       0.50000000 </v>
   <v>       0.45000000       0.35000000       0.50000000 </v>
   <v>       0.50000000       0.35000000       0.50000000 </v>
   <v>       0.40000000       0.40000000       0.50000000 </v>
   <v>       0.45000000       0.40000000       0.50000000 </v>
   <v>       0.50000000       0.40000000       0.50000000 </v>
   <v>       0.45000000       0.45000000       0.50000000 </v>
   <v>       0.50000000       0.45000000       0.50000000 </v>
   <v>       0.50000000       0.50000000       0.50000000 </v>
  </varray>
  <varray name="weights" >
   <v>       0.00062500 </v>
   <v>       0.00250000 </v>
   <v>       0.00250000 </v>
   <v>       0.00250000 </v>
   <v>       0.00250000 </v>
   <v>       0.00250000 </v>
   <v>       0.00250000 </v>
   <v>       0.00250000 </v>
   <v>       0.00250000 </v>
   <v>       0.00250000 </v>
   <v>       0.00125000 </v>
   <v>       0.00250000 </v>
   <v>       0.00500000 </v>
   <v>       0.00500000 </v>
   <v>       0.00500000 </v>
   <v>       0.00500000 </v>
   <v>       0.00500000 </v>
   <v>       0.00500000 </v>
   <v>       0.00500000 </v>
   <v>       0.00500000 </v>
   <v>       0.00250000 </v>
   <v>       0.00250000 </v>
   <v>       0.00500000 </v>
   <v>       0.00500000 </v>
   <v>       0.00500000 </v>
   <v>       0.00500000 </v>
   <v>       0.00500000 </v>
   <v>       0.00500000 </v>
   <v>       0.00500000 </v>
   <v>       0.00250000 </v>
   <v>       0.00250000 </v>
   <v>       0.00500000 </v>
   <v>       0.00500000 </v>
   <v>       0.00500000 </v>
   <v>       0.00500000 </v>
   <v>       0.00500000 </v>
   <v>       0.00500000 </v>
   <v>       0.00250000 </v>
   <v>       0.00250000 </v>
   <v>       0.00500000 </v>
   <v>       0.00500000 </v>
   <v>       0.00500000 </v>
   <v>       0.00500000 </v>
   <v>       0.00500000 </v>
   <v>       0.00250000 </v>
   <v>       0.00250000 </v>
   <v>       0.00500000 </v>
   <v>       0.00500000 </v>
   <v>       0.00500000 </v>
   <v>       0.00500000 </v>
   <v>       0.00250000 </v>
   <v>       0.00250000 </v>
   <v>       0.00500000 </v>
   <v>       0.00500000 </v>
   <v>       0.00500000 </v>
   <v>       0.00250000 </v>
   <v>       0.00250000 </v>
   <v>       0.00500000 </v>
   <v>       0.00500000 </v>
   <v>       0.00250000 </v>
   <v>       0.00250000 </v>
   <v>       0.00500000 </v>
   <v>       0.00250000 </v>
   <v>       0.00250000 </v>
   <v>       0.00250000 </v>
   <v>       0.00062500 </v>
   <v>       0.00125000 </v>
   <v>       0.00500000 </v>
   <v>       0.00500000 </v>
   <v>       0.00500000 </v>
   <v>       0.00500000 </v>
   <v>       0.00500000 </v>
   <v>       0.00500000 </v>
   <v>       0.00500000 </v>
   <v>       0.00500000 </v>
   <v>       0.00500000 </v>
   <v>       0.00250000 </v>
   <v>       0.00500000 </v>
   <v>       0.01000000 </v>
   <v>       0.01000000 </v>
   <v>       0.01000000 </v>
   <v>       0.01000000 </v>
   <v>       0.01000000 </v>
   <v>       0.01000000 </v>
   <v>       0.01000000 </v>
   <v>       0.01000000 </v>
   <v>       0.00500000 </v>
   <v>       0.00500000 </v>
   <v>       0.01000000 </v>
   <v>       0.01000000 </v>
   <v>       0.01000000 </v>
   <v>       0.01000000 </v>
   <v>       0.01000000 </v>
   <v>       0.01000000 </v>
   <v>       0.01000000 </v>
   <v>       0.00500000 </v>
   <v>       0.00500000 </v>
   <v>       0.01000000 </v>
   <v>       0.01000000 </v>
   <v>       0.01000000 </v>
   <v>       0.01000000 </v>
   <v>       0.01000000 </v>
   <v>       0.01000000 </v>
   <v>       0.00500000 </v>
   <v>       0.00500000 </v>
   <v>       0.01000000 </v>
   <v>       0.01000000 </v>
   <v>       0.01000000 </v>
   <v>       0.01000000 </v>
   <v>       0.01000000 </v>
   <v>       0.00500000 </v>
   <v>       0.00500000 </v>
   <v>       0.01000000 </v>
   <v>       0.01000000 </v>
   <v>       0.01000000 </v>
   <v>       0.01000000 </v>
   <v>       0.00500000 </v>
   <v>       0.00500000 </v>
   <v>       0.01000000 </v>
   <v>       0.01000000 </v>
   <v>       0.01000000 </v>
   <v>       0.00500000 </v>
   <v>       0.00500000 </v>
   <v>       0.01000000 </v>
   <v>       0.01000000 </v>
   <v>       0.00500000 </v>
   <v>       0.00500000 </v>
   <v>       0.01000000 </v>
   <v>       0.00500000 </v>
   <v>       0.00500000 </v>
   <v>       0.00500000 </v>
   <v>       0.00125000 </v>
   <v>       0.00062500 </v>
   <v>       0.00250000 </v>
   <v>       0.00250000 </v>
   <v>       0.00250000 </v>
   <v>       0.00250000 </v>
   <v>       0.00250000 </v>
   <v>       0.00250000 </v>
   <v>       0.00250000 </v>
   <v>       0.00250000 </v>
   <v>       0.00250000 </v>
   <v>       0.00125000 </v>
   <v>       0.00250000 </v>
   <v>       0.00500000 </v>
   <v>       0.00500000 </v>
   <v>       0.00500000 </v>
   <v>       0.00500000 </v>
   <v>       0.00500000 </v>
   <v>       0.00500000 </v>
   <v>       0.00500000 </v>
   <v>       0.00500000 </v>
   <v>       0.00250000 </v>
   <v>       0.00250000 </v>
   <v>       0.00500000 </v>
   <v>       0.00500000 </v>
   <v>       0.00500000 </v>
   <v>       0.00500000 </v>
   <v>       0.00500000 </v>
   <v>       0.00500000 </v>
   <v>       0.00500000 </v>
   <v>       0.00250000 </v>
   <v>       0.00250000 </v>
   <v>       0.00500000 </v>
   <v>       0.00500000 </v>
   <v>       0.00500000 </v>
   <v>       0.00500000 </v>
   <v>       0.00500000 </v>
   <v>       0.00500000 </v>
   <v>       0.00250000 </v>
   <v>       0.00250000 </v>
   <v>       0.00500000 </v>
   <v>       0.00500000 </v>
   <v>       0.00500000 </v>
   <v>       0.00500000 </v>
   <v>       0.00500000 </v>
   <v>       0.00250000 </v>
   <v>       0.00250000 </v>
   <v>       0.00500000 </v>
   <v>       0.00500000 </v>
   <v>       0.00500000 </v>
   <v>       0.00500000 </v>
   <v>       0.00250000 </v>
   <v>       0.00250000 </v>
   <v>       0.00500000 </v>
   <v>       0.00500000 </v>
   <v>       0.00500000 </v>
   <v>       0.00250000 </v>
   <v>       0.00250000 </v>
   <v>       0.00500000 </v>
   <v>       0.00500000 </v>
   <v>       0.00250000 </v>
   <v>       0.00250000 </v>
   <v>       0.00500000 </v>
   <v>       0.00250000 </v>
   <v>       0.00250000 </v>
   <v>       0.00250000 </v>
   <v>       0.00062500 </v>
  </varray>
  <varray name="tetrahedronlist"  type="int" >
   <v type="int" >        4        1        2       12       67 </v>
   <v type="int" >        4        2       12       67       68 </v>
   <v type="int" >        4       12       67       68       78 </v>
   <v type="int" >        4        2        3       13       68 </v>
   <v type="int" >        4        2       12       13       68 </v>
   <v type="int" >        4       12       13       68       78 </v>
   <v type="int" >        4        3       13       68       69 </v>
   <v type="int" >        4       13       68       69       79 </v>
   <v type="int" >        4       13       68       78       79 </v>
   <v type="int" >        4        3        4       14       69 </v>
   <v type="int" >        4        3       13       14       69 </v>
   <v type="int" >        4       13       14       69       79 </v>
   <v type="int" >        4        4       14       69       70 </v>
   <v type="int" >        4       14       69       70       80 </v>
   <v type="int" >        4       14       69       79       80 </v>
   <v type="int" >        4        4        5       15       70 </v>
   <v type="int" >        4        4       14       15       70 </v>
   <v type="int" >        4       14       15       70       80 </v>
   <v type="int" >        4        5       15       70       71 </v>
   <v type="int" >        4       15       70       71       81 </v>
   <v type="int" >        4       15       70       80       81 </v>
   <v type="int" >        4        5        6       16       71 </v>
   <v type="int" >        4        5       15       16       71 </v>
   <v type="int" >        4       15       16       71       81 </v>
   <v type="int" >        4        6       16       71       72 </v>
   <v type="int" >        4       16       71       72       82 </v>
   <v type="int" >        4       16       71       81       82 </v>
   <v type="int" >        4        6        7       17       72 </v>
   <v type="int" >        4        6       16       17       72 </v>
   <v type="int" >        4       16       17       72       82 </v>
   <v type="int" >        4        7       17       72       73 </v>
   <v type="int" >        4       17       72       73       83 </v>
   <v type="int" >        4       17       72       82       83 </v>
   <v type="int" >        4        7        8       18       73 </v>
   <v type="int" >        4        7       17       18       73 </v>
   <v type="int" >        4       17       18       73       83 </v>
   <v type="int" >        4        8       18       73       74 </v>
   <v type="int" >        4       18       73       74       84 </v>
   <v type="int" >        4       18       73       83       84 </v>
   <v type="int" >        4        8        9       19       74 </v>
   <v type="int" >        4        8       18       19       74 </v>
   <v type="int" >        4       18       19       74       84 </v>
   <v type="int" >        4        9       19       74       75 </v>
   <v type="int" >        4       19       74       75       85 </v>
   <v type="int" >        4       19       74       84       85 </v>
   <v type="int" >        4        9       10       20       75 </v>
   <v type="int" >        4        9       19       20       75 </v>
   <v type="int" >        4       19       20       75       85 </v>
   <v type="int" >        4       10       20       75       76 </v>
   <v type="int" >        4       20       75       76       86 </v>
   <v type="int" >        4       20       75       85       86 </v>
   <v type="int" >        4       10       11       21       76 </v>
   <v type="int" >        4       10       20       21       76 </v>
   <v type="int" >        4       20       21       76       86 </v>
   <v type="int" >        4       11       21       76       77 </v>
   <v type="int" >        4       21       76       77       87 </v>
   <v type="int" >        4       21       76       86       87 </v>
   <v type="int" >        4       10       11       20       77 </v>
   <v type="int" >        4       11       20       21       77 </v>
   <v type="int" >        4       20       21       77       87 </v>
   <v type="int" >        4       10       20       76       77 </v>
   <v type="int" >        4       20       76       77       86 </v>
   <v type="int" >        4       20       77       86       87 </v>
   <v type="int" >        4        9       10       19       76 </v>
   <v type="int" >        4       10       19       20       76 </v>
   <v type="int" >        4       19       20       76       86 </v>
   <v type="int" >        4        9       19       75       76 </v>
   <v type="int" >        4       19       75       76       85 </v>
   <v type="int" >        4       19       76       85       86 </v>
   <v type="int" >        4        8        9       18       75 </v>
   <v type="int" >        4        9       18       19       75 </v>
   <v type="int" >        4       18       19       75       85 </v>
   <v type="int" >        4        8       18       74       75 </v>
   <v type="int" >        4       18       74       75       84 </v>
   <v type="int" >        4       18       75       84       85 </v>
   <v type="int" >        4        7        8       17       74 </v>
   <v type="int" >        4        8       17       18       74 </v>
   <v type="int" >        4       17       18       74       84 </v>
   <v type="int" >        4        7       17       73       74 </v>
   <v type="int" >        4       17       73       74       83 </v>
   <v type="int" >        4       17       74       83       84 </v>
   <v type="int" >        4        6        7       16       73 </v>
   <v type="int" >        4        7       16       17       73 </v>
   <v type="int" >        4       16       17       73       83 </v>
   <v type="int" >        4        6       16       72       73 </v>
   <v type="int" >        4       16       72       73       82 </v>
   <v type="int" >        4       16       73       82       83 </v>
   <v type="int" >        4        5        6       15       72 </v>
   <v type="int" >        4        6       15       16       72 </v>
   <v type="int" >        4       15       16       72       82 </v>
   <v type="int" >        4        5       15       71       72 </v>
   <v type="int" >        4       15       71       72       81 </v>
   <v type="int" >        4       15       72       81       82 </v>
   <v type="int" >        4        4        5       14       71 </v>
   <v type="int" >        4        5       14       15       71 </v>
   <v type="int" >        4       14       15       71       81 </v>
   <v type="int" >        4        4       14       70       71 </v>
   <v type="int" >        4       14       70       71       80 </v>
   <v type="int" >        4       14       71       80       81 </v>
   <v type="int" >        4        3        4       13       70 </v>
   <v type="int" >        4        4       13       14       70 </v>
   <v type="int" >        4       13       14       70       80 </v>
   <v type="int" >        4        3       13       69       70 </v>
   <v type="int" >        4       13       69       70       79 </v>
   <v type="int" >        4       13       70       79       80 </v>
   <v type="int" >        4        2        3       12       69 </v>
   <v type="int" >        4        3       12       13       69 </v>
   <v type="int" >        4       12       13       69       79 </v>
   <v type="int" >        4        2       12       68       69 </v>
   <v type="int" >        4       12       68       69       78 </v>
   <v type="int" >        4       12       69       78       79 </v>
   <v type="int" >        4        1        2        2       68 </v>
   <v type="int" >        4        2        2       12       68 </v>
   <v type="int" >        4        2       12       68       78 </v>
   <v type="int" >        4        1        2       67       68 </v>
   <v type="int" >        4        2       67       68       68 </v>
   <v type="int" >        4        2       68       68       78 </v>
   <v type="int" >        4       12       13       22       78 </v>
   <v type="int" >        4       13       22       78       79 </v>
   <v type="int" >        4       22       78       79       88 </v>
   <v type="int" >        4       13       14       23       79 </v>
   <v type="int" >        4       13       22       23       79 </v>
   <v type="int" >        4       22       23       79       88 </v>
   <v type="int" >        4       14       23       79       80 </v>
   <v type="int" >        4       23       79       80       89 </v>
   <v type="int" >        4       23       79       88       89 </v>
   <v type="int" >        4       14       15       24       80 </v>
   <v type="int" >        4       14       23       24       80 </v>
   <v type="int" >        4       23       24       80       89 </v>
   <v type="int" >        4       15       24       80       81 </v>
   <v type="int" >        4       24       80       81       90 </v>
   <v type="int" >        4       24       80       89       90 </v>
   <v type="int" >        4       15       16       25       81 </v>
   <v type="int" >        4       15       24       25       81 </v>
   <v type="int" >        4       24       25       81       90 </v>
   <v type="int" >        4       16       25       81       82 </v>
   <v type="int" >        4       25       81       82       91 </v>
   <v type="int" >        4       25       81       90       91 </v>
   <v type="int" >        4       16       17       26       82 </v>
   <v type="int" >        4       16       25       26       82 </v>
   <v type="int" >        4       25       26       82       91 </v>
   <v type="int" >        4       17       26       82       83 </v>
   <v type="int" >        4       26       82       83       92 </v>
   <v type="int" >        4       26       82       91       92 </v>
   <v type="int" >        4       17       18       27       83 </v>
   <v type="int" >        4       17       26       27       83 </v>
   <v type="int" >        4       26       27       83       92 </v>
   <v type="int" >        4       18       27       83       84 </v>
   <v type="int" >        4       27       83       84       93 </v>
   <v type="int" >        4       27       83       92       93 </v>
   <v type="int" >        4       18       19       28       84 </v>
   <v type="int" >        4       18       27       28       84 </v>
   <v type="int" >        4       27       28       84       93 </v>
   <v type="int" >        4       19       28       84       85 </v>
   <v type="int" >        4       28       84       85       94 </v>
   <v type="int" >        4       28       84       93       94 </v>
   <v type="int" >        4       19       20       29       85 </v>
   <v type="int" >        4       19       28       29       85 </v>
   <v type="int" >        4       28       29       85       94 </v>
   <v type="int" >        4       20       29       85       86 </v>
   <v type="int" >        4       29       85       86       95 </v>
   <v type="int" >        4       29       85       94       95 </v>
   <v type="int" >        4       20       21       30       86 </v>
   <v type="int" >        4       20       29       30       86 </v>
   <v type="int" >        4       29       30       86       95 </v>
   <v type="int" >        4       21       30       86       87 </v>
   <v type="int" >        4       30       86       87       96 </v>
   <v type="int" >        4       30       86       95       96 </v>
   <v type="int" >        4       20       21       29       87 </v>
   <v type="int" >        4       21       29       30       87 </v>
   <v type="int" >        4       29       30       87       96 </v>
   <v type="int" >        4       20       29       86       87 </v>
   <v type="int" >        4       29       86       87       95 </v>
   <v type="int" >        4       29       87       95       96 </v>
   <v type="int" >        4       19       20       28       86 </v>
   <v type="int" >        4       20       28       29       86 </v>
   <v type="int" >        4       28       29       86       95 </v>
   <v type="int" >        4       19       28       85       86 </v>
   <v type="int" >        4       28       85       86       94 </v>
   <v type="int" >        4       28       86       94       95 </v>
   <v type="int" >        4       18       19       27       85 </v>
   <v type="int" >        4       19       27       28       85 </v>
   <v type="int" >        4       27       28       85       94 </v>
   <v type="int" >        4       18       27       84       85 </v>
   <v type="int" >        4       27       84       85       93 </v>
   <v type="int" >        4       27       85       93       94 </v>
   <v type="int" >        4       17       18       26       84 </v>
   <v type="int" >        4       18       26       27       84 </v>
   <v type="int" >        4       26       27       84       93 </v>
   <v type="int" >        4       17       26       83       84 </v>
   <v type="int" >        4       26       83       84       92 </v>
   <v type="int" >        4       26       84       92       93 </v>
   <v type="int" >        4       16       17       25       83 </v>
   <v type="int" >        4       17       25       26       83 </v>
   <v type="int" >        4       25       26       83       92 </v>
   <v type="int" >        4       16       25       82       83 </v>
   <v type="int" >        4       25       82       83       91 </v>
   <v type="int" >        4       25       83       91       92 </v>
   <v type="int" >        4       15       16       24       82 </v>
   <v type="int" >        4       16       24       25       82 </v>
   <v type="int" >        4       24       25       82       91 </v>
   <v type="int" >        4       15       24       81       82 </v>
   <v type="int" >        4       24       81       82       90 </v>
   <v type="int" >        4       24       82       90       91 </v>
   <v type="int" >        4       14       15       23       81 </v>
   <v type="int" >        4       15       23       24       81 </v>
   <v type="int" >        4       23       24       81       90 </v>
   <v type="int" >        4       14       23       80       81 </v>
   <v type="int" >        4       23       80       81       89 </v>
   <v type="int" >        4       23       81       89       90 </v>
   <v type="int" >        4       13       14       22       80 </v>
   <v type="int" >        4       14       22       23       80 </v>
   <v type="int" >        4       22       23       80       89 </v>
   <v type="int" >        4       13       22       79       80 </v>
   <v type="int" >        4       22       79       80       88 </v>
   <v type="int" >        4       22       80       88       89 </v>
   <v type="int" >        4       12       13       13       79 </v>
   <v type="int" >        4       13       13       22       79 </v>
   <v type="int" >        4       13       22       79       88 </v>
   <v type="int" >        4       12       13       78       79 </v>
   <v type="int" >        4       13       78       79       79 </v>
   <v type="int" >        4       13       79       79       88 </v>
   <v type="int" >        4        2        3       12       78 </v>
   <v type="int" >        4        3       12       13       78 </v>
   <v type="int" >        4        3       13       78       79 </v>
   <v type="int" >        4        2        3       68       78 </v>
   <v type="int" >        4        3       68       69       78 </v>
   <v type="int" >        4        3       69       78       79 </v>
   <v type="int" >        4       22       23       31       88 </v>
   <v type="int" >        4       23       31       88       89 </v>
   <v type="int" >        4       31       88       89       97 </v>
   <v type="int" >        4       23       24       32       89 </v>
   <v type="int" >        4       23       31       32       89 </v>
   <v type="int" >        4       31       32       89       97 </v>
   <v type="int" >        4       24       32       89       90 </v>
   <v type="int" >        4       32       89       90       98 </v>
   <v type="int" >        4       32       89       97       98 </v>
   <v type="int" >        4       24       25       33       90 </v>
   <v type="int" >        4       24       32       33       90 </v>
   <v type="int" >        4       32       33       90       98 </v>
   <v type="int" >        4       25       33       90       91 </v>
   <v type="int" >        4       33       90       91       99 </v>
   <v type="int" >        4       33       90       98       99 </v>
   <v type="int" >        4       25       26       34       91 </v>
   <v type="int" >        4       25       33       34       91 </v>
   <v type="int" >        4       33       34       91       99 </v>
   <v type="int" >        4       26       34       91       92 </v>
   <v type="int" >        4       34       91       92      100 </v>
   <v type="int" >        4       34       91       99      100 </v>
   <v type="int" >        4       26       27       35       92 </v>
   <v type="int" >        4       26       34       35       92 </v>
   <v type="int" >        4       34       35       92      100 </v>
   <v type="int" >        4       27       35       92       93 </v>
   <v type="int" >        4       35       92       93      101 </v>
   <v type="int" >        4       35       92      100      101 </v>
   <v type="int" >        4       27       28       36       93 </v>
   <v type="int" >        4       27       35       36       93 </v>
   <v type="int" >        4       35       36       93      101 </v>
   <v type="int" >        4       28       36       93       94 </v>
   <v type="int" >        4       36       93       94      102 </v>
   <v type="int" >        4       36       93      101      102 </v>
   <v type="int" >        4       28       29       37       94 </v>
   <v type="int" >        4       28       36       37       94 </v>
   <v type="int" >        4       36       37       94      102 </v>
   <v type="int" >        4       29       37       94       95 </v>
   <v type="int" >        4       37       94       95      103 </v>
   <v type="int" >        4       37       94      102      103 </v>
   <v type="int" >        4       29       30       38       95 </v>
   <v type="int" >        4       29       37       38       95 </v>
   <v type="int" >        4       37       38       95      103 </v>
   <v type="int" >        4       30       38       95       96 </v>
   <v type="int" >        4       38       95       96      104 </v>
   <v type="int" >        4       38       95      103      104 </v>
   <v type="int" >        4       29       30       37       96 </v>
   <v type="int" >        4       30       37       38       96 </v>
   <v type="int" >        4       37       38       96      104 </v>
   <v type="int" >        4       29       37       95       96 </v>
   <v type="int" >        4       37       95       96      103 </v>
   <v type="int" >        4       37       96      103      104 </v>
   <v type="int" >        4       28       29       36       95 </v>
   <v type="int" >        4       29       36       37       95 </v>
   <v type="int" >        4       36       37       95      103 </v>
   <v type="int" >        4       28       36       94       95 </v>
   <v type="int" >        4       36       94       95      102 </v>
   <v type="int" >        4       36       95      102      103 </v>
   <v type="int" >        4       27       28       35       94 </v>
   <v type="int" >        4       28       35       36       94 </v>
   <v type="int" >        4       35       36       94      102 </v>
   <v type="int" >        4       27       35       93       94 </v>
   <v type="int" >        4       35       93       94      101 </v>
   <v type="int" >        4       35       94      101      102 </v>
   <v type="int" >        4       26       27       34       93 </v>
   <v type="int" >        4       27       34       35       93 </v>
   <v type="int" >        4       34       35       93      101 </v>
   <v type="int" >        4       26       34       92       93 </v>
   <v type="int" >        4       34       92       93      100 </v>
   <v type="int" >        4       34       93      100      101 </v>
   <v type="int" >        4       25       26       33       92 </v>
   <v type="int" >        4       26       33       34       92 </v>
   <v type="int" >        4       33       34       92      100 </v>
   <v type="int" >        4       25       33       91       92 </v>
   <v type="int" >        4       33       91       92       99 </v>
   <v type="int" >        4       33       92       99      100 </v>
   <v type="int" >        4       24       25       32       91 </v>
   <v type="int" >        4       25       32       33       91 </v>
   <v type="int" >        4       32       33       91       99 </v>
   <v type="int" >        4       24       32       90       91 </v>
   <v type="int" >        4       32       90       91       98 </v>
   <v type="int" >        4       32       91       98       99 </v>
   <v type="int" >        4       23       24       31       90 </v>
   <v type="int" >        4       24       31       32       90 </v>
   <v type="int" >        4       31       32       90       98 </v>
   <v type="int" >        4       23       31       89       90 </v>
   <v type="int" >        4       31       89       90       97 </v>
   <v type="int" >        4       31       90       97       98 </v>
   <v type="int" >        4       22       23       23       89 </v>
   <v type="int" >        4       23       23       31       89 </v>
   <v type="int" >        4       23       31       89       97 </v>
   <v type="int" >        4       22       23       88       89 </v>
   <v type="int" >        4       23       88       89       89 </v>
   <v type="int" >        4       23       89       89       97 </v>
   <v type="int" >        4       13       14       22       88 </v>
   <v type="int" >        4       14       22       23       88 </v>
   <v type="int" >        4       14       23       88       89 </v>
   <v type="int" >        4       13       14       79       88 </v>
   <v type="int" >        4       14       79       80       88 </v>
   <v type="int" >        4       14       80       88       89 </v>
   <v type="int" >        4        3        4       13       79 </v>
   <v type="int" >        4        4       13       14       79 </v>
   <v type="int" >        4        4       14       79       80 </v>
   <v type="int" >        4        3        4       69       79 </v>
   <v type="int" >        4        4       69       70       79 </v>
   <v type="int" >        4        4       70       79       80 </v>
   <v type="int" >        4       31       32       39       97 </v>
   <v type="int" >        4       32       39       97       98 </v>
   <v type="int" >        4       39       97       98      105 </v>
   <v type="int" >        4       32       33       40       98 </v>
   <v type="int" >        4       32       39       40       98 </v>
   <v type="int" >        4       39       40       98      105 </v>
   <v type="int" >        4       33       40       98       99 </v>
   <v type="int" >        4       40       98       99      106 </v>
   <v type="int" >        4       40       98      105      106 </v>
   <v type="int" >        4       33       34       41       99 </v>
   <v type="int" >        4       33       40       41       99 </v>
   <v type="int" >        4       40       41       99      106 </v>
   <v type="int" >        4       34       41       99      100 </v>
   <v type="int" >        4       41       99      100      107 </v>
   <v type="int" >        4       41       99      106      107 </v>
   <v type="int" >        4       34       35       42      100 </v>
   <v type="int" >        4       34       41       42      100 </v>
   <v type="int" >        4       41       42      100      107 </v>
   <v type="int" >        4       35       42      100      101 </v>
   <v type="int" >        4       42      100      101      108 </v>
   <v type="int" >        4       42      100      107      108 </v>
   <v type="int" >        4       35       36       43      101 </v>
   <v type="int" >        4       35       42       43      101 </v>
   <v type="int" >        4       42       43      101      108 </v>
   <v type="int" >        4       36       43      101      102 </v>
   <v type="int" >        4       43      101      102      109 </v>
   <v type="int" >        4       43      101      108      109 </v>
   <v type="int" >        4       36       37       44      102 </v>
   <v type="int" >        4       36       43       44      102 </v>
   <v type="int" >        4       43       44      102      109 </v>
   <v type="int" >        4       37       44      102      103 </v>
   <v type="int" >        4       44      102      103      110 </v>
   <v type="int" >        4       44      102      109      110 </v>
   <v type="int" >        4       37       38       45      103 </v>
   <v type="int" >        4       37       44       45      103 </v>
   <v type="int" >        4       44       45      103      110 </v>
   <v type="int" >        4       38       45      103      104 </v>
   <v type="int" >        4       45      103      104      111 </v>
   <v type="int" >        4       45      103      110      111 </v>
   <v type="int" >        4       37       38       44      104 </v>
   <v type="int" >        4       38       44       45      104 </v>
   <v type="int" >        4       44       45      104      111 </v>
   <v type="int" >        4       37       44      103      104 </v>
   <v type="int" >        4       44      103      104      110 </v>
   <v type="int" >        4       44      104      110      111 </v>
   <v type="int" >        4       36       37       43      103 </v>
   <v type="int" >        4       37       43       44      103 </v>
   <v type="int" >        4       43       44      103      110 </v>
   <v type="int" >        4       36       43      102      103 </v>
   <v type="int" >        4       43      102      103      109 </v>
   <v type="int" >        4       43      103      109      110 </v>
   <v type="int" >        4       35       36       42      102 </v>
   <v type="int" >        4       36       42       43      102 </v>
   <v type="int" >        4       42       43      102      109 </v>
   <v type="int" >        4       35       42      101      102 </v>
   <v type="int" >        4       42      101      102      108 </v>
   <v type="int" >        4       42      102      108      109 </v>
   <v type="int" >        4       34       35       41      101 </v>
   <v type="int" >        4       35       41       42      101 </v>
   <v type="int" >        4       41       42      101      108 </v>
   <v type="int" >        4       34       41      100      101 </v>
   <v type="int" >        4       41      100      101      107 </v>
   <v type="int" >        4       41      101      107      108 </v>
   <v type="int" >        4       33       34       40      100 </v>
   <v type="int" >        4       34       40       41      100 </v>
   <v type="int" >        4       40       41      100      107 </v>
   <v type="int" >        4       33       40       99      100 </v>
   <v type="int" >        4       40       99      100      106 </v>
   <v type="int" >        4       40      100      106      107 </v>
   <v type="int" >        4       32       33       39       99 </v>
   <v type="int" >        4       33       39       40       99 </v>
   <v type="int" >        4       39       40       99      106 </v>
   <v type="int" >        4       32       39       98       99 </v>
   <v type="int" >        4       39       98       99      105 </v>
   <v type="int" >        4       39       99      105      106 </v>
   <v type="int" >        4       31       32       32       98 </v>
   <v type="int" >        4       32       32       39       98 </v>
   <v type="int" >        4       32       39       98      105 </v>
   <v type="int" >        4       31       32       97       98 </v>
   <v type="int" >        4       32       97       98       98 </v>
   <v type="int" >        4       32       98       98      105 </v>
   <v type="int" >        4       23       24       31       97 </v>
   <v type="int" >        4       24       31       32       97 </v>
   <v type="int" >        4       24       32       97       98 </v>
   <v type="int" >        4       23       24       89       97 </v>
   <v type="int" >        4       24       89       90       97 </v>
   <v type="int" >        4       24       90       97       98 </v>
   <v type="int" >        4       14       15       23       89 </v>
   <v type="int" >        4       15       23       24       89 </v>
   <v type="int" >        4       15       24       89       90 </v>
   <v type="int" >        4       14       15       80       89 </v>
   <v type="int" >        4       15       80       81       89 </v>
   <v type="int" >        4       15       81       89       90 </v>
   <v type="int" >        4        4        5       14       80 </v>
   <v type="int" >        4        5       14       15       80 </v>
   <v type="int" >        4        5       15       80       81 </v>
   <v type="int" >        4        4        5       70       80 </v>
   <v type="int" >        4        5       70       71       80 </v>
   <v type="int" >        4        5       71       80       81 </v>
   <v type="int" >        4       39       40       46      105 </v>
   <v type="int" >        4       40       46      105      106 </v>
   <v type="int" >        4       46      105      106      112 </v>
   <v type="int" >        4       40       41       47      106 </v>
   <v type="int" >        4       40       46       47      106 </v>
   <v type="int" >        4       46       47      106      112 </v>
   <v type="int" >        4       41       47      106      107 </v>
   <v type="int" >        4       47      106      107      113 </v>
   <v type="int" >        4       47      106      112      113 </v>
   <v type="int" >        4       41       42       48      107 </v>
   <v type="int" >        4       41       47       48      107 </v>
   <v type="int" >        4       47       48      107      113 </v>
   <v type="int" >        4       42       48      107      108 </v>
   <v type="int" >        4       48      107      108      114 </v>
   <v type="int" >        4       48      107      113      114 </v>
   <v type="int" >        4       42       43       49      108 </v>
   <v type="int" >        4       42       48       49      108 </v>
   <v type="int" >        4       48       49      108      114 </v>
   <v type="int" >        4       43       49      108      109 </v>
   <v type="int" >        4       49      108      109      115 </v>
   <v type="int" >        4       49      108      114      115 </v>
   <v type="int" >        4       43       44       50      109 </v>
   <v type="int" >        4       43       49       50      109 </v>
   <v type="int" >        4       49       50      109      115 </v>
   <v type="int" >        4       44       50      109      110 </v>
   <v type="int" >        4       50      109      110      116 </v>
   <v type="int" >        4       50      109      115      116 </v>
   <v type="int" >        4       44       45       51      110 </v>
   <v type="int" >        4       44       50       51      110 </v>
   <v type="int" >        4       50       51      110      116 </v>
   <v type="int" >        4       45       51      110      111 </v>
   <v type="int" >        4       51      110      111      117 </v>
   <v type="int" >        4       51      110      116      117 </v>
   <v type="int" >        4       44       45       50      111 </v>
   <v type="int" >        4       45       50       51      111 </v>
   <v type="int" >        4       50       51      111      117 </v>
   <v type="int" >        4       44       50      110      111 </v>
   <v type="int" >        4       50      110      111      116 </v>
   <v type="int" >        4       50      111      116      117 </v>
   <v type="int" >        4       43       44       49      110 </v>
   <v type="int" >        4       44       49       50      110 </v>
   <v type="int" >        4       49       50      110      116 </v>
   <v type="int" >        4       43       49      109      110 </v>
   <v type="int" >        4       49      109      110      115 </v>
   <v type="int" >        4       49      110      115      116 </v>
   <v type="int" >        4       42       43       48      109 </v>
   <v type="int" >        4       43       48       49      109 </v>
   <v type="int" >        4       48       49      109      115 </v>
   <v type="int" >        4       42       48      108      109 </v>
   <v type="int" >        4       48      108      109      114 </v>
   <v type="int" >        4       48      109      114      115 </v>
   <v type="int" >        4       41       42       47      108 </v>
   <v type="int" >        4       42       47       48      108 </v>
   <v type="int" >        4       47       48      108      114 </v>
   <v type="int" >        4       41       47      107      108 </v>
   <v type="int" >        4       47      107      108      113 </v>
   <v type="int" >        4       47      108      113      114 </v>
   <v type="int" >        4       40       41       46      107 </v>
   <v type="int" >        4       41       46       47      107 </v>
   <v type="int" >        4       46       47      107      113 </v>
   <v type="int" >        4       40       46      106      107 </v>
   <v type="int" >        4       46      106      107      112 </v>
   <v type="int" >        4       46      107      112      113 </v>
   <v type="int" >        4       39       40       40      106 </v>
   <v type="int" >        4       40       40       46      106 </v>
   <v type="int" >        4       40       46      106      112 </v>
   <v type="int" >        4       39       40      105      106 </v>
   <v type="int" >        4       40      105      106      106 </v>
   <v type="int" >        4       40      106      106      112 </v>
   <v type="int" >        4       32       33       39      105 </v>
   <v type="int" >        4       33       39       40      105 </v>
   <v type="int" >        4       33       40      105      106 </v>
   <v type="int" >        4       32       33       98      105 </v>
   <v type="int" >        4       33       98       99      105 </v>
   <v type="int" >        4       33       99      105      106 </v>
   <v type="int" >        4       24       25       32       98 </v>
   <v type="int" >        4       25       32       33       98 </v>
   <v type="int" >        4       25       33       98       99 </v>
   <v type="int" >        4       24       25       90       98 </v>
   <v type="int" >        4       25       90       91       98 </v>
   <v type="int" >        4       25       91       98       99 </v>
   <v type="int" >        4       15       16       24       90 </v>
   <v type="int" >        4       16       24       25       90 </v>
   <v type="int" >        4       16       25       90       91 </v>
   <v type="int" >        4       15       16       81       90 </v>
   <v type="int" >        4       16       81       82       90 </v>
   <v type="int" >        4       16       82       90       91 </v>
   <v type="int" >        4        5        6       15       81 </v>
   <v type="int" >        4        6       15       16       81 </v>
   <v type="int" >        4        6       16       81       82 </v>
   <v type="int" >        4        5        6       71       81 </v>
   <v type="int" >        4        6       71       72       81 </v>
   <v type="int" >        4        6       72       81       82 </v>
   <v type="int" >        4       46       47       52      112 </v>
   <v type="int" >        4       47       52      112      113 </v>
   <v type="int" >        4       52      112      113      118 </v>
   <v type="int" >        4       47       48       53      113 </v>
   <v type="int" >        4       47       52       53      113 </v>
   <v type="int" >        4       52       53      113      118 </v>
   <v type="int" >        4       48       53      113      114 </v>
   <v type="int" >        4       53      113      114      119 </v>
   <v type="int" >        4       53      113      118      119 </v>
   <v type="int" >        4       48       49       54      114 </v>
   <v type="int" >        4       48       53       54      114 </v>
   <v type="int" >        4       53       54      114      119 </v>
   <v type="int" >        4       49       54      114      115 </v>
   <v type="int" >        4       54      114      115      120 </v>
   <v type="int" >        4       54      114      119      120 </v>
   <v type="int" >        4       49       50       55      115 </v>
   <v type="int" >        4       49       54       55      115 </v>
   <v type="int" >        4       54       55      115      120 </v>
   <v type="int" >        4       50       55      115      116 </v>
   <v type="int" >        4       55      115      116      121 </v>
   <v type="int" >        4       55      115      120      121 </v>
   <v type="int" >        4       50       51       56      116 </v>
   <v type="int" >        4       50       55       56      116 </v>
   <v type="int" >        4       55       56      116      121 </v>
   <v type="int" >        4       51       56      116      117 </v>
   <v type="int" >        4       56      116      117      122 </v>
   <v type="int" >        4       56      116      121      122 </v>
   <v type="int" >        4       50       51       55      117 </v>
   <v type="int" >        4       51       55       56      117 </v>
   <v type="int" >        4       55       56      117      122 </v>
   <v type="int" >        4       50       55      116      117 </v>
   <v type="int" >        4       55      116      117      121 </v>
   <v type="int" >        4       55      117      121      122 </v>
   <v type="int" >        4       49       50       54      116 </v>
   <v type="int" >        4       50       54       55      116 </v>
   <v type="int" >        4       54       55      116      121 </v>
   <v type="int" >        4       49       54      115      116 </v>
   <v type="int" >        4       54      115      116      120 </v>
   <v type="int" >        4       54      116      120      121 </v>
   <v type="int" >        4       48       49       53      115 </v>
   <v type="int" >        4       49       53       54      115 </v>
   <v type="int" >        4       53       54      115      120 </v>
   <v type="int" >        4       48       53      114      115 </v>
   <v type="int" >        4       53      114      115      119 </v>
   <v type="int" >        4       53      115      119      120 </v>
   <v type="int" >        4       47       48       52      114 </v>
   <v type="int" >        4       48       52       53      114 </v>
   <v type="int" >        4       52       53      114      119 </v>
   <v type="int" >        4       47       52      113      114 </v>
   <v type="int" >        4       52      113      114      118 </v>
   <v type="int" >        4       52      114      118      119 </v>
   <v type="int" >        4       46       47       47      113 </v>
   <v type="int" >        4       47       47       52      113 </v>
   <v type="int" >        4       47       52      113      118 </v>
   <v type="int" >        4       46       47      112      113 </v>
   <v type="int" >        4       47      112      113      113 </v>
   <v type="int" >        4       47      113      113      118 </v>
   <v type="int" >        4       40       41       46      112 </v>
   <v type="int" >        4       41       46       47      112 </v>
   <v type="int" >        4       41       47      112      113 </v>
   <v type="int" >        4       40       41      106      112 </v>
   <v type="int" >        4       41      106      107      112 </v>
   <v type="int" >        4       41      107      112      113 </v>
   <v type="int" >        4       33       34       40      106 </v>
   <v type="int" >        4       34       40       41      106 </v>
   <v type="int" >        4       34       41      106      107 </v>
   <v type="int" >        4       33       34       99      106 </v>
   <v type="int" >        4       34       99      100      106 </v>
   <v type="int" >        4       34      100      106      107 </v>
   <v type="int" >        4       25       26       33       99 </v>
   <v type="int" >        4       26       33       34       99 </v>
   <v type="int" >        4       26       34       99      100 </v>
   <v type="int" >        4       25       26       91       99 </v>
   <v type="int" >        4       26       91       92       99 </v>
   <v type="int" >        4       26       92       99      100 </v>
   <v type="int" >        4       16       17       25       91 </v>
   <v type="int" >        4       17       25       26       91 </v>
   <v type="int" >        4       17       26       91       92 </v>
   <v type="int" >        4       16       17       82       91 </v>
   <v type="int" >        4       17       82       83       91 </v>
   <v type="int" >        4       17       83       91       92 </v>
   <v type="int" >        4        6        7       16       82 </v>
   <v type="int" >        4        7       16       17       82 </v>
   <v type="int" >        4        7       17       82       83 </v>
   <v type="int" >        4        6        7       72       82 </v>
   <v type="int" >        4        7       72       73       82 </v>
   <v type="int" >        4        7       73       82       83 </v>
   <v type="int" >        4       52       53       57      118 </v>
   <v type="int" >        4       53       57      118      119 </v>
   <v type="int" >        4       57      118      119      123 </v>
   <v type="int" >        4       53       54       58      119 </v>
   <v type="int" >        4       53       57       58      119 </v>
   <v type="int" >        4       57       58      119      123 </v>
   <v type="int" >        4       54       58      119      120 </v>
   <v type="int" >        4       58      119      120      124 </v>
   <v type="int" >        4       58      119      123      124 </v>
   <v type="int" >        4       54       55       59      120 </v>
   <v type="int" >        4       54       58       59      120 </v>
   <v type="int" >        4       58       59      120      124 </v>
   <v type="int" >        4       55       59      120      121 </v>
   <v type="int" >        4       59      120      121      125 </v>
   <v type="int" >        4       59      120      124      125 </v>
   <v type="int" >        4       55       56       60      121 </v>
   <v type="int" >        4       55       59       60      121 </v>
   <v type="int" >        4       59       60      121      125 </v>
   <v type="int" >        4       56       60      121      122 </v>
   <v type="int" >        4       60      121      122      126 </v>
   <v type="int" >        4       60      121      125      126 </v>
   <v type="int" >        4       55       56       59      122 </v>
   <v type="int" >        4       56       59       60      122 </v>
   <v type="int" >        4       59       60      122      126 </v>
   <v type="int" >        4       55       59      121      122 </v>
   <v type="int" >        4       59      121      122      125 </v>
   <v type="int" >        4       59      122      125      126 </v>
   <v type="int" >        4       54       55       58      121 </v>
   <v type="int" >        4       55       58       59      121 </v>
   <v type="int" >        4       58       59      121      125 </v>
   <v type="int" >        4       54       58      120      121 </v>
   <v type="int" >        4       58      120      121      124 </v>
   <v type="int" >        4       58      121      124      125 </v>
   <v type="int" >        4       53       54       57      120 </v>
   <v type="int" >        4       54       57       58      120 </v>
   <v type="int" >        4       57       58      120      124 </v>
   <v type="int" >        4       53       57      119      120 </v>
   <v type="int" >        4       57      119      120      123 </v>
   <v type="int" >        4       57      120      123      124 </v>
   <v type="int" >        4       52       53       53      119 </v>
   <v type="int" >        4       53       53       57      119 </v>
   <v type="int" >        4       53       57      119      123 </v>
   <v type="int" >        4       52       53      118      119 </v>
   <v type="int" >        4       53      118      119      119 </v>
   <v type="int" >        4       53      119      119      123 </v>
   <v type="int" >        4       47       48       52      118 </v>
   <v type="int" >        4       48       52       53      118 </v>
   <v type="int" >        4       48       53      118      119 </v>
   <v type="int" >        4       47       48      113      118 </v>
   <v type="int" >        4       48      113      114      118 </v>
   <v type="int" >        4       48      114      118      119 </v>
   <v type="int" >        4       41       42       47      113 </v>
   <v type="int" >        4       42       47       48      113 </v>
   <v type="int" >        4       42       48      113      114 </v>
   <v type="int" >        4       41       42      107      113 </v>
   <v type="int" >        4       42      107      108      113 </v>
   <v type="int" >        4       42      108      113      114 </v>
   <v type="int" >        4       34       35       41      107 </v>
   <v type="int" >        4       35       41       42      107 </v>
   <v type="int" >        4       35       42      107      108 </v>
   <v type="int" >        4       34       35      100      107 </v>
   <v type="int" >        4       35      100      101      107 </v>
   <v type="int" >        4       35      101      107      108 </v>
   <v type="int" >        4       26       27       34      100 </v>
   <v type="int" >        4       27       34       35      100 </v>
   <v type="int" >        4       27       35      100      101 </v>
   <v type="int" >        4       26       27       92      100 </v>
   <v type="int" >        4       27       92       93      100 </v>
   <v type="int" >        4       27       93      100      101 </v>
   <v type="int" >        4       17       18       26       92 </v>
   <v type="int" >        4       18       26       27       92 </v>
   <v type="int" >        4       18       27       92       93 </v>
   <v type="int" >        4       17       18       83       92 </v>
   <v type="int" >        4       18       83       84       92 </v>
   <v type="int" >        4       18       84       92       93 </v>
   <v type="int" >        4        7        8       17       83 </v>
   <v type="int" >        4        8       17       18       83 </v>
   <v type="int" >        4        8       18       83       84 </v>
   <v type="int" >        4        7        8       73       83 </v>
   <v type="int" >        4        8       73       74       83 </v>
   <v type="int" >        4        8       74       83       84 </v>
   <v type="int" >        4       57       58       61      123 </v>
   <v type="int" >        4       58       61      123      124 </v>
   <v type="int" >        4       61      123      124      127 </v>
   <v type="int" >        4       58       59       62      124 </v>
   <v type="int" >        4       58       61       62      124 </v>
   <v type="int" >        4       61       62      124      127 </v>
   <v type="int" >        4       59       62      124      125 </v>
   <v type="int" >        4       62      124      125      128 </v>
   <v type="int" >        4       62      124      127      128 </v>
   <v type="int" >        4       59       60       63      125 </v>
   <v type="int" >        4       59       62       63      125 </v>
   <v type="int" >        4       62       63      125      128 </v>
   <v type="int" >        4       60       63      125      126 </v>
   <v type="int" >        4       63      125      126      129 </v>
   <v type="int" >        4       63      125      128      129 </v>
   <v type="int" >        4       59       60       62      126 </v>
   <v type="int" >        4       60       62       63      126 </v>
   <v type="int" >        4       62       63      126      129 </v>
   <v type="int" >        4       59       62      125      126 </v>
   <v type="int" >        4       62      125      126      128 </v>
   <v type="int" >        4       62      126      128      129 </v>
   <v type="int" >        4       58       59       61      125 </v>
   <v type="int" >        4       59       61       62      125 </v>
   <v type="int" >        4       61       62      125      128 </v>
   <v type="int" >        4       58       61      124      125 </v>
   <v type="int" >        4       61      124      125      127 </v>
   <v type="int" >        4       61      125      127      128 </v>
   <v type="int" >        4       57       58       58      124 </v>
   <v type="int" >        4       58       58       61      124 </v>
   <v type="int" >        4       58       61      124      127 </v>
   <v type="int" >        4       57       58      123      124 </v>
   <v type="int" >        4       58      123      124      124 </v>
   <v type="int" >        4       58      124      124      127 </v>
   <v type="int" >        4       53       54       57      123 </v>
   <v type="int" >        4       54       57       58      123 </v>
   <v type="int" >        4       54       58      123      124 </v>
   <v type="int" >        4       53       54      119      123 </v>
   <v type="int" >        4       54      119      120      123 </v>
   <v type="int" >        4       54      120      123      124 </v>
   <v type="int" >        4       48       49       53      119 </v>
   <v type="int" >        4       49       53       54      119 </v>
   <v type="int" >        4       49       54      119      120 </v>
   <v type="int" >        4       48       49      114      119 </v>
   <v type="int" >        4       49      114      115      119 </v>
   <v type="int" >        4       49      115      119      120 </v>
   <v type="int" >        4       42       43       48      114 </v>
   <v type="int" >        4       43       48       49      114 </v>
   <v type="int" >        4       43       49      114      115 </v>
   <v type="int" >        4       42       43      108      114 </v>
   <v type="int" >        4       43      108      109      114 </v>
   <v type="int" >        4       43      109      114      115 </v>
   <v type="int" >        4       35       36       42      108 </v>
   <v type="int" >        4       36       42       43      108 </v>
   <v type="int" >        4       36       43      108      109 </v>
   <v type="int" >        4       35       36      101      108 </v>
   <v type="int" >        4       36      101      102      108 </v>
   <v type="int" >        4       36      102      108      109 </v>
   <v type="int" >        4       27       28       35      101 </v>
   <v type="int" >        4       28       35       36      101 </v>
   <v type="int" >        4       28       36      101      102 </v>
   <v type="int" >        4       27       28       93      101 </v>
   <v type="int" >        4       28       93       94      101 </v>
   <v type="int" >        4       28       94      101      102 </v>
   <v type="int" >        4       18       19       27       93 </v>
   <v type="int" >        4       19       27       28       93 </v>
   <v type="int" >        4       19       28       93       94 </v>
   <v type="int" >        4       18       19       84       93 </v>
   <v type="int" >        4       19       84       85       93 </v>
   <v type="int" >        4       19       85       93       94 </v>
   <v type="int" >        4        8        9       18       84 </v>
   <v type="int" >        4        9       18       19       84 </v>
   <v type="int" >        4        9       19       84       85 </v>
   <v type="int" >        4        8        9       74       84 </v>
   <v type="int" >        4        9       74       75       84 </v>
   <v type="int" >        4        9       75       84       85 </v>
   <v type="int" >        4       61       62       64      127 </v>
   <v type="int" >        4       62       64      127      128 </v>
   <v type="int" >        4       64      127      128      130 </v>
   <v type="int" >        4       62       63       65      128 </v>
   <v type="int" >        4       62       64       65      128 </v>
   <v type="int" >        4       64       65      128      130 </v>
   <v type="int" >        4       63       65      128      129 </v>
   <v type="int" >        4       65      128      129      131 </v>
   <v type="int" >        4       65      128      130      131 </v>
   <v type="int" >        4       62       63       64      129 </v>
   <v type="int" >        4       63       64       65      129 </v>
   <v type="int" >        4       64       65      129      131 </v>
   <v type="int" >        4       62       64      128      129 </v>
   <v type="int" >        4       64      128      129      130 </v>
   <v type="int" >        4       64      129      130      131 </v>
   <v type="int" >        4       61       62       62      128 </v>
   <v type="int" >        4       62       62       64      128 </v>
   <v type="int" >        4       62       64      128      130 </v>
   <v type="int" >        4       61       62      127      128 </v>
   <v type="int" >        4       62      127      128      128 </v>
   <v type="int" >        4       62      128      128      130 </v>
   <v type="int" >        4       58       59       61      127 </v>
   <v type="int" >        4       59       61       62      127 </v>
   <v type="int" >        4       59       62      127      128 </v>
   <v type="int" >        4       58       59      124      127 </v>
   <v type="int" >        4       59      124      125      127 </v>
   <v type="int" >        4       59      125      127      128 </v>
   <v type="int" >        4       54       55       58      124 </v>
   <v type="int" >        4       55       58       59      124 </v>
   <v type="int" >        4       55       59      124      125 </v>
   <v type="int" >        4       54       55      120      124 </v>
   <v type="int" >        4       55      120      121      124 </v>
   <v type="int" >        4       55      121      124      125 </v>
   <v type="int" >        4       49       50       54      120 </v>
   <v type="int" >        4       50       54       55      120 </v>
   <v type="int" >        4       50       55      120      121 </v>
   <v type="int" >        4       49       50      115      120 </v>
   <v type="int" >        4       50      115      116      120 </v>
   <v type="int" >        4       50      116      120      121 </v>
   <v type="int" >        4       43       44       49      115 </v>
   <v type="int" >        4       44       49       50      115 </v>
   <v type="int" >        4       44       50      115      116 </v>
   <v type="int" >        4       43       44      109      115 </v>
   <v type="int" >        4       44      109      110      115 </v>
   <v type="int" >        4       44      110      115      116 </v>
   <v type="int" >        4       36       37       43      109 </v>
   <v type="int" >        4       37       43       44      109 </v>
   <v type="int" >        4       37       44      109      110 </v>
   <v type="int" >        4       36       37      102      109 </v>
   <v type="int" >        4       37      102      103      109 </v>
   <v type="int" >        4       37      103      109      110 </v>
   <v type="int" >        4       28       29       36      102 </v>
   <v type="int" >        4       29       36       37      102 </v>
   <v type="int" >        4       29       37      102      103 </v>
   <v type="int" >        4       28       29       94      102 </v>
   <v type="int" >        4       29       94       95      102 </v>
   <v type="int" >        4       29       95      102      103 </v>
   <v type="int" >        4       19       20       28       94 </v>
   <v type="int" >        4       20       28       29       94 </v>
   <v type="int" >        4       20       29       94       95 </v>
   <v type="int" >        4       19       20       85       94 </v>
   <v type="int" >        4       20       85       86       94 </v>
   <v type="int" >        4       20       86       94       95 </v>
   <v type="int" >        4        9       10       19       85 </v>
   <v type="int" >        4       10       19       20       85 </v>
   <v type="int" >        4       10       20       85       86 </v>
   <v type="int" >        4        9       10       75       85 </v>
   <v type="int" >        4       10       75       76       85 </v>
   <v type="int" >        4       10       76       85       86 </v>
   <v type="int" >        4       64       65       66      130 </v>
   <v type="int" >        4       65       66      130      131 </v>
   <v type="int" >        4       66      130      131      132 </v>
   <v type="int" >        4       64       65       65      131 </v>
   <v type="int" >        4       65       65       66      131 </v>
   <v type="int" >        4       65       66      131      132 </v>
   <v type="int" >        4       64       65      130      131 </v>
   <v type="int" >        4       65      130      131      131 </v>
   <v type="int" >        4       65      131      131      132 </v>
   <v type="int" >        4       62       63       64      130 </v>
   <v type="int" >        4       63       64       65      130 </v>
   <v type="int" >        4       63       65      130      131 </v>
   <v type="int" >        4       62       63      128      130 </v>
   <v type="int" >        4       63      128      129      130 </v>
   <v type="int" >        4       63      129      130      131 </v>
   <v type="int" >        4       59       60       62      128 </v>
   <v type="int" >        4       60       62       63      128 </v>
   <v type="int" >        4       60       63      128      129 </v>
   <v type="int" >        4       59       60      125      128 </v>
   <v type="int" >        4       60      125      126      128 </v>
[...]
       <r>   -0.9441    1.0000 </r>
       <r>   -0.8075    1.0000 </r>
       <r>   -0.6243    1.0000 </r>
       <r>   -0.6063    1.0000 </r>
       <r>   -0.4200    1.0000 </r>
       <r>   -0.3290    1.0000 </r>
       <r>   -0.3262    1.0000 </r>
       <r>    0.0617    1.0000 </r>
       <r>    0.1669    1.0000 </r>
       <r>    0.4661    1.0000 </r>
       <r>    0.5350    1.0000 </r>
       <r>    1.0440    1.0000 </r>
       <r>    1.1418    1.0000 </r>
       <r>    2.0958    1.0000 </r>
       <r>    2.1311    1.0000 </r>
       <r>    3.9608    0.0000 </r>
       <r>    3.9834    0.0000 </r>
       <r>    4.4868    0.0000 </r>
       <r>    4.5112    0.0000 </r>
       <r>    4.5370    0.0000 </r>
       <r>    4.5820    0.0000 </r>
      </set>
      <set comment="kpoint 196">
       <r>   -2.9844    1.0000 </r>
       <r>   -2.8969    1.0000 </r>
       <r>   -1.9484    1.0000 </r>
       <r>   -1.7192    1.0000 </r>
       <r>   -0.9152    1.0000 </r>
       <r>   -0.7301    1.0000 </r>
       <r>   -0.6449    1.0000 </r>
       <r>   -0.6133    1.0000 </r>
       <r>   -0.5043    1.0000 </r>
       <r>   -0.3707    1.0000 </r>
       <r>   -0.2221    1.0000 </r>
       <r>   -0.0059    1.0000 </r>
       <r>    0.2865    1.0000 </r>
       <r>    0.3664    1.0000 </r>
       <r>    0.4099    1.0000 </r>
       <r>    1.1237    1.0000 </r>
       <r>    1.2411    1.0000 </r>
       <r>    2.3100    1.0000 </r>
       <r>    2.3677    1.0000 </r>
       <r>    4.4767    0.0000 </r>
       <r>    4.4811    0.0000 </r>
       <r>    4.5130    0.0000 </r>
       <r>    4.5412    0.0000 </r>
       <r>    4.5856    0.0000 </r>
       <r>    4.7253    0.0000 </r>
      </set>
      <set comment="kpoint 197">
       <r>   -2.9866    1.0000 </r>
       <r>   -2.9500    1.0000 </r>
       <r>   -1.9656    1.0000 </r>
       <r>   -1.7318    1.0000 </r>
       <r>   -0.8351    1.0000 </r>
       <r>   -0.7275    1.0000 </r>
       <r>   -0.7249    1.0000 </r>
       <r>   -0.6839    1.0000 </r>
       <r>   -0.4971    1.0000 </r>
       <r>   -0.2718    1.0000 </r>
       <r>   -0.2679    1.0000 </r>
       <r>   -0.0910    1.0000 </r>
       <r>    0.3118    1.0000 </r>
       <r>    0.3451    1.0000 </r>
       <r>    0.4111    1.0000 </r>
       <r>    1.2413    1.0000 </r>
       <r>    1.2728    1.0000 </r>
       <r>    2.4695    1.0000 </r>
       <r>    2.4719    1.0000 </r>
       <r>    4.5444    0.0000 </r>
       <r>    4.5632    0.0000 </r>
       <r>    4.6207    0.0000 </r>
       <r>    4.7535    0.0000 </r>
       <r>    4.7586    0.0000 </r>
       <r>    4.8868    0.0000 </r>
      </set>
      <set comment="kpoint 198">
       <r>   -3.0155    1.0000 </r>
       <r>   -2.9791    1.0000 </r>
       <r>   -1.9826    1.0000 </r>
       <r>   -1.7436    1.0000 </r>
       <r>   -0.7667    1.0000 </r>
       <r>   -0.7667    1.0000 </r>
       <r>   -0.7266    1.0000 </r>
       <r>   -0.6336    1.0000 </r>
       <r>   -0.6336    1.0000 </r>
       <r>   -0.2238    1.0000 </r>
       <r>   -0.2238    1.0000 </r>
       <r>   -0.1780    1.0000 </r>
       <r>    0.2447    1.0000 </r>
       <r>    0.3936    1.0000 </r>
       <r>    0.3936    1.0000 </r>
       <r>    1.3306    1.0000 </r>
       <r>    1.3306    1.0000 </r>
       <r>    2.6088    1.0000 </r>
       <r>    2.6088    1.0000 </r>
       <r>    4.6121    0.0000 </r>
       <r>    4.6302    0.0000 </r>
       <r>    4.8716    0.0000 </r>
       <r>    4.8716    0.0000 </r>
       <r>    5.1327    0.0000 </r>
       <r>    5.1327    0.0000 </r>
      </set>
     </set>
    </set>
   </array>
  </eigenvalues>
  <separator name="orbital magnetization" >
   <v name="MAGDIPOLOUT">      0.00000000      0.00000000      0.00000000</v>
  </separator>
  <dos>
   <i name="efermi">      2.76351530 </i>
   <total>
    <array>
     <dimension dim="1">gridpoints</dimension>
     <dimension dim="2">spin</dimension>
     <field>energy</field>
     <field>total</field>
     <field>integrated</field>
     <set>
      <set comment="spin 1">
       <r>    -8.2954     0.0000     0.0000 </r>
       <r>    -8.2440     0.0000     0.0000 </r>
       <r>    -8.1926     0.0000     0.0000 </r>
       <r>    -8.1412     0.0000     0.0000 </r>
       <r>    -8.0897     0.0000     0.0000 </r>
       <r>    -8.0383     0.0000     0.0000 </r>
       <r>    -7.9869     0.0000     0.0000 </r>
       <r>    -7.9354     0.0000     0.0000 </r>
       <r>    -7.8840     0.0000     0.0000 </r>
       <r>    -7.8326     0.0000     0.0000 </r>
       <r>    -7.7812     0.0000     0.0000 </r>
       <r>    -7.7297     0.0000     0.0000 </r>
       <r>    -7.6783     0.0000     0.0000 </r>
       <r>    -7.6269     0.0000     0.0000 </r>
       <r>    -7.5755     0.0000     0.0000 </r>
       <r>    -7.5240     0.0000     0.0000 </r>
       <r>    -7.4726     0.0000     0.0000 </r>
       <r>    -7.4212     0.0000     0.0000 </r>
       <r>    -7.3697     0.0000     0.0000 </r>
       <r>    -7.3183     0.0000     0.0000 </r>
       <r>    -7.2669     0.0000     0.0000 </r>
       <r>    -7.2155     0.0000     0.0000 </r>
       <r>    -7.1640     0.0000     0.0000 </r>
       <r>    -7.1126     0.0000     0.0000 </r>
       <r>    -7.0612     0.0000     0.0000 </r>
       <r>    -7.0098     0.0000     0.0000 </r>
       <r>    -6.9583     0.0000     0.0000 </r>
       <r>    -6.9069     0.0000     0.0000 </r>
       <r>    -6.8555     0.0000     0.0000 </r>
       <r>    -6.8041     0.0000     0.0000 </r>
       <r>    -6.7526     0.0000     0.0000 </r>
       <r>    -6.7012     0.0000     0.0000 </r>
       <r>    -6.6498     0.0000     0.0000 </r>
       <r>    -6.5983     0.0000     0.0000 </r>
       <r>    -6.5469     0.0000     0.0000 </r>
       <r>    -6.4955     0.0000     0.0000 </r>
       <r>    -6.4441     0.0000     0.0000 </r>
       <r>    -6.3926     0.0000     0.0000 </r>
       <r>    -6.3412     0.0000     0.0000 </r>
       <r>    -6.2898     0.0344     0.0001 </r>
       <r>    -6.2384     0.3474     0.0099 </r>
       <r>    -6.1869     0.2475     0.0253 </r>
       <r>    -6.1355     0.2679     0.0382 </r>
       <r>    -6.0841     0.3042     0.0529 </r>
       <r>    -6.0326     0.2829     0.0685 </r>
       <r>    -5.9812     0.2699     0.0823 </r>
       <r>    -5.9298     0.2781     0.0964 </r>
       <r>    -5.8784     0.2864     0.1109 </r>
       <r>    -5.8269     0.2971     0.1259 </r>
       <r>    -5.7755     0.3010     0.1415 </r>
       <r>    -5.7241     0.2860     0.1565 </r>
       <r>    -5.6727     0.2880     0.1712 </r>
       <r>    -5.6212     0.2899     0.1861 </r>
       <r>    -5.5698     0.2940     0.2011 </r>
       <r>    -5.5184     0.3012     0.2164 </r>
       <r>    -5.4669     0.3085     0.2320 </r>
       <r>    -5.4155     0.3146     0.2481 </r>
       <r>    -5.3641     0.3034     0.2640 </r>
       <r>    -5.3127     0.3039     0.2796 </r>
       <r>    -5.2612     0.3069     0.2953 </r>
       <r>    -5.2098     0.3101     0.3111 </r>
       <r>    -5.1584     0.3144     0.3272 </r>
       <r>    -5.1070     0.7219     0.3531 </r>
       <r>    -5.0555     0.6052     0.3873 </r>
       <r>    -5.0041     0.6595     0.4198 </r>
       <r>    -4.9527     0.6912     0.4550 </r>
       <r>    -4.9012     0.6481     0.4891 </r>
       <r>    -4.8498     0.6637     0.5228 </r>
       <r>    -4.7984     0.6792     0.5574 </r>
       <r>    -4.7470     0.6977     0.5927 </r>
       <r>    -4.6955     0.6867     0.6285 </r>
       <r>    -4.6441     0.6917     0.6638 </r>
       <r>    -4.5927     0.7043     0.6997 </r>
       <r>    -4.5413     0.7166     0.7363 </r>
       <r>    -4.4898     0.7311     0.7735 </r>
       <r>    -4.4384     0.7431     0.8115 </r>
       <r>    -4.3870     0.7404     0.8495 </r>
       <r>    -4.3355     0.7490     0.8878 </r>
       <r>    -4.2841     0.7574     0.9266 </r>
       <r>    -4.2327     0.7723     0.9659 </r>
       <r>    -4.1813     0.7865     1.0060 </r>
       <r>    -4.1298     0.8006     1.0468 </r>
       <r>    -4.0784     0.8141     1.0883 </r>
       <r>    -4.0270     0.8273     1.1305 </r>
       <r>    -3.9756     0.8398     1.1734 </r>
       <r>    -3.9241     0.8551     1.2170 </r>
       <r>    -3.8727     0.8793     1.2615 </r>
       <r>    -3.8213     0.8994     1.3073 </r>
       <r>    -3.7699     0.9216     1.3540 </r>
       <r>    -3.7184     0.9542     1.4023 </r>
       <r>    -3.6670     0.9763     1.4520 </r>
       <r>    -3.6156     0.9983     1.5027 </r>
       <r>    -3.5641     1.5865     1.5707 </r>
       <r>    -3.5127     1.5583     1.6493 </r>
       <r>    -3.4613     1.6620     1.7328 </r>
       <r>    -3.4099     1.7321     1.8197 </r>
       <r>    -3.3584     1.9303     1.9126 </r>
       <r>    -3.3070     2.0943     2.0166 </r>
       <r>    -3.2556     2.3848     2.1314 </r>
       <r>    -3.2042     2.8708     2.2606 </r>
       <r>    -3.1527     3.6944     2.4482 </r>
       <r>    -3.1013     3.3074     2.6091 </r>
       <r>    -3.0499     4.3951     2.8334 </r>
       <r>    -2.9984     3.9443     3.0228 </r>
       <r>    -2.9470     5.8684     3.2796 </r>
       <r>    -2.8956     4.0030     3.5074 </r>
       <r>    -2.8442     3.3770     3.6950 </r>
       <r>    -2.7927     3.2357     3.8656 </r>
       <r>    -2.7413     3.4304     4.0373 </r>
       <r>    -2.6899     3.3811     4.2107 </r>
       <r>    -2.6385     4.7088     4.3982 </r>
       <r>    -2.5870     4.8994     4.6663 </r>
       <r>    -2.5356     4.2950     4.8954 </r>
       <r>    -2.4842     4.3092     5.1187 </r>
       <r>    -2.4327     4.0552     5.3382 </r>
       <r>    -2.3813     4.0697     5.5445 </r>
       <r>    -2.3299     4.3701     5.7664 </r>
       <r>    -2.2785     4.9451     5.9957 </r>
       <r>    -2.2270     5.5012     6.2456 </r>
       <r>    -2.1756     6.4887     6.5775 </r>
       <r>    -2.1242     4.8503     6.8537 </r>
       <r>    -2.0728     4.8267     7.0973 </r>
       <r>    -2.0213     5.1147     7.3570 </r>
       <r>    -1.9699     6.7795     7.6545 </r>
       <r>    -1.9185     7.2989     8.0154 </r>
       <r>    -1.8670     8.0937     8.3979 </r>
       <r>    -1.8156     4.4536     8.7875 </r>
       <r>    -1.7642     3.8280     8.9936 </r>
       <r>    -1.7128     5.1424     9.2252 </r>
       <r>    -1.6613     6.6900     9.5335 </r>
       <r>    -1.6099     6.0627     9.8727 </r>
       <r>    -1.5585     5.2807    10.1590 </r>
       <r>    -1.5071     6.1048    10.4872 </r>
       <r>    -1.4556     5.0286    10.7659 </r>
       <r>    -1.4042     6.7353    11.0506 </r>
       <r>    -1.3528     8.6807    11.4670 </r>
       <r>    -1.3014    11.2233    12.0117 </r>
       <r>    -1.2499     5.4384    12.4289 </r>
       <r>    -1.1985     5.0875    12.6988 </r>
       <r>    -1.1471     6.8780    13.0103 </r>
       <r>    -1.0956     5.6594    13.3409 </r>
       <r>    -1.0442     5.5167    13.6307 </r>
       <r>    -0.9928     4.7404    13.8946 </r>
       <r>    -0.9414     4.9025    14.1577 </r>
       <r>    -0.8899     4.9998    14.4137 </r>
       <r>    -0.8385     4.7731    14.6804 </r>
       <r>    -0.7871     4.4722    14.9018 </r>
       <r>    -0.7357     5.2464    15.1357 </r>
       <r>    -0.6842     4.7134    15.4013 </r>
       <r>    -0.6328     4.0925    15.6582 </r>
       <r>    -0.5814     3.2603    15.8236 </r>
       <r>    -0.5299    10.9344    16.1001 </r>
       <r>    -0.4785    10.7591    16.6254 </r>
       <r>    -0.4271    10.1785    17.1940 </r>
       <r>    -0.3757    11.6197    17.7258 </r>
       <r>    -0.3242    12.4113    18.4003 </r>
       <r>    -0.2728    11.9509    18.9839 </r>
       <r>    -0.2214     9.7273    19.5585 </r>
       <r>    -0.1700     8.7901    20.0125 </r>
       <r>    -0.1185     8.8766    20.4614 </r>
       <r>    -0.0671    10.6744    20.9592 </r>
       <r>    -0.0157     7.0757    21.3833 </r>
       <r>     0.0358     6.7004    21.7298 </r>
       <r>     0.0872     5.1620    22.0709 </r>
       <r>     0.1386     6.4767    22.3410 </r>
       <r>     0.1900     8.0516    22.6824 </r>
       <r>     0.2415    10.2840    23.1505 </r>
       <r>     0.2929    11.4719    23.7653 </r>
       <r>     0.3443     8.6377    24.2955 </r>
       <r>     0.3957     9.1510    24.8304 </r>
       <r>     0.4472     9.2977    25.3144 </r>
       <r>     0.4986     9.2663    25.8005 </r>
       <r>     0.5500     9.2971    26.2674 </r>
       <r>     0.6015     9.7599    26.8314 </r>
       <r>     0.6529     8.5800    27.2876 </r>
       <r>     0.7043     8.4121    27.7489 </r>
       <r>     0.7557     8.7039    28.2121 </r>
       <r>     0.8072     8.8366    28.6630 </r>
       <r>     0.8586     9.8244    29.1572 </r>
       <r>     0.9100    10.9170    29.6833 </r>
       <r>     0.9614     9.6502    30.2146 </r>
       <r>     1.0129     8.9889    30.6968 </r>
       <r>     1.0643     8.7546    31.1493 </r>
       <r>     1.1157     9.4403    31.6139 </r>
       <r>     1.1672     8.7423    32.0749 </r>
       <r>     1.2186     7.2100    32.4777 </r>
       <r>     1.2700     6.8675    32.8346 </r>
       <r>     1.3214     6.2321    33.1678 </r>
       <r>     1.3729     5.6454    33.4803 </r>
       <r>     1.4243     5.5656    33.7696 </r>
       <r>     1.4757     5.3004    34.0490 </r>
       <r>     1.5271     5.0156    34.3160 </r>
       <r>     1.5786     5.2639    34.5789 </r>
       <r>     1.6300     5.0225    34.8522 </r>
       <r>     1.6814     4.2486    35.0935 </r>
       <r>     1.7328     4.2320    35.3046 </r>
       <r>     1.7843     4.8865    35.5701 </r>
       <r>     1.8357     4.4570    35.7924 </r>
       <r>     1.8871     3.5689    36.0176 </r>
       <r>     1.9386     4.8217    36.2105 </r>
       <r>     1.9900     5.3046    36.4914 </r>
       <r>     2.0414     5.2644    36.7614 </r>
       <r>     2.0928     5.2281    37.0322 </r>
       <r>     2.1443     6.9894    37.3393 </r>
       <r>     2.1957     6.7201    37.7578 </r>
       <r>     2.2471     7.4440    38.1473 </r>
       <r>     2.2985     8.8222    38.5554 </r>
       <r>     2.3500    10.3546    39.0033 </r>
       <r>     2.4014     9.6091    39.5708 </r>
       <r>     2.4528     7.8033    40.0416 </r>
       <r>     2.5043     4.6357    40.3666 </r>
       <r>     2.5557     4.7063    40.5874 </r>
       <r>     2.6071     5.6515    40.8413 </r>
       <r>     2.6585     7.5790    41.2077 </r>
       <r>     2.7100     6.3032    41.6003 </r>
       <r>     2.7614     7.8350    41.9834 </r>
       <r>     2.8128     7.3956    42.3546 </r>
       <r>     2.8642     5.6804    42.6759 </r>
       <r>     2.9157     5.3526    42.9599 </r>
       <r>     2.9671     5.2146    43.2358 </r>
       <r>     3.0185     5.0984    43.5005 </r>
       <r>     3.0700     5.7571    43.7789 </r>
       <r>     3.1214     6.4399    44.0999 </r>
       <r>     3.1728     4.5050    44.3632 </r>
       <r>     3.2242     5.2203    44.6193 </r>
       <r>     3.2757     4.8789    44.8837 </r>
       <r>     3.3271     4.6724    45.1206 </r>
       <r>     3.3785     4.4719    45.3600 </r>
       <r>     3.4299     5.2018    45.6093 </r>
       <r>     3.4814     5.6825    45.8821 </r>
       <r>     3.5328     4.3608    46.1163 </r>
       <r>     3.5842     6.5338    46.3707 </r>
       <r>     3.6357     7.5545    46.7546 </r>
       <r>     3.6871     4.4026    47.0221 </r>
       <r>     3.7385     3.9466    47.2298 </r>
       <r>     3.7899     3.8327    47.4312 </r>
       <r>     3.8414     4.1959    47.6266 </r>
       <r>     3.8928     4.0300    47.8410 </r>
       <r>     3.9442     4.3699    48.0520 </r>
       <r>     3.9956     4.4770    48.2765 </r>
       <r>     4.0471     3.4455    48.4740 </r>
       <r>     4.0985     3.2789    48.6458 </r>
       <r>     4.1499     3.8291    48.8322 </r>
       <r>     4.2013     2.7497    49.0063 </r>
       <r>     4.2528     2.7268    49.1457 </r>
       <r>     4.3042     2.6850    49.2857 </r>
       <r>     4.3556     2.2445    49.4105 </r>
       <r>     4.4071     2.0795    49.5230 </r>
       <r>     4.4585     1.8599    49.6237 </r>
       <r>     4.5099     1.9981    49.7188 </r>
       <r>     4.5613     1.5609    49.8125 </r>
       <r>     4.6128     0.8216    49.8719 </r>
       <r>     4.6642     0.5770    49.9056 </r>
       <r>     4.7156     0.4633    49.9324 </r>
       <r>     4.7670     0.3698    49.9539 </r>
       <r>     4.8185     0.2660    49.9702 </r>
       <r>     4.8699     0.1622    49.9812 </r>
       <r>     4.9213     0.1129    49.9881 </r>
       <r>     4.9728     0.0854    49.9932 </r>
       <r>     5.0242     0.0579    49.9969 </r>
       <r>     5.0756     0.0304    49.9991 </r>
       <r>     5.1270     0.0029    50.0000 </r>
       <r>     5.1785     0.0000    50.0000 </r>
       <r>     5.2299     0.0000    50.0000 </r>
       <r>     5.2813     0.0000    50.0000 </r>
       <r>     5.3327     0.0000    50.0000 </r>
       <r>     5.3842     0.0000    50.0000 </r>
       <r>     5.4356     0.0000    50.0000 </r>
       <r>     5.4870     0.0000    50.0000 </r>
       <r>     5.5385     0.0000    50.0000 </r>
       <r>     5.5899     0.0000    50.0000 </r>
       <r>     5.6413     0.0000    50.0000 </r>
       <r>     5.6927     0.0000    50.0000 </r>
       <r>     5.7442     0.0000    50.0000 </r>
       <r>     5.7956     0.0000    50.0000 </r>
       <r>     5.8470     0.0000    50.0000 </r>
       <r>     5.8984     0.0000    50.0000 </r>
       <r>     5.9499     0.0000    50.0000 </r>
       <r>     6.0013     0.0000    50.0000 </r>
       <r>     6.0527     0.0000    50.0000 </r>
       <r>     6.1042     0.0000    50.0000 </r>
       <r>     6.1556     0.0000    50.0000 </r>
       <r>     6.2070     0.0000    50.0000 </r>
       <r>     6.2584     0.0000    50.0000 </r>
       <r>     6.3099     0.0000    50.0000 </r>
       <r>     6.3613     0.0000    50.0000 </r>
       <r>     6.4127     0.0000    50.0000 </r>
       <r>     6.4641     0.0000    50.0000 </r>
       <r>     6.5156     0.0000    50.0000 </r>
       <r>     6.5670     0.0000    50.0000 </r>
       <r>     6.6184     0.0000    50.0000 </r>
       <r>     6.6698     0.0000    50.0000 </r>
       <r>     6.7213     0.0000    50.0000 </r>
       <r>     6.7727     0.0000    50.0000 </r>
       <r>     6.8241     0.0000    50.0000 </r>
       <r>     6.8756     0.0000    50.0000 </r>
       <r>     6.9270     0.0000    50.0000 </r>
       <r>     6.9784     0.0000    50.0000 </r>
       <r>     7.0298     0.0000    50.0000 </r>
       <r>     7.0813     0.0000    50.0000 </r>
       <r>     7.1327     0.0000    50.0000 </r>
      </set>
     </set>
    </array>
   </total>
  </dos>
 </calculation>
 <structure name="finalpos" >
  <crystal>
   <varray name="basis" >
    <v>       3.16000000       0.00000000       0.00000000 </v>
    <v>       0.00000000       3.16000000       0.00000000 </v>
    <v>       0.00000000       0.00000000      18.96000000 </v>
   </varray>
   <i name="volume">    189.32697600 </i>
   <varray name="rec_basis" >
    <v>       0.31645570       0.00000000       0.00000000 </v>
    <v>       0.00000000       0.31645570       0.00000000 </v>
    <v>       0.00000000       0.00000000       0.05274262 </v>
   </varray>
  </crystal>
  <varray name="positions" >
   <v>       0.00000000       0.00000000       0.00000000 </v>
   <v>       0.50000000       0.50000000       0.08333333 </v>
   <v>       0.00000000       0.00000000       0.16666667 </v>
   <v>       0.50000000       0.50000000       0.25000000 </v>
   <v>       0.00000000       0.00000000       0.33333333 </v>
   <v>       0.50000000       0.50000000       0.41666667 </v>
   <v>       0.00000000       0.00000000       0.50000000 </v>
  </varray>
 </structure>
</modeling>
