   2   2   0   0
  0.1289209E+03  0.2459946E-09  0.2459946E-09  0.4920000E-08  0.5000000E-15
  1.000000000000000E-004
  CAR 
 graphene (single layer)                 
     11.61290273    -25.26891347  301     -3.60040993      1.00000000
    -25.269  0.0000E+00  0.0000E+00
    -25.146  0.0000E+00  0.0000E+00
    -25.023  0.0000E+00  0.0000E+00
    -24.900  0.0000E+00  0.0000E+00
    -24.777  0.0000E+00  0.0000E+00
    -24.654  0.0000E+00  0.0000E+00
    -24.531  0.0000E+00  0.0000E+00
    -24.408  0.2047E-15  0.2517E-16
    -24.285  0.1831E-12  0.2254E-13
    -24.162  0.7750E-10  0.9550E-11
    -24.040  0.1576E-07  0.1947E-08
    -23.917  0.1547E-05  0.1921E-06
    -23.794  0.7391E-04  0.9278E-05
    -23.671  0.1734E-02  0.2224E-03
    -23.548  0.2024E-01  0.2710E-02
    -23.425  0.1198E+00  0.1743E-01
    -23.302  0.3706E+00  0.6299E-01
    -23.179  0.6348E+00  0.1410E+00
    -23.056  0.6755E+00  0.2241E+00
    -22.933  0.5495E+00  0.2916E+00
    -22.810  0.4327E+00  0.3448E+00
    -22.687  0.3647E+00  0.3897E+00
    -22.564  0.3234E+00  0.4294E+00
    -22.441  0.2945E+00  0.4656E+00
    -22.318  0.2726E+00  0.4991E+00
    -22.195  0.2551E+00  0.5305E+00
    -22.072  0.2408E+00  0.5601E+00
    -21.950  0.2287E+00  0.5882E+00
    -21.827  0.2184E+00  0.6151E+00
    -21.704  0.2094E+00  0.6408E+00
    -21.581  0.2015E+00  0.6656E+00
    -21.458  0.1945E+00  0.6895E+00
    -21.335  0.1882E+00  0.7126E+00
    -21.212  0.1825E+00  0.7351E+00
    -21.089  0.1774E+00  0.7569E+00
    -20.966  0.1727E+00  0.7781E+00
    -20.843  0.1684E+00  0.7988E+00
    -20.720  0.1645E+00  0.8190E+00
    -20.597  0.1608E+00  0.8388E+00
    -20.474  0.1575E+00  0.8582E+00
    -20.351  0.1554E+00  0.8773E+00
    -20.228  0.1637E+00  0.8974E+00
    -20.105  0.2244E+00  0.9250E+00
    -19.983  0.3908E+00  0.9730E+00
    -19.860  0.5807E+00  0.1044E+01
    -19.737  0.6231E+00  0.1121E+01
    -19.614  0.5397E+00  0.1187E+01
    -19.491  0.4548E+00  0.1243E+01
    -19.368  0.4038E+00  0.1293E+01
    -19.245  0.3726E+00  0.1339E+01
    -19.122  0.3509E+00  0.1382E+01
    -18.999  0.3349E+00  0.1423E+01
    -18.876  0.3226E+00  0.1463E+01
    -18.753  0.3132E+00  0.1501E+01
    -18.630  0.3065E+00  0.1539E+01
    -18.507  0.3031E+00  0.1576E+01
    -18.384  0.3048E+00  0.1614E+01
    -18.261  0.3170E+00  0.1653E+01
    -18.138  0.3402E+00  0.1694E+01
    -18.015  0.3402E+00  0.1736E+01
    -17.893  0.2752E+00  0.1770E+01
    -17.770  0.1868E+00  0.1793E+01
    -17.647  0.1386E+00  0.1810E+01
    -17.524  0.1260E+00  0.1826E+01
    -17.401  0.1241E+00  0.1841E+01
    -17.278  0.1248E+00  0.1856E+01
    -17.155  0.1334E+00  0.1873E+01
    -17.032  0.1714E+00  0.1894E+01
    -16.909  0.2496E+00  0.1924E+01
    -16.786  0.3152E+00  0.1963E+01
    -16.663  0.3204E+00  0.2002E+01
    -16.540  0.3037E+00  0.2040E+01
    -16.417  0.3124E+00  0.2078E+01
    -16.294  0.3482E+00  0.2121E+01
    -16.171  0.3959E+00  0.2170E+01
    -16.048  0.4701E+00  0.2228E+01
    -15.926  0.5531E+00  0.2296E+01
    -15.803  0.5548E+00  0.2364E+01
    -15.680  0.4723E+00  0.2422E+01
    -15.557  0.3920E+00  0.2470E+01
    -15.434  0.3463E+00  0.2513E+01
    -15.311  0.3211E+00  0.2552E+01
    -15.188  0.3043E+00  0.2589E+01
    -15.065  0.2918E+00  0.2625E+01
    -14.942  0.2822E+00  0.2660E+01
    -14.819  0.2744E+00  0.2694E+01
    -14.696  0.2682E+00  0.2727E+01
    -14.573  0.2661E+00  0.2759E+01
    -14.450  0.2823E+00  0.2794E+01
    -14.327  0.3459E+00  0.2837E+01
    -14.204  0.4420E+00  0.2891E+01
    -14.081  0.4887E+00  0.2951E+01
    -13.958  0.4663E+00  0.3008E+01
    -13.836  0.4328E+00  0.3062E+01
    -13.713  0.4179E+00  0.3113E+01
    -13.590  0.4219E+00  0.3165E+01
    -13.467  0.4375E+00  0.3219E+01
    -13.344  0.4282E+00  0.3271E+01
    -13.221  0.3610E+00  0.3316E+01
    -13.098  0.2799E+00  0.3350E+01
    -12.975  0.2380E+00  0.3379E+01
    -12.852  0.2262E+00  0.3407E+01
    -12.729  0.2225E+00  0.3435E+01
    -12.606  0.2199E+00  0.3462E+01
    -12.483  0.2179E+00  0.3488E+01
    -12.360  0.2165E+00  0.3515E+01
    -12.237  0.2155E+00  0.3541E+01
    -12.114  0.2171E+00  0.3568E+01
    -11.991  0.2342E+00  0.3597E+01
    -11.869  0.2902E+00  0.3633E+01
    -11.746  0.3702E+00  0.3678E+01
    -11.623  0.4186E+00  0.3730E+01
    -11.500  0.4705E+00  0.3787E+01
    -11.377  0.6467E+00  0.3867E+01
    -11.254  0.8960E+00  0.3977E+01
    -11.131  0.9818E+00  0.4098E+01
    -11.008  0.8839E+00  0.4206E+01
    -10.885  0.7702E+00  0.4301E+01
    -10.762  0.7057E+00  0.4388E+01
    -10.639  0.6732E+00  0.4471E+01
    -10.516  0.6583E+00  0.4552E+01
    -10.393  0.6614E+00  0.4633E+01
    -10.270  0.7057E+00  0.4720E+01
    -10.147  0.8341E+00  0.4822E+01
    -10.024  0.1008E+01  0.4946E+01
     -9.901  0.1073E+01  0.5078E+01
     -9.779  0.9663E+00  0.5197E+01
     -9.656  0.7790E+00  0.5293E+01
     -9.533  0.6253E+00  0.5370E+01
     -9.410  0.5485E+00  0.5437E+01
     -9.287  0.5172E+00  0.5501E+01
     -9.164  0.5006E+00  0.5562E+01
     -9.041  0.4886E+00  0.5622E+01
     -8.918  0.4790E+00  0.5681E+01
     -8.795  0.4716E+00  0.5739E+01
     -8.672  0.4663E+00  0.5796E+01
     -8.549  0.4629E+00  0.5853E+01
     -8.426  0.4612E+00  0.5910E+01
     -8.303  0.4609E+00  0.5967E+01
     -8.180  0.4617E+00  0.6023E+01
     -8.057  0.4636E+00  0.6080E+01
     -7.934  0.4669E+00  0.6138E+01
     -7.812  0.4761E+00  0.6196E+01
     -7.689  0.5161E+00  0.6260E+01
     -7.566  0.6470E+00  0.6339E+01
     -7.443  0.8666E+00  0.6446E+01
     -7.320  0.1013E+01  0.6570E+01
     -7.197  0.1003E+01  0.6694E+01
     -7.074  0.9587E+00  0.6812E+01
     -6.951  0.9782E+00  0.6932E+01
     -6.828  0.1081E+01  0.7065E+01
     -6.705  0.1189E+01  0.7211E+01
     -6.582  0.1096E+01  0.7346E+01
     -6.459  0.7814E+00  0.7442E+01
     -6.336  0.5181E+00  0.7505E+01
     -6.213  0.4472E+00  0.7560E+01
     -6.090  0.4713E+00  0.7618E+01
     -5.967  0.4426E+00  0.7673E+01
     -5.844  0.3138E+00  0.7711E+01
     -5.722  0.1900E+00  0.7735E+01
     -5.599  0.1382E+00  0.7752E+01
     -5.476  0.1266E+00  0.7767E+01
     -5.353  0.1238E+00  0.7782E+01
     -5.230  0.1223E+00  0.7797E+01
     -5.107  0.1212E+00  0.7812E+01
     -4.984  0.1205E+00  0.7827E+01
     -4.861  0.1199E+00  0.7842E+01
     -4.738  0.1191E+00  0.7857E+01
     -4.615  0.1184E+00  0.7871E+01
     -4.492  0.1180E+00  0.7886E+01
     -4.369  0.1182E+00  0.7900E+01
     -4.246  0.1184E+00  0.7915E+01
     -4.123  0.1186E+00  0.7929E+01
     -4.000  0.1194E+00  0.7944E+01
     -3.877  0.1228E+00  0.7959E+01
     -3.755  0.1352E+00  0.7976E+01
     -3.632  0.1561E+00  0.7995E+01
     -3.509  0.1633E+00  0.8015E+01
     -3.386  0.1471E+00  0.8033E+01
     -3.263  0.1300E+00  0.8049E+01
     -3.140  0.1241E+00  0.8064E+01
     -3.017  0.1234E+00  0.8079E+01
     -2.894  0.1237E+00  0.8095E+01
     -2.771  0.1246E+00  0.8110E+01
     -2.648  0.1259E+00  0.8125E+01
     -2.525  0.1276E+00  0.8141E+01
     -2.402  0.1298E+00  0.8157E+01
     -2.279  0.1334E+00  0.8173E+01
     -2.156  0.1488E+00  0.8192E+01
     -2.033  0.2077E+00  0.8217E+01
     -1.910  0.3227E+00  0.8257E+01
     -1.787  0.4121E+00  0.8308E+01
     -1.665  0.4067E+00  0.8358E+01
     -1.542  0.3595E+00  0.8402E+01
     -1.419  0.3261E+00  0.8442E+01
     -1.296  0.3088E+00  0.8480E+01
     -1.173  0.2988E+00  0.8517E+01
     -1.050  0.2922E+00  0.8553E+01
     -0.927  0.2871E+00  0.8588E+01
     -0.804  0.2849E+00  0.8623E+01
     -0.681  0.3028E+00  0.8660E+01
     -0.558  0.4023E+00  0.8710E+01
     -0.435  0.6316E+00  0.8787E+01
     -0.312  0.8445E+00  0.8891E+01
     -0.189  0.8571E+00  0.8996E+01
     -0.066  0.7611E+00  0.9090E+01
      0.057  0.7568E+00  0.9183E+01
      0.180  0.1001E+01  0.9306E+01
      0.302  0.1532E+01  0.9494E+01
      0.425  0.2084E+01  0.9751E+01
      0.548  0.2226E+01  0.1002E+02
      0.671  0.1904E+01  0.1026E+02
      0.794  0.1504E+01  0.1044E+02
      0.917  0.1254E+01  0.1060E+02
      1.040  0.1117E+01  0.1073E+02
      1.163  0.1027E+01  0.1086E+02
      1.286  0.9601E+00  0.1098E+02
      1.409  0.9072E+00  0.1109E+02
      1.532  0.8635E+00  0.1120E+02
      1.655  0.8264E+00  0.1130E+02
      1.778  0.7944E+00  0.1140E+02
      1.901  0.7665E+00  0.1149E+02
      2.024  0.7420E+00  0.1158E+02
      2.147  0.7204E+00  0.1167E+02
      2.270  0.7017E+00  0.1176E+02
      2.392  0.6867E+00  0.1184E+02
      2.515  0.6757E+00  0.1192E+02
      2.638  0.6599E+00  0.1200E+02
      2.761  0.6227E+00  0.1208E+02
      2.884  0.5723E+00  0.1215E+02
      3.007  0.5243E+00  0.1222E+02
      3.130  0.4655E+00  0.1227E+02
      3.253  0.4066E+00  0.1232E+02
      3.376  0.3747E+00  0.1237E+02
      3.499  0.3816E+00  0.1242E+02
      3.622  0.4799E+00  0.1248E+02
      3.745  0.7323E+00  0.1257E+02
      3.868  0.1005E+01  0.1269E+02
      3.991  0.1088E+01  0.1282E+02
      4.114  0.1057E+01  0.1295E+02
      4.237  0.1016E+01  0.1308E+02
      4.359  0.9071E+00  0.1319E+02
      4.482  0.7701E+00  0.1328E+02
      4.605  0.6967E+00  0.1337E+02
      4.728  0.6969E+00  0.1346E+02
      4.851  0.8054E+00  0.1355E+02
      4.974  0.1001E+01  0.1368E+02
      5.097  0.1137E+01  0.1382E+02
      5.220  0.1105E+01  0.1395E+02
      5.343  0.9534E+00  0.1407E+02
      5.466  0.8224E+00  0.1417E+02
      5.589  0.7568E+00  0.1426E+02
      5.712  0.7145E+00  0.1435E+02
      5.835  0.6719E+00  0.1443E+02
      5.958  0.6202E+00  0.1451E+02
      6.081  0.5626E+00  0.1458E+02
      6.204  0.5195E+00  0.1464E+02
      6.327  0.4983E+00  0.1471E+02
      6.449  0.4887E+00  0.1477E+02
      6.572  0.4850E+00  0.1483E+02
      6.695  0.5008E+00  0.1489E+02
      6.818  0.5853E+00  0.1496E+02
      6.941  0.7673E+00  0.1505E+02
      7.064  0.9056E+00  0.1516E+02
      7.187  0.8410E+00  0.1527E+02
      7.310  0.6858E+00  0.1535E+02
      7.433  0.5888E+00  0.1542E+02
      7.556  0.5095E+00  0.1549E+02
      7.679  0.4175E+00  0.1554E+02
      7.802  0.3505E+00  0.1558E+02
      7.925  0.2973E+00  0.1562E+02
      8.048  0.2332E+00  0.1565E+02
      8.171  0.1787E+00  0.1567E+02
      8.294  0.1548E+00  0.1569E+02
      8.416  0.1506E+00  0.1571E+02
      8.539  0.1515E+00  0.1572E+02
      8.662  0.1536E+00  0.1574E+02
      8.785  0.1573E+00  0.1576E+02
      8.908  0.1633E+00  0.1578E+02
      9.031  0.1749E+00  0.1580E+02
      9.154  0.2038E+00  0.1583E+02
      9.277  0.2699E+00  0.1586E+02
      9.400  0.3545E+00  0.1591E+02
      9.523  0.3626E+00  0.1595E+02
      9.646  0.2517E+00  0.1598E+02
      9.769  0.1121E+00  0.1600E+02
      9.892  0.3027E-01  0.1600E+02
     10.015  0.4618E-02  0.1600E+02
     10.138  0.3741E-03  0.1600E+02
     10.261  0.1544E-04  0.1600E+02
     10.384  0.3168E-06  0.1600E+02
     10.506  0.3181E-08  0.1600E+02
     10.629  0.1548E-10  0.1600E+02
     10.752  0.3628E-13  0.1600E+02
     10.875  0.4214E-16  0.1600E+02
     10.998  0.0000E+00  0.1600E+02
     11.121  0.0000E+00  0.1600E+02
     11.244  0.0000E+00  0.1600E+02
     11.367  0.0000E+00  0.1600E+02
     11.490  0.0000E+00  0.1600E+02
     11.613  0.0000E+00  0.1600E+02
