    2    2    1    1
  0.1289209E+03  0.2459946E-09  0.2459946E-09  0.4920000E-08  0.5000000E-15
  1.000000000000000E-004
  CAR 
 graphene (single layer)                 
      8    300      8
 
  0.0000000E+00  0.0000000E+00  0.0000000E+00  0.3333333E-02
    1      -23.268913   1.000000
    2      -11.314784   1.000000
    3       -6.664857   1.000000
    4       -6.596423   1.000000
    5       -0.416976   0.000000
    6        0.235058   0.000000
    7        0.362358   0.000000
    8        0.453948   0.000000
 
  0.3366970E-02  0.6734040E-02  0.0000000E+00  0.3333333E-02
    1      -23.268062   1.000000
    2      -11.313824   1.000000
    3       -6.665080   1.000000
    4       -6.596835   1.000000
    5       -0.415861   0.000000
    6        0.236177   0.000000
    7        0.363484   0.000000
    8        0.455072   0.000000
 
  0.6733939E-02  0.1346808E-01  0.0000000E+00  0.3333333E-02
    1      -23.265559   1.000000
    2      -11.311426   1.000000
    3       -6.673314   1.000000
    4       -6.601192   1.000000
    5       -0.412530   0.000000
    6        0.239507   0.000000
    7        0.366865   0.000000
    8        0.458436   0.000000
 
  0.1010091E-01  0.2020212E-01  0.0000000E+00  0.3333333E-02
    1      -23.261578   1.000000
    2      -11.306597   1.000000
    3       -6.688823   1.000000
    4       -6.611879   1.000000
    5       -0.407060   0.000000
    6        0.245102   0.000000
    7        0.372499   0.000000
    8        0.464057   0.000000
 
  0.1346788E-01  0.2693616E-01  0.0000000E+00  0.3333333E-02
    1      -23.256001   1.000000
    2      -11.301130   1.000000
    3       -6.713211   1.000000
    4       -6.626948   1.000000
    5       -0.399395   0.000000
    6        0.252866   0.000000
    7        0.380385   0.000000
    8        0.471901   0.000000
 
  0.1683485E-01  0.3367020E-01  0.0000000E+00  0.3333333E-02
    1      -23.248781   1.000000
    2      -11.292342   1.000000
    3       -6.739402   1.000000
    4       -6.644423   1.000000
    5       -0.389533   0.000000
    6        0.262940   0.000000
    7        0.390525   0.000000
    8        0.482021   0.000000
 
  0.2020182E-01  0.4040424E-01  0.0000000E+00  0.3333333E-02
    1      -23.239957   1.000000
    2      -11.281814   1.000000
    3       -6.776193   1.000000
    4       -6.667388   1.000000
    5       -0.377476   0.000000
    6        0.275242   0.000000
    7        0.402918   0.000000
    8        0.494385   0.000000
 
  0.2356879E-01  0.4713828E-01  0.0000000E+00  0.3333333E-02
    1      -23.229438   1.000000
    2      -11.269120   1.000000
    3       -6.816406   1.000000
    4       -6.690662   1.000000
    5       -0.363198   0.000000
    6        0.289794   0.000000
    7        0.417565   0.000000
    8        0.509001   0.000000
 
  0.2693576E-01  0.5387232E-01  0.0000000E+00  0.3333333E-02
    1      -23.217371   1.000000
    2      -11.254620   1.000000
    3       -6.864517   1.000000
    4       -6.718570   1.000000
    5       -0.346747   0.000000
    6        0.306576   0.000000
    7        0.434465   0.000000
    8        0.525864   0.000000
 
  0.3030273E-01  0.6060636E-01  0.0000000E+00  0.3333333E-02
    1      -23.203692   1.000000
    2      -11.237387   1.000000
    3       -6.917396   1.000000
    4       -6.749445   1.000000
    5       -0.328101   0.000000
    6        0.325637   0.000000
    7        0.453619   0.000000
    8        0.544989   0.000000
 
  0.3366970E-01  0.6734040E-01  0.0000000E+00  0.3333333E-02
    1      -23.188323   1.000000
    2      -11.218988   1.000000
    3       -6.977338   1.000000
    4       -6.783704   1.000000
    5       -0.307229   0.000000
    6        0.346897   0.000000
    7        0.475026   0.000000
    8        0.566350   0.000000
 
  0.3703667E-01  0.7407444E-01  0.0000000E+00  0.3333333E-02
    1      -23.171424   1.000000
    2      -11.198912   1.000000
    3       -7.043720   1.000000
    4       -6.821571   1.000000
    5       -0.284189   0.000000
    6        0.370379   0.000000
    7        0.498686   0.000000
    8        0.589953   0.000000
 
  0.4040364E-01  0.8080848E-01  0.0000000E+00  0.3333333E-02
    1      -23.152829   1.000000
    2      -11.177152   1.000000
    3       -7.112097   1.000000
    4       -6.864755   1.000000
    5       -0.258924   0.000000
    6        0.396084   0.000000
    7        0.524600   0.000000
    8        0.615799   0.000000
 
  0.4377061E-01  0.8754253E-01  0.0000000E+00  0.3333333E-02
    1      -23.132683   1.000000
    2      -11.153163   1.000000
    3       -7.189450   1.000000
    4       -6.906769   1.000000
    5       -0.231475   0.000000
    6        0.424040   0.000000
    7        0.552767   0.000000
    8        0.643899   0.000000
 
  0.4713758E-01  0.9427657E-01  0.0000000E+00  0.3333333E-02
    1      -23.110853   1.000000
    2      -11.127072   1.000000
    3       -7.269862   1.000000
    4       -6.953759   1.000000
    5       -0.201808   0.000000
    6        0.454244   0.000000
    7        0.583189   0.000000
    8        0.674251   0.000000
 
  0.5050455E-01  0.1010106E+00  0.0000000E+00  0.3333333E-02
    1      -23.087501   1.000000
    2      -11.099131   1.000000
    3       -7.354837   1.000000
    4       -7.003974   1.000000
    5       -0.169979   0.000000
    6        0.486680   0.000000
    7        0.615863   0.000000
    8        0.706850   0.000000
 
  0.5387152E-01  0.1077446E+00  0.0000000E+00  0.3333333E-02
    1      -23.062446   1.000000
    2      -11.069118   1.000000
    3       -7.441260   1.000000
    4       -7.056936   1.000000
    5       -0.135915   0.000000
    6        0.521359   0.000000
    7        0.650791   0.000000
    8        0.741699   0.000000
 
  0.5723848E-01  0.1144787E+00  0.0000000E+00  0.3333333E-02
    1      -23.035874   1.000000
    2      -11.036117   1.000000
    3       -7.534304   1.000000
    4       -7.113071   1.000000
    5       -0.099689   0.000000
    6        0.558330   0.000000
    7        0.687972   0.000000
    8        0.778815   0.000000
 
  0.6060545E-01  0.1212127E+00  0.0000000E+00  0.3333333E-02
    1      -23.007616   1.000000
    2      -11.002181   1.000000
    3       -7.630377   1.000000
    4       -7.170931   1.000000
    5       -0.061233   0.000000
    6        0.597482   0.000000
    7        0.727405   0.000000
    8        0.818164   0.000000
 
  0.6397242E-01  0.1279468E+00  0.0000000E+00  0.3333333E-02
    1      -22.977841   1.000000
    2      -10.965913   1.000000
    3       -7.727989   1.000000
    4       -7.232818   1.000000
    5       -0.020611   0.000000
    6        0.638892   0.000000
    7        0.769097   0.000000
    8        0.859763   0.000000
 
  0.6733939E-01  0.1346808E+00  0.0000000E+00  0.3333333E-02
    1      -22.946370   1.000000
    2      -10.928488   1.000000
    3       -7.832276   1.000000
    4       -7.299040   1.000000
    5        0.022245   0.000000
    6        0.682495   0.000000
    7        0.813039   0.000000
    8        0.903601   0.000000
 
  0.7070636E-01  0.1414148E+00  0.0000000E+00  0.3333333E-02
    1      -22.913280   1.000000
    2      -10.889052   1.000000
    3       -7.938138   1.000000
    4       -7.366183   1.000000
    5        0.067302   0.000000
    6        0.728337   0.000000
    7        0.859234   0.000000
    8        0.949684   0.000000
 
  0.7407333E-01  0.1481489E+00  0.0000000E+00  0.3333333E-02
    1      -22.878722   1.000000
    2      -10.848028   1.000000
    3       -8.047316   1.000000
    4       -7.436390   1.000000
    5        0.114510   0.000000
    6        0.776393   0.000000
    7        0.907685   0.000000
    8        0.998009   0.000000
 
  0.7744030E-01  0.1548829E+00  0.0000000E+00  0.3333333E-02
    1      -22.842452   1.000000
    2      -10.804731   1.000000
    3       -8.156322   1.000000
    4       -7.506920   1.000000
    5        0.163958   0.000000
    6        0.826699   0.000000
    7        0.958387   0.000000
    8        1.048585   0.000000
 
  0.8080727E-01  0.1616170E+00  0.0000000E+00  0.3333333E-02
    1      -22.804687   1.000000
    2      -10.759709   1.000000
    3       -8.269458   1.000000
    4       -7.580547   1.000000
    5        0.215561   0.000000
    6        0.879228   0.000000
    7        1.011342   0.000000
    8        1.101407   0.000000
 
  0.8417424E-01  0.1683510E+00  0.0000000E+00  0.3333333E-02
    1      -22.765229   1.000000
    2      -10.713370   1.000000
    3       -8.384611   1.000000
    4       -7.657684   1.000000
    5        0.269405   0.000000
    6        0.933955   0.000000
    7        1.066546   0.000000
    8        1.156468   0.000000
 
  0.8754121E-01  0.1750851E+00  0.0000000E+00  0.3333333E-02
    1      -22.724109   1.000000
    2      -10.664475   1.000000
    3       -8.499227   1.000000
    4       -7.736874   1.000000
    5        0.325465   0.000000
    6        0.990948   0.000000
    7        1.124014   0.000000
    8        1.213782   0.000000
 
  0.9090818E-01  0.1818191E+00  0.0000000E+00  0.3333333E-02
    1      -22.681606   1.000000
    2      -10.613922   1.000000
    3       -8.617970   1.000000
    4       -7.821972   1.000000
    5        0.383645   0.000000
    6        1.050155   0.000000
    7        1.183728   0.000000
    8        1.273341   0.000000
 
  0.9427515E-01  0.1885531E+00  0.0000000E+00  0.3333333E-02
    1      -22.637406   1.000000
    2      -10.562047   1.000000
    3       -8.738770   1.000000
    4       -7.905219   1.000000
    5        0.444077   0.000000
    6        1.111556   0.000000
    7        1.245697   0.000000
    8        1.335134   0.000000
 
  0.9764212E-01  0.1952872E+00  0.0000000E+00  0.3333333E-02
    1      -22.591565   1.000000
    2      -10.507631   1.000000
    3       -8.858154   1.000000
    4       -7.990732   1.000000
    5        0.506705   0.000000
    6        1.175222   0.000000
    7        1.309919   0.000000
    8        1.399187   0.000000
 
  0.1010091E+00  0.2020212E+00  0.0000000E+00  0.3333333E-02
    1      -22.544291   1.000000
    2      -10.451587   1.000000
    3       -8.981001   1.000000
    4       -8.078456   1.000000
    5        0.571472   0.000000
    6        1.241100   0.000000
    7        1.376395   0.000000
    8        1.465480   0.000000
 
  0.1043761E+00  0.2087553E+00  0.0000000E+00  0.3333333E-02
    1      -22.495289   1.000000
    2      -10.393547   1.000000
    3       -9.103603   1.000000
    4       -8.167654   1.000000
    5        0.638485   0.000000
    6        1.309209   0.000000
    7        1.445125   0.000000
    8        1.534022   0.000000
 
  0.1077430E+00  0.2154893E+00  0.0000000E+00  0.3333333E-02
    1      -22.444706   1.000000
    2      -10.333686   1.000000
    3       -9.227145   1.000000
    4       -8.258543   1.000000
    5        0.707690   0.000000
    6        1.379537   0.000000
    7        1.516107   0.000000
    8        1.604807   0.000000
 
  0.1111100E+00  0.2222233E+00  0.0000000E+00  0.3333333E-02
    1      -22.392726   1.000000
    2      -10.272368   1.000000
    3       -9.352465   1.000000
    4       -8.348975   1.000000
    5        0.779035   0.000000
    6        1.452058   0.000000
    7        1.589344   0.000000
    8        1.677828   0.000000
 
  0.1144770E+00  0.2289574E+00  0.0000000E+00  0.3333333E-02
    1      -22.339002   1.000000
    2      -10.206997   1.000000
    3       -9.476025   1.000000
    4       -8.442949   1.000000
    5        0.852634   0.000000
    6        1.526924   0.000000
    7        1.664834   0.000000
    8        1.753134   0.000000
 
  0.1178439E+00  0.2356914E+00  0.0000000E+00  0.3333333E-02
    1      -22.283728   1.000000
    2      -10.141687   1.000000
    3       -9.602214   1.000000
    4       -8.539629   1.000000
    5        0.928403   0.000000
    6        1.603900   0.000000
    7        1.742577   0.000000
    8        1.830649   0.000000
 
  0.1212109E+00  0.2424255E+00  0.0000000E+00  0.3333333E-02
    1      -22.227049   1.000000
    2      -10.074868   1.000000
    3       -9.729247   1.000000
    4       -8.636876   1.000000
    5        1.006301   0.000000
    6        1.683072   0.000000
    7        1.822573   0.000000
    8        1.910402   0.000000
 
  0.1245779E+00  0.2491595E+00  0.0000000E+00  0.3333333E-02
    1      -22.168625   1.000000
    2      -10.005936   1.000000
    3       -9.853456   1.000000
    4       -8.734496   1.000000
    5        1.086473   0.000000
    6        1.764469   0.000000
    7        1.904823   0.000000
    8        1.992402   0.000000
 
  0.1279448E+00  0.2558935E+00  0.0000000E+00  0.3333333E-02
    1      -22.108691   1.000000
    2       -9.981927   1.000000
    3       -9.935596   1.000000
    4       -8.834282   1.000000
    5        1.168790   0.000000
    6        1.848054   0.000000
    7        1.989326   0.000000
    8        2.076637   0.000000
 
  0.1313118E+00  0.2626276E+00  0.0000000E+00  0.3333333E-02
    1      -22.047318   1.000000
    2      -10.107611   1.000000
    3       -9.863494   1.000000
    4       -8.934998   1.000000
    5        1.253252   0.000000
    6        1.933843   0.000000
    7        2.076081   0.000000
    8        2.163115   0.000000
 
  0.1346788E+00  0.2693616E+00  0.0000000E+00  0.3333333E-02
    1      -21.984236   1.000000
    2      -10.234993   1.000000
    3       -9.789547   1.000000
    4       -9.036418   1.000000
    5        1.339946   0.000000
    6        2.021838   0.000000
    7        2.165093   0.000000
    8        2.251837   0.000000
 
  0.1380458E+00  0.2760957E+00  0.0000000E+00  0.3333333E-02
    1      -21.919628   1.000000
    2      -10.361610   1.000000
    3       -9.713814   1.000000
    4       -9.138360   1.000000
    5        1.428812   0.000000
    6        2.112032   0.000000
    7        2.256351   0.000000
    8        2.342791   0.000000
 
  0.1414127E+00  0.2828297E+00  0.0000000E+00  0.3333333E-02
    1      -21.853474   1.000000
    2      -10.486691   1.000000
    3       -9.636301   1.000000
    4       -9.239464   1.000000
    5        1.519858   0.000000
    6        2.204421   0.000000
    7        2.349867   0.000000
    8        2.435989   0.000000
 
  0.1447797E+00  0.2895637E+00  0.0000000E+00  0.3333333E-02
    1      -21.786028   1.000000
    2      -10.613811   1.000000
    3       -9.557921   1.000000
    4       -9.344967   1.000000
    5        1.612999   0.000000
    6        2.298940   0.000000
    7        2.445638   0.000000
    8        2.531410   0.000000
 
  0.1481467E+00  0.2962978E+00  0.0000000E+00  0.3333333E-02
    1      -21.716880   1.000000
    2      -10.740074   1.000000
    3       -9.477437   1.000000
    4       -9.451720   1.000000
    5        1.708365   0.000000
    6        2.395670   0.000000
    7        2.543657   0.000000
    8        2.629104   0.000000
 
  0.1515136E+00  0.3030318E+00  0.0000000E+00  0.3333333E-02
    1      -21.646189   1.000000
    2      -10.866061   1.000000
    3       -9.556825   1.000000
    4       -9.395243   1.000000
    5        1.805913   0.000000
    6        2.494581   0.000000
    7        2.643933   0.000000
    8        2.729011   0.000000
 
  0.1548806E+00  0.3097659E+00  0.0000000E+00  0.3333333E-02
    1      -21.574154   1.000000
    2      -10.990969   1.000000
    3       -9.662946   1.000000
    4       -9.310701   1.000000
    5        1.905580   0.000000
    6        2.595700   0.000000
    7        2.746460   0.000000
    8        2.831146   0.000000
 
  0.1582476E+00  0.3164999E+00  0.0000000E+00  0.3333333E-02
    1      -21.500410   1.000000
    2      -11.116754   1.000000
    3       -9.769280   1.000000
    4       -9.225125   1.000000
    5        2.007457   0.000000
    6        2.698948   0.000000
    7        2.851243   0.000000
    8        2.935489   0.000000
 
  0.1616145E+00  0.3232339E+00  0.0000000E+00  0.3333333E-02
    1      -21.425149   1.000000
    2      -11.240584   1.000000
    3       -9.875994   1.000000
    4       -9.137912   1.000000
    5        2.111500   0.000000
    6        2.804344   0.000000
    7        2.958278   0.000000
    8        3.042074   0.000000
 
  0.1649815E+00  0.3299680E+00  0.0000000E+00  0.3333333E-02
    1      -21.348400   1.000000
    2      -11.364657   1.000000
    3       -9.982697   1.000000
    4       -9.049101   1.000000
    5        2.217699   0.000000
    6        2.911776   0.000000
    7        2.970713   0.000000
    8        3.067565   0.000000
 
  0.1683485E+00  0.3367020E+00  0.0000000E+00  0.3333333E-02
    1      -21.270492   1.000000
    2      -11.486781   1.000000
    3      -10.088220   1.000000
    4       -8.958044   1.000000
    5        2.325972   0.000000
    6        2.816231   0.000000
    7        3.021693   0.000000
    8        3.179104   0.000000
 
  0.1717155E+00  0.3434361E+00  0.0000000E+00  0.3333333E-02
    1      -21.190769   1.000000
    2      -11.609006   1.000000
    3      -10.195751   1.000000
    4       -8.866212   1.000000
    5        2.436471   0.000000
    6        2.662388   0.000000
    7        3.133478   0.000000
    8        3.292897   0.000000
 
  0.1750824E+00  0.3501701E+00  0.0000000E+00  0.3333333E-02
    1      -21.109604   1.000000
    2      -11.732184   1.000000
    3      -10.304708   1.000000
    4       -8.772478   1.000000
    5        2.509200   0.000000
    6        2.549118   0.000000
    7        3.247415   0.000000
    8        3.408945   0.000000
 
  0.1784494E+00  0.3569041E+00  0.0000000E+00  0.3333333E-02
    1      -21.026933   1.000000
    2      -11.852467   1.000000
    3      -10.412115   1.000000
    4       -8.677606   1.000000
    5        2.356043   0.000000
    6        2.663909   0.000000
    7        3.363431   0.000000
    8        3.527245   0.000000
 
  0.1818164E+00  0.3636382E+00  0.0000000E+00  0.3333333E-02
    1      -20.943055   1.000000
    2      -11.972887   1.000000
    3      -10.520012   1.000000
    4       -8.580823   1.000000
    5        2.202889   0.000000
    6        2.780767   0.000000
    7        3.481549   0.000000
    8        3.647795   0.000000
 
  0.1851833E+00  0.3703722E+00  0.0000000E+00  0.3333333E-02
    1      -20.857510   1.000000
    2      -12.093636   1.000000
    3      -10.627639   1.000000
    4       -8.483178   1.000000
    5        2.050079   0.000000
    6        2.899804   0.000000
    7        3.601701   0.000000
    8        3.770599   0.000000
 
  0.1885503E+00  0.3771063E+00  0.0000000E+00  0.3333333E-02
    1      -20.770557   1.000000
    2      -12.212289   1.000000
    3      -10.735217   1.000000
    4       -8.384241   1.000000
    5        1.895820   0.000000
    6        3.020967   0.000000
    7        3.723875   0.000000
    8        3.895655   0.000000
 
  0.1919173E+00  0.3838403E+00  0.0000000E+00  0.3333333E-02
    1      -20.682164   1.000000
    2      -12.328817   1.000000
    3      -10.840440   1.000000
    4       -8.283675   1.000000
    5        1.742709   0.000000
    6        3.144250   0.000000
    7        3.848078   0.000000
    8        4.022964   0.000000
 
  0.1952842E+00  0.3905743E+00  0.0000000E+00  0.3333333E-02
    1      -20.592610   1.000000
    2      -12.446112   1.000000
    3      -10.947843   1.000000
    4       -8.182216   1.000000
    5        1.591520   0.000000
    6        3.269548   0.000000
    7        3.974228   0.000000
    8        4.152522   0.000000
 
  0.1986512E+00  0.3973084E+00  0.0000000E+00  0.3333333E-02
    1      -20.501416   1.000000
    2      -12.561965   1.000000
    3      -11.054413   1.000000
    4       -8.080670   1.000000
    5        1.441208   0.000000
    6        3.397054   0.000000
    7        4.102220   0.000000
    8        4.284328   0.000000
 
  0.2020182E+00  0.4040424E+00  0.0000000E+00  0.3333333E-02
    1      -20.408784   1.000000
    2      -12.677357   1.000000
    3      -11.160872   1.000000
    4       -7.976390   1.000000
    5        1.291407   0.000000
    6        3.526645   0.000000
    7        4.232239   0.000000
    8        4.418392   0.000000
 
  0.2053852E+00  0.4107765E+00  0.0000000E+00  0.3333333E-02
    1      -20.314797   1.000000
    2      -12.792262   1.000000
    3      -11.268054   1.000000
    4       -7.869553   1.000000
    5        1.140423   0.000000
    6        3.658338   0.000000
    7        4.364225   0.000000
    8        4.554708   0.000000
 
  0.2087521E+00  0.4175105E+00  0.0000000E+00  0.3333333E-02
    1      -20.219410   1.000000
    2      -12.904567   1.000000
    3      -11.373275   1.000000
    4       -7.761580   1.000000
    5        0.993201   0.000000
    6        3.792143   0.000000
    7        4.497967   0.000000
    8        4.693277   0.000000
 
  0.2121191E+00  0.4242445E+00  0.0000000E+00  0.3333333E-02
    1      -20.122984   1.000000
    2      -13.016445   1.000000
    3      -11.478608   1.000000
    4       -7.654083   1.000000
    5        0.845795   0.000000
    6        3.927859   0.000000
    7        4.633311   0.000000
    8        4.834095   0.000000
 
  0.2154861E+00  0.4309786E+00  0.0000000E+00  0.3333333E-02
    1      -20.024875   1.000000
    2      -13.125483   1.000000
    3      -11.580853   1.000000
    4       -7.543121   1.000000
    5        0.700750   0.000000
    6        4.065785   0.000000
    7        4.770481   0.000000
    8        4.977167   0.000000
 
  0.2188530E+00  0.4377126E+00  0.0000000E+00  0.3333333E-02
    1      -19.925626   1.000000
    2      -13.236743   1.000000
    3      -11.684651   1.000000
    4       -7.433940   1.000000
    5        0.555380   0.000000
    6        4.205687   0.000000
    7        4.908932   0.000000
    8        5.122490   0.000000
 
  0.2222200E+00  0.4444467E+00  0.0000000E+00  0.3333333E-02
    1      -19.825061   1.000000
    2      -13.347473   1.000000
    3      -11.789067   1.000000
    4       -7.323093   1.000000
    5        0.409880   0.000000
    6        4.347589   0.000000
    7        5.048854   0.000000
    8        5.270062   0.000000
 
  0.2255870E+00  0.4511807E+00  0.0000000E+00  0.3333333E-02
    1      -19.723544   1.000000
    2      -13.457182   1.000000
    3      -11.891856   1.000000
    4       -7.211533   1.000000
    5        0.266403   0.000000
    6        4.491387   0.000000
    7        5.189961   0.000000
    8        5.419884   0.000000
 
  0.2289539E+00  0.4579147E+00  0.0000000E+00  0.3333333E-02
    1      -19.620437   1.000000
    2      -13.565139   1.000000
    3      -11.993430   1.000000
    4       -7.098668   1.000000
    5        0.124186   0.000000
    6        4.637316   0.000000
    7        5.332143   0.000000
    8        5.571952   0.000000
 
  0.2323209E+00  0.4646488E+00  0.0000000E+00  0.3333333E-02
    1      -19.516126   1.000000
    2      -13.672461   1.000000
    3      -12.094535   1.000000
    4       -6.983637   1.000000
    5       -0.017065   0.000000
    6        4.785263   0.000000
    7        5.475178   0.000000
    8        5.726275   0.000000
 
  0.2356879E+00  0.4713828E+00  0.0000000E+00  0.3333333E-02
    1      -19.410606   1.000000
    2      -13.778139   1.000000
    3      -12.194421   1.000000
    4       -6.869146   1.000000
    5       -0.157056   0.000000
    6        4.935113   0.000000
    7        5.618563   0.000000
    8        5.882848   0.000000
 
  0.2390548E+00  0.4781169E+00  0.0000000E+00  0.3333333E-02
    1      -19.304010   1.000000
    2      -13.882213   1.000000
    3      -12.292771   1.000000
    4       -6.754102   1.000000
    5       -0.299251   0.000000
    6        5.086859   0.000000
    7        5.761883   0.000000
    8        6.041669   0.000000
 
  0.2424218E+00  0.4848509E+00  0.0000000E+00  0.3333333E-02
    1      -19.196583   1.000000
    2      -13.985753   1.000000
    3      -12.390520   1.000000
    4       -6.638277   1.000000
    5       -0.434998   0.000000
    6        5.240384   0.000000
    7        5.904713   0.000000
    8        6.202738   0.000000
 
  0.2457888E+00  0.4915849E+00  0.0000000E+00  0.3333333E-02
    1      -19.087711   1.000000
    2      -14.088361   1.000000
    3      -12.487692   1.000000
    4       -6.521854   1.000000
    5       -0.571464   0.000000
    6        5.395883   0.000000
    7        6.046305   0.000000
    8        6.366054   0.000000
 
  0.2491558E+00  0.4983190E+00  0.0000000E+00  0.3333333E-02
    1      -18.977786   1.000000
    2      -14.189757   1.000000
    3      -12.583762   1.000000
    4       -6.404902   1.000000
    5       -0.706626   0.000000
    6        5.553205   0.000000
    7        6.185722   0.000000
    8        6.531618   0.000000
 
  0.2525227E+00  0.5050530E+00  0.0000000E+00  0.3333333E-02
    1      -18.866832   1.000000
    2      -14.289554   1.000000
    3      -12.678517   1.000000
    4       -6.287460   1.000000
    5       -0.840365   0.000000
    6        5.712341   0.000000
    7        6.321772   0.000000
    8        6.699437   0.000000
 
  0.2558897E+00  0.5117871E+00  0.0000000E+00  0.3333333E-02
    1      -18.755014   1.000000
    2      -14.388727   1.000000
    3      -12.772477   1.000000
    4       -6.169959   1.000000
    5       -0.974797   0.000000
    6        5.873150   0.000000
    7        6.452826   0.000000
    8        6.869486   0.000000
 
  0.2592567E+00  0.5185211E+00  0.0000000E+00  0.3333333E-02
    1      -18.642508   1.000000
    2      -14.485121   1.000000
    3      -12.863017   1.000000
    4       -6.050989   1.000000
    5       -1.104772   0.000000
    6        6.035628   0.000000
    7        6.577130   0.000000
    8        7.041799   0.000000
 
  0.2626236E+00  0.5252552E+00  0.0000000E+00  0.3333333E-02
    1      -18.528826   1.000000
    2      -14.581225   1.000000
    3      -12.953768   1.000000
    4       -5.930863   1.000000
    5       -1.234423   0.000000
    6        6.199875   0.000000
    7        6.692660   0.000000
    8        7.255375   0.000000
 
  0.2659906E+00  0.5319892E+00  0.0000000E+00  0.3333333E-02
    1      -18.415748   1.000000
    2      -14.676495   1.000000
    3      -13.044639   1.000000
    4       -5.812499   1.000000
    5       -1.362704   0.000000
    6        6.364620   0.000000
    7        6.796523   0.000000
    8        7.427460   0.000000
 
  0.2693576E+00  0.5387232E+00  0.0000000E+00  0.3333333E-02
    1      -18.301077   1.000000
    2      -14.770159   1.000000
    3      -13.132998   1.000000
    4       -5.695112   1.000000
    5       -1.489471   0.000000
    6        6.531479   0.000000
    7        6.886298   0.000000
    8        7.601386   0.000000
 
  0.2727245E+00  0.5454573E+00  0.0000000E+00  0.3333333E-02
    1      -18.186074   1.000000
    2      -14.862900   1.000000
    3      -13.220123   1.000000
    4       -5.576828   1.000000
    5       -1.614808   0.000000
    6        6.699369   0.000000
    7        6.960745   0.000000
    8        7.776981   0.000000
 
  0.2760915E+00  0.5521913E+00  0.0000000E+00  0.3333333E-02
    1      -18.070696   1.000000
    2      -14.954405   1.000000
    3      -13.306239   1.000000
    4       -5.459572   1.000000
    5       -1.740316   0.000000
    6        6.868482   0.000000
    7        7.018248   0.000000
    8        7.954309   0.000000
 
  0.2794585E+00  0.5589254E+00  0.0000000E+00  0.3333333E-02
    1      -17.954445   1.000000
    2      -15.043394   1.000000
    3      -13.387819   1.000000
    4       -5.340689   1.000000
    5       -1.863500   0.000000
    6        7.038975   0.000000
    7        7.059891   0.000000
    8        8.133425   0.000000
 
  0.2828255E+00  0.5656594E+00  0.0000000E+00  0.3333333E-02
    1      -17.837964   1.000000
    2      -15.131816   1.000000
    3      -13.469127   1.000000
    4       -5.222468   1.000000
    5       -1.982562   0.000000
    6        7.086917   0.000000
    7        7.210265   0.000000
    8        8.314402   0.000000
 
  0.2861924E+00  0.5723934E+00  0.0000000E+00  0.3333333E-02
    1      -17.721402   1.000000
    2      -15.219158   1.000000
    3      -13.548346   1.000000
    4       -5.105578   1.000000
    5       -2.101807   0.000000
    6        7.101110   0.000000
    7        7.382112   0.000000
    8        8.497302   0.000000
 
  0.2895594E+00  0.5791275E+00  0.0000000E+00  0.3333333E-02
    1      -17.605015   1.000000
    2      -15.305212   1.000000
    3      -13.625383   1.000000
    4       -4.989624   1.000000
    5       -2.221791   0.000000
    6        7.104892   0.000000
    7        7.554268   0.000000
    8        8.682201   0.000000
 
  0.2929264E+00  0.5858615E+00  0.0000000E+00  0.3333333E-02
    1      -17.488916   1.000000
    2      -15.390107   1.000000
    3      -13.699885   1.000000
    4       -4.875582   1.000000
    5       -2.341263   0.000000
    6        7.100279   0.000000
    7        7.726525   0.000000
    8        8.869171   0.000000
 
  0.2962933E+00  0.5925956E+00  0.0000000E+00  0.3333333E-02
    1      -17.373170   1.000000
    2      -15.472888   1.000000
    3      -13.770351   1.000000
    4       -4.760898   1.000000
    5       -2.455461   0.000000
    6        7.090109   0.000000
    7        7.898466   0.000000
    8        9.058226   0.000000
 
  0.2996603E+00  0.5993296E+00  0.0000000E+00  0.3333333E-02
    1      -17.258166   1.000000
    2      -15.554162   1.000000
    3      -13.838702   1.000000
    4       -4.646971   1.000000
    5       -2.567668   0.000000
    6        7.075833   0.000000
    7        8.069605   0.000000
    8        9.249374   0.000000
 
  0.3030273E+00  0.6060636E+00  0.0000000E+00  0.3333333E-02
    1      -17.144023   1.000000
    2      -15.635300   1.000000
    3      -13.903919   1.000000
    4       -4.531794   1.000000
    5       -2.680584   0.000000
    6        7.058885   0.000000
    7        8.239698   0.000000
    8        9.442595   0.000000
 