 vasp.5.4.4.18Apr17-6-g9f103f2a35 (build May 20 2018 16:52:39) complex          
  
 executed on             LinuxIFC date 2022.11.04  19:36:29
 running on    1 total cores
 distrk:  each k-point on    1 cores,    1 groups
 distr:  one band on NCORES_PER_BAND=   1 cores,    1 groups


--------------------------------------------------------------------------------------------------------


 INCAR:
 POTCAR:   PAW_PBE C 08Apr2002                    
 POTCAR:   PAW_PBE C 08Apr2002                    
   VRHFIN =C: s2p2                                                              
   LEXCH  = PE                                                                  
   EATOM  =   147.1560 eV,   10.8157 Ry                                         
                                                                                
   TITEL  = PAW_PBE C 08Apr2002                                                 
   LULTRA =        F    use ultrasoft PP ?                                      
   IUNSCR =        0    unscreen: 0-lin 1-nonlin 2-no                           
   RPACOR =     .000    partial core radius                                     
   POMASS =   12.011; ZVAL   =    4.000    mass and valenz                      
   RCORE  =    1.500    outmost cutoff radius                                   
   RWIGS  =    1.630; RWIGS  =     .863    wigner-seitz radius (au A)           
   ENMAX  =  400.000; ENMIN  =  300.000 eV                                      
   ICORE  =        2    local potential                                         
   LCOR   =        T    correct aug charges                                     
   LPAW   =        T    paw PP                                                  
   EAUG   =  644.873                                                            
   DEXC   =     .000                                                            
   RMAX   =    2.266    core radius for proj-oper                               
   RAUG   =    1.300    factor for augmentation sphere                          
   RDEP   =    1.501    radius for radial grids                                 
   RDEPT  =    1.300    core radius for aug-charge                              
   QCUT   =   -5.516; QGAM   =   11.032    optimization parameters              
                                                                                
   Description                                                                  
     l     E      TYP  RCUT    TYP  RCUT                                        
     0   .000     23  1.200                                                     
     0   .000     23  1.200                                                     
     1   .000     23  1.500                                                     
     1  2.500     23  1.500                                                     
     2   .000      7  1.500                                                     
  local pseudopotential read in
  atomic valenz-charges read in
  non local Contribution for L=           0  read in
    real space projection operators read in
  non local Contribution for L=           0  read in
    real space projection operators read in
  non local Contribution for L=           1  read in
    real space projection operators read in
  non local Contribution for L=           1  read in
    real space projection operators read in
    PAW grid and wavefunctions read in
 
   number of l-projection  operators is LMAX  =           4
   number of lm-projection operators is LMMAX =           8
 
 PAW_PBE C 08Apr2002                    :
 energy of atom  1       EATOM= -147.1560
 kinetic energy error for atom=    0.2561 (will be added to EATOM!!)
 
 
 POSCAR: graphene                                
  positions in direct lattice
  No initial velocities read in
 exchange correlation table for  LEXCH =        8
   RHO(1)=    0.500       N(1)  =     2000
   RHO(2)=  100.500       N(2)  =     4000
 


--------------------------------------------------------------------------------------------------------


 ion  position               nearest neighbor table
   1  0.000  0.000  0.000-   2 1.42   2 1.42   2 1.42
   2  0.667  0.667  0.000-   1 1.42   1 1.42   1 1.42
 
  LATTYP: Found a base centered orthorhombic cell.
 ALAT       =     2.4600000000
 B/A-ratio  =     1.7320000000
 C/A-ratio  =    20.0000000000
  
  Lattice vectors:
  
 A1 = (   2.1303600000,  -1.2300000000,   0.0000000000)
 A2 = (  -2.1303600000,  -1.2300000000,   0.0000000000)
 A3 = (   0.0000000000,   0.0000000000, -49.2000000000)


Analysis of symmetry for initial positions (statically):
=====================================================================
 Subroutine PRICEL returns:
 Original cell was already a primitive cell.
 

 Routine SETGRP: Setting up the symmetry group for a 
 base centered orthorhombic supercell.


 Subroutine GETGRP returns: Found  8 space group operations
 (whereof  4 operations were pure point group operations)
 out of a pool of  8 trial point group operations.


The static configuration has the point symmetry C_2v.
 The point group associated with its full space group is D_2h.


Analysis of symmetry for dynamics (positions and initial velocities):
=====================================================================
 Subroutine PRICEL returns:
 Original cell was already a primitive cell.
 

 Routine SETGRP: Setting up the symmetry group for a 
 base centered orthorhombic supercell.


 Subroutine GETGRP returns: Found  8 space group operations
 (whereof  4 operations were pure point group operations)
 out of a pool of  8 trial point group operations.


The dynamic configuration has the point symmetry C_2v.
 The point group associated with its full space group is D_2h.


 Subroutine INISYM returns: Found  8 space group operations
 (whereof  4 operations are pure point group operations),
 and found     1 'primitive' translations

 
 
 KPOINTS: K-path for graphene                     
  interpolating k-points between supplied coordinates
  k-points in reciprocal lattice
Space group operators:
 irot       det(A)        alpha          n_x          n_y          n_z        tau_x        tau_y        tau_z
    1     1.000000     0.000000     1.000000     0.000000     0.000000     0.000000     0.000000     0.000000
    2    -1.000000   180.000000     0.000000     0.000000     1.000000     0.000000     0.000000     0.000000
    3     1.000000   180.000000     1.000000     0.000000     0.000000     0.000000     0.000000     0.000000
    4    -1.000000   180.000000     0.000000     1.000000     0.000000     0.000000     0.000000     0.000000
    5    -1.000000     0.000000     1.000000     0.000000     0.000000     0.666700    -0.333300     0.000000
    6     1.000000   180.000000     0.000000     0.000000     1.000000     0.666700    -0.333300     0.000000
    7    -1.000000   180.000000     1.000000     0.000000     0.000000     0.666700    -0.333300     0.000000
    8     1.000000   180.000000     0.000000     1.000000     0.000000     0.666700    -0.333300     0.000000


--------------------------------------------------------------------------------------------------------




 Dimension of arrays:
   k-points           NKPTS =    300   k-points in BZ     NKDIM =    300   number of bands    NBANDS=      8
   number of dos      NEDOS =    301   number of ions     NIONS =      2
   non local maximal  LDIM  =      4   non local SUM 2l+1 LMDIM =      8
   total plane-waves  NPLWV =  21000
   max r-space proj   IRMAX =      1   max aug-charges    IRDMAX=   1161
   dimension x,y,z NGX =    10 NGY =   10 NGZ =  210
   dimension x,y,z NGXF=    20 NGYF=   20 NGZF=  420
   support grid    NGXF=    20 NGYF=   20 NGZF=  420
   ions per type =               2
   NGX,Y,Z   is equivalent  to a cutoff of   6.76,  6.76,  7.10 a.u.
   NGXF,Y,Z  is equivalent  to a cutoff of  13.52, 13.52, 14.19 a.u.

 SYSTEM =  graphene (single layer)                 
 POSCAR =  graphene                                

 Startparameter for this run:
   NWRITE =      2    write-flag & timer
   PREC   = normal    normal or accurate (medium, high low for compatibility)
   ISTART =      0    job   : 0-new  1-cont  2-samecut
   ICHARG =      2    charge: 1-file 2-atom 10-const
   ISPIN  =      1    spin polarized calculation?
   LNONCOLLINEAR =      F non collinear calculations
   LSORBIT =      F    spin-orbit coupling
   INIWAV =      1    electr: 0-lowe 1-rand  2-diag
   LASPH  =      F    aspherical Exc in radial PAW
   METAGGA=      F    non-selfconsistent MetaGGA calc.

 Electronic Relaxation 1
   ENCUT  =  300.0 eV  22.05 Ry    4.70 a.u.   3.47  3.47 69.48*2*pi/ulx,y,z
   ENINI  =  300.0     initial cutoff
   ENAUG  =  644.9 eV  augmentation charge cutoff
   NELM   =     60;   NELMIN=  2; NELMDL= -5     # of ELM steps 
   EDIFF  = 0.1E-05   stopping-criterion for ELM
   LREAL  =      F    real-space projection
   NLSPLINE    = F    spline interpolate recip. space projectors
   LCOMPAT=      F    compatible to vasp.4.4
   GGA_COMPAT  = T    GGA compatible to vasp.4.4-vasp.4.6
   LMAXPAW     = -100 max onsite density
   LMAXMIX     =    2 max onsite mixed and CHGCAR
   VOSKOWN=      0    Vosko Wilk Nusair interpolation
   ROPT   =    0.00000
 Ionic relaxation
   EDIFFG = 0.1E-04   stopping-criterion for IOM
   NSW    =      0    number of steps for IOM
   NBLOCK =      1;   KBLOCK =      1    inner block; outer block 
   IBRION =     -1    ionic relax: 0-MD 1-quasi-New 2-CG
   NFREE  =      0    steps in history (QN), initial steepest desc. (CG)
   ISIF   =      2    stress and relaxation
   IWAVPR =     10    prediction:  0-non 1-charg 2-wave 3-comb
   ISYM   =      2    0-nonsym 1-usesym 2-fastsym
   LCORR  =      T    Harris-Foulkes like correction to forces

   POTIM  = 0.5000    time-step for ionic-motion
   TEIN   =    0.0    initial temperature
   TEBEG  =    0.0;   TEEND  =   0.0 temperature during run
   SMASS  =  -3.00    Nose mass-parameter (am)
   estimated Nose-frequenzy (Omega)   =  0.10E-29 period in steps =****** mass=  -0.138E-27a.u.
   SCALEE = 1.0000    scale energy and forces
   NPACO  =    256;   APACO  = 16.0  distance and # of slots for P.C.
   PSTRESS=    0.0 pullay stress

  Mass of Ions in am
   POMASS =  12.01
  Ionic Valenz
   ZVAL   =   4.00
  Atomic Wigner-Seitz radii
   RWIGS  =  -1.00
  virtual crystal weights 
   VCA    =   1.00
   NELECT =       8.0000    total number of electrons
   NUPDOWN=      -1.0000    fix difference up-down

 DOS related values:
   EMIN   =  10.00;   EMAX   =-10.00  energy-range for DOS
   EFERMI =   0.00
   ISMEAR =     0;   SIGMA  =   0.20  broadening in eV -4-tet -1-fermi 0-gaus

 Electronic relaxation 2 (details)
   IALGO  =     38    algorithm
   LDIAG  =      T    sub-space diagonalisation (order eigenvalues)
   LSUBROT=      F    optimize rotation matrix (better conditioning)
   TURBO    =      0    0=normal 1=particle mesh
   IRESTART =      0    0=no restart 2=restart with 2 vectors
   NREBOOT  =      0    no. of reboots
   NMIN     =      0    reboot dimension
   EREF     =   0.00    reference energy to select bands
   IMIX   =      4    mixing-type and parameters
     AMIX     =   0.40;   BMIX     =  1.00
     AMIX_MAG =   1.60;   BMIX_MAG =  1.00
     AMIN     =   0.10
     WC   =   100.;   INIMIX=   1;  MIXPRE=   1;  MAXMIX= -45

 Intra band minimization:
   WEIMIN = 0.0000     energy-eigenvalue tresh-hold
   EBREAK =  0.31E-07  absolut break condition
   DEPER  =   0.30     relativ break condition  

   TIME   =   0.40     timestep for ELM

  volume/ion in A,a.u.               =     128.92       870.00
  Fermi-wavevector in a.u.,A,eV,Ry     =   0.514423  0.972119  3.600524  0.264631
  Thomas-Fermi vector in A             =   1.529375
 
 Write flags
   LWAVE        =      T    write WAVECAR
   LDOWNSAMPLE  =      F    k-point downsampling of WAVECAR
   LCHARG       =      F    write CHGCAR
   LVTOT        =      F    write LOCPOT, total local potential
   LVHAR        =      F    write LOCPOT, Hartree potential only
   LELF         =      F    write electronic localiz. function (ELF)
   LORBIT       =      0    0 simple, 1 ext, 2 COOP (PROOUT), +10 PAW based schemes


 Dipole corrections
   LMONO  =      F    monopole corrections only (constant potential shift)
   LDIPOL =      F    correct potential (dipole corrections)
   IDIPOL =      0    1-x, 2-y, 3-z, 4-all directions 
   EPSILON=  1.0000000 bulk dielectric constant

 Exchange correlation treatment:
   GGA     =    --    GGA type
   LEXCH   =     8    internal setting for exchange type
   VOSKOWN=      0    Vosko Wilk Nusair interpolation
   LHFCALC =     F    Hartree Fock is set to
   LHFONE  =     F    Hartree Fock one center treatment
   AEXX    =    0.0000 exact exchange contribution

 Linear response parameters
   LEPSILON=     F    determine dielectric tensor
   LRPA    =     F    only Hartree local field effects (RPA)
   LNABLA  =     F    use nabla operator in PAW spheres
   LVEL    =     F    velocity operator in full k-point grid
   LINTERFAST=   F  fast interpolation
   KINTER  =     0    interpolate to denser k-point grid
   CSHIFT  =0.1000    complex shift for real part using Kramers Kronig
   OMEGAMAX=  -1.0    maximum frequency
   DEG_THRESHOLD= 0.2000000E-02 threshold for treating states as degnerate
   RTIME   =   -0.100 relaxation time in fs
  (WPLASMAI=    0.000 imaginary part of plasma frequency in eV, 0.658/RTIME)
   DFIELD  = 0.0000000 0.0000000 0.0000000 field for delta impulse in time
 
 Orbital magnetization related:
   ORBITALMAG=     F  switch on orbital magnetization
   LCHIMAG   =     F  perturbation theory with respect to B field
   DQ        =  0.001000  dq finite difference perturbation B field
   LLRAUG    =     F  two centre corrections for induced B field



--------------------------------------------------------------------------------------------------------


 Static calculation
 charge density and potential will be updated during run
 non-spin polarized calculation
 Variant of blocked Davidson
 Davidson routine will perform the subspace rotation
 perform sub-space diagonalisation
    after iterative eigenvector-optimisation
 modified Broyden-mixing scheme, WC =      100.0
 initial mixing is a Kerker type mixing with AMIX =  0.4000 and BMIX =      1.0000
 Hartree-type preconditioning will be used
 using additional bands            4
 reciprocal scheme for non local part
 calculate Harris-corrections to forces 
   (improved forces if not selfconsistent)
 use gradient corrections 
 use of overlap-Matrix (Vanderbilt PP)
 Gauss-broadening in eV      SIGMA  =   0.20


--------------------------------------------------------------------------------------------------------


  energy-cutoff  :      300.00
  volume of cell :      257.84
      direct lattice vectors                 reciprocal lattice vectors
     2.130360000 -1.230000000  0.000000000     0.234702116 -0.406504065  0.000000000
     2.130360000  1.230000000  0.000000000     0.234702116  0.406504065  0.000000000
     0.000000000  0.000000000 49.200000000     0.000000000  0.000000000  0.020325203

  length of vectors
     2.459945879  2.459945879 49.200000000     0.469393905  0.469393905  0.020325203


 
 k-points in units of 2pi/SCALE and weight: K-path for graphene                     
   0.00000000  0.00000000  0.00000000       0.003
   0.00583199  0.00336707  0.00000000       0.003
   0.01166398  0.00673414  0.00000000       0.003
   0.01749598  0.01010121  0.00000000       0.003
   0.02332797  0.01346828  0.00000000       0.003
   0.02915996  0.01683535  0.00000000       0.003
   0.03499195  0.02020242  0.00000000       0.003
   0.04082394  0.02356949  0.00000000       0.003
   0.04665594  0.02693657  0.00000000       0.003
   0.05248793  0.03030364  0.00000000       0.003
   0.05831992  0.03367071  0.00000000       0.003
   0.06415191  0.03703778  0.00000000       0.003
   0.06998390  0.04040485  0.00000000       0.003
   0.07581590  0.04377192  0.00000000       0.003
   0.08164789  0.04713899  0.00000000       0.003
   0.08747988  0.05050606  0.00000000       0.003
   0.09331187  0.05387313  0.00000000       0.003
   0.09914386  0.05724020  0.00000000       0.003
   0.10497586  0.06060727  0.00000000       0.003
   0.11080785  0.06397434  0.00000000       0.003
   0.11663984  0.06734141  0.00000000       0.003
   0.12247183  0.07070848  0.00000000       0.003
   0.12830382  0.07407556  0.00000000       0.003
   0.13413582  0.07744263  0.00000000       0.003
   0.13996781  0.08080970  0.00000000       0.003
   0.14579980  0.08417677  0.00000000       0.003
   0.15163179  0.08754384  0.00000000       0.003
   0.15746378  0.09091091  0.00000000       0.003
   0.16329578  0.09427798  0.00000000       0.003
   0.16912777  0.09764505  0.00000000       0.003
   0.17495976  0.10101212  0.00000000       0.003
   0.18079175  0.10437919  0.00000000       0.003
   0.18662374  0.10774626  0.00000000       0.003
   0.19245574  0.11111333  0.00000000       0.003
   0.19828773  0.11448040  0.00000000       0.003
   0.20411972  0.11784747  0.00000000       0.003
   0.20995171  0.12121455  0.00000000       0.003
   0.21578370  0.12458162  0.00000000       0.003
   0.22161570  0.12794869  0.00000000       0.003
   0.22744769  0.13131576  0.00000000       0.003
   0.23327968  0.13468283  0.00000000       0.003
   0.23911167  0.13804990  0.00000000       0.003
   0.24494366  0.14141697  0.00000000       0.003
   0.25077565  0.14478404  0.00000000       0.003
   0.25660765  0.14815111  0.00000000       0.003
   0.26243964  0.15151818  0.00000000       0.003
   0.26827163  0.15488525  0.00000000       0.003
   0.27410362  0.15825232  0.00000000       0.003
   0.27993561  0.16161939  0.00000000       0.003
   0.28576761  0.16498646  0.00000000       0.003
   0.29159960  0.16835354  0.00000000       0.003
   0.29743159  0.17172061  0.00000000       0.003
   0.30326358  0.17508768  0.00000000       0.003
   0.30909557  0.17845475  0.00000000       0.003
   0.31492757  0.18182182  0.00000000       0.003
   0.32075956  0.18518889  0.00000000       0.003
   0.32659155  0.18855596  0.00000000       0.003
   0.33242354  0.19192303  0.00000000       0.003
   0.33825553  0.19529010  0.00000000       0.003
   0.34408753  0.19865717  0.00000000       0.003
   0.34991952  0.20202424  0.00000000       0.003
   0.35575151  0.20539131  0.00000000       0.003
   0.36158350  0.20875838  0.00000000       0.003
   0.36741549  0.21212545  0.00000000       0.003
   0.37324749  0.21549253  0.00000000       0.003
   0.37907948  0.21885960  0.00000000       0.003
   0.38491147  0.22222667  0.00000000       0.003
   0.39074346  0.22559374  0.00000000       0.003
   0.39657545  0.22896081  0.00000000       0.003
   0.40240745  0.23232788  0.00000000       0.003
   0.40823944  0.23569495  0.00000000       0.003
   0.41407143  0.23906202  0.00000000       0.003
   0.41990342  0.24242909  0.00000000       0.003
   0.42573541  0.24579616  0.00000000       0.003
   0.43156741  0.24916323  0.00000000       0.003
   0.43739940  0.25253030  0.00000000       0.003
   0.44323139  0.25589737  0.00000000       0.003
   0.44906338  0.25926444  0.00000000       0.003
   0.45489537  0.26263152  0.00000000       0.003
   0.46072737  0.26599859  0.00000000       0.003
   0.46655936  0.26936566  0.00000000       0.003
   0.47239135  0.27273273  0.00000000       0.003
   0.47822334  0.27609980  0.00000000       0.003
   0.48405533  0.27946687  0.00000000       0.003
   0.48988733  0.28283394  0.00000000       0.003
   0.49571932  0.28620101  0.00000000       0.003
   0.50155131  0.28956808  0.00000000       0.003
   0.50738330  0.29293515  0.00000000       0.003
   0.51321529  0.29630222  0.00000000       0.003
   0.51904729  0.29966929  0.00000000       0.003
   0.52487928  0.30303636  0.00000000       0.003
   0.53071127  0.30640343  0.00000000       0.003
   0.53654326  0.30977051  0.00000000       0.003
   0.54237525  0.31313758  0.00000000       0.003
   0.54820725  0.31650465  0.00000000       0.003
   0.55403924  0.31987172  0.00000000       0.003
   0.55987123  0.32323879  0.00000000       0.003
   0.56570322  0.32660586  0.00000000       0.003
   0.57153521  0.32997293  0.00000000       0.003
   0.57736721  0.33334000  0.00000000       0.003
   0.57736721  0.33334000  0.00000000       0.003
   0.57445121  0.32492242  0.00000000       0.003
   0.57153521  0.31650485  0.00000000       0.003
   0.56861922  0.30808727  0.00000000       0.003
   0.56570322  0.29966970  0.00000000       0.003
   0.56278723  0.29125212  0.00000000       0.003
   0.55987123  0.28283455  0.00000000       0.003
   0.55695523  0.27441697  0.00000000       0.003
   0.55403924  0.26599939  0.00000000       0.003
   0.55112324  0.25758182  0.00000000       0.003
   0.54820725  0.24916424  0.00000000       0.003
   0.54529125  0.24074667  0.00000000       0.003
   0.54237525  0.23232909  0.00000000       0.003
   0.53945926  0.22391152  0.00000000       0.003
   0.53654326  0.21549394  0.00000000       0.003
   0.53362727  0.20707636  0.00000000       0.003
   0.53071127  0.19865879  0.00000000       0.003
   0.52779527  0.19024121  0.00000000       0.003
   0.52487928  0.18182364  0.00000000       0.003
   0.52196328  0.17340606  0.00000000       0.003
   0.51904729  0.16498848  0.00000000       0.003
   0.51613129  0.15657091  0.00000000       0.003
   0.51321529  0.14815333  0.00000000       0.003
   0.51029930  0.13973576  0.00000000       0.003
   0.50738330  0.13131818  0.00000000       0.003
   0.50446731  0.12290061  0.00000000       0.003
   0.50155131  0.11448303  0.00000000       0.003
   0.49863531  0.10606545  0.00000000       0.003
   0.49571932  0.09764788  0.00000000       0.003
   0.49280332  0.08923030  0.00000000       0.003
   0.48988733  0.08081273  0.00000000       0.003
   0.48697133  0.07239515  0.00000000       0.003
   0.48405533  0.06397758  0.00000000       0.003
   0.48113934  0.05556000  0.00000000       0.003
   0.47822334  0.04714242  0.00000000       0.003
   0.47530735  0.03872485  0.00000000       0.003
   0.47239135  0.03030727  0.00000000       0.003
   0.46947535  0.02188970  0.00000000       0.003
   0.46655936  0.01347212  0.00000000       0.003
   0.46364336  0.00505455  0.00000000       0.003
   0.46072737 -0.00336303  0.00000000       0.003
   0.45781137 -0.01178061  0.00000000       0.003
   0.45489537 -0.02019818  0.00000000       0.003
   0.45197938 -0.02861576  0.00000000       0.003
   0.44906338 -0.03703333  0.00000000       0.003
   0.44614739 -0.04545091  0.00000000       0.003
   0.44323139 -0.05386848  0.00000000       0.003
   0.44031539 -0.06228606  0.00000000       0.003
   0.43739940 -0.07070364  0.00000000       0.003
   0.43448340 -0.07912121  0.00000000       0.003
   0.43156741 -0.08753879  0.00000000       0.003
   0.42865141 -0.09595636  0.00000000       0.003
   0.42573541 -0.10437394  0.00000000       0.003
   0.42281942 -0.11279152  0.00000000       0.003
   0.41990342 -0.12120909  0.00000000       0.003
   0.41698743 -0.12962667  0.00000000       0.003
   0.41407143 -0.13804424  0.00000000       0.003
   0.41115543 -0.14646182  0.00000000       0.003
   0.40823944 -0.15487939  0.00000000       0.003
   0.40532344 -0.16329697  0.00000000       0.003
   0.40240745 -0.17171455  0.00000000       0.003
   0.39949145 -0.18013212  0.00000000       0.003
   0.39657545 -0.18854970  0.00000000       0.003
   0.39365946 -0.19696727  0.00000000       0.003
   0.39074346 -0.20538485  0.00000000       0.003
   0.38782747 -0.21380242  0.00000000       0.003
   0.38491147 -0.22222000  0.00000000       0.003
   0.38199547 -0.23063758  0.00000000       0.003
   0.37907948 -0.23905515  0.00000000       0.003
   0.37616348 -0.24747273  0.00000000       0.003
   0.37324749 -0.25589030  0.00000000       0.003
   0.37033149 -0.26430788  0.00000000       0.003
   0.36741549 -0.27272545  0.00000000       0.003
   0.36449950 -0.28114303  0.00000000       0.003
   0.36158350 -0.28956061  0.00000000       0.003
   0.35866751 -0.29797818  0.00000000       0.003
   0.35575151 -0.30639576  0.00000000       0.003
   0.35283551 -0.31481333  0.00000000       0.003
   0.34991952 -0.32323091  0.00000000       0.003
   0.34700352 -0.33164848  0.00000000       0.003
   0.34408753 -0.34006606  0.00000000       0.003
   0.34117153 -0.34848364  0.00000000       0.003
   0.33825553 -0.35690121  0.00000000       0.003
   0.33533954 -0.36531879  0.00000000       0.003
   0.33242354 -0.37373636  0.00000000       0.003
   0.32950755 -0.38215394  0.00000000       0.003
   0.32659155 -0.39057152  0.00000000       0.003
   0.32367555 -0.39898909  0.00000000       0.003
   0.32075956 -0.40740667  0.00000000       0.003
   0.31784356 -0.41582424  0.00000000       0.003
   0.31492757 -0.42424182  0.00000000       0.003
   0.31201157 -0.43265939  0.00000000       0.003
   0.30909557 -0.44107697  0.00000000       0.003
   0.30617958 -0.44949455  0.00000000       0.003
   0.30326358 -0.45791212  0.00000000       0.003
   0.30034759 -0.46632970  0.00000000       0.003
   0.29743159 -0.47474727  0.00000000       0.003
   0.29451559 -0.48316485  0.00000000       0.003
   0.29159960 -0.49158242  0.00000000       0.003
   0.28868360 -0.50000000  0.00000000       0.003
   0.28868360 -0.50000000  0.00000000       0.003
   0.28576761 -0.49494949  0.00000000       0.003
   0.28285161 -0.48989899  0.00000000       0.003
   0.27993561 -0.48484848  0.00000000       0.003
   0.27701962 -0.47979798  0.00000000       0.003
   0.27410362 -0.47474747  0.00000000       0.003
   0.27118763 -0.46969697  0.00000000       0.003
   0.26827163 -0.46464646  0.00000000       0.003
   0.26535563 -0.45959596  0.00000000       0.003
   0.26243964 -0.45454545  0.00000000       0.003
   0.25952364 -0.44949495  0.00000000       0.003
   0.25660765 -0.44444444  0.00000000       0.003
   0.25369165 -0.43939394  0.00000000       0.003
   0.25077565 -0.43434343  0.00000000       0.003
   0.24785966 -0.42929293  0.00000000       0.003
   0.24494366 -0.42424242  0.00000000       0.003
   0.24202767 -0.41919192  0.00000000       0.003
   0.23911167 -0.41414141  0.00000000       0.003
   0.23619567 -0.40909091  0.00000000       0.003
   0.23327968 -0.40404040  0.00000000       0.003
   0.23036368 -0.39898990  0.00000000       0.003
   0.22744769 -0.39393939  0.00000000       0.003
   0.22453169 -0.38888889  0.00000000       0.003
   0.22161570 -0.38383838  0.00000000       0.003
   0.21869970 -0.37878788  0.00000000       0.003
   0.21578370 -0.37373737  0.00000000       0.003
   0.21286771 -0.36868687  0.00000000       0.003
   0.20995171 -0.36363636  0.00000000       0.003
   0.20703572 -0.35858586  0.00000000       0.003
   0.20411972 -0.35353535  0.00000000       0.003
   0.20120372 -0.34848485  0.00000000       0.003
   0.19828773 -0.34343434  0.00000000       0.003
   0.19537173 -0.33838384  0.00000000       0.003
   0.19245574 -0.33333333  0.00000000       0.003
   0.18953974 -0.32828283  0.00000000       0.003
   0.18662374 -0.32323232  0.00000000       0.003
   0.18370775 -0.31818182  0.00000000       0.003
   0.18079175 -0.31313131  0.00000000       0.003
   0.17787576 -0.30808081  0.00000000       0.003
   0.17495976 -0.30303030  0.00000000       0.003
   0.17204376 -0.29797980  0.00000000       0.003
   0.16912777 -0.29292929  0.00000000       0.003
   0.16621177 -0.28787879  0.00000000       0.003
   0.16329578 -0.28282828  0.00000000       0.003
   0.16037978 -0.27777778  0.00000000       0.003
   0.15746378 -0.27272727  0.00000000       0.003
   0.15454779 -0.26767677  0.00000000       0.003
   0.15163179 -0.26262626  0.00000000       0.003
   0.14871580 -0.25757576  0.00000000       0.003
   0.14579980 -0.25252525  0.00000000       0.003
   0.14288380 -0.24747475  0.00000000       0.003
   0.13996781 -0.24242424  0.00000000       0.003
   0.13705181 -0.23737374  0.00000000       0.003
   0.13413582 -0.23232323  0.00000000       0.003
   0.13121982 -0.22727273  0.00000000       0.003
   0.12830382 -0.22222222  0.00000000       0.003
   0.12538783 -0.21717172  0.00000000       0.003
   0.12247183 -0.21212121  0.00000000       0.003
   0.11955584 -0.20707071  0.00000000       0.003
   0.11663984 -0.20202020  0.00000000       0.003
   0.11372384 -0.19696970  0.00000000       0.003
   0.11080785 -0.19191919  0.00000000       0.003
   0.10789185 -0.18686869  0.00000000       0.003
   0.10497586 -0.18181818  0.00000000       0.003
   0.10205986 -0.17676768  0.00000000       0.003
   0.09914386 -0.17171717  0.00000000       0.003
   0.09622787 -0.16666667  0.00000000       0.003
   0.09331187 -0.16161616  0.00000000       0.003
   0.09039588 -0.15656566  0.00000000       0.003
   0.08747988 -0.15151515  0.00000000       0.003
   0.08456388 -0.14646465  0.00000000       0.003
   0.08164789 -0.14141414  0.00000000       0.003
   0.07873189 -0.13636364  0.00000000       0.003
   0.07581590 -0.13131313  0.00000000       0.003
   0.07289990 -0.12626263  0.00000000       0.003
   0.06998390 -0.12121212  0.00000000       0.003
   0.06706791 -0.11616162  0.00000000       0.003
   0.06415191 -0.11111111  0.00000000       0.003
   0.06123592 -0.10606061  0.00000000       0.003
   0.05831992 -0.10101010  0.00000000       0.003
   0.05540392 -0.09595960  0.00000000       0.003
   0.05248793 -0.09090909  0.00000000       0.003
   0.04957193 -0.08585859  0.00000000       0.003
   0.04665594 -0.08080808  0.00000000       0.003
   0.04373994 -0.07575758  0.00000000       0.003
   0.04082394 -0.07070707  0.00000000       0.003
   0.03790795 -0.06565657  0.00000000       0.003
   0.03499195 -0.06060606  0.00000000       0.003
   0.03207596 -0.05555556  0.00000000       0.003
   0.02915996 -0.05050505  0.00000000       0.003
   0.02624396 -0.04545455  0.00000000       0.003
   0.02332797 -0.04040404  0.00000000       0.003
   0.02041197 -0.03535354  0.00000000       0.003
   0.01749598 -0.03030303  0.00000000       0.003
   0.01457998 -0.02525253  0.00000000       0.003
   0.01166398 -0.02020202  0.00000000       0.003
   0.00874799 -0.01515152  0.00000000       0.003
   0.00583199 -0.01010101  0.00000000       0.003
   0.00291600 -0.00505051  0.00000000       0.003
   0.00000000  0.00000000  0.00000000       0.003
 
 k-points in reciprocal lattice and weights: K-path for graphene                     
   0.00000000  0.00000000  0.00000000       0.003
   0.00336697  0.00673404  0.00000000       0.003
   0.00673394  0.01346808  0.00000000       0.003
   0.01010091  0.02020212  0.00000000       0.003
   0.01346788  0.02693616  0.00000000       0.003
   0.01683485  0.03367020  0.00000000       0.003
   0.02020182  0.04040424  0.00000000       0.003
   0.02356879  0.04713828  0.00000000       0.003
   0.02693576  0.05387232  0.00000000       0.003
   0.03030273  0.06060636  0.00000000       0.003
   0.03366970  0.06734040  0.00000000       0.003
   0.03703667  0.07407444  0.00000000       0.003
   0.04040364  0.08080848  0.00000000       0.003
   0.04377061  0.08754253  0.00000000       0.003
   0.04713758  0.09427657  0.00000000       0.003
   0.05050455  0.10101061  0.00000000       0.003
   0.05387152  0.10774465  0.00000000       0.003
   0.05723848  0.11447869  0.00000000       0.003
   0.06060545  0.12121273  0.00000000       0.003
   0.06397242  0.12794677  0.00000000       0.003
   0.06733939  0.13468081  0.00000000       0.003
   0.07070636  0.14141485  0.00000000       0.003
   0.07407333  0.14814889  0.00000000       0.003
   0.07744030  0.15488293  0.00000000       0.003
   0.08080727  0.16161697  0.00000000       0.003
   0.08417424  0.16835101  0.00000000       0.003
   0.08754121  0.17508505  0.00000000       0.003
   0.09090818  0.18181909  0.00000000       0.003
   0.09427515  0.18855313  0.00000000       0.003
   0.09764212  0.19528717  0.00000000       0.003
   0.10100909  0.20202121  0.00000000       0.003
   0.10437606  0.20875525  0.00000000       0.003
   0.10774303  0.21548929  0.00000000       0.003
   0.11111000  0.22222333  0.00000000       0.003
   0.11447697  0.22895737  0.00000000       0.003
   0.11784394  0.23569141  0.00000000       0.003
   0.12121091  0.24242545  0.00000000       0.003
   0.12457788  0.24915949  0.00000000       0.003
   0.12794485  0.25589354  0.00000000       0.003
   0.13131182  0.26262758  0.00000000       0.003
   0.13467879  0.26936162  0.00000000       0.003
   0.13804576  0.27609566  0.00000000       0.003
   0.14141273  0.28282970  0.00000000       0.003
   0.14477970  0.28956374  0.00000000       0.003
   0.14814667  0.29629778  0.00000000       0.003
   0.15151364  0.30303182  0.00000000       0.003
   0.15488061  0.30976586  0.00000000       0.003
   0.15824758  0.31649990  0.00000000       0.003
   0.16161455  0.32323394  0.00000000       0.003
   0.16498152  0.32996798  0.00000000       0.003
   0.16834848  0.33670202  0.00000000       0.003
   0.17171545  0.34343606  0.00000000       0.003
   0.17508242  0.35017010  0.00000000       0.003
   0.17844939  0.35690414  0.00000000       0.003
   0.18181636  0.36363818  0.00000000       0.003
   0.18518333  0.37037222  0.00000000       0.003
   0.18855030  0.37710626  0.00000000       0.003
   0.19191727  0.38384030  0.00000000       0.003
   0.19528424  0.39057434  0.00000000       0.003
   0.19865121  0.39730838  0.00000000       0.003
   0.20201818  0.40404242  0.00000000       0.003
   0.20538515  0.41077646  0.00000000       0.003
   0.20875212  0.41751051  0.00000000       0.003
   0.21211909  0.42424455  0.00000000       0.003
   0.21548606  0.43097859  0.00000000       0.003
   0.21885303  0.43771263  0.00000000       0.003
   0.22222000  0.44444667  0.00000000       0.003
   0.22558697  0.45118071  0.00000000       0.003
   0.22895394  0.45791475  0.00000000       0.003
   0.23232091  0.46464879  0.00000000       0.003
   0.23568788  0.47138283  0.00000000       0.003
   0.23905485  0.47811687  0.00000000       0.003
   0.24242182  0.48485091  0.00000000       0.003
   0.24578879  0.49158495  0.00000000       0.003
   0.24915576  0.49831899  0.00000000       0.003
   0.25252273  0.50505303  0.00000000       0.003
   0.25588970  0.51178707  0.00000000       0.003
   0.25925667  0.51852111  0.00000000       0.003
   0.26262364  0.52525515  0.00000000       0.003
   0.26599061  0.53198919  0.00000000       0.003
   0.26935758  0.53872323  0.00000000       0.003
   0.27272455  0.54545727  0.00000000       0.003
   0.27609152  0.55219131  0.00000000       0.003
   0.27945848  0.55892535  0.00000000       0.003
   0.28282545  0.56565939  0.00000000       0.003
   0.28619242  0.57239343  0.00000000       0.003
   0.28955939  0.57912747  0.00000000       0.003
   0.29292636  0.58586152  0.00000000       0.003
   0.29629333  0.59259556  0.00000000       0.003
   0.29966030  0.59932960  0.00000000       0.003
   0.30302727  0.60606364  0.00000000       0.003
   0.30639424  0.61279768  0.00000000       0.003
   0.30976121  0.61953172  0.00000000       0.003
   0.31312818  0.62626576  0.00000000       0.003
   0.31649515  0.63299980  0.00000000       0.003
   0.31986212  0.63973384  0.00000000       0.003
   0.32322909  0.64646788  0.00000000       0.003
   0.32659606  0.65320192  0.00000000       0.003
   0.32996303  0.65993596  0.00000000       0.003
   0.33333000  0.66667000  0.00000000       0.003
   0.33333000  0.66667000  0.00000000       0.003
   0.33501354  0.65993596  0.00000000       0.003
   0.33669707  0.65320192  0.00000000       0.003
   0.33838061  0.64646788  0.00000000       0.003
   0.34006414  0.63973384  0.00000000       0.003
   0.34174768  0.63299980  0.00000000       0.003
   0.34343121  0.62626576  0.00000000       0.003
   0.34511475  0.61953172  0.00000000       0.003
   0.34679828  0.61279768  0.00000000       0.003
   0.34848182  0.60606364  0.00000000       0.003
   0.35016535  0.59932960  0.00000000       0.003
   0.35184889  0.59259556  0.00000000       0.003
   0.35353242  0.58586152  0.00000000       0.003
   0.35521596  0.57912747  0.00000000       0.003
   0.35689949  0.57239343  0.00000000       0.003
   0.35858303  0.56565939  0.00000000       0.003
   0.36026657  0.55892535  0.00000000       0.003
   0.36195010  0.55219131  0.00000000       0.003
   0.36363364  0.54545727  0.00000000       0.003
   0.36531717  0.53872323  0.00000000       0.003
   0.36700071  0.53198919  0.00000000       0.003
   0.36868424  0.52525515  0.00000000       0.003
   0.37036778  0.51852111  0.00000000       0.003
   0.37205131  0.51178707  0.00000000       0.003
   0.37373485  0.50505303  0.00000000       0.003
   0.37541838  0.49831899  0.00000000       0.003
   0.37710192  0.49158495  0.00000000       0.003
   0.37878545  0.48485091  0.00000000       0.003
   0.38046899  0.47811687  0.00000000       0.003
   0.38215253  0.47138283  0.00000000       0.003
   0.38383606  0.46464879  0.00000000       0.003
   0.38551960  0.45791475  0.00000000       0.003
   0.38720313  0.45118071  0.00000000       0.003
   0.38888667  0.44444667  0.00000000       0.003
   0.39057020  0.43771263  0.00000000       0.003
   0.39225374  0.43097859  0.00000000       0.003
   0.39393727  0.42424455  0.00000000       0.003
   0.39562081  0.41751051  0.00000000       0.003
   0.39730434  0.41077646  0.00000000       0.003
   0.39898788  0.40404242  0.00000000       0.003
   0.40067141  0.39730838  0.00000000       0.003
   0.40235495  0.39057434  0.00000000       0.003
   0.40403848  0.38384030  0.00000000       0.003
   0.40572202  0.37710626  0.00000000       0.003
   0.40740556  0.37037222  0.00000000       0.003
   0.40908909  0.36363818  0.00000000       0.003
   0.41077263  0.35690414  0.00000000       0.003
   0.41245616  0.35017010  0.00000000       0.003
   0.41413970  0.34343606  0.00000000       0.003
   0.41582323  0.33670202  0.00000000       0.003
   0.41750677  0.32996798  0.00000000       0.003
   0.41919030  0.32323394  0.00000000       0.003
   0.42087384  0.31649990  0.00000000       0.003
   0.42255737  0.30976586  0.00000000       0.003
   0.42424091  0.30303182  0.00000000       0.003
   0.42592444  0.29629778  0.00000000       0.003
   0.42760798  0.28956374  0.00000000       0.003
   0.42929152  0.28282970  0.00000000       0.003
   0.43097505  0.27609566  0.00000000       0.003
   0.43265859  0.26936162  0.00000000       0.003
   0.43434212  0.26262758  0.00000000       0.003
   0.43602566  0.25589354  0.00000000       0.003
   0.43770919  0.24915949  0.00000000       0.003
   0.43939273  0.24242545  0.00000000       0.003
   0.44107626  0.23569141  0.00000000       0.003
   0.44275980  0.22895737  0.00000000       0.003
   0.44444333  0.22222333  0.00000000       0.003
   0.44612687  0.21548929  0.00000000       0.003
   0.44781040  0.20875525  0.00000000       0.003
   0.44949394  0.20202121  0.00000000       0.003
   0.45117747  0.19528717  0.00000000       0.003
   0.45286101  0.18855313  0.00000000       0.003
   0.45454455  0.18181909  0.00000000       0.003
   0.45622808  0.17508505  0.00000000       0.003
   0.45791162  0.16835101  0.00000000       0.003
   0.45959515  0.16161697  0.00000000       0.003
   0.46127869  0.15488293  0.00000000       0.003
   0.46296222  0.14814889  0.00000000       0.003
   0.46464576  0.14141485  0.00000000       0.003
   0.46632929  0.13468081  0.00000000       0.003
   0.46801283  0.12794677  0.00000000       0.003
   0.46969636  0.12121273  0.00000000       0.003
   0.47137990  0.11447869  0.00000000       0.003
   0.47306343  0.10774465  0.00000000       0.003
   0.47474697  0.10101061  0.00000000       0.003
   0.47643051  0.09427657  0.00000000       0.003
   0.47811404  0.08754253  0.00000000       0.003
   0.47979758  0.08080848  0.00000000       0.003
   0.48148111  0.07407444  0.00000000       0.003
   0.48316465  0.06734040  0.00000000       0.003
   0.48484818  0.06060636  0.00000000       0.003
   0.48653172  0.05387232  0.00000000       0.003
   0.48821525  0.04713828  0.00000000       0.003
   0.48989879  0.04040424  0.00000000       0.003
   0.49158232  0.03367020  0.00000000       0.003
   0.49326586  0.02693616  0.00000000       0.003
   0.49494939  0.02020212  0.00000000       0.003
   0.49663293  0.01346808  0.00000000       0.003
   0.49831646  0.00673404  0.00000000       0.003
   0.50000000  0.00000000  0.00000000       0.003
   0.50000000  0.00000000  0.00000000       0.003
   0.49494949  0.00000000  0.00000000       0.003
   0.48989899  0.00000000  0.00000000       0.003
   0.48484848  0.00000000  0.00000000       0.003
   0.47979798  0.00000000  0.00000000       0.003
   0.47474747  0.00000000  0.00000000       0.003
   0.46969697  0.00000000  0.00000000       0.003
   0.46464646  0.00000000  0.00000000       0.003
   0.45959596  0.00000000  0.00000000       0.003
   0.45454545  0.00000000  0.00000000       0.003
   0.44949495  0.00000000  0.00000000       0.003
   0.44444444  0.00000000  0.00000000       0.003
   0.43939394  0.00000000  0.00000000       0.003
   0.43434343  0.00000000  0.00000000       0.003
   0.42929293  0.00000000  0.00000000       0.003
   0.42424242  0.00000000  0.00000000       0.003
   0.41919192  0.00000000  0.00000000       0.003
   0.41414141  0.00000000  0.00000000       0.003
   0.40909091  0.00000000  0.00000000       0.003
   0.40404040  0.00000000  0.00000000       0.003
   0.39898990  0.00000000  0.00000000       0.003
   0.39393939  0.00000000  0.00000000       0.003
   0.38888889  0.00000000  0.00000000       0.003
   0.38383838  0.00000000  0.00000000       0.003
   0.37878788  0.00000000  0.00000000       0.003
   0.37373737  0.00000000  0.00000000       0.003
   0.36868687  0.00000000  0.00000000       0.003
   0.36363636  0.00000000  0.00000000       0.003
   0.35858586  0.00000000  0.00000000       0.003
   0.35353535  0.00000000  0.00000000       0.003
   0.34848485  0.00000000  0.00000000       0.003
   0.34343434  0.00000000  0.00000000       0.003
   0.33838384  0.00000000  0.00000000       0.003
   0.33333333  0.00000000  0.00000000       0.003
   0.32828283  0.00000000  0.00000000       0.003
   0.32323232  0.00000000  0.00000000       0.003
   0.31818182  0.00000000  0.00000000       0.003
   0.31313131  0.00000000  0.00000000       0.003
   0.30808081  0.00000000  0.00000000       0.003
   0.30303030  0.00000000  0.00000000       0.003
   0.29797980  0.00000000  0.00000000       0.003
   0.29292929  0.00000000  0.00000000       0.003
   0.28787879  0.00000000  0.00000000       0.003
   0.28282828  0.00000000  0.00000000       0.003
   0.27777778  0.00000000  0.00000000       0.003
   0.27272727  0.00000000  0.00000000       0.003
   0.26767677  0.00000000  0.00000000       0.003
   0.26262626  0.00000000  0.00000000       0.003
   0.25757576  0.00000000  0.00000000       0.003
   0.25252525  0.00000000  0.00000000       0.003
   0.24747475  0.00000000  0.00000000       0.003
   0.24242424  0.00000000  0.00000000       0.003
   0.23737374  0.00000000  0.00000000       0.003
   0.23232323  0.00000000  0.00000000       0.003
   0.22727273  0.00000000  0.00000000       0.003
   0.22222222  0.00000000  0.00000000       0.003
   0.21717172  0.00000000  0.00000000       0.003
   0.21212121  0.00000000  0.00000000       0.003
   0.20707071  0.00000000  0.00000000       0.003
   0.20202020  0.00000000  0.00000000       0.003
   0.19696970  0.00000000  0.00000000       0.003
   0.19191919  0.00000000  0.00000000       0.003
   0.18686869  0.00000000  0.00000000       0.003
   0.18181818  0.00000000  0.00000000       0.003
   0.17676768  0.00000000  0.00000000       0.003
   0.17171717  0.00000000  0.00000000       0.003
   0.16666667  0.00000000  0.00000000       0.003
   0.16161616  0.00000000  0.00000000       0.003
   0.15656566  0.00000000  0.00000000       0.003
   0.15151515  0.00000000  0.00000000       0.003
   0.14646465  0.00000000  0.00000000       0.003
   0.14141414  0.00000000  0.00000000       0.003
   0.13636364  0.00000000  0.00000000       0.003
   0.13131313  0.00000000  0.00000000       0.003
   0.12626263  0.00000000  0.00000000       0.003
   0.12121212  0.00000000  0.00000000       0.003
   0.11616162  0.00000000  0.00000000       0.003
   0.11111111  0.00000000  0.00000000       0.003
   0.10606061  0.00000000  0.00000000       0.003
   0.10101010  0.00000000  0.00000000       0.003
   0.09595960  0.00000000  0.00000000       0.003
   0.09090909  0.00000000  0.00000000       0.003
   0.08585859  0.00000000  0.00000000       0.003
   0.08080808  0.00000000  0.00000000       0.003
   0.07575758  0.00000000  0.00000000       0.003
   0.07070707  0.00000000  0.00000000       0.003
   0.06565657  0.00000000  0.00000000       0.003
   0.06060606  0.00000000  0.00000000       0.003
   0.05555556  0.00000000  0.00000000       0.003
   0.05050505  0.00000000  0.00000000       0.003
   0.04545455  0.00000000  0.00000000       0.003
   0.04040404  0.00000000  0.00000000       0.003
   0.03535354  0.00000000  0.00000000       0.003
   0.03030303  0.00000000  0.00000000       0.003
   0.02525253  0.00000000  0.00000000       0.003
   0.02020202  0.00000000  0.00000000       0.003
   0.01515152  0.00000000  0.00000000       0.003
   0.01010101  0.00000000  0.00000000       0.003
   0.00505051  0.00000000  0.00000000       0.003
   0.00000000  0.00000000  0.00000000       0.003
 
 position of ions in fractional coordinates (direct lattice) 
   0.00000000  0.00000000  0.00000000
   0.66670000  0.66670000  0.00000000
 
 position of ions in cartesian coordinates  (Angst):
   0.00000000  0.00000000  0.00000000
   2.84062202  0.00000000  0.00000000
 


--------------------------------------------------------------------------------------------------------


 k-point  1 :   0.0000 0.0000 0.0000  plane waves:    3091
 k-point  2 :   0.0034 0.0067 0.0000  plane waves:    3083
 k-point  3 :   0.0067 0.0135 0.0000  plane waves:    3071
 k-point  4 :   0.0101 0.0202 0.0000  plane waves:    3075
 k-point  5 :   0.0135 0.0269 0.0000  plane waves:    3087
 k-point  6 :   0.0168 0.0337 0.0000  plane waves:    3087
 k-point  7 :   0.0202 0.0404 0.0000  plane waves:    3095
 k-point  8 :   0.0236 0.0471 0.0000  plane waves:    3091
 k-point  9 :   0.0269 0.0539 0.0000  plane waves:    3095
 k-point 10 :   0.0303 0.0606 0.0000  plane waves:    3093
 k-point 11 :   0.0337 0.0673 0.0000  plane waves:    3093
 k-point 12 :   0.0370 0.0741 0.0000  plane waves:    3101
 k-point 13 :   0.0404 0.0808 0.0000  plane waves:    3105
 k-point 14 :   0.0438 0.0875 0.0000  plane waves:    3103
 k-point 15 :   0.0471 0.0943 0.0000  plane waves:    3103
 k-point 16 :   0.0505 0.1010 0.0000  plane waves:    3107
 k-point 17 :   0.0539 0.1077 0.0000  plane waves:    3103
 k-point 18 :   0.0572 0.1145 0.0000  plane waves:    3103
 k-point 19 :   0.0606 0.1212 0.0000  plane waves:    3099
 k-point 20 :   0.0640 0.1279 0.0000  plane waves:    3097
 k-point 21 :   0.0673 0.1347 0.0000  plane waves:    3101
 k-point 22 :   0.0707 0.1414 0.0000  plane waves:    3101
 k-point 23 :   0.0741 0.1481 0.0000  plane waves:    3109
 k-point 24 :   0.0774 0.1549 0.0000  plane waves:    3103
 k-point 25 :   0.0808 0.1616 0.0000  plane waves:    3105
 k-point 26 :   0.0842 0.1684 0.0000  plane waves:    3107
 k-point 27 :   0.0875 0.1751 0.0000  plane waves:    3099
 k-point 28 :   0.0909 0.1818 0.0000  plane waves:    3107
 k-point 29 :   0.0943 0.1886 0.0000  plane waves:    3109
 k-point 30 :   0.0976 0.1953 0.0000  plane waves:    3105
 k-point 31 :   0.1010 0.2020 0.0000  plane waves:    3109
 k-point 32 :   0.1044 0.2088 0.0000  plane waves:    3107
 k-point 33 :   0.1077 0.2155 0.0000  plane waves:    3105
 k-point 34 :   0.1111 0.2222 0.0000  plane waves:    3105
 k-point 35 :   0.1145 0.2290 0.0000  plane waves:    3093
 k-point 36 :   0.1178 0.2357 0.0000  plane waves:    3093
 k-point 37 :   0.1212 0.2424 0.0000  plane waves:    3097
 k-point 38 :   0.1246 0.2492 0.0000  plane waves:    3085
 k-point 39 :   0.1279 0.2559 0.0000  plane waves:    3089
 k-point 40 :   0.1313 0.2626 0.0000  plane waves:    3085
 k-point 41 :   0.1347 0.2694 0.0000  plane waves:    3083
 k-point 42 :   0.1380 0.2761 0.0000  plane waves:    3079
 k-point 43 :   0.1414 0.2828 0.0000  plane waves:    3071
 k-point 44 :   0.1448 0.2896 0.0000  plane waves:    3079
 k-point 45 :   0.1481 0.2963 0.0000  plane waves:    3083
 k-point 46 :   0.1515 0.3030 0.0000  plane waves:    3083
 k-point 47 :   0.1549 0.3098 0.0000  plane waves:    3081
 k-point 48 :   0.1582 0.3165 0.0000  plane waves:    3081
 k-point 49 :   0.1616 0.3232 0.0000  plane waves:    3077
 k-point 50 :   0.1650 0.3300 0.0000  plane waves:    3073
 k-point 51 :   0.1683 0.3367 0.0000  plane waves:    3067
 k-point 52 :   0.1717 0.3434 0.0000  plane waves:    3063
 k-point 53 :   0.1751 0.3502 0.0000  plane waves:    3063
 k-point 54 :   0.1784 0.3569 0.0000  plane waves:    3055
 k-point 55 :   0.1818 0.3636 0.0000  plane waves:    3053
 k-point 56 :   0.1852 0.3704 0.0000  plane waves:    3053
 k-point 57 :   0.1886 0.3771 0.0000  plane waves:    3049
 k-point 58 :   0.1919 0.3838 0.0000  plane waves:    3041
 k-point 59 :   0.1953 0.3906 0.0000  plane waves:    3041
 k-point 60 :   0.1987 0.3973 0.0000  plane waves:    3037
 k-point 61 :   0.2020 0.4040 0.0000  plane waves:    3033
 k-point 62 :   0.2054 0.4108 0.0000  plane waves:    3031
 k-point 63 :   0.2088 0.4175 0.0000  plane waves:    3017
 k-point 64 :   0.2121 0.4242 0.0000  plane waves:    3013
 k-point 65 :   0.2155 0.4310 0.0000  plane waves:    2991
 k-point 66 :   0.2189 0.4377 0.0000  plane waves:    2989
 k-point 67 :   0.2222 0.4444 0.0000  plane waves:    2993
 k-point 68 :   0.2256 0.4512 0.0000  plane waves:    2997
 k-point 69 :   0.2290 0.4579 0.0000  plane waves:    2993
 k-point 70 :   0.2323 0.4646 0.0000  plane waves:    2991
 k-point 71 :   0.2357 0.4714 0.0000  plane waves:    2987
 k-point 72 :   0.2391 0.4781 0.0000  plane waves:    2987
 k-point 73 :   0.2424 0.4849 0.0000  plane waves:    2983
 k-point 74 :   0.2458 0.4916 0.0000  plane waves:    2983
 k-point 75 :   0.2492 0.4983 0.0000  plane waves:    2983
 k-point 76 :   0.2525 0.5051 0.0000  plane waves:    2979
 k-point 77 :   0.2559 0.5118 0.0000  plane waves:    2983
 k-point 78 :   0.2593 0.5185 0.0000  plane waves:    2973
 k-point 79 :   0.2626 0.5253 0.0000  plane waves:    2965
 k-point 80 :   0.2660 0.5320 0.0000  plane waves:    2974
 k-point 81 :   0.2694 0.5387 0.0000  plane waves:    2974
 k-point 82 :   0.2727 0.5455 0.0000  plane waves:    2978
 k-point 83 :   0.2761 0.5522 0.0000  plane waves:    2984
 k-point 84 :   0.2795 0.5589 0.0000  plane waves:    2976
 k-point 85 :   0.2828 0.5657 0.0000  plane waves:    2970
 k-point 86 :   0.2862 0.5724 0.0000  plane waves:    2968
 k-point 87 :   0.2896 0.5791 0.0000  plane waves:    2970
 k-point 88 :   0.2929 0.5859 0.0000  plane waves:    2974
 k-point 89 :   0.2963 0.5926 0.0000  plane waves:    2964
 k-point 90 :   0.2997 0.5993 0.0000  plane waves:    2952
 k-point 91 :   0.3030 0.6061 0.0000  plane waves:    2950
 k-point 92 :   0.3064 0.6128 0.0000  plane waves:    2952
 k-point 93 :   0.3098 0.6195 0.0000  plane waves:    2954
 k-point 94 :   0.3131 0.6263 0.0000  plane waves:    2958
 k-point 95 :   0.3165 0.6330 0.0000  plane waves:    2960
 k-point 96 :   0.3199 0.6397 0.0000  plane waves:    2956
 k-point 97 :   0.3232 0.6465 0.0000  plane waves:    2962
 k-point 98 :   0.3266 0.6532 0.0000  plane waves:    2962
 k-point 99 :   0.3300 0.6599 0.0000  plane waves:    2960
 k-point ** :   0.3333 0.6667 0.0000  plane waves:    2964
 k-point ** :   0.3333 0.6667 0.0000  plane waves:    2964
 k-point ** :   0.3350 0.6599 0.0000  plane waves:    2962
 k-point ** :   0.3367 0.6532 0.0000  plane waves:    2956
 k-point ** :   0.3384 0.6465 0.0000  plane waves:    2958
 k-point ** :   0.3401 0.6397 0.0000  plane waves:    2956
 k-point ** :   0.3417 0.6330 0.0000  plane waves:    2958
 k-point ** :   0.3434 0.6263 0.0000  plane waves:    2954
 k-point ** :   0.3451 0.6195 0.0000  plane waves:    2967
 k-point ** :   0.3468 0.6128 0.0000  plane waves:    2970
 k-point ** :   0.3485 0.6061 0.0000  plane waves:    2980
 k-point ** :   0.3502 0.5993 0.0000  plane waves:    2982
 k-point ** :   0.3518 0.5926 0.0000  plane waves:    2984
 k-point ** :   0.3535 0.5859 0.0000  plane waves:    2988
 k-point ** :   0.3552 0.5791 0.0000  plane waves:    2994
 k-point ** :   0.3569 0.5724 0.0000  plane waves:    2996
 k-point ** :   0.3586 0.5657 0.0000  plane waves:    2996
 k-point ** :   0.3603 0.5589 0.0000  plane waves:    2998
 k-point ** :   0.3620 0.5522 0.0000  plane waves:    2998
 k-point ** :   0.3636 0.5455 0.0000  plane waves:    3000
 k-point ** :   0.3653 0.5387 0.0000  plane waves:    2994
 k-point ** :   0.3670 0.5320 0.0000  plane waves:    2992
 k-point ** :   0.3687 0.5253 0.0000  plane waves:    2983
 k-point ** :   0.3704 0.5185 0.0000  plane waves:    2989
 k-point ** :   0.3721 0.5118 0.0000  plane waves:    2987
 k-point ** :   0.3737 0.5051 0.0000  plane waves:    2995
 k-point ** :   0.3754 0.4983 0.0000  plane waves:    2995
 k-point ** :   0.3771 0.4916 0.0000  plane waves:    2997
 k-point ** :   0.3788 0.4849 0.0000  plane waves:    2997
 k-point ** :   0.3805 0.4781 0.0000  plane waves:    3001
 k-point ** :   0.3822 0.4714 0.0000  plane waves:    2995
 k-point ** :   0.3838 0.4646 0.0000  plane waves:    3001
 k-point ** :   0.3855 0.4579 0.0000  plane waves:    2997
 k-point ** :   0.3872 0.4512 0.0000  plane waves:    3006
 k-point ** :   0.3889 0.4444 0.0000  plane waves:    3012
 k-point ** :   0.3906 0.4377 0.0000  plane waves:    3010
 k-point ** :   0.3923 0.4310 0.0000  plane waves:    3014
 k-point ** :   0.3939 0.4242 0.0000  plane waves:    3012
 k-point ** :   0.3956 0.4175 0.0000  plane waves:    3018
 k-point ** :   0.3973 0.4108 0.0000  plane waves:    3014
 k-point ** :   0.3990 0.4040 0.0000  plane waves:    3018
 k-point ** :   0.4007 0.3973 0.0000  plane waves:    3024
 k-point ** :   0.4024 0.3906 0.0000  plane waves:    3020
 k-point ** :   0.4040 0.3838 0.0000  plane waves:    3020
 k-point ** :   0.4057 0.3771 0.0000  plane waves:    3020
 k-point ** :   0.4074 0.3704 0.0000  plane waves:    3023
 k-point ** :   0.4091 0.3636 0.0000  plane waves:    3029
 k-point ** :   0.4108 0.3569 0.0000  plane waves:    3025
 k-point ** :   0.4125 0.3502 0.0000  plane waves:    3025
 k-point ** :   0.4141 0.3434 0.0000  plane waves:    3027
 k-point ** :   0.4158 0.3367 0.0000  plane waves:    3031
 k-point ** :   0.4175 0.3300 0.0000  plane waves:    3025
 k-point ** :   0.4192 0.3232 0.0000  plane waves:    3031
 k-point ** :   0.4209 0.3165 0.0000  plane waves:    3031
 k-point ** :   0.4226 0.3098 0.0000  plane waves:    3033
 k-point ** :   0.4242 0.3030 0.0000  plane waves:    3029
 k-point ** :   0.4259 0.2963 0.0000  plane waves:    3025
 k-point ** :   0.4276 0.2896 0.0000  plane waves:    3029
 k-point ** :   0.4293 0.2828 0.0000  plane waves:    3027
 k-point ** :   0.4310 0.2761 0.0000  plane waves:    3019
 k-point ** :   0.4327 0.2694 0.0000  plane waves:    3019
 k-point ** :   0.4343 0.2626 0.0000  plane waves:    3018
 k-point ** :   0.4360 0.2559 0.0000  plane waves:    3012
 k-point ** :   0.4377 0.2492 0.0000  plane waves:    3008
 k-point ** :   0.4394 0.2424 0.0000  plane waves:    3006
 k-point ** :   0.4411 0.2357 0.0000  plane waves:    2993
 k-point ** :   0.4428 0.2290 0.0000  plane waves:    2993
 k-point ** :   0.4444 0.2222 0.0000  plane waves:    2993
 k-point ** :   0.4461 0.2155 0.0000  plane waves:    2991
 k-point ** :   0.4478 0.2088 0.0000  plane waves:    2995
 k-point ** :   0.4495 0.2020 0.0000  plane waves:    3000
 k-point ** :   0.4512 0.1953 0.0000  plane waves:    3004
 k-point ** :   0.4529 0.1886 0.0000  plane waves:    3010
 k-point ** :   0.4545 0.1818 0.0000  plane waves:    3010
 k-point ** :   0.4562 0.1751 0.0000  plane waves:    3010
 k-point ** :   0.4579 0.1684 0.0000  plane waves:    3014
 k-point ** :   0.4596 0.1616 0.0000  plane waves:    3012
 k-point ** :   0.4613 0.1549 0.0000  plane waves:    3012
 k-point ** :   0.4630 0.1481 0.0000  plane waves:    3012
 k-point ** :   0.4646 0.1414 0.0000  plane waves:    3012
 k-point ** :   0.4663 0.1347 0.0000  plane waves:    3006
 k-point ** :   0.4680 0.1279 0.0000  plane waves:    3004
 k-point ** :   0.4697 0.1212 0.0000  plane waves:    2996
 k-point ** :   0.4714 0.1145 0.0000  plane waves:    2995
 k-point ** :   0.4731 0.1077 0.0000  plane waves:    2999
 k-point ** :   0.4747 0.1010 0.0000  plane waves:    2997
 k-point ** :   0.4764 0.0943 0.0000  plane waves:    2999
 k-point ** :   0.4781 0.0875 0.0000  plane waves:    2997
 k-point ** :   0.4798 0.0808 0.0000  plane waves:    2995
 k-point ** :   0.4815 0.0741 0.0000  plane waves:    2993
 k-point ** :   0.4832 0.0673 0.0000  plane waves:    2995
 k-point ** :   0.4848 0.0606 0.0000  plane waves:    2995
 k-point ** :   0.4865 0.0539 0.0000  plane waves:    2993
 k-point ** :   0.4882 0.0471 0.0000  plane waves:    2987
 k-point ** :   0.4899 0.0404 0.0000  plane waves:    2983
 k-point ** :   0.4916 0.0337 0.0000  plane waves:    2981
 k-point ** :   0.4933 0.0269 0.0000  plane waves:    2974
 k-point ** :   0.4949 0.0202 0.0000  plane waves:    2976
 k-point ** :   0.4966 0.0135 0.0000  plane waves:    2976
 k-point ** :   0.4983 0.0067 0.0000  plane waves:    2974
 k-point ** :   0.5000 0.0000 0.0000  plane waves:    2978
 k-point ** :   0.5000 0.0000 0.0000  plane waves:    2978
 k-point ** :   0.4949 0.0000 0.0000  plane waves:    2978
 k-point ** :   0.4899 0.0000 0.0000  plane waves:    2980
 k-point ** :   0.4848 0.0000 0.0000  plane waves:    2980
 k-point ** :   0.4798 0.0000 0.0000  plane waves:    2972
 k-point ** :   0.4747 0.0000 0.0000  plane waves:    2972
 k-point ** :   0.4697 0.0000 0.0000  plane waves:    2972
 k-point ** :   0.4646 0.0000 0.0000  plane waves:    2976
 k-point ** :   0.4596 0.0000 0.0000  plane waves:    2980
 k-point ** :   0.4545 0.0000 0.0000  plane waves:    2988
 k-point ** :   0.4495 0.0000 0.0000  plane waves:    2992
 k-point ** :   0.4444 0.0000 0.0000  plane waves:    2998
 k-point ** :   0.4394 0.0000 0.0000  plane waves:    3004
 k-point ** :   0.4343 0.0000 0.0000  plane waves:    3004
 k-point ** :   0.4293 0.0000 0.0000  plane waves:    3004
 k-point ** :   0.4242 0.0000 0.0000  plane waves:    3008
 k-point ** :   0.4192 0.0000 0.0000  plane waves:    3012
 k-point ** :   0.4141 0.0000 0.0000  plane waves:    3012
 k-point ** :   0.4091 0.0000 0.0000  plane waves:    3018
 k-point ** :   0.4040 0.0000 0.0000  plane waves:    3022
 k-point ** :   0.3990 0.0000 0.0000  plane waves:    3024
 k-point ** :   0.3939 0.0000 0.0000  plane waves:    3026
 k-point ** :   0.3889 0.0000 0.0000  plane waves:    3022
 k-point ** :   0.3838 0.0000 0.0000  plane waves:    3026
 k-point ** :   0.3788 0.0000 0.0000  plane waves:    3034
 k-point ** :   0.3737 0.0000 0.0000  plane waves:    3036
 k-point ** :   0.3687 0.0000 0.0000  plane waves:    3048
 k-point ** :   0.3636 0.0000 0.0000  plane waves:    3052
 k-point ** :   0.3586 0.0000 0.0000  plane waves:    3062
 k-point ** :   0.3535 0.0000 0.0000  plane waves:    3066
 k-point ** :   0.3485 0.0000 0.0000  plane waves:    3072
 k-point ** :   0.3434 0.0000 0.0000  plane waves:    3076
 k-point ** :   0.3384 0.0000 0.0000  plane waves:    3070
 k-point ** :   0.3333 0.0000 0.0000  plane waves:    3078
 k-point ** :   0.3283 0.0000 0.0000  plane waves:    3078
 k-point ** :   0.3232 0.0000 0.0000  plane waves:    3082
 k-point ** :   0.3182 0.0000 0.0000  plane waves:    3082
 k-point ** :   0.3131 0.0000 0.0000  plane waves:    3090
 k-point ** :   0.3081 0.0000 0.0000  plane waves:    3090
 k-point ** :   0.3030 0.0000 0.0000  plane waves:    3092
 k-point ** :   0.2980 0.0000 0.0000  plane waves:    3092
 k-point ** :   0.2929 0.0000 0.0000  plane waves:    3096
 k-point ** :   0.2879 0.0000 0.0000  plane waves:    3102
 k-point ** :   0.2828 0.0000 0.0000  plane waves:    3108
 k-point ** :   0.2778 0.0000 0.0000  plane waves:    3106
 k-point ** :   0.2727 0.0000 0.0000  plane waves:    3110
 k-point ** :   0.2677 0.0000 0.0000  plane waves:    3116
 k-point ** :   0.2626 0.0000 0.0000  plane waves:    3110
 k-point ** :   0.2576 0.0000 0.0000  plane waves:    3114
 k-point ** :   0.2525 0.0000 0.0000  plane waves:    3104
 k-point ** :   0.2475 0.0000 0.0000  plane waves:    3112
 k-point ** :   0.2424 0.0000 0.0000  plane waves:    3114
 k-point ** :   0.2374 0.0000 0.0000  plane waves:    3118
 k-point ** :   0.2323 0.0000 0.0000  plane waves:    3118
 k-point ** :   0.2273 0.0000 0.0000  plane waves:    3116
 k-point ** :   0.2222 0.0000 0.0000  plane waves:    3112
 k-point ** :   0.2172 0.0000 0.0000  plane waves:    3114
 k-point ** :   0.2121 0.0000 0.0000  plane waves:    3116
 k-point ** :   0.2071 0.0000 0.0000  plane waves:    3118
 k-point ** :   0.2020 0.0000 0.0000  plane waves:    3120
 k-point ** :   0.1970 0.0000 0.0000  plane waves:    3112
 k-point ** :   0.1919 0.0000 0.0000  plane waves:    3110
 k-point ** :   0.1869 0.0000 0.0000  plane waves:    3118
 k-point ** :   0.1818 0.0000 0.0000  plane waves:    3122
 k-point ** :   0.1768 0.0000 0.0000  plane waves:    3122
 k-point ** :   0.1717 0.0000 0.0000  plane waves:    3118
 k-point ** :   0.1667 0.0000 0.0000  plane waves:    3120
 k-point ** :   0.1616 0.0000 0.0000  plane waves:    3120
 k-point ** :   0.1566 0.0000 0.0000  plane waves:    3116
 k-point ** :   0.1515 0.0000 0.0000  plane waves:    3120
 k-point ** :   0.1465 0.0000 0.0000  plane waves:    3116
 k-point ** :   0.1414 0.0000 0.0000  plane waves:    3114
 k-point ** :   0.1364 0.0000 0.0000  plane waves:    3118
 k-point ** :   0.1313 0.0000 0.0000  plane waves:    3106
 k-point ** :   0.1263 0.0000 0.0000  plane waves:    3102
 k-point ** :   0.1212 0.0000 0.0000  plane waves:    3106
 k-point ** :   0.1162 0.0000 0.0000  plane waves:    3112
 k-point ** :   0.1111 0.0000 0.0000  plane waves:    3116
 k-point ** :   0.1061 0.0000 0.0000  plane waves:    3110
 k-point ** :   0.1010 0.0000 0.0000  plane waves:    3104
 k-point ** :   0.0960 0.0000 0.0000  plane waves:    3100
 k-point ** :   0.0909 0.0000 0.0000  plane waves:    3098
 k-point ** :   0.0859 0.0000 0.0000  plane waves:    3100
 k-point ** :   0.0808 0.0000 0.0000  plane waves:    3102
 k-point ** :   0.0758 0.0000 0.0000  plane waves:    3098
 k-point ** :   0.0707 0.0000 0.0000  plane waves:    3096
 k-point ** :   0.0657 0.0000 0.0000  plane waves:    3096
 k-point ** :   0.0606 0.0000 0.0000  plane waves:    3096
 k-point ** :   0.0556 0.0000 0.0000  plane waves:    3094
 k-point ** :   0.0505 0.0000 0.0000  plane waves:    3090
 k-point ** :   0.0455 0.0000 0.0000  plane waves:    3086
 k-point ** :   0.0404 0.0000 0.0000  plane waves:    3086
 k-point ** :   0.0354 0.0000 0.0000  plane waves:    3084
 k-point ** :   0.0303 0.0000 0.0000  plane waves:    3084
 k-point ** :   0.0253 0.0000 0.0000  plane waves:    3082
 k-point ** :   0.0202 0.0000 0.0000  plane waves:    3072
 k-point ** :   0.0152 0.0000 0.0000  plane waves:    3076
 k-point ** :   0.0101 0.0000 0.0000  plane waves:    3076
 k-point ** :   0.0051 0.0000 0.0000  plane waves:    3079
 k-point ** :   0.0000 0.0000 0.0000  plane waves:    3091

 maximum and minimum number of plane-waves per node :      3122     2950

 maximum number of plane-waves:      3122
 maximum index in each direction: 
   IXMAX=    3   IYMAX=    3   IZMAX=   69
   IXMIN=   -3   IYMIN=   -4   IZMIN=  -69


 serial   3D FFT for wavefunctions
 parallel 3D FFT for charge:
    minimum data exchange during FFTs selected (reduces bandwidth)


 total amount of memory used by VASP MPI-rank0   236083. kBytes
=======================================================================

   base      :      30000. kBytes
   nonl-proj :      60042. kBytes
   fftplans  :      11424. kBytes
   grid      :      14112. kBytes
   one-center:          6. kBytes
   wavefun   :     120499. kBytes
 
     INWAV:  cpu time    0.0001: real time    0.0003
 Broyden mixing: mesh for mixing (old mesh)
   NGX =  7   NGY =  7   NGZ =139
  (NGX  = 20   NGY  = 20   NGZ  =420)
  gives a total of   6811 points

 initial charge density was supplied:
 charge density of overlapping atoms calculated
 number of electron       8.0000000 magnetization 
 keeping initial charge density in first step


--------------------------------------------------------------------------------------------------------


 Maximum index for augmentation-charges          947 (set IRDMAX)


--------------------------------------------------------------------------------------------------------


 First call to EWALD:  gamma=   0.278
 Maximum number of real-space cells 7x 7x 1
 Maximum number of reciprocal cells 1x 1x18

    FEWALD:  cpu time    0.0014: real time    0.0013


--------------------------------------- Iteration      1(   1)  ---------------------------------------


    POTLOK:  cpu time    0.0957: real time    0.0978
    SETDIJ:  cpu time    0.0018: real time    0.0018
     EDDAV:  cpu time    9.7289: real time    9.7614
       DOS:  cpu time    0.0086: real time    0.0086
    --------------------------------------------
      LOOP:  cpu time    9.8351: real time    9.8696

 eigenvalue-minimisations  :  8200
 total energy-change (2. order) : 0.1147202E+02  (-0.2460165E+03)
 number of electron       8.0000000 magnetization 
 augmentation part        8.0000000 magnetization 

 Free energy of the ion-electron system (eV)
  ---------------------------------------------------
  alpha Z        PSCENC =         1.26403377
  Ewald energy   TEWEN  =      3991.07545412
  -Hartree energ DENC   =     -4192.19146066
  -exchange      EXHF   =         0.00000000
  -V(xc)+E(xc)   XCENC  =        27.58818228
  PAW double counting   =        75.66288619      -77.96384553
  entropy T*S    EENTRO =        -0.01679711
  eigenvalues    EBANDS =      -107.74623760
  atomic energy  EATOM  =       293.79980732
  Solvation  Ediel_sol  =         0.00000000
  ---------------------------------------------------
  free energy    TOTEN  =        11.47202277 eV

  energy without entropy =       11.48881988  energy(sigma->0) =       11.48042132


--------------------------------------------------------------------------------------------------------




--------------------------------------- Iteration      1(   2)  ---------------------------------------


     EDDAV:  cpu time    9.0519: real time    9.0819
       DOS:  cpu time    0.0079: real time    0.0079
    --------------------------------------------
      LOOP:  cpu time    9.0598: real time    9.0899

 eigenvalue-minimisations  :  7528
 total energy-change (2. order) :-0.2844258E+02  (-0.2546033E+02)
 number of electron       8.0000000 magnetization 
 augmentation part        8.0000000 magnetization 

 Free energy of the ion-electron system (eV)
  ---------------------------------------------------
  alpha Z        PSCENC =         1.26403377
  Ewald energy   TEWEN  =      3991.07545412
  -Hartree energ DENC   =     -4192.19146066
  -exchange      EXHF   =         0.00000000
  -V(xc)+E(xc)   XCENC  =        27.58818228
  PAW double counting   =        75.66288619      -77.96384553
  entropy T*S    EENTRO =        -0.00220762
  eigenvalues    EBANDS =      -136.20340761
  atomic energy  EATOM  =       293.79980732
  Solvation  Ediel_sol  =         0.00000000
  ---------------------------------------------------
  free energy    TOTEN  =       -16.97055775 eV

  energy without entropy =      -16.96835013  energy(sigma->0) =      -16.96945394


--------------------------------------------------------------------------------------------------------




--------------------------------------- Iteration      1(   3)  ---------------------------------------


     EDDAV:  cpu time    8.4743: real time    8.5025
       DOS:  cpu time    0.0080: real time    0.0080
    --------------------------------------------
      LOOP:  cpu time    8.4823: real time    8.5105

 eigenvalue-minimisations  :  6896
 total energy-change (2. order) :-0.1955220E+01  (-0.1355035E+01)
 number of electron       8.0000000 magnetization 
 augmentation part        8.0000000 magnetization 

 Free energy of the ion-electron system (eV)
  ---------------------------------------------------
  alpha Z        PSCENC =         1.26403377
  Ewald energy   TEWEN  =      3991.07545412
  -Hartree energ DENC   =     -4192.19146066
  -exchange      EXHF   =         0.00000000
  -V(xc)+E(xc)   XCENC  =        27.58818228
  PAW double counting   =        75.66288619      -77.96384553
  entropy T*S    EENTRO =        -0.00328834
  eigenvalues    EBANDS =      -138.15754707
  atomic energy  EATOM  =       293.79980732
  Solvation  Ediel_sol  =         0.00000000
  ---------------------------------------------------
  free energy    TOTEN  =       -18.92577793 eV

  energy without entropy =      -18.92248959  energy(sigma->0) =      -18.92413376


--------------------------------------------------------------------------------------------------------




--------------------------------------- Iteration      1(   4)  ---------------------------------------


     EDDAV:  cpu time    9.6580: real time    9.6906
       DOS:  cpu time    0.0079: real time    0.0079
    --------------------------------------------
      LOOP:  cpu time    9.6659: real time    9.6985

 eigenvalue-minimisations  :  8128
 total energy-change (2. order) :-0.1014056E+00  (-0.1014056E+00)
 number of electron       8.0000000 magnetization 
 augmentation part        8.0000000 magnetization 

 Free energy of the ion-electron system (eV)
  ---------------------------------------------------
  alpha Z        PSCENC =         1.26403377
  Ewald energy   TEWEN  =      3991.07545412
  -Hartree energ DENC   =     -4192.19146066
  -exchange      EXHF   =         0.00000000
  -V(xc)+E(xc)   XCENC  =        27.58818228
  PAW double counting   =        75.66288619      -77.96384553
  entropy T*S    EENTRO =        -0.00328802
  eigenvalues    EBANDS =      -138.25895304
  atomic energy  EATOM  =       293.79980732
  Solvation  Ediel_sol  =         0.00000000
  ---------------------------------------------------
  free energy    TOTEN  =       -19.02718358 eV

  energy without entropy =      -19.02389556  energy(sigma->0) =      -19.02553957


--------------------------------------------------------------------------------------------------------




--------------------------------------- Iteration      1(   5)  ---------------------------------------


     EDDAV:  cpu time    8.6326: real time    8.6614
       DOS:  cpu time    0.0080: real time    0.0080
    CHARGE:  cpu time    0.4287: real time    0.4301
    MIXING:  cpu time    0.0046: real time    0.0047
    --------------------------------------------
      LOOP:  cpu time    9.0741: real time    9.1046

 eigenvalue-minimisations  :  7064
 total energy-change (2. order) :-0.1261917E-02  (-0.1261917E-02)
 number of electron       7.9999988 magnetization 
 augmentation part        0.2092686 magnetization 

 Broyden mixing:
  rms(total) = 0.57240E+00    rms(broyden)= 0.57189E+00
  rms(prec ) = 0.58024E+00
  weight for this iteration     100.00

 Free energy of the ion-electron system (eV)
  ---------------------------------------------------
  alpha Z        PSCENC =         1.26403377
  Ewald energy   TEWEN  =      3991.07545412
  -Hartree energ DENC   =     -4192.19146066
  -exchange      EXHF   =         0.00000000
  -V(xc)+E(xc)   XCENC  =        27.58818228
  PAW double counting   =        75.66288619      -77.96384553
  entropy T*S    EENTRO =        -0.00328802
  eigenvalues    EBANDS =      -138.26021496
  atomic energy  EATOM  =       293.79980732
  Solvation  Ediel_sol  =         0.00000000
  ---------------------------------------------------
  free energy    TOTEN  =       -19.02844550 eV

  energy without entropy =      -19.02515748  energy(sigma->0) =      -19.02680149


--------------------------------------------------------------------------------------------------------




--------------------------------------- Iteration      1(   6)  ---------------------------------------


    POTLOK:  cpu time    0.0835: real time    0.0843
    SETDIJ:  cpu time    0.0018: real time    0.0018
     EDDAV:  cpu time    8.4407: real time    8.4685
       DOS:  cpu time    0.0133: real time    0.0249
    CHARGE:  cpu time    0.4284: real time    0.4297
    MIXING:  cpu time    0.0052: real time    0.0052
    --------------------------------------------
      LOOP:  cpu time    8.9730: real time    9.0141

 eigenvalue-minimisations  :  6840
 total energy-change (2. order) : 0.9014553E+00  (-0.8178024E-01)
 number of electron       7.9999989 magnetization 
 augmentation part        0.2016156 magnetization 

 Broyden mixing:
  rms(total) = 0.30847E+00    rms(broyden)= 0.30836E+00
  rms(prec ) = 0.31301E+00
  weight for this iteration     100.00

 eigenvalues of (default mixing * dielectric matrix)
  average eigenvalue GAMMA=   2.1105
  2.1105

 Free energy of the ion-electron system (eV)
  ---------------------------------------------------
  alpha Z        PSCENC =         1.26403377
  Ewald energy   TEWEN  =      3991.07545412
  -Hartree energ DENC   =     -4203.63232593
  -exchange      EXHF   =         0.00000000
  -V(xc)+E(xc)   XCENC  =        28.09040735
  PAW double counting   =       103.21164626     -105.64713170
  entropy T*S    EENTRO =        -0.00331230
  eigenvalues    EBANDS =      -126.28556912
  atomic energy  EATOM  =       293.79980732
  Solvation  Ediel_sol  =         0.00000000
  ---------------------------------------------------
  free energy    TOTEN  =       -18.12699023 eV

  energy without entropy =      -18.12367794  energy(sigma->0) =      -18.12533409


--------------------------------------------------------------------------------------------------------




--------------------------------------- Iteration      1(   7)  ---------------------------------------


    POTLOK:  cpu time    0.0880: real time    0.0895
    SETDIJ:  cpu time    0.0018: real time    0.0018
     EDDAV:  cpu time    8.7709: real time    8.8000
       DOS:  cpu time    0.0085: real time    0.0085
    CHARGE:  cpu time    0.4291: real time    0.4305
    MIXING:  cpu time    0.0056: real time    0.0057
    --------------------------------------------
      LOOP:  cpu time    9.3039: real time    9.3360

 eigenvalue-minimisations  :  7184
 total energy-change (2. order) : 0.3596929E+00  (-0.1072513E+00)
 number of electron       7.9999989 magnetization 
 augmentation part        0.1924675 magnetization 

 Broyden mixing:
  rms(total) = 0.48640E-01    rms(broyden)= 0.48228E-01
  rms(prec ) = 0.49408E-01
  weight for this iteration     100.00

 eigenvalues of (default mixing * dielectric matrix)
  average eigenvalue GAMMA=   2.2748
  2.2748  2.2748

 Free energy of the ion-electron system (eV)
  ---------------------------------------------------
  alpha Z        PSCENC =         1.26403377
  Ewald energy   TEWEN  =      3991.07545412
  -Hartree energ DENC   =     -4218.77948299
  -exchange      EXHF   =         0.00000000
  -V(xc)+E(xc)   XCENC  =        28.73728351
  PAW double counting   =       139.69690592     -142.24567626
  entropy T*S    EENTRO =        -0.00331917
  eigenvalues    EBANDS =      -111.31230353
  atomic energy  EATOM  =       293.79980732
  Solvation  Ediel_sol  =         0.00000000
  ---------------------------------------------------
  free energy    TOTEN  =       -17.76729731 eV

  energy without entropy =      -17.76397814  energy(sigma->0) =      -17.76563773


--------------------------------------------------------------------------------------------------------




--------------------------------------- Iteration      1(   8)  ---------------------------------------


    POTLOK:  cpu time    0.0867: real time    0.0871
    SETDIJ:  cpu time    0.0018: real time    0.0018
     EDDAV:  cpu time    9.1008: real time    9.1313
       DOS:  cpu time    0.0085: real time    0.0085
    CHARGE:  cpu time    0.4289: real time    0.4302
    MIXING:  cpu time    0.0057: real time    0.0057
    --------------------------------------------
      LOOP:  cpu time    9.6324: real time    9.6646

 eigenvalue-minimisations  :  7512
 total energy-change (2. order) : 0.7951732E-02  (-0.9645515E-03)
 number of electron       7.9999990 magnetization 
 augmentation part        0.1920814 magnetization 

 Broyden mixing:
  rms(total) = 0.86721E-02    rms(broyden)= 0.85672E-02
  rms(prec ) = 0.10481E-01
  weight for this iteration     100.00

 eigenvalues of (default mixing * dielectric matrix)
  average eigenvalue GAMMA=   2.0177
  1.3364  2.6829  2.0338

 Free energy of the ion-electron system (eV)
  ---------------------------------------------------
  alpha Z        PSCENC =         1.26403377
  Ewald energy   TEWEN  =      3991.07545412
  -Hartree energ DENC   =     -4221.79529337
  -exchange      EXHF   =         0.00000000
  -V(xc)+E(xc)   XCENC  =        28.76668368
  PAW double counting   =       140.43199995     -142.92723714
  entropy T*S    EENTRO =        -0.00330929
  eigenvalues    EBANDS =      -108.37148461
  atomic energy  EATOM  =       293.79980732
  Solvation  Ediel_sol  =         0.00000000
  ---------------------------------------------------
  free energy    TOTEN  =       -17.75934558 eV

  energy without entropy =      -17.75603629  energy(sigma->0) =      -17.75769093


--------------------------------------------------------------------------------------------------------




--------------------------------------- Iteration      1(   9)  ---------------------------------------


    POTLOK:  cpu time    0.0866: real time    0.0871
    SETDIJ:  cpu time    0.0018: real time    0.0018
     EDDAV:  cpu time    9.6615: real time    9.6936
       DOS:  cpu time    0.0127: real time    0.0246
    CHARGE:  cpu time    0.4290: real time    0.4304
    MIXING:  cpu time    0.0061: real time    0.0061
    --------------------------------------------
      LOOP:  cpu time   10.1977: real time   10.2434

 eigenvalue-minimisations  :  8080
 total energy-change (2. order) : 0.1694617E-02  (-0.1502543E-03)
 number of electron       7.9999990 magnetization 
 augmentation part        0.1917768 magnetization 

 Broyden mixing:
  rms(total) = 0.58704E-02    rms(broyden)= 0.58518E-02
  rms(prec ) = 0.74618E-02
  weight for this iteration     100.00

 eigenvalues of (default mixing * dielectric matrix)
  average eigenvalue GAMMA=   2.2269
  3.4549  0.9799  2.4715  2.0012

 Free energy of the ion-electron system (eV)
  ---------------------------------------------------
  alpha Z        PSCENC =         1.26403377
  Ewald energy   TEWEN  =      3991.07545412
  -Hartree energ DENC   =     -4223.25369732
  -exchange      EXHF   =         0.00000000
  -V(xc)+E(xc)   XCENC  =        28.79115172
  PAW double counting   =       140.97129547     -143.46605467
  entropy T*S    EENTRO =        -0.00330876
  eigenvalues    EBANDS =      -106.93633261
  atomic energy  EATOM  =       293.79980732
  Solvation  Ediel_sol  =         0.00000000
  ---------------------------------------------------
  free energy    TOTEN  =       -17.75765096 eV

  energy without entropy =      -17.75434220  energy(sigma->0) =      -17.75599658


--------------------------------------------------------------------------------------------------------




--------------------------------------- Iteration      1(  10)  ---------------------------------------


    POTLOK:  cpu time    0.0901: real time    0.0916
    SETDIJ:  cpu time    0.0018: real time    0.0018
     EDDAV:  cpu time    8.7805: real time    8.8098
[...]
      1     -22.5710      2.00000
      2     -10.4836      2.00000
      3      -9.0564      2.00000
      4      -7.8428      2.00000
      5       0.5345      0.00000
      6       1.2040      0.00000
      7       1.3392      0.00000
      8       1.4283      0.00000

 k-point   267 :       0.1667    0.0000    0.0000
  band No.  band energies     occupation 
      1     -22.6113      2.00000
      2     -10.5306      2.00000
      3      -8.9371      2.00000
      4      -7.7879      2.00000
      5       0.4794      0.00000
      6       1.1480      0.00000
      7       1.2826      0.00000
      8       1.3719      0.00000

 k-point   268 :       0.1616    0.0000    0.0000
  band No.  band energies     occupation 
      1     -22.6505      2.00000
      2     -10.5770      2.00000
      3      -8.8178      2.00000
      4      -7.7345      2.00000
      5       0.4258      0.00000
      6       1.0936      0.00000
      7       1.2276      0.00000
      8       1.3171      0.00000

 k-point   269 :       0.1566    0.0000    0.0000
  band No.  band energies     occupation 
      1     -22.6884      2.00000
      2     -10.6219      2.00000
      3      -8.7000      2.00000
      4      -7.6806      2.00000
      5       0.3740      0.00000
      6       1.0408      0.00000
      7       1.1744      0.00000
      8       1.2640      0.00000

 k-point   270 :       0.1515    0.0000    0.0000
  band No.  band energies     occupation 
      1     -22.7252      2.00000
      2     -10.6657      2.00000
      3      -8.5860      2.00000
      4      -7.6273      2.00000
      5       0.3238      0.00000
      6       0.9897      0.00000
      7       1.1229      0.00000
      8       1.2126      0.00000

 k-point   271 :       0.1465    0.0000    0.0000
  band No.  band energies     occupation 
      1     -22.7608      2.00000
      2     -10.7079      2.00000
      3      -8.4725      2.00000
      4      -7.5739      2.00000
      5       0.2752      0.00000
      6       0.9403      0.00000
      7       1.0730      0.00000
      8       1.1629      0.00000

 k-point   272 :       0.1414    0.0000    0.0000
  band No.  band energies     occupation 
      1     -22.7952      2.00000
      2     -10.7488      2.00000
      3      -8.3608      2.00000
      4      -7.5214      2.00000
      5       0.2283      0.00000
      6       0.8925      0.00000
      7       1.0248      0.00000
      8       1.1149      0.00000

 k-point   273 :       0.1364    0.0000    0.0000
  band No.  band energies     occupation 
      1     -22.8284      2.00000
      2     -10.7883      2.00000
      3      -8.2534      2.00000
      4      -7.4706      2.00000
      5       0.1830      0.00000
      6       0.8464      0.00000
      7       0.9784      0.00000
      8       1.0685      0.00000

 k-point   274 :       0.1313    0.0000    0.0000
  band No.  band energies     occupation 
      1     -22.8603      2.00000
      2     -10.8257      2.00000
      3      -8.1460      2.00000
      4      -7.4141      2.00000
      5       0.1394      0.00000
      6       0.8021      0.00000
      7       0.9336      0.00000
      8       1.0238      0.00000

 k-point   275 :       0.1263    0.0000    0.0000
  band No.  band energies     occupation 
      1     -22.8911      2.00000
      2     -10.8624      2.00000
      3      -8.0416      2.00000
      4      -7.3635      2.00000
      5       0.0974      0.00000
      6       0.7593      0.00000
      7       0.8905      0.00000
      8       0.9809      0.00000

 k-point   276 :       0.1212    0.0000    0.0000
  band No.  band energies     occupation 
      1     -22.9207      2.00000
      2     -10.8990      2.00000
      3      -7.9397      2.00000
      4      -7.3141      2.00000
      5       0.0571      0.00000
      6       0.7182      0.00000
      7       0.8491      0.00000
      8       0.9395      0.00000

 k-point   277 :       0.1162    0.0000    0.0000
  band No.  band energies     occupation 
      1     -22.9491      2.00000
      2     -10.9334      2.00000
      3      -7.8410      2.00000
      4      -7.2679      2.00000
      5       0.0184      0.00000
      6       0.6787      0.00000
      7       0.8094      0.00000
      8       0.8999      0.00000

 k-point   278 :       0.1111    0.0000    0.0000
  band No.  band energies     occupation 
      1     -22.9764      2.00000
      2     -10.9658      2.00000
      3      -7.7484      2.00000
      4      -7.2210      2.00000
      5      -0.0187      0.00000
      6       0.6410      0.00000
      7       0.7713      0.00000
      8       0.8620      0.00000

 k-point   279 :       0.1061    0.0000    0.0000
  band No.  band energies     occupation 
      1     -23.0023      2.00000
      2     -10.9967      2.00000
      3      -7.6548      2.00000
      4      -7.1746      2.00000
      5      -0.0541      0.00000
      6       0.6050      0.00000
      7       0.7350      0.00000
      8       0.8257      0.00000

 k-point   280 :       0.1010    0.0000    0.0000
  band No.  band energies     occupation 
      1     -23.0271      2.00000
      2     -11.0261      2.00000
      3      -7.5619      2.00000
      4      -7.1296      2.00000
      5      -0.0878      0.00000
      6       0.5706      0.00000
      7       0.7004      0.00000
      8       0.7912      0.00000

 k-point   281 :       0.0960    0.0000    0.0000
  band No.  band energies     occupation 
      1     -23.0507      2.00000
      2     -11.0542      2.00000
      3      -7.4743      2.00000
      4      -7.0844      2.00000
      5      -0.1199      0.00000
      6       0.5379      0.00000
      7       0.6674      0.00000
      8       0.7583      0.00000

 k-point   282 :       0.0909    0.0000    0.0000
  band No.  band energies     occupation 
      1     -23.0730      2.00000
      2     -11.0810      2.00000
      3      -7.3928      2.00000
      4      -7.0422      2.00000
      5      -0.1504      0.00000
      6       0.5068      0.00000
      7       0.6361      0.00000
      8       0.7271      0.00000

 k-point   283 :       0.0859    0.0000    0.0000
  band No.  band energies     occupation 
      1     -23.0942      2.00000
      2     -11.1053      2.00000
      3      -7.3157      2.00000
      4      -7.0028      2.00000
      5      -0.1792      0.00000
      6       0.4775      0.00000
      7       0.6066      0.00000
      8       0.6976      0.00000

 k-point   284 :       0.0808    0.0000    0.0000
  band No.  band energies     occupation 
      1     -23.1141      2.00000
      2     -11.1294      2.00000
      3      -7.2399      2.00000
      4      -6.9650      2.00000
      5      -0.2063      0.00000
      6       0.4498      0.00000
      7       0.5787      0.00000
      8       0.6698      0.00000

 k-point   285 :       0.0758    0.0000    0.0000
  band No.  band energies     occupation 
      1     -23.1329      2.00000
      2     -11.1517      2.00000
      3      -7.1650      2.00000
      4      -6.9275      2.00000
      5      -0.2319      0.00000
      6       0.4238      0.00000
      7       0.5525      0.00000
      8       0.6436      0.00000

 k-point   286 :       0.0707    0.0000    0.0000
  band No.  band energies     occupation 
      1     -23.1504      2.00000
      2     -11.1728      2.00000
      3      -7.0991      2.00000
      4      -6.8920      2.00000
      5      -0.2557      0.00000
      6       0.3995      0.00000
      7       0.5280      0.00000
      8       0.6192      0.00000

 k-point   287 :       0.0657    0.0000    0.0000
  band No.  band energies     occupation 
      1     -23.1668      2.00000
      2     -11.1923      2.00000
      3      -7.0353      2.00000
      4      -6.8582      2.00000
      5      -0.2779      0.00000
      6       0.3769      0.00000
      7       0.5052      0.00000
      8       0.5964      0.00000

 k-point   288 :       0.0606    0.0000    0.0000
  band No.  band energies     occupation 
      1     -23.1819      2.00000
      2     -11.2107      2.00000
      3      -6.9767      2.00000
      4      -6.8257      2.00000
      5      -0.2985      0.00000
      6       0.3559      0.00000
      7       0.4840      0.00000
      8       0.5753      0.00000

 k-point   289 :       0.0556    0.0000    0.0000
  band No.  band energies     occupation 
      1     -23.1958      2.00000
      2     -11.2283      2.00000
      3      -6.9217      2.00000
      4      -6.7954      2.00000
      5      -0.3174      0.00000
      6       0.3365      0.00000
      7       0.4646      0.00000
      8       0.5559      0.00000

 k-point   290 :       0.0505    0.0000    0.0000
  band No.  band energies     occupation 
      1     -23.2085      2.00000
      2     -11.2434      2.00000
      3      -6.8712      2.00000
      4      -6.7669      2.00000
      5      -0.3347      0.00000
      6       0.3189      0.00000
      7       0.4469      0.00000
      8       0.5382      0.00000

 k-point   291 :       0.0455    0.0000    0.0000
  band No.  band energies     occupation 
      1     -23.2199      2.00000
      2     -11.2572      2.00000
      3      -6.8263      2.00000
      4      -6.7398      2.00000
      5      -0.3503      0.00000
      6       0.3030      0.00000
      7       0.4308      0.00000
      8       0.5222      0.00000

 k-point   292 :       0.0404    0.0000    0.0000
  band No.  band energies     occupation 
      1     -23.2302      2.00000
      2     -11.2696      2.00000
      3      -6.7880      2.00000
      4      -6.7144      2.00000
      5      -0.3643      0.00000
      6       0.2887      0.00000
      7       0.4164      0.00000
      8       0.5079      0.00000

 k-point   293 :       0.0354    0.0000    0.0000
  band No.  band energies     occupation 
      1     -23.2393      2.00000
      2     -11.2805      2.00000
      3      -6.7548      2.00000
      4      -6.6902      2.00000
      5      -0.3766      0.00000
      6       0.2761      0.00000
      7       0.4038      0.00000
      8       0.4952      0.00000

 k-point   294 :       0.0303    0.0000    0.0000
  band No.  band energies     occupation 
      1     -23.2471      2.00000
      2     -11.2900      2.00000
      3      -6.7291      2.00000
      4      -6.6688      2.00000
      5      -0.3873      0.00000
      6       0.2652      0.00000
      7       0.3928      0.00000
      8       0.4843      0.00000

 k-point   295 :       0.0253    0.0000    0.0000
  band No.  band energies     occupation 
      1     -23.2537      2.00000
      2     -11.2980      2.00000
      3      -6.7073      2.00000
      4      -6.6478      2.00000
      5      -0.3964      0.00000
      6       0.2560      0.00000
      7       0.3835      0.00000
      8       0.4750      0.00000

 k-point   296 :       0.0202    0.0000    0.0000
  band No.  band energies     occupation 
      1     -23.2591      2.00000
      2     -11.3044      2.00000
      3      -6.6891      2.00000
      4      -6.6279      2.00000
      5      -0.4037      0.00000
      6       0.2484      0.00000
      7       0.3759      0.00000
      8       0.4674      0.00000

 k-point   297 :       0.0152    0.0000    0.0000
  band No.  band energies     occupation 
      1     -23.2634      2.00000
      2     -11.3095      2.00000
      3      -6.6768      2.00000
      4      -6.6129      2.00000
      5      -0.4095      0.00000
      6       0.2425      0.00000
      7       0.3700      0.00000
      8       0.4615      0.00000

 k-point   298 :       0.0101    0.0000    0.0000
  band No.  band energies     occupation 
      1     -23.2664      2.00000
      2     -11.3119      2.00000
      3      -6.6688      2.00000
      4      -6.6027      2.00000
      5      -0.4136      0.00000
      6       0.2384      0.00000
      7       0.3657      0.00000
      8       0.4573      0.00000

 k-point   299 :       0.0051    0.0000    0.0000
  band No.  band energies     occupation 
      1     -23.2682      2.00000
      2     -11.3140      2.00000
      3      -6.6643      2.00000
      4      -6.5955      2.00000
      5      -0.4161      0.00000
      6       0.2359      0.00000
      7       0.3632      0.00000
      8       0.4548      0.00000

 k-point   300 :       0.0000    0.0000    0.0000
  band No.  band energies     occupation 
      1     -23.2689      2.00000
      2     -11.3148      2.00000
      3      -6.6649      2.00000
      4      -6.5964      2.00000
      5      -0.4170      0.00000
      6       0.2351      0.00000
      7       0.3624      0.00000
      8       0.4539      0.00000


--------------------------------------------------------------------------------------------------------


 soft charge-density along one line, spin component           1
         0         1         2         3         4         5         6         7         8         9
 total charge-density along one line
 
 pseudopotential strength for first ion, spin component:           1
 10.276   0.000   0.021   0.000   0.000   0.000   0.000   0.000  -0.001   0.000  -0.000   0.000  -0.000   0.000   0.001   0.000
  0.021   0.000  -0.001   0.000  -0.000   0.000  -0.000   0.000   0.000   0.000  -0.000   0.000  -0.000   0.000   0.000   0.000
  0.000   0.000  -0.000   0.000  -4.403   0.000   0.000   0.000   0.000   0.000  -0.017   0.000   0.000   0.000   0.000   0.000
  0.000   0.000  -0.000   0.000   0.000   0.000  -4.399   0.000   0.000   0.000   0.000   0.000  -0.014   0.000   0.000   0.000
 -0.001   0.000   0.000   0.000   0.000   0.000   0.000   0.000  -4.404   0.000   0.000   0.000   0.000   0.000  -0.017   0.000
 -0.000   0.000  -0.000   0.000  -0.017   0.000   0.000   0.000   0.000   0.000  -0.774   0.000   0.000   0.000   0.000   0.000
 -0.000   0.000  -0.000   0.000   0.000   0.000  -0.014   0.000   0.000   0.000   0.000   0.000  -0.774   0.000   0.000   0.000
  0.001   0.000   0.000   0.000   0.000   0.000   0.000   0.000  -0.017   0.000   0.000   0.000   0.000   0.000  -0.774   0.000
 total augmentation occupancy for first ion, spin component:           1
  1.434  -0.950   0.000   0.000  -0.002   0.000   0.000  -0.002
 -0.950   0.901   0.000   0.000   0.000   0.000   0.000  -0.001
  0.000   0.000   1.235   0.000   0.000   0.267   0.000   0.000
  0.000   0.000   0.000   0.883   0.000   0.000   0.159   0.000
 -0.002   0.000   0.000   0.000   1.227   0.000   0.000   0.272
  0.000   0.000   0.267   0.000   0.000   0.064   0.000   0.000
  0.000   0.000   0.000   0.159   0.000   0.000   0.030   0.000
 -0.002  -0.001   0.000   0.000   0.272   0.000   0.000   0.068


------------------------ aborting loop because EDIFF is reached ----------------------------------------


    CHARGE:  cpu time    0.4284: real time    0.4297
    FORLOC:  cpu time    0.0080: real time    0.0080
    FORNL :  cpu time    0.9392: real time    0.9420
    STRESS:  cpu time    2.6472: real time    2.6553
    FORHAR:  cpu time    0.0295: real time    0.0296
    MIXING:  cpu time    0.0103: real time    0.0112
    OFIELD:  cpu time    0.0001: real time    0.0001

  FORCE on cell =-STRESS in cart. coord.  units (eV):
  Direction    XX          YY          ZZ          XY          YZ          ZX
  --------------------------------------------------------------------------------------
  Alpha Z     1.26403     1.26403     1.26403
  Ewald    4260.64116  4260.57459 -4530.14061    -0.00000     0.00000     0.00000
  Hartree  4216.88207  4217.29083 -4205.67433    -0.00000    -0.00000    -0.00000
  E(xc)     -29.25811   -29.24128   -30.40945    -0.00000     0.00000     0.00000
  Local   -8562.90132 -8564.28826  8633.43751     0.00000     0.00000    -0.00000
  n-local    -8.35720    -8.14578    -7.11474    -0.06015    -0.00000     0.00000
  augment    -0.77028    -0.76421    -0.71307     0.00000     0.00000     0.00000
  Kinetic   123.94620   120.32586   137.15183     1.40030     0.00000    -0.00000
  Fock        0.00000     0.00000     0.00000     0.00000     0.00000     0.00000
  -------------------------------------------------------------------------------------
  Total       1.44655    -2.98422    -2.19881     0.00000     0.00000     0.00000
  in kB       8.98857   -18.54334   -13.66299     0.00000     0.00000     0.00000
  external pressure =       -7.74 kB  Pullay stress =        0.00 kB


 VOLUME and BASIS-vectors are now :
 -----------------------------------------------------------------------------
  energy-cutoff  :      300.00
  volume of cell :      257.84
      direct lattice vectors                 reciprocal lattice vectors
     2.130360000 -1.230000000  0.000000000     0.234702116 -0.406504065  0.000000000
     2.130360000  1.230000000  0.000000000     0.234702116  0.406504065  0.000000000
     0.000000000  0.000000000 49.200000000     0.000000000  0.000000000  0.020325203

  length of vectors
     2.459945879  2.459945879 49.200000000     0.469393905  0.469393905  0.020325203


 FORCES acting on ions
    electron-ion (+dipol)            ewald-force                    non-local-force                 convergence-correction
 -----------------------------------------------------------------------------------------------
   0.104E+01 -.577E-14 -.439E-15   0.319E-01 -.464E-14 0.000E+00   0.368E+00 -.278E-16 0.000E+00   0.877E-05 -.105E-16 -.145E-12
   -.104E+01 -.744E-14 -.395E-15   -.319E-01 0.127E-13 0.000E+00   -.368E+00 0.416E-16 0.000E+00   -.877E-05 0.125E-14 -.145E-12
 -----------------------------------------------------------------------------------------------
   -.368E-04 -.132E-13 -.835E-15   -.153E-13 0.810E-14 0.000E+00   -.111E-15 0.139E-16 0.000E+00   0.884E-11 0.123E-14 -.291E-12
 
 
 POSITION                                       TOTAL-FORCE (eV/Angst)
 -----------------------------------------------------------------------------------
      0.00000      0.00000      0.00000         1.443754      0.000000      0.000000
      2.84062      0.00000      0.00000        -1.443754      0.000000      0.000000
 -----------------------------------------------------------------------------------
    total drift:                               -0.000037     -0.000000     -0.000000


--------------------------------------------------------------------------------------------------------



  FREE ENERGIE OF THE ION-ELECTRON SYSTEM (eV)
  ---------------------------------------------------
  free  energy   TOTEN  =       -17.75837031 eV

  energy  without entropy=      -17.75506266  energy(sigma->0) =      -17.75671649
 


--------------------------------------------------------------------------------------------------------


    POTLOK:  cpu time    0.0899: real time    0.0902


--------------------------------------------------------------------------------------------------------


 writing wavefunctions
     LOOP+:  cpu time  190.5709: real time  191.2757
    4ORBIT:  cpu time    0.0000: real time    0.0000

 total amount of memory used by VASP MPI-rank0   236083. kBytes
=======================================================================

   base      :      30000. kBytes
   nonl-proj :      60042. kBytes
   fftplans  :      11424. kBytes
   grid      :      14112. kBytes
   one-center:          6. kBytes
   wavefun   :     120499. kBytes
 
  
  
 General timing and accounting informations for this job:
 ========================================================
  
                  Total CPU time used (sec):      192.134
                            User time (sec):      191.703
                          System time (sec):        0.431
                         Elapsed time (sec):      192.986
  
                   Maximum memory used (kb):      308384.
                   Average memory used (kb):           0.
  
                          Minor page faults:        95097
                          Major page faults:            0
                 Voluntary context switches:          313
