 running on    1 total cores
 distrk:  each k-point on    1 cores,    1 groups
 distr:  one band on    1 cores,    1 groups
 using from now: INCAR     
 vasp.5.4.4.18Apr17-6-g9f103f2a35 (build May 20 2018 16:52:39) complex          
  
 POSCAR found type information on POSCAR  C 
 POSCAR found :  1 types and       2 ions
 scaLAPACK will be used
 LDA part: xc-table for Pade appr. of Perdew
 POSCAR, INCAR and KPOINTS ok, starting setup
 FFT: planning ...
 WAVECAR not read
 entering main loop
       N       E                     dE             d eps       ncg     rms          rms(c)
DAV:   1     0.114720227688E+02    0.11472E+02   -0.24602E+03  8200   0.422E+02
DAV:   2    -0.169705577469E+02   -0.28443E+02   -0.25460E+02  7528   0.883E+01
DAV:   3    -0.189257779329E+02   -0.19552E+01   -0.13550E+01  6896   0.217E+01
DAV:   4    -0.190271835827E+02   -0.10141E+00   -0.10141E+00  8128   0.281E+00
DAV:   5    -0.190284454996E+02   -0.12619E-02   -0.12619E-02  7064   0.233E-01    0.572E+00
DAV:   6    -0.181269902344E+02    0.90146E+00   -0.81780E-01  6840   0.639E+00    0.308E+00
DAV:   7    -0.177672973088E+02    0.35969E+00   -0.10725E+00  7184   0.718E+00    0.486E-01
DAV:   8    -0.177593455770E+02    0.79517E-02   -0.96455E-03  7512   0.863E-01    0.867E-02
DAV:   9    -0.177576509597E+02    0.16946E-02   -0.15025E-03  8080   0.224E-01    0.587E-02
DAV:  10    -0.177565521543E+02    0.10988E-02   -0.15537E-03  7184   0.191E-01    0.267E-02
DAV:  11    -0.177570441082E+02   -0.49195E-03   -0.44770E-04  6504   0.104E-01    0.145E-02
DAV:  12    -0.177575942126E+02   -0.55010E-03   -0.41983E-05  7144   0.465E-02    0.796E-03
DAV:  13    -0.177581766427E+02   -0.58243E-03   -0.76676E-05  6112   0.361E-02    0.298E-03
DAV:  14    -0.177582824499E+02   -0.10581E-03   -0.77850E-06  8888   0.164E-02    0.243E-03
DAV:  15    -0.177583404102E+02   -0.57960E-04   -0.46823E-06  7016   0.114E-02    0.820E-04
DAV:  16    -0.177583607799E+02   -0.20370E-04   -0.24502E-07  8688   0.532E-03    0.417E-04
DAV:  17    -0.177583660283E+02   -0.52484E-05   -0.44905E-08  6480   0.230E-03    0.337E-04
DAV:  18    -0.177583687605E+02   -0.27322E-05   -0.14101E-08  7848   0.141E-03    0.111E-04
DAV:  19    -0.177583699812E+02   -0.12207E-05   -0.41203E-09  5984   0.810E-04    0.681E-05
DAV:  20    -0.177583703117E+02   -0.33053E-06   -0.82506E-10  7344   0.376E-04
   1 F= -.17758370E+02 E0= -.17756716E+02  d E =-.330765E-02
 writing wavefunctions
