<?xml version="1.0" encoding="ISO-8859-1"?>
<modeling>
 <generator>
  <i name="program" type="string">vasp </i>
  <i name="version" type="string">5.4.4.18Apr17-6-g9f103f2a35  </i>
  <i name="subversion" type="string">(build May 20 2018 16:52:39) complex            parallel </i>
  <i name="platform" type="string">LinuxIFC </i>
  <i name="date" type="string">2022 11 04 </i>
  <i name="time" type="string">19:36:29 </i>
 </generator>
 <incar>
  <i type="string" name="SYSTEM"> graphene (single layer)</i>
  <i type="string" name="PREC">normal</i>
  <i name="EDIFF">      0.00000100</i>
  <i name="ENCUT">    300.00000000</i>
  <i type="int" name="ISMEAR">     0</i>
  <i type="logical" name="LCHARG"> F  </i>
  <v type="int" name="KPOINT_BSE">    -1     0     0     0</v>
 </incar>
 <structure name="primitive_cell" >
  <crystal>
   <varray name="basis" >
    <v>       2.13036000      -1.23000000       0.00000000 </v>
    <v>       2.13036000       1.23000000       0.00000000 </v>
    <v>       0.00000000       0.00000000      49.20000000 </v>
   </varray>
   <i name="volume">    257.84173152 </i>
   <varray name="rec_basis" >
    <v>       0.23470212      -0.40650407       0.00000000 </v>
    <v>       0.23470212       0.40650407       0.00000000 </v>
    <v>       0.00000000       0.00000000       0.02032520 </v>
   </varray>
  </crystal>
  <varray name="positions" >
   <v>       0.00000000       0.00000000       0.00000000 </v>
   <v>      -0.33330000      -0.33330000       0.00000000 </v>
  </varray>
 </structure>
 <varray name="primitive_index" >
  <v type="int" >        1 </v>
  <v type="int" >        2 </v>
 </varray>
 <kpoints>
  <generation param="listgenerated">
   <i name="divisions" type="int">     100 </i>
   <v>       0.00000000       0.00000000       0.00000000 </v>
   <v>       0.33333000       0.66667000       0.00000000 </v>
   <v>       0.50000000       0.00000000       0.00000000 </v>
   <v>       0.00000000       0.00000000       0.00000000 </v>
  </generation>
  <varray name="kpointlist" >
   <v>       0.00000000       0.00000000       0.00000000 </v>
   <v>       0.00336697       0.00673404       0.00000000 </v>
   <v>       0.00673394       0.01346808       0.00000000 </v>
   <v>       0.01010091       0.02020212       0.00000000 </v>
   <v>       0.01346788       0.02693616       0.00000000 </v>
   <v>       0.01683485       0.03367020       0.00000000 </v>
   <v>       0.02020182       0.04040424       0.00000000 </v>
   <v>       0.02356879       0.04713828       0.00000000 </v>
   <v>       0.02693576       0.05387232       0.00000000 </v>
   <v>       0.03030273       0.06060636       0.00000000 </v>
   <v>       0.03366970       0.06734040       0.00000000 </v>
   <v>       0.03703667       0.07407444       0.00000000 </v>
   <v>       0.04040364       0.08080848       0.00000000 </v>
   <v>       0.04377061       0.08754253       0.00000000 </v>
   <v>       0.04713758       0.09427657       0.00000000 </v>
   <v>       0.05050455       0.10101061       0.00000000 </v>
   <v>       0.05387152       0.10774465       0.00000000 </v>
   <v>       0.05723848       0.11447869       0.00000000 </v>
   <v>       0.06060545       0.12121273       0.00000000 </v>
   <v>       0.06397242       0.12794677       0.00000000 </v>
   <v>       0.06733939       0.13468081       0.00000000 </v>
   <v>       0.07070636       0.14141485       0.00000000 </v>
   <v>       0.07407333       0.14814889       0.00000000 </v>
   <v>       0.07744030       0.15488293       0.00000000 </v>
   <v>       0.08080727       0.16161697       0.00000000 </v>
   <v>       0.08417424       0.16835101       0.00000000 </v>
   <v>       0.08754121       0.17508505       0.00000000 </v>
   <v>       0.09090818       0.18181909       0.00000000 </v>
   <v>       0.09427515       0.18855313       0.00000000 </v>
   <v>       0.09764212       0.19528717       0.00000000 </v>
   <v>       0.10100909       0.20202121       0.00000000 </v>
   <v>       0.10437606       0.20875525       0.00000000 </v>
   <v>       0.10774303       0.21548929       0.00000000 </v>
   <v>       0.11111000       0.22222333       0.00000000 </v>
   <v>       0.11447697       0.22895737       0.00000000 </v>
   <v>       0.11784394       0.23569141       0.00000000 </v>
   <v>       0.12121091       0.24242545       0.00000000 </v>
   <v>       0.12457788       0.24915949       0.00000000 </v>
   <v>       0.12794485       0.25589354       0.00000000 </v>
   <v>       0.13131182       0.26262758       0.00000000 </v>
   <v>       0.13467879       0.26936162       0.00000000 </v>
   <v>       0.13804576       0.27609566       0.00000000 </v>
   <v>       0.14141273       0.28282970       0.00000000 </v>
   <v>       0.14477970       0.28956374       0.00000000 </v>
   <v>       0.14814667       0.29629778       0.00000000 </v>
   <v>       0.15151364       0.30303182       0.00000000 </v>
   <v>       0.15488061       0.30976586       0.00000000 </v>
   <v>       0.15824758       0.31649990       0.00000000 </v>
   <v>       0.16161455       0.32323394       0.00000000 </v>
   <v>       0.16498152       0.32996798       0.00000000 </v>
   <v>       0.16834848       0.33670202       0.00000000 </v>
   <v>       0.17171545       0.34343606       0.00000000 </v>
   <v>       0.17508242       0.35017010       0.00000000 </v>
   <v>       0.17844939       0.35690414       0.00000000 </v>
   <v>       0.18181636       0.36363818       0.00000000 </v>
   <v>       0.18518333       0.37037222       0.00000000 </v>
   <v>       0.18855030       0.37710626       0.00000000 </v>
   <v>       0.19191727       0.38384030       0.00000000 </v>
   <v>       0.19528424       0.39057434       0.00000000 </v>
   <v>       0.19865121       0.39730838       0.00000000 </v>
   <v>       0.20201818       0.40404242       0.00000000 </v>
   <v>       0.20538515       0.41077646       0.00000000 </v>
   <v>       0.20875212       0.41751051       0.00000000 </v>
   <v>       0.21211909       0.42424455       0.00000000 </v>
   <v>       0.21548606       0.43097859       0.00000000 </v>
   <v>       0.21885303       0.43771263       0.00000000 </v>
   <v>       0.22222000       0.44444667       0.00000000 </v>
   <v>       0.22558697       0.45118071       0.00000000 </v>
   <v>       0.22895394       0.45791475       0.00000000 </v>
   <v>       0.23232091       0.46464879       0.00000000 </v>
   <v>       0.23568788       0.47138283       0.00000000 </v>
   <v>       0.23905485       0.47811687       0.00000000 </v>
   <v>       0.24242182       0.48485091       0.00000000 </v>
   <v>       0.24578879       0.49158495       0.00000000 </v>
   <v>       0.24915576       0.49831899       0.00000000 </v>
   <v>       0.25252273       0.50505303       0.00000000 </v>
   <v>       0.25588970       0.51178707       0.00000000 </v>
   <v>       0.25925667       0.51852111       0.00000000 </v>
   <v>       0.26262364       0.52525515       0.00000000 </v>
   <v>       0.26599061       0.53198919       0.00000000 </v>
   <v>       0.26935758       0.53872323       0.00000000 </v>
   <v>       0.27272455       0.54545727       0.00000000 </v>
   <v>       0.27609152       0.55219131       0.00000000 </v>
   <v>       0.27945848       0.55892535       0.00000000 </v>
   <v>       0.28282545       0.56565939       0.00000000 </v>
   <v>       0.28619242       0.57239343       0.00000000 </v>
   <v>       0.28955939       0.57912747       0.00000000 </v>
   <v>       0.29292636       0.58586152       0.00000000 </v>
   <v>       0.29629333       0.59259556       0.00000000 </v>
   <v>       0.29966030       0.59932960       0.00000000 </v>
   <v>       0.30302727       0.60606364       0.00000000 </v>
   <v>       0.30639424       0.61279768       0.00000000 </v>
   <v>       0.30976121       0.61953172       0.00000000 </v>
   <v>       0.31312818       0.62626576       0.00000000 </v>
   <v>       0.31649515       0.63299980       0.00000000 </v>
   <v>       0.31986212       0.63973384       0.00000000 </v>
   <v>       0.32322909       0.64646788       0.00000000 </v>
   <v>       0.32659606       0.65320192       0.00000000 </v>
   <v>       0.32996303       0.65993596       0.00000000 </v>
   <v>       0.33333000       0.66667000       0.00000000 </v>
   <v>       0.33333000       0.66667000       0.00000000 </v>
   <v>       0.33501354       0.65993596       0.00000000 </v>
   <v>       0.33669707       0.65320192       0.00000000 </v>
   <v>       0.33838061       0.64646788       0.00000000 </v>
   <v>       0.34006414       0.63973384       0.00000000 </v>
   <v>       0.34174768       0.63299980       0.00000000 </v>
   <v>       0.34343121       0.62626576       0.00000000 </v>
   <v>       0.34511475       0.61953172       0.00000000 </v>
   <v>       0.34679828       0.61279768       0.00000000 </v>
   <v>       0.34848182       0.60606364       0.00000000 </v>
   <v>       0.35016535       0.59932960       0.00000000 </v>
   <v>       0.35184889       0.59259556       0.00000000 </v>
   <v>       0.35353242       0.58586152       0.00000000 </v>
   <v>       0.35521596       0.57912747       0.00000000 </v>
   <v>       0.35689949       0.57239343       0.00000000 </v>
   <v>       0.35858303       0.56565939       0.00000000 </v>
   <v>       0.36026657       0.55892535       0.00000000 </v>
   <v>       0.36195010       0.55219131       0.00000000 </v>
   <v>       0.36363364       0.54545727       0.00000000 </v>
   <v>       0.36531717       0.53872323       0.00000000 </v>
   <v>       0.36700071       0.53198919       0.00000000 </v>
   <v>       0.36868424       0.52525515       0.00000000 </v>
   <v>       0.37036778       0.51852111       0.00000000 </v>
   <v>       0.37205131       0.51178707       0.00000000 </v>
   <v>       0.37373485       0.50505303       0.00000000 </v>
   <v>       0.37541838       0.49831899       0.00000000 </v>
   <v>       0.37710192       0.49158495       0.00000000 </v>
   <v>       0.37878545       0.48485091       0.00000000 </v>
   <v>       0.38046899       0.47811687       0.00000000 </v>
   <v>       0.38215253       0.47138283       0.00000000 </v>
   <v>       0.38383606       0.46464879       0.00000000 </v>
   <v>       0.38551960       0.45791475       0.00000000 </v>
   <v>       0.38720313       0.45118071       0.00000000 </v>
   <v>       0.38888667       0.44444667       0.00000000 </v>
   <v>       0.39057020       0.43771263       0.00000000 </v>
   <v>       0.39225374       0.43097859       0.00000000 </v>
   <v>       0.39393727       0.42424455       0.00000000 </v>
   <v>       0.39562081       0.41751051       0.00000000 </v>
   <v>       0.39730434       0.41077646       0.00000000 </v>
   <v>       0.39898788       0.40404242       0.00000000 </v>
   <v>       0.40067141       0.39730838       0.00000000 </v>
   <v>       0.40235495       0.39057434       0.00000000 </v>
   <v>       0.40403848       0.38384030       0.00000000 </v>
   <v>       0.40572202       0.37710626       0.00000000 </v>
   <v>       0.40740556       0.37037222       0.00000000 </v>
   <v>       0.40908909       0.36363818       0.00000000 </v>
   <v>       0.41077263       0.35690414       0.00000000 </v>
   <v>       0.41245616       0.35017010       0.00000000 </v>
   <v>       0.41413970       0.34343606       0.00000000 </v>
   <v>       0.41582323       0.33670202       0.00000000 </v>
   <v>       0.41750677       0.32996798       0.00000000 </v>
   <v>       0.41919030       0.32323394       0.00000000 </v>
   <v>       0.42087384       0.31649990       0.00000000 </v>
   <v>       0.42255737       0.30976586       0.00000000 </v>
   <v>       0.42424091       0.30303182       0.00000000 </v>
   <v>       0.42592444       0.29629778       0.00000000 </v>
   <v>       0.42760798       0.28956374       0.00000000 </v>
   <v>       0.42929152       0.28282970       0.00000000 </v>
   <v>       0.43097505       0.27609566       0.00000000 </v>
   <v>       0.43265859       0.26936162       0.00000000 </v>
   <v>       0.43434212       0.26262758       0.00000000 </v>
   <v>       0.43602566       0.25589354       0.00000000 </v>
   <v>       0.43770919       0.24915949       0.00000000 </v>
   <v>       0.43939273       0.24242545       0.00000000 </v>
   <v>       0.44107626       0.23569141       0.00000000 </v>
   <v>       0.44275980       0.22895737       0.00000000 </v>
   <v>       0.44444333       0.22222333       0.00000000 </v>
   <v>       0.44612687       0.21548929       0.00000000 </v>
   <v>       0.44781040       0.20875525       0.00000000 </v>
   <v>       0.44949394       0.20202121       0.00000000 </v>
   <v>       0.45117747       0.19528717       0.00000000 </v>
   <v>       0.45286101       0.18855313       0.00000000 </v>
   <v>       0.45454455       0.18181909       0.00000000 </v>
   <v>       0.45622808       0.17508505       0.00000000 </v>
   <v>       0.45791162       0.16835101       0.00000000 </v>
   <v>       0.45959515       0.16161697       0.00000000 </v>
   <v>       0.46127869       0.15488293       0.00000000 </v>
   <v>       0.46296222       0.14814889       0.00000000 </v>
   <v>       0.46464576       0.14141485       0.00000000 </v>
   <v>       0.46632929       0.13468081       0.00000000 </v>
   <v>       0.46801283       0.12794677       0.00000000 </v>
   <v>       0.46969636       0.12121273       0.00000000 </v>
   <v>       0.47137990       0.11447869       0.00000000 </v>
   <v>       0.47306343       0.10774465       0.00000000 </v>
   <v>       0.47474697       0.10101061       0.00000000 </v>
   <v>       0.47643051       0.09427657       0.00000000 </v>
   <v>       0.47811404       0.08754253       0.00000000 </v>
   <v>       0.47979758       0.08080848       0.00000000 </v>
   <v>       0.48148111       0.07407444       0.00000000 </v>
   <v>       0.48316465       0.06734040       0.00000000 </v>
   <v>       0.48484818       0.06060636       0.00000000 </v>
   <v>       0.48653172       0.05387232       0.00000000 </v>
   <v>       0.48821525       0.04713828       0.00000000 </v>
   <v>       0.48989879       0.04040424       0.00000000 </v>
   <v>       0.49158232       0.03367020       0.00000000 </v>
   <v>       0.49326586       0.02693616       0.00000000 </v>
   <v>       0.49494939       0.02020212       0.00000000 </v>
   <v>       0.49663293       0.01346808       0.00000000 </v>
   <v>       0.49831646       0.00673404       0.00000000 </v>
   <v>       0.50000000       0.00000000       0.00000000 </v>
   <v>       0.50000000       0.00000000       0.00000000 </v>
   <v>       0.49494949       0.00000000       0.00000000 </v>
   <v>       0.48989899       0.00000000       0.00000000 </v>
   <v>       0.48484848       0.00000000       0.00000000 </v>
   <v>       0.47979798       0.00000000       0.00000000 </v>
   <v>       0.47474747       0.00000000       0.00000000 </v>
   <v>       0.46969697       0.00000000       0.00000000 </v>
   <v>       0.46464646       0.00000000       0.00000000 </v>
   <v>       0.45959596       0.00000000       0.00000000 </v>
   <v>       0.45454545       0.00000000       0.00000000 </v>
   <v>       0.44949495       0.00000000       0.00000000 </v>
   <v>       0.44444444       0.00000000       0.00000000 </v>
   <v>       0.43939394       0.00000000       0.00000000 </v>
   <v>       0.43434343       0.00000000       0.00000000 </v>
   <v>       0.42929293       0.00000000       0.00000000 </v>
   <v>       0.42424242       0.00000000       0.00000000 </v>
   <v>       0.41919192       0.00000000       0.00000000 </v>
   <v>       0.41414141       0.00000000       0.00000000 </v>
   <v>       0.40909091       0.00000000       0.00000000 </v>
   <v>       0.40404040       0.00000000       0.00000000 </v>
   <v>       0.39898990       0.00000000       0.00000000 </v>
   <v>       0.39393939       0.00000000       0.00000000 </v>
   <v>       0.38888889       0.00000000       0.00000000 </v>
   <v>       0.38383838       0.00000000       0.00000000 </v>
   <v>       0.37878788       0.00000000       0.00000000 </v>
   <v>       0.37373737       0.00000000       0.00000000 </v>
   <v>       0.36868687       0.00000000       0.00000000 </v>
   <v>       0.36363636       0.00000000       0.00000000 </v>
   <v>       0.35858586       0.00000000       0.00000000 </v>
   <v>       0.35353535       0.00000000       0.00000000 </v>
   <v>       0.34848485       0.00000000       0.00000000 </v>
   <v>       0.34343434       0.00000000       0.00000000 </v>
   <v>       0.33838384       0.00000000       0.00000000 </v>
   <v>       0.33333333       0.00000000       0.00000000 </v>
   <v>       0.32828283       0.00000000       0.00000000 </v>
   <v>       0.32323232       0.00000000       0.00000000 </v>
   <v>       0.31818182       0.00000000       0.00000000 </v>
   <v>       0.31313131       0.00000000       0.00000000 </v>
   <v>       0.30808081       0.00000000       0.00000000 </v>
   <v>       0.30303030       0.00000000       0.00000000 </v>
   <v>       0.29797980       0.00000000       0.00000000 </v>
   <v>       0.29292929       0.00000000       0.00000000 </v>
   <v>       0.28787879       0.00000000       0.00000000 </v>
   <v>       0.28282828       0.00000000       0.00000000 </v>
   <v>       0.27777778       0.00000000       0.00000000 </v>
   <v>       0.27272727       0.00000000       0.00000000 </v>
   <v>       0.26767677       0.00000000       0.00000000 </v>
   <v>       0.26262626       0.00000000       0.00000000 </v>
   <v>       0.25757576       0.00000000       0.00000000 </v>
   <v>       0.25252525       0.00000000       0.00000000 </v>
   <v>       0.24747475       0.00000000       0.00000000 </v>
   <v>       0.24242424       0.00000000       0.00000000 </v>
   <v>       0.23737374       0.00000000       0.00000000 </v>
   <v>       0.23232323       0.00000000       0.00000000 </v>
   <v>       0.22727273       0.00000000       0.00000000 </v>
   <v>       0.22222222       0.00000000       0.00000000 </v>
   <v>       0.21717172       0.00000000       0.00000000 </v>
   <v>       0.21212121       0.00000000       0.00000000 </v>
   <v>       0.20707071       0.00000000       0.00000000 </v>
   <v>       0.20202020       0.00000000       0.00000000 </v>
   <v>       0.19696970       0.00000000       0.00000000 </v>
   <v>       0.19191919       0.00000000       0.00000000 </v>
   <v>       0.18686869       0.00000000       0.00000000 </v>
   <v>       0.18181818       0.00000000       0.00000000 </v>
   <v>       0.17676768       0.00000000       0.00000000 </v>
   <v>       0.17171717       0.00000000       0.00000000 </v>
   <v>       0.16666667       0.00000000       0.00000000 </v>
   <v>       0.16161616       0.00000000       0.00000000 </v>
   <v>       0.15656566       0.00000000       0.00000000 </v>
   <v>       0.15151515       0.00000000       0.00000000 </v>
   <v>       0.14646465       0.00000000       0.00000000 </v>
   <v>       0.14141414       0.00000000       0.00000000 </v>
   <v>       0.13636364       0.00000000       0.00000000 </v>
   <v>       0.13131313       0.00000000       0.00000000 </v>
   <v>       0.12626263       0.00000000       0.00000000 </v>
   <v>       0.12121212       0.00000000       0.00000000 </v>
   <v>       0.11616162       0.00000000       0.00000000 </v>
   <v>       0.11111111       0.00000000       0.00000000 </v>
   <v>       0.10606061       0.00000000       0.00000000 </v>
   <v>       0.10101010       0.00000000       0.00000000 </v>
   <v>       0.09595960       0.00000000       0.00000000 </v>
   <v>       0.09090909       0.00000000       0.00000000 </v>
   <v>       0.08585859       0.00000000       0.00000000 </v>
   <v>       0.08080808       0.00000000       0.00000000 </v>
   <v>       0.07575758       0.00000000       0.00000000 </v>
   <v>       0.07070707       0.00000000       0.00000000 </v>
   <v>       0.06565657       0.00000000       0.00000000 </v>
   <v>       0.06060606       0.00000000       0.00000000 </v>
   <v>       0.05555556       0.00000000       0.00000000 </v>
   <v>       0.05050505       0.00000000       0.00000000 </v>
   <v>       0.04545455       0.00000000       0.00000000 </v>
   <v>       0.04040404       0.00000000       0.00000000 </v>
   <v>       0.03535354       0.00000000       0.00000000 </v>
   <v>       0.03030303       0.00000000       0.00000000 </v>
   <v>       0.02525253       0.00000000       0.00000000 </v>
   <v>       0.02020202       0.00000000       0.00000000 </v>
   <v>       0.01515152       0.00000000       0.00000000 </v>
   <v>       0.01010101       0.00000000       0.00000000 </v>
   <v>       0.00505051       0.00000000       0.00000000 </v>
   <v>       0.00000000       0.00000000       0.00000000 </v>
  </varray>
  <varray name="weights" >
   <v>       0.00333333 </v>
   <v>       0.00333333 </v>
   <v>       0.00333333 </v>
   <v>       0.00333333 </v>
   <v>       0.00333333 </v>
   <v>       0.00333333 </v>
   <v>       0.00333333 </v>
   <v>       0.00333333 </v>
   <v>       0.00333333 </v>
   <v>       0.00333333 </v>
   <v>       0.00333333 </v>
   <v>       0.00333333 </v>
   <v>       0.00333333 </v>
   <v>       0.00333333 </v>
   <v>       0.00333333 </v>
   <v>       0.00333333 </v>
   <v>       0.00333333 </v>
   <v>       0.00333333 </v>
   <v>       0.00333333 </v>
   <v>       0.00333333 </v>
   <v>       0.00333333 </v>
   <v>       0.00333333 </v>
   <v>       0.00333333 </v>
   <v>       0.00333333 </v>
   <v>       0.00333333 </v>
   <v>       0.00333333 </v>
   <v>       0.00333333 </v>
   <v>       0.00333333 </v>
   <v>       0.00333333 </v>
   <v>       0.00333333 </v>
   <v>       0.00333333 </v>
   <v>       0.00333333 </v>
   <v>       0.00333333 </v>
   <v>       0.00333333 </v>
   <v>       0.00333333 </v>
   <v>       0.00333333 </v>
   <v>       0.00333333 </v>
   <v>       0.00333333 </v>
   <v>       0.00333333 </v>
   <v>       0.00333333 </v>
   <v>       0.00333333 </v>
   <v>       0.00333333 </v>
   <v>       0.00333333 </v>
   <v>       0.00333333 </v>
   <v>       0.00333333 </v>
   <v>       0.00333333 </v>
   <v>       0.00333333 </v>
   <v>       0.00333333 </v>
   <v>       0.00333333 </v>
   <v>       0.00333333 </v>
   <v>       0.00333333 </v>
   <v>       0.00333333 </v>
   <v>       0.00333333 </v>
   <v>       0.00333333 </v>
   <v>       0.00333333 </v>
   <v>       0.00333333 </v>
   <v>       0.00333333 </v>
   <v>       0.00333333 </v>
   <v>       0.00333333 </v>
   <v>       0.00333333 </v>
   <v>       0.00333333 </v>
   <v>       0.00333333 </v>
   <v>       0.00333333 </v>
   <v>       0.00333333 </v>
   <v>       0.00333333 </v>
   <v>       0.00333333 </v>
   <v>       0.00333333 </v>
   <v>       0.00333333 </v>
   <v>       0.00333333 </v>
   <v>       0.00333333 </v>
   <v>       0.00333333 </v>
   <v>       0.00333333 </v>
   <v>       0.00333333 </v>
   <v>       0.00333333 </v>
   <v>       0.00333333 </v>
   <v>       0.00333333 </v>
   <v>       0.00333333 </v>
   <v>       0.00333333 </v>
   <v>       0.00333333 </v>
   <v>       0.00333333 </v>
   <v>       0.00333333 </v>
   <v>       0.00333333 </v>
   <v>       0.00333333 </v>
   <v>       0.00333333 </v>
   <v>       0.00333333 </v>
   <v>       0.00333333 </v>
   <v>       0.00333333 </v>
   <v>       0.00333333 </v>
   <v>       0.00333333 </v>
   <v>       0.00333333 </v>
   <v>       0.00333333 </v>
   <v>       0.00333333 </v>
   <v>       0.00333333 </v>
   <v>       0.00333333 </v>
   <v>       0.00333333 </v>
   <v>       0.00333333 </v>
   <v>       0.00333333 </v>
   <v>       0.00333333 </v>
   <v>       0.00333333 </v>
   <v>       0.00333333 </v>
   <v>       0.00333333 </v>
   <v>       0.00333333 </v>
   <v>       0.00333333 </v>
   <v>       0.00333333 </v>
   <v>       0.00333333 </v>
   <v>       0.00333333 </v>
   <v>       0.00333333 </v>
   <v>       0.00333333 </v>
   <v>       0.00333333 </v>
   <v>       0.00333333 </v>
   <v>       0.00333333 </v>
   <v>       0.00333333 </v>
   <v>       0.00333333 </v>
   <v>       0.00333333 </v>
   <v>       0.00333333 </v>
   <v>       0.00333333 </v>
   <v>       0.00333333 </v>
   <v>       0.00333333 </v>
   <v>       0.00333333 </v>
   <v>       0.00333333 </v>
   <v>       0.00333333 </v>
   <v>       0.00333333 </v>
   <v>       0.00333333 </v>
   <v>       0.00333333 </v>
   <v>       0.00333333 </v>
   <v>       0.00333333 </v>
   <v>       0.00333333 </v>
   <v>       0.00333333 </v>
   <v>       0.00333333 </v>
   <v>       0.00333333 </v>
   <v>       0.00333333 </v>
   <v>       0.00333333 </v>
   <v>       0.00333333 </v>
   <v>       0.00333333 </v>
   <v>       0.00333333 </v>
   <v>       0.00333333 </v>
   <v>       0.00333333 </v>
   <v>       0.00333333 </v>
   <v>       0.00333333 </v>
   <v>       0.00333333 </v>
   <v>       0.00333333 </v>
   <v>       0.00333333 </v>
   <v>       0.00333333 </v>
   <v>       0.00333333 </v>
   <v>       0.00333333 </v>
   <v>       0.00333333 </v>
   <v>       0.00333333 </v>
   <v>       0.00333333 </v>
   <v>       0.00333333 </v>
   <v>       0.00333333 </v>
   <v>       0.00333333 </v>
   <v>       0.00333333 </v>
   <v>       0.00333333 </v>
   <v>       0.00333333 </v>
   <v>       0.00333333 </v>
   <v>       0.00333333 </v>
   <v>       0.00333333 </v>
   <v>       0.00333333 </v>
   <v>       0.00333333 </v>
   <v>       0.00333333 </v>
   <v>       0.00333333 </v>
   <v>       0.00333333 </v>
   <v>       0.00333333 </v>
   <v>       0.00333333 </v>
   <v>       0.00333333 </v>
   <v>       0.00333333 </v>
   <v>       0.00333333 </v>
   <v>       0.00333333 </v>
   <v>       0.00333333 </v>
   <v>       0.00333333 </v>
   <v>       0.00333333 </v>
   <v>       0.00333333 </v>
   <v>       0.00333333 </v>
   <v>       0.00333333 </v>
   <v>       0.00333333 </v>
   <v>       0.00333333 </v>
   <v>       0.00333333 </v>
   <v>       0.00333333 </v>
   <v>       0.00333333 </v>
   <v>       0.00333333 </v>
   <v>       0.00333333 </v>
   <v>       0.00333333 </v>
   <v>       0.00333333 </v>
   <v>       0.00333333 </v>
   <v>       0.00333333 </v>
   <v>       0.00333333 </v>
   <v>       0.00333333 </v>
   <v>       0.00333333 </v>
   <v>       0.00333333 </v>
   <v>       0.00333333 </v>
   <v>       0.00333333 </v>
   <v>       0.00333333 </v>
   <v>       0.00333333 </v>
   <v>       0.00333333 </v>
   <v>       0.00333333 </v>
   <v>       0.00333333 </v>
   <v>       0.00333333 </v>
   <v>       0.00333333 </v>
   <v>       0.00333333 </v>
   <v>       0.00333333 </v>
   <v>       0.00333333 </v>
   <v>       0.00333333 </v>
   <v>       0.00333333 </v>
   <v>       0.00333333 </v>
   <v>       0.00333333 </v>
   <v>       0.00333333 </v>
   <v>       0.00333333 </v>
   <v>       0.00333333 </v>
   <v>       0.00333333 </v>
   <v>       0.00333333 </v>
   <v>       0.00333333 </v>
   <v>       0.00333333 </v>
   <v>       0.00333333 </v>
   <v>       0.00333333 </v>
   <v>       0.00333333 </v>
   <v>       0.00333333 </v>
   <v>       0.00333333 </v>
   <v>       0.00333333 </v>
   <v>       0.00333333 </v>
   <v>       0.00333333 </v>
   <v>       0.00333333 </v>
   <v>       0.00333333 </v>
   <v>       0.00333333 </v>
   <v>       0.00333333 </v>
   <v>       0.00333333 </v>
   <v>       0.00333333 </v>
   <v>       0.00333333 </v>
   <v>       0.00333333 </v>
   <v>       0.00333333 </v>
   <v>       0.00333333 </v>
   <v>       0.00333333 </v>
   <v>       0.00333333 </v>
   <v>       0.00333333 </v>
   <v>       0.00333333 </v>
   <v>       0.00333333 </v>
   <v>       0.00333333 </v>
   <v>       0.00333333 </v>
   <v>       0.00333333 </v>
   <v>       0.00333333 </v>
   <v>       0.00333333 </v>
   <v>       0.00333333 </v>
   <v>       0.00333333 </v>
   <v>       0.00333333 </v>
   <v>       0.00333333 </v>
   <v>       0.00333333 </v>
   <v>       0.00333333 </v>
   <v>       0.00333333 </v>
   <v>       0.00333333 </v>
   <v>       0.00333333 </v>
   <v>       0.00333333 </v>
   <v>       0.00333333 </v>
   <v>       0.00333333 </v>
   <v>       0.00333333 </v>
   <v>       0.00333333 </v>
   <v>       0.00333333 </v>
   <v>       0.00333333 </v>
   <v>       0.00333333 </v>
   <v>       0.00333333 </v>
   <v>       0.00333333 </v>
   <v>       0.00333333 </v>
   <v>       0.00333333 </v>
   <v>       0.00333333 </v>
   <v>       0.00333333 </v>
   <v>       0.00333333 </v>
   <v>       0.00333333 </v>
   <v>       0.00333333 </v>
   <v>       0.00333333 </v>
   <v>       0.00333333 </v>
   <v>       0.00333333 </v>
   <v>       0.00333333 </v>
   <v>       0.00333333 </v>
   <v>       0.00333333 </v>
   <v>       0.00333333 </v>
   <v>       0.00333333 </v>
   <v>       0.00333333 </v>
   <v>       0.00333333 </v>
   <v>       0.00333333 </v>
   <v>       0.00333333 </v>
   <v>       0.00333333 </v>
   <v>       0.00333333 </v>
   <v>       0.00333333 </v>
   <v>       0.00333333 </v>
   <v>       0.00333333 </v>
   <v>       0.00333333 </v>
   <v>       0.00333333 </v>
   <v>       0.00333333 </v>
   <v>       0.00333333 </v>
   <v>       0.00333333 </v>
   <v>       0.00333333 </v>
   <v>       0.00333333 </v>
   <v>       0.00333333 </v>
   <v>       0.00333333 </v>
   <v>       0.00333333 </v>
   <v>       0.00333333 </v>
   <v>       0.00333333 </v>
   <v>       0.00333333 </v>
   <v>       0.00333333 </v>
   <v>       0.00333333 </v>
   <v>       0.00333333 </v>
   <v>       0.00333333 </v>
  </varray>
 </kpoints>
 <parameters>
  <separator name="general" >
   <i type="string" name="SYSTEM">graphene (single layer)</i>
   <i type="logical" name="LCOMPAT"> F  </i>
  </separator>
  <separator name="electronic" >
   <i type="string" name="PREC">normal</i>
   <i name="ENMAX">    300.00000000</i>
   <i name="ENAUG">    644.87300000</i>
   <i name="EDIFF">      0.00000100</i>
   <i type="int" name="IALGO">    38</i>
   <i type="int" name="IWAVPR">    10</i>
   <i type="int" name="NBANDS">     8</i>
   <i name="NELECT">      8.00000000</i>
   <i type="int" name="TURBO">     0</i>
   <i type="int" name="IRESTART">     0</i>
   <i type="int" name="NREBOOT">     0</i>
   <i type="int" name="NMIN">     0</i>
   <i name="EREF">      0.00000000</i>
   <separator name="electronic smearing" >
    <i type="int" name="ISMEAR">     0</i>
    <i name="SIGMA">      0.20000000</i>
    <i name="KSPACING">      0.50000000</i>
    <i type="logical" name="KGAMMA"> T  </i>
   </separator>
   <separator name="electronic projectors" >
    <i type="logical" name="LREAL"> F  </i>
    <v name="ROPT">      0.00000000</v>
    <i type="int" name="LMAXPAW">  -100</i>
    <i type="int" name="LMAXMIX">     2</i>
    <i type="logical" name="NLSPLINE"> F  </i>
   </separator>
   <separator name="electronic startup" >
    <i type="int" name="ISTART">     0</i>
    <i type="int" name="ICHARG">     2</i>
    <i type="int" name="INIWAV">     1</i>
   </separator>
   <separator name="electronic spin" >
    <i type="int" name="ISPIN">     1</i>
    <i type="logical" name="LNONCOLLINEAR"> F  </i>
    <v name="MAGMOM">      1.00000000      1.00000000</v>
    <i name="NUPDOWN">     -1.00000000</i>
    <i type="logical" name="LSORBIT"> F  </i>
    <v name="SAXIS">      0.00000000      0.00000000      1.00000000</v>
    <i type="logical" name="LSPIRAL"> F  </i>
    <v name="QSPIRAL">      0.00000000      0.00000000      0.00000000</v>
    <i type="logical" name="LZEROZ"> F  </i>
   </separator>
   <separator name="electronic exchange-correlation" >
    <i type="logical" name="LASPH"> F  </i>
    <i type="logical" name="LMETAGGA"> F  </i>
   </separator>
   <separator name="electronic convergence" >
    <i type="int" name="NELM">    60</i>
    <i type="int" name="NELMDL">    -5</i>
    <i type="int" name="NELMIN">     2</i>
    <i name="ENINI">    300.00000000</i>
    <separator name="electronic convergence detail" >
     <i type="logical" name="LDIAG"> T  </i>
     <i type="logical" name="LSUBROT"> F  </i>
     <i name="WEIMIN">      0.00000000</i>
     <i name="EBREAK">      0.00000003</i>
     <i name="DEPER">      0.30000000</i>
     <i type="int" name="NRMM">     4</i>
     <i name="TIME">      0.40000000</i>
    </separator>
   </separator>
   <separator name="electronic mixer" >
    <i name="AMIX">      0.40000000</i>
    <i name="BMIX">      1.00000000</i>
    <i name="AMIN">      0.10000000</i>
    <i name="AMIX_MAG">      1.60000000</i>
    <i name="BMIX_MAG">      1.00000000</i>
    <separator name="electronic mixer details" >
     <i type="int" name="IMIX">     4</i>
     <i type="logical" name="MIXFIRST"> F  </i>
     <i type="int" name="MAXMIX">   -45</i>
     <i name="WC">    100.00000000</i>
     <i type="int" name="INIMIX">     1</i>
     <i type="int" name="MIXPRE">     1</i>
     <i type="int" name="MREMOVE">     5</i>
    </separator>
   </separator>
   <separator name="electronic dipolcorrection" >
    <i type="logical" name="LDIPOL"> F  </i>
    <i type="logical" name="LMONO"> F  </i>
    <i type="int" name="IDIPOL">     0</i>
    <i name="EPSILON">      1.00000000</i>
    <v name="DIPOL">   -100.00000000   -100.00000000   -100.00000000</v>
    <i name="EFIELD">      0.00000000</i>
   </separator>
  </separator>
  <separator name="grids" >
   <i type="int" name="NGX">    10</i>
   <i type="int" name="NGY">    10</i>
   <i type="int" name="NGZ">   210</i>
   <i type="int" name="NGXF">    20</i>
   <i type="int" name="NGYF">    20</i>
   <i type="int" name="NGZF">   420</i>
   <i type="logical" name="ADDGRID"> F  </i>
  </separator>
  <separator name="ionic" >
   <i type="int" name="NSW">     0</i>
   <i type="int" name="IBRION">    -1</i>
   <i type="int" name="MDALGO">     0</i>
   <i type="int" name="ISIF">     2</i>
   <i name="PSTRESS">      0.00000000</i>
   <i name="EDIFFG">      0.00001000</i>
   <i type="int" name="NFREE">     0</i>
   <i name="POTIM">      0.50000000</i>
   <i name="SMASS">     -3.00000000</i>
   <i name="SCALEE">      1.00000000</i>
  </separator>
  <separator name="ionic md" >
   <i name="TEBEG">      0.00010000</i>
   <i name="TEEND">      0.00010000</i>
   <i type="int" name="NBLOCK">     1</i>
   <i type="int" name="KBLOCK">     1</i>
   <i type="int" name="NPACO">   256</i>
   <i name="APACO">     16.00000000</i>
  </separator>
  <separator name="symmetry" >
   <i type="int" name="ISYM">     2</i>
   <i name="SYMPREC">      0.00001000</i>
  </separator>
  <separator name="dos" >
   <i type="int" name="LORBIT">     0</i>
   <v name="RWIGS">     -1.00000000</v>
   <i type="int" name="NEDOS">   301</i>
   <i name="EMIN">     10.00000000</i>
   <i name="EMAX">    -10.00000000</i>
   <i name="EFERMI">      0.00000000</i>
  </separator>
  <separator name="writing" >
   <i type="int" name="NWRITE">     2</i>
   <i type="logical" name="LWAVE"> T  </i>
   <i type="logical" name="LDOWNSAMPLE"> F  </i>
   <i type="logical" name="LCHARG"> F  </i>
   <i type="logical" name="LPARD"> F  </i>
   <i type="logical" name="LVTOT"> F  </i>
   <i type="logical" name="LVHAR"> F  </i>
   <i type="logical" name="LELF"> F  </i>
   <i type="logical" name="LOPTICS"> F  </i>
   <v name="STM">      0.00000000      0.00000000      0.00000000      0.00000000      0.00000000      0.00000000      0.00000000</v>
  </separator>
  <separator name="performance" >
   <i type="int" name="NPAR">     1</i>
   <i type="int" name="NSIM">     4</i>
   <i type="int" name="NBLK">    -1</i>
   <i type="logical" name="LPLANE"> T  </i>
   <i type="logical" name="LSCALAPACK"> T  </i>
   <i type="logical" name="LSCAAWARE"> F  </i>
   <i type="logical" name="LSCALU"> F  </i>
   <i type="logical" name="LASYNC"> F  </i>
   <i type="logical" name="LORBITALREAL"> F  </i>
  </separator>
  <separator name="miscellaneous" >
   <i type="int" name="IDIOT">     3</i>
   <i type="int" name="ISPECIAL">     0</i>
   <i type="logical" name="LMUSIC"> F  </i>
   <v name="POMASS">     12.01100000</v>
   <v name="DARWINR">      0.00000000</v>
   <v name="DARWINV">      1.00000000</v>
   <i type="logical" name="LCORR"> T  </i>
  </separator>
  <i type="logical" name="GGA_COMPAT"> T  </i>
  <i type="logical" name="LBERRY"> F  </i>
  <i type="int" name="ICORELEVEL">     0</i>
  <i type="logical" name="LDAU"> F  </i>
  <i type="int" name="I_CONSTRAINED_M">     0</i>
  <separator name="electronic exchange-correlation" >
   <i type="string" name="GGA">--</i>
   <i type="int" name="VOSKOWN">     0</i>
   <i type="logical" name="LHFCALC"> F  </i>
   <i type="string" name="PRECFOCK"></i>
   <i type="logical" name="LSYMGRAD"> F  </i>
   <i type="logical" name="LHFONE"> F  </i>
   <i type="logical" name="LRHFCALC"> F  </i>
   <i type="logical" name="LTHOMAS"> F  </i>
   <i type="logical" name="LMODELHF"> F  </i>
   <i name="ENCUT4O">     -1.00000000</i>
   <i type="int" name="EXXOEP">     0</i>
   <i type="int" name="FOURORBIT">     0</i>
   <i name="AEXX">      0.00000000</i>
   <i name="HFALPHA">      0.00000000</i>
   <i name="MCALPHA">      0.00000000</i>
   <i name="ALDAX">      1.00000000</i>
   <i name="AGGAX">      1.00000000</i>
   <i name="ALDAC">      1.00000000</i>
   <i name="AGGAC">      1.00000000</i>
   <i type="int" name="NKREDX">     1</i>
   <i type="int" name="NKREDY">     1</i>
   <i type="int" name="NKREDZ">     1</i>
   <i type="logical" name="SHIFTRED"> F  </i>
   <i type="logical" name="ODDONLY"> F  </i>
   <i type="logical" name="EVENONLY"> F  </i>
   <i type="int" name="LMAXFOCK">     0</i>
   <i type="int" name="NMAXFOCKAE">     0</i>
   <i type="logical" name="LFOCKAEDFT"> F  </i>
   <i name="HFSCREEN">      0.00000000</i>
   <i name="HFSCREENC">      0.00000000</i>
   <i type="int" name="NBANDSGWLOW">     0</i>
  </separator>
  <separator name="vdW DFT" >
   <i type="logical" name="LUSE_VDW"> F  </i>
   <i name="Zab_VDW">     -0.84910000</i>
   <i name="PARAM1">      0.12340000</i>
   <i name="PARAM2">      1.00000000</i>
   <i name="PARAM3">      0.00000000</i>
  </separator>
  <separator name="model GW" >
   <i type="int" name="MODEL_GW">     0</i>
   <i name="MODEL_EPS0">     77.35251946</i>
   <i name="MODEL_ALPHA">      1.00000000</i>
  </separator>
  <separator name="linear response parameters" >
   <i type="logical" name="LEPSILON"> F  </i>
   <i type="logical" name="LRPA"> F  </i>
   <i type="logical" name="LNABLA"> F  </i>
   <i type="logical" name="LVEL"> F  </i>
   <i type="int" name="KINTER">     0</i>
   <i name="CSHIFT">      0.10000000</i>
   <i name="OMEGAMAX">     -1.00000000</i>
   <i name="DEG_THRESHOLD">      0.00200000</i>
   <i name="RTIME">     -0.10000000</i>
   <i name="WPLASMAI">      0.00000000</i>
   <v name="DFIELD">      0.00000000      0.00000000      0.00000000</v>
   <v name="WPLASMA">      0.00000000      0.00000000      0.00000000      0.00000000      0.00000000      0.00000000      0.00000000      0.00000000      0.00000000</v>
  </separator>
  <separator name="orbital magnetization" >
   <i type="logical" name="NUCIND"> F  </i>
   <v name="MAGPOS">      0.00000000      0.00000000      0.00000000</v>
   <i type="logical" name="LNICSALL"> T  </i>
   <i type="logical" name="ORBITALMAG"> F  </i>
   <i type="logical" name="LMAGBLOCH"> F  </i>
   <i type="logical" name="LCHIMAG"> F  </i>
   <i type="logical" name="LGAUGE"> T  </i>
   <i type="int" name="MAGATOM">     0</i>
   <v name="MAGDIPOL">      0.00000000      0.00000000      0.00000000</v>
   <v name="AVECCONST">      0.00000000      0.00000000      0.00000000</v>
  </separator>
  <separator name="response functions" >
   <i type="logical" name="LADDER"> F  </i>
   <i type="logical" name="LRPAFORCE"> F  </i>
   <i type="logical" name="LFXC"> F  </i>
   <i type="logical" name="LHARTREE"> T  </i>
   <i type="int" name="IBSE">     0</i>
   <v type="int" name="KPOINT">    -1     0     0     0</v>
   <i type="logical" name="LTCTE"> F  </i>
   <i type="logical" name="LTETE"> F  </i>
   <i type="logical" name="LTRIPLET"> F  </i>
   <i type="logical" name="LFXCEPS"> F  </i>
   <i type="logical" name="LFXHEG"> F  </i>
   <i type="int" name="NATURALO">     2</i>
   <i type="logical" name="L2ORDER"> F  </i>
   <i type="logical" name="LMP2LT"> F  </i>
   <i type="logical" name="LUSEW"> F  </i>
   <i name="ENCUTGW">     -2.00000000</i>
   <i name="ENCUTGWSOFT">     -2.00000000</i>
   <i name="ENCUTLF">     -1.00000000</i>
   <i type="int" name="LMAXMP2">    -1</i>
   <i name="SCISSOR">      0.00000000</i>
   <i type="int" name="NOMEGA">     0</i>
   <i type="int" name="NOMEGAR">     0</i>
   <i type="int" name="NBANDSGW">    -1</i>
   <i type="int" name="NBANDSO">    -1</i>
   <i type="int" name="NBANDSV">    -1</i>
   <i type="int" name="NELM">     1</i>
   <i type="int" name="NELMHF">     1</i>
   <i type="int" name="DIM">     3</i>
   <i type="int" name="ANTIRES">     0</i>
   <i name="OMEGAMAX">    -30.00000000</i>
   <i name="OMEGAMIN">    -30.00000000</i>
   <i name="OMEGATL">   -200.00000000</i>
   <i type="int" name="OMEGAGRID">   140</i>
   <i name="CSHIFT">     -0.10000000</i>
   <i type="logical" name="SELFENERGY"> F  </i>
   <i type="logical" name="LSPECTRAL"> F  </i>
   <i type="logical" name="LSPECTRALGW"> F  </i>
   <i type="logical" name="LSINGLES"> F  </i>
   <i type="logical" name="LFERMIGW"> F  </i>
   <i type="logical" name="ODDONLYGW"> F  </i>
   <i type="logical" name="EVENONLYGW"> F  </i>
   <i type="int" name="NKREDLFX">     1</i>
   <i type="int" name="NKREDLFY">     1</i>
   <i type="int" name="NKREDLFZ">     1</i>
   <i type="int" name="MAXMEM">  2800</i>
   <i type="int" name="TELESCOPE">     0</i>
   <i type="int" name="TAUPAR">     1</i>
   <i type="int" name="OMEGAPAR">    -1</i>
   <i name="LAMBDA">      1.00000000</i>
  </separator>
  <separator name="External order field" >
   <i name="OFIELD_KAPPA">      0.00000000</i>
   <v name="OFIELD_K">      0.00000000      0.00000000      0.00000000</v>
   <i name="OFIELD_Q6_NEAR">      0.00000000</i>
   <i name="OFIELD_Q6_FAR">      0.00000000</i>
   <i name="OFIELD_A">      0.00000000</i>
  </separator>
 </parameters>
 <atominfo>
  <atoms>       2 </atoms>
  <types>       1 </types>
  <array name="atoms" >
   <dimension dim="1">ion</dimension>
   <field type="string">element</field>
   <field type="int">atomtype</field>
   <set>
    <rc><c>C </c><c>   1</c></rc>
    <rc><c>C </c><c>   1</c></rc>
   </set>
  </array>
  <array name="atomtypes" >
   <dimension dim="1">type</dimension>
   <field type="int">atomspertype</field>
   <field type="string">element</field>
   <field>mass</field>
   <field>valence</field>
   <field type="string">pseudopotential</field>
   <set>
    <rc><c>   2</c><c>C </c><c>     12.01100000</c><c>      4.00000000</c><c> PAW_PBE C 08Apr2002                    </c></rc>
   </set>
  </array>
 </atominfo>
 <structure name="initialpos" >
  <crystal>
   <varray name="basis" >
    <v>       2.13036000      -1.23000000       0.00000000 </v>
    <v>       2.13036000       1.23000000       0.00000000 </v>
    <v>       0.00000000       0.00000000      49.20000000 </v>
   </varray>
   <i name="volume">    257.84173152 </i>
   <varray name="rec_basis" >
    <v>       0.23470212      -0.40650407       0.00000000 </v>
    <v>       0.23470212       0.40650407       0.00000000 </v>
    <v>       0.00000000       0.00000000       0.02032520 </v>
   </varray>
  </crystal>
  <varray name="positions" >
   <v>       0.00000000       0.00000000       0.00000000 </v>
   <v>       0.66670000       0.66670000       0.00000000 </v>
  </varray>
 </structure>
 <calculation>
  <scstep>
   <time name="dav">    9.73    9.76</time>
   <time name="total">    9.84    9.87</time>
   <energy>
    <i name="alphaZ">      1.26403377 </i>
    <i name="ewald">   3991.07545412 </i>
    <i name="hartreedc">  -4192.19146066 </i>
    <i name="XCdc">     27.58818228 </i>
    <i name="pawpsdc">     75.66288619 </i>
    <i name="pawaedc">    -77.96384553 </i>
    <i name="eentropy">     -0.01679711 </i>
    <i name="bandstr">   -107.74623760 </i>
    <i name="atom">    293.79980732 </i>
    <i name="e_fr_energy">     11.47202277 </i>
    <i name="e_wo_entrp">     11.48881988 </i>
    <i name="e_0_energy">     11.48042132 </i>
   </energy>
  </scstep>
  <scstep>
   <time name="dav">    9.05    9.08</time>
   <time name="total">    9.06    9.09</time>
   <energy>
    <i name="e_fr_energy">    -16.97055775 </i>
    <i name="e_wo_entrp">    -16.96835013 </i>
    <i name="e_0_energy">    -16.96945394 </i>
   </energy>
  </scstep>
  <scstep>
   <time name="dav">    8.47    8.50</time>
   <time name="total">    8.48    8.51</time>
   <energy>
    <i name="e_fr_energy">    -18.92577793 </i>
    <i name="e_wo_entrp">    -18.92248959 </i>
    <i name="e_0_energy">    -18.92413376 </i>
   </energy>
  </scstep>
  <scstep>
   <time name="dav">    9.66    9.69</time>
   <time name="total">    9.67    9.70</time>
   <energy>
    <i name="e_fr_energy">    -19.02718358 </i>
    <i name="e_wo_entrp">    -19.02389556 </i>
    <i name="e_0_energy">    -19.02553957 </i>
   </energy>
  </scstep>
  <scstep>
   <time name="dav">    8.63    8.66</time>
   <time name="total">    9.07    9.10</time>
   <energy>
    <i name="e_fr_energy">    -19.02844550 </i>
    <i name="e_wo_entrp">    -19.02515748 </i>
    <i name="e_0_energy">    -19.02680149 </i>
   </energy>
  </scstep>
  <scstep>
   <time name="dav">    8.44    8.47</time>
   <time name="total">    8.97    9.01</time>
   <energy>
    <i name="e_fr_energy">    -18.12699023 </i>
    <i name="e_wo_entrp">    -18.12367794 </i>
    <i name="e_0_energy">    -18.12533409 </i>
   </energy>
  </scstep>
  <scstep>
   <time name="dav">    8.77    8.80</time>
   <time name="total">    9.30    9.34</time>
   <energy>
    <i name="e_fr_energy">    -17.76729731 </i>
    <i name="e_wo_entrp">    -17.76397814 </i>
    <i name="e_0_energy">    -17.76563773 </i>
   </energy>
  </scstep>
  <scstep>
   <time name="dav">    9.10    9.13</time>
   <time name="total">    9.63    9.66</time>
   <energy>
    <i name="e_fr_energy">    -17.75934558 </i>
    <i name="e_wo_entrp">    -17.75603629 </i>
    <i name="e_0_energy">    -17.75769093 </i>
   </energy>
  </scstep>
  <scstep>
   <time name="dav">    9.66    9.69</time>
   <time name="total">   10.20   10.24</time>
   <energy>
    <i name="e_fr_energy">    -17.75765096 </i>
    <i name="e_wo_entrp">    -17.75434220 </i>
    <i name="e_0_energy">    -17.75599658 </i>
   </energy>
  </scstep>
  <scstep>
   <time name="dav">    8.78    8.81</time>
   <time name="total">    9.32    9.35</time>
   <energy>
    <i name="e_fr_energy">    -17.75655215 </i>
    <i name="e_wo_entrp">    -17.75324380 </i>
    <i name="e_0_energy">    -17.75489798 </i>
   </energy>
  </scstep>
  <scstep>
   <time name="dav">    8.11    8.14</time>
   <time name="total">    8.64    8.67</time>
   <energy>
    <i name="e_fr_energy">    -17.75704411 </i>
    <i name="e_wo_entrp">    -17.75373657 </i>
    <i name="e_0_energy">    -17.75539034 </i>
   </energy>
  </scstep>
  <scstep>
   <time name="dav">    8.69    8.72</time>
   <time name="total">    9.22    9.26</time>
   <energy>
    <i name="e_fr_energy">    -17.75759421 </i>
    <i name="e_wo_entrp">    -17.75428680 </i>
    <i name="e_0_energy">    -17.75594051 </i>
   </energy>
  </scstep>
  <scstep>
   <time name="dav">    7.72    7.74</time>
   <time name="total">    8.25    8.28</time>
   <energy>
    <i name="e_fr_energy">    -17.75817664 </i>
    <i name="e_wo_entrp">    -17.75486864 </i>
    <i name="e_0_energy">    -17.75652264 </i>
   </energy>
  </scstep>
  <scstep>
   <time name="dav">   10.41   10.45</time>
   <time name="total">   10.95   10.98</time>
   <energy>
    <i name="e_fr_energy">    -17.75828245 </i>
    <i name="e_wo_entrp">    -17.75497481 </i>
    <i name="e_0_energy">    -17.75662863 </i>
   </energy>
  </scstep>
  <scstep>
   <time name="dav">    8.59    8.61</time>
   <time name="total">    9.12    9.15</time>
   <energy>
    <i name="e_fr_energy">    -17.75834041 </i>
    <i name="e_wo_entrp">    -17.75503292 </i>
    <i name="e_0_energy">    -17.75668666 </i>
   </energy>
  </scstep>
  <scstep>
   <time name="dav">   10.19   10.23</time>
   <time name="total">   10.73   10.76</time>
   <energy>
    <i name="e_fr_energy">    -17.75836078 </i>
    <i name="e_wo_entrp">    -17.75505306 </i>
    <i name="e_0_energy">    -17.75670692 </i>
   </energy>
  </scstep>
  <scstep>
   <time name="dav">    8.10    8.13</time>
   <time name="total">    8.64    8.67</time>
   <energy>
    <i name="e_fr_energy">    -17.75836603 </i>
    <i name="e_wo_entrp">    -17.75505834 </i>
    <i name="e_0_energy">    -17.75671218 </i>
   </energy>
  </scstep>
  <scstep>
   <time name="dav">    9.40    9.43</time>
   <time name="total">    9.93    9.97</time>
   <energy>
    <i name="e_fr_energy">    -17.75836876 </i>
    <i name="e_wo_entrp">    -17.75506113 </i>
    <i name="e_0_energy">    -17.75671494 </i>
   </energy>
  </scstep>
  <scstep>
   <time name="dav">    7.58    7.61</time>
   <time name="total">    8.12    8.15</time>
   <energy>
    <i name="e_fr_energy">    -17.75836998 </i>
    <i name="e_wo_entrp">    -17.75506232 </i>
    <i name="e_0_energy">    -17.75671615 </i>
   </energy>
  </scstep>
  <scstep>
   <time name="dav">    8.92    8.95</time>
   <time name="total">    9.01    9.04</time>
   <energy>
    <i name="alphaZ">      1.26403377 </i>
    <i name="ewald">   3991.07545412 </i>
    <i name="hartreedc">  -4228.49820475 </i>
    <i name="XCdc">     28.82200115 </i>
    <i name="pawpsdc">    140.41968968 </i>
    <i name="pawaedc">   -142.91357148 </i>
    <i name="eentropy">     -0.00330765 </i>
    <i name="bandstr">   -101.72427247 </i>
    <i name="atom">    293.79980732 </i>
    <i name="e_fr_energy">    -17.75837031 </i>
    <i name="e_wo_entrp">    -17.75506266 </i>
    <i name="e_0_energy">    -17.75671649 </i>
   </energy>
  </scstep>
  <structure>
   <crystal>
    <varray name="basis" >
     <v>       2.13036000      -1.23000000       0.00000000 </v>
     <v>       2.13036000       1.23000000       0.00000000 </v>
     <v>       0.00000000       0.00000000      49.20000000 </v>
    </varray>
    <i name="volume">    257.84173152 </i>
    <varray name="rec_basis" >
     <v>       0.23470212      -0.40650407       0.00000000 </v>
     <v>       0.23470212       0.40650407       0.00000000 </v>
     <v>       0.00000000       0.00000000       0.02032520 </v>
    </varray>
   </crystal>
   <varray name="positions" >
    <v>       0.00000000       0.00000000       0.00000000 </v>
    <v>       0.66670000       0.66670000       0.00000000 </v>
   </varray>
  </structure>
  <varray name="forces" >
   <v>       1.44375435       0.00000000       0.00000000 </v>
   <v>      -1.44375435       0.00000000       0.00000000 </v>
  </varray>
  <varray name="stress" >
   <v>       8.98856851       0.00000000       0.00000000 </v>
   <v>       0.00000000     -18.54333865       0.00000000 </v>
   <v>       0.00000000       0.00000000     -13.66299289 </v>
  </varray>
  <energy>
   <i name="e_fr_energy">    -17.75837031 </i>
   <i name="e_wo_entrp">    -17.75671649 </i>
   <i name="e_0_energy">     -0.00330765 </i>
  </energy>
  <time name="totalsc">  190.57  191.28</time>
  <eigenvalues>
   <array>
    <dimension dim="1">band</dimension>
    <dimension dim="2">kpoint</dimension>
    <dimension dim="3">spin</dimension>
    <field>eigene</field>
    <field>occ</field>
    <set>
     <set comment="spin 1">
      <set comment="kpoint 1">
       <r>  -23.2689    1.0000 </r>
       <r>  -11.3148    1.0000 </r>
       <r>   -6.6649    1.0000 </r>
       <r>   -6.5964    1.0000 </r>
       <r>   -0.4170    0.0000 </r>
       <r>    0.2351    0.0000 </r>
       <r>    0.3624    0.0000 </r>
       <r>    0.4539    0.0000 </r>
      </set>
      <set comment="kpoint 2">
       <r>  -23.2681    1.0000 </r>
       <r>  -11.3138    1.0000 </r>
       <r>   -6.6651    1.0000 </r>
       <r>   -6.5968    1.0000 </r>
       <r>   -0.4159    0.0000 </r>
       <r>    0.2362    0.0000 </r>
       <r>    0.3635    0.0000 </r>
       <r>    0.4551    0.0000 </r>
      </set>
      <set comment="kpoint 3">
       <r>  -23.2656    1.0000 </r>
       <r>  -11.3114    1.0000 </r>
       <r>   -6.6733    1.0000 </r>
       <r>   -6.6012    1.0000 </r>
       <r>   -0.4125    0.0000 </r>
       <r>    0.2395    0.0000 </r>
       <r>    0.3669    0.0000 </r>
       <r>    0.4584    0.0000 </r>
      </set>
      <set comment="kpoint 4">
       <r>  -23.2616    1.0000 </r>
       <r>  -11.3066    1.0000 </r>
       <r>   -6.6888    1.0000 </r>
       <r>   -6.6119    1.0000 </r>
       <r>   -0.4071    0.0000 </r>
       <r>    0.2451    0.0000 </r>
       <r>    0.3725    0.0000 </r>
       <r>    0.4641    0.0000 </r>
      </set>
      <set comment="kpoint 5">
       <r>  -23.2560    1.0000 </r>
       <r>  -11.3011    1.0000 </r>
       <r>   -6.7132    1.0000 </r>
       <r>   -6.6269    1.0000 </r>
       <r>   -0.3994    0.0000 </r>
       <r>    0.2529    0.0000 </r>
       <r>    0.3804    0.0000 </r>
       <r>    0.4719    0.0000 </r>
      </set>
      <set comment="kpoint 6">
       <r>  -23.2488    1.0000 </r>
       <r>  -11.2923    1.0000 </r>
       <r>   -6.7394    1.0000 </r>
       <r>   -6.6444    1.0000 </r>
       <r>   -0.3895    0.0000 </r>
       <r>    0.2629    0.0000 </r>
       <r>    0.3905    0.0000 </r>
       <r>    0.4820    0.0000 </r>
      </set>
      <set comment="kpoint 7">
       <r>  -23.2400    1.0000 </r>
       <r>  -11.2818    1.0000 </r>
       <r>   -6.7762    1.0000 </r>
       <r>   -6.6674    1.0000 </r>
       <r>   -0.3775    0.0000 </r>
       <r>    0.2752    0.0000 </r>
       <r>    0.4029    0.0000 </r>
       <r>    0.4944    0.0000 </r>
      </set>
      <set comment="kpoint 8">
       <r>  -23.2294    1.0000 </r>
       <r>  -11.2691    1.0000 </r>
       <r>   -6.8164    1.0000 </r>
       <r>   -6.6907    1.0000 </r>
       <r>   -0.3632    0.0000 </r>
       <r>    0.2898    0.0000 </r>
       <r>    0.4176    0.0000 </r>
       <r>    0.5090    0.0000 </r>
      </set>
      <set comment="kpoint 9">
       <r>  -23.2174    1.0000 </r>
       <r>  -11.2546    1.0000 </r>
       <r>   -6.8645    1.0000 </r>
       <r>   -6.7186    1.0000 </r>
       <r>   -0.3467    0.0000 </r>
       <r>    0.3066    0.0000 </r>
       <r>    0.4345    0.0000 </r>
       <r>    0.5259    0.0000 </r>
      </set>
      <set comment="kpoint 10">
       <r>  -23.2037    1.0000 </r>
       <r>  -11.2374    1.0000 </r>
       <r>   -6.9174    1.0000 </r>
       <r>   -6.7494    1.0000 </r>
       <r>   -0.3281    0.0000 </r>
       <r>    0.3256    0.0000 </r>
       <r>    0.4536    0.0000 </r>
       <r>    0.5450    0.0000 </r>
      </set>
      <set comment="kpoint 11">
       <r>  -23.1883    1.0000 </r>
       <r>  -11.2190    1.0000 </r>
       <r>   -6.9773    1.0000 </r>
       <r>   -6.7837    1.0000 </r>
       <r>   -0.3072    0.0000 </r>
       <r>    0.3469    0.0000 </r>
       <r>    0.4750    0.0000 </r>
       <r>    0.5663    0.0000 </r>
      </set>
      <set comment="kpoint 12">
       <r>  -23.1714    1.0000 </r>
       <r>  -11.1989    1.0000 </r>
       <r>   -7.0437    1.0000 </r>
       <r>   -6.8216    1.0000 </r>
       <r>   -0.2842    0.0000 </r>
       <r>    0.3704    0.0000 </r>
       <r>    0.4987    0.0000 </r>
       <r>    0.5900    0.0000 </r>
      </set>
      <set comment="kpoint 13">
       <r>  -23.1528    1.0000 </r>
       <r>  -11.1772    1.0000 </r>
       <r>   -7.1121    1.0000 </r>
       <r>   -6.8648    1.0000 </r>
       <r>   -0.2589    0.0000 </r>
       <r>    0.3961    0.0000 </r>
       <r>    0.5246    0.0000 </r>
       <r>    0.6158    0.0000 </r>
      </set>
      <set comment="kpoint 14">
       <r>  -23.1327    1.0000 </r>
       <r>  -11.1532    1.0000 </r>
       <r>   -7.1894    1.0000 </r>
       <r>   -6.9068    1.0000 </r>
       <r>   -0.2315    0.0000 </r>
       <r>    0.4240    0.0000 </r>
       <r>    0.5528    0.0000 </r>
       <r>    0.6439    0.0000 </r>
      </set>
      <set comment="kpoint 15">
       <r>  -23.1109    1.0000 </r>
       <r>  -11.1271    1.0000 </r>
       <r>   -7.2699    1.0000 </r>
       <r>   -6.9538    1.0000 </r>
       <r>   -0.2018    0.0000 </r>
       <r>    0.4542    0.0000 </r>
       <r>    0.5832    0.0000 </r>
       <r>    0.6743    0.0000 </r>
      </set>
      <set comment="kpoint 16">
       <r>  -23.0875    1.0000 </r>
       <r>  -11.0991    1.0000 </r>
       <r>   -7.3548    1.0000 </r>
       <r>   -7.0040    1.0000 </r>
       <r>   -0.1700    0.0000 </r>
       <r>    0.4867    0.0000 </r>
       <r>    0.6159    0.0000 </r>
       <r>    0.7068    0.0000 </r>
      </set>
      <set comment="kpoint 17">
       <r>  -23.0624    1.0000 </r>
       <r>  -11.0691    1.0000 </r>
       <r>   -7.4413    1.0000 </r>
       <r>   -7.0569    1.0000 </r>
       <r>   -0.1359    0.0000 </r>
       <r>    0.5214    0.0000 </r>
       <r>    0.6508    0.0000 </r>
       <r>    0.7417    0.0000 </r>
      </set>
      <set comment="kpoint 18">
       <r>  -23.0359    1.0000 </r>
       <r>  -11.0361    1.0000 </r>
       <r>   -7.5343    1.0000 </r>
       <r>   -7.1131    1.0000 </r>
       <r>   -0.0997    0.0000 </r>
       <r>    0.5583    0.0000 </r>
       <r>    0.6880    0.0000 </r>
       <r>    0.7788    0.0000 </r>
      </set>
      <set comment="kpoint 19">
       <r>  -23.0076    1.0000 </r>
       <r>  -11.0022    1.0000 </r>
       <r>   -7.6304    1.0000 </r>
       <r>   -7.1709    1.0000 </r>
       <r>   -0.0612    0.0000 </r>
       <r>    0.5975    0.0000 </r>
       <r>    0.7274    0.0000 </r>
       <r>    0.8182    0.0000 </r>
      </set>
      <set comment="kpoint 20">
       <r>  -22.9778    1.0000 </r>
       <r>  -10.9659    1.0000 </r>
       <r>   -7.7280    1.0000 </r>
       <r>   -7.2328    1.0000 </r>
       <r>   -0.0206    0.0000 </r>
       <r>    0.6389    0.0000 </r>
       <r>    0.7691    0.0000 </r>
       <r>    0.8598    0.0000 </r>
      </set>
      <set comment="kpoint 21">
       <r>  -22.9464    1.0000 </r>
       <r>  -10.9285    1.0000 </r>
       <r>   -7.8323    1.0000 </r>
       <r>   -7.2990    1.0000 </r>
       <r>    0.0222    0.0000 </r>
       <r>    0.6825    0.0000 </r>
       <r>    0.8130    0.0000 </r>
       <r>    0.9036    0.0000 </r>
      </set>
      <set comment="kpoint 22">
       <r>  -22.9133    1.0000 </r>
       <r>  -10.8891    1.0000 </r>
       <r>   -7.9381    1.0000 </r>
       <r>   -7.3662    1.0000 </r>
       <r>    0.0673    0.0000 </r>
       <r>    0.7283    0.0000 </r>
       <r>    0.8592    0.0000 </r>
       <r>    0.9497    0.0000 </r>
      </set>
      <set comment="kpoint 23">
       <r>  -22.8787    1.0000 </r>
       <r>  -10.8480    1.0000 </r>
       <r>   -8.0473    1.0000 </r>
       <r>   -7.4364    1.0000 </r>
       <r>    0.1145    0.0000 </r>
       <r>    0.7764    0.0000 </r>
       <r>    0.9077    0.0000 </r>
       <r>    0.9980    0.0000 </r>
      </set>
      <set comment="kpoint 24">
       <r>  -22.8425    1.0000 </r>
       <r>  -10.8047    1.0000 </r>
       <r>   -8.1563    1.0000 </r>
       <r>   -7.5069    1.0000 </r>
       <r>    0.1640    0.0000 </r>
       <r>    0.8267    0.0000 </r>
       <r>    0.9584    0.0000 </r>
       <r>    1.0486    0.0000 </r>
      </set>
      <set comment="kpoint 25">
       <r>  -22.8047    1.0000 </r>
       <r>  -10.7597    1.0000 </r>
       <r>   -8.2695    1.0000 </r>
       <r>   -7.5805    1.0000 </r>
       <r>    0.2156    0.0000 </r>
       <r>    0.8792    0.0000 </r>
       <r>    1.0113    0.0000 </r>
       <r>    1.1014    0.0000 </r>
      </set>
      <set comment="kpoint 26">
       <r>  -22.7652    1.0000 </r>
       <r>  -10.7134    1.0000 </r>
       <r>   -8.3846    1.0000 </r>
       <r>   -7.6577    1.0000 </r>
       <r>    0.2694    0.0000 </r>
       <r>    0.9340    0.0000 </r>
       <r>    1.0665    0.0000 </r>
       <r>    1.1565    0.0000 </r>
      </set>
      <set comment="kpoint 27">
       <r>  -22.7241    1.0000 </r>
       <r>  -10.6645    1.0000 </r>
       <r>   -8.4992    1.0000 </r>
       <r>   -7.7369    1.0000 </r>
       <r>    0.3255    0.0000 </r>
       <r>    0.9909    0.0000 </r>
       <r>    1.1240    0.0000 </r>
       <r>    1.2138    0.0000 </r>
      </set>
      <set comment="kpoint 28">
       <r>  -22.6816    1.0000 </r>
       <r>  -10.6139    1.0000 </r>
       <r>   -8.6180    1.0000 </r>
       <r>   -7.8220    1.0000 </r>
       <r>    0.3836    0.0000 </r>
       <r>    1.0502    0.0000 </r>
       <r>    1.1837    0.0000 </r>
       <r>    1.2733    0.0000 </r>
      </set>
      <set comment="kpoint 29">
       <r>  -22.6374    1.0000 </r>
       <r>  -10.5620    1.0000 </r>
       <r>   -8.7388    1.0000 </r>
       <r>   -7.9052    1.0000 </r>
       <r>    0.4441    0.0000 </r>
       <r>    1.1116    0.0000 </r>
       <r>    1.2457    0.0000 </r>
       <r>    1.3351    0.0000 </r>
      </set>
      <set comment="kpoint 30">
       <r>  -22.5916    1.0000 </r>
       <r>  -10.5076    1.0000 </r>
       <r>   -8.8582    1.0000 </r>
       <r>   -7.9907    1.0000 </r>
       <r>    0.5067    0.0000 </r>
       <r>    1.1752    0.0000 </r>
       <r>    1.3099    0.0000 </r>
       <r>    1.3992    0.0000 </r>
      </set>
      <set comment="kpoint 31">
       <r>  -22.5443    1.0000 </r>
       <r>  -10.4516    1.0000 </r>
       <r>   -8.9810    1.0000 </r>
       <r>   -8.0785    1.0000 </r>
       <r>    0.5715    0.0000 </r>
       <r>    1.2411    0.0000 </r>
       <r>    1.3764    0.0000 </r>
       <r>    1.4655    0.0000 </r>
      </set>
      <set comment="kpoint 32">
       <r>  -22.4953    1.0000 </r>
       <r>  -10.3935    1.0000 </r>
       <r>   -9.1036    1.0000 </r>
       <r>   -8.1677    1.0000 </r>
       <r>    0.6385    0.0000 </r>
       <r>    1.3092    0.0000 </r>
       <r>    1.4451    0.0000 </r>
       <r>    1.5340    0.0000 </r>
      </set>
      <set comment="kpoint 33">
       <r>  -22.4447    1.0000 </r>
       <r>  -10.3337    1.0000 </r>
       <r>   -9.2271    1.0000 </r>
       <r>   -8.2585    1.0000 </r>
       <r>    0.7077    0.0000 </r>
       <r>    1.3795    0.0000 </r>
       <r>    1.5161    0.0000 </r>
       <r>    1.6048    0.0000 </r>
      </set>
      <set comment="kpoint 34">
       <r>  -22.3927    1.0000 </r>
       <r>  -10.2724    1.0000 </r>
       <r>   -9.3525    1.0000 </r>
       <r>   -8.3490    1.0000 </r>
       <r>    0.7790    0.0000 </r>
       <r>    1.4521    0.0000 </r>
       <r>    1.5893    0.0000 </r>
       <r>    1.6778    0.0000 </r>
      </set>
      <set comment="kpoint 35">
       <r>  -22.3390    1.0000 </r>
       <r>  -10.2070    1.0000 </r>
       <r>   -9.4760    1.0000 </r>
       <r>   -8.4429    1.0000 </r>
       <r>    0.8526    0.0000 </r>
       <r>    1.5269    0.0000 </r>
       <r>    1.6648    0.0000 </r>
       <r>    1.7531    0.0000 </r>
      </set>
      <set comment="kpoint 36">
       <r>  -22.2837    1.0000 </r>
       <r>  -10.1417    1.0000 </r>
       <r>   -9.6022    1.0000 </r>
       <r>   -8.5396    1.0000 </r>
       <r>    0.9284    0.0000 </r>
       <r>    1.6039    0.0000 </r>
       <r>    1.7426    0.0000 </r>
       <r>    1.8306    0.0000 </r>
      </set>
      <set comment="kpoint 37">
       <r>  -22.2270    1.0000 </r>
       <r>  -10.0749    1.0000 </r>
       <r>   -9.7292    1.0000 </r>
       <r>   -8.6369    1.0000 </r>
       <r>    1.0063    0.0000 </r>
       <r>    1.6831    0.0000 </r>
       <r>    1.8226    0.0000 </r>
       <r>    1.9104    0.0000 </r>
      </set>
      <set comment="kpoint 38">
       <r>  -22.1686    1.0000 </r>
       <r>  -10.0059    1.0000 </r>
       <r>   -9.8535    1.0000 </r>
       <r>   -8.7345    1.0000 </r>
       <r>    1.0865    0.0000 </r>
       <r>    1.7645    0.0000 </r>
       <r>    1.9048    0.0000 </r>
       <r>    1.9924    0.0000 </r>
      </set>
      <set comment="kpoint 39">
       <r>  -22.1087    1.0000 </r>
       <r>   -9.9819    1.0000 </r>
       <r>   -9.9356    1.0000 </r>
       <r>   -8.8343    1.0000 </r>
       <r>    1.1688    0.0000 </r>
       <r>    1.8481    0.0000 </r>
       <r>    1.9893    0.0000 </r>
       <r>    2.0766    0.0000 </r>
      </set>
      <set comment="kpoint 40">
       <r>  -22.0473    1.0000 </r>
       <r>  -10.1076    1.0000 </r>
       <r>   -9.8635    1.0000 </r>
       <r>   -8.9350    1.0000 </r>
       <r>    1.2533    0.0000 </r>
       <r>    1.9338    0.0000 </r>
       <r>    2.0761    0.0000 </r>
       <r>    2.1631    0.0000 </r>
      </set>
      <set comment="kpoint 41">
       <r>  -21.9842    1.0000 </r>
       <r>  -10.2350    1.0000 </r>
       <r>   -9.7895    1.0000 </r>
       <r>   -9.0364    1.0000 </r>
       <r>    1.3399    0.0000 </r>
       <r>    2.0218    0.0000 </r>
       <r>    2.1651    0.0000 </r>
       <r>    2.2518    0.0000 </r>
      </set>
      <set comment="kpoint 42">
       <r>  -21.9196    1.0000 </r>
       <r>  -10.3616    1.0000 </r>
       <r>   -9.7138    1.0000 </r>
       <r>   -9.1384    1.0000 </r>
       <r>    1.4288    0.0000 </r>
       <r>    2.1120    0.0000 </r>
       <r>    2.2564    0.0000 </r>
       <r>    2.3428    0.0000 </r>
      </set>
      <set comment="kpoint 43">
       <r>  -21.8535    1.0000 </r>
       <r>  -10.4867    1.0000 </r>
       <r>   -9.6363    1.0000 </r>
       <r>   -9.2395    1.0000 </r>
       <r>    1.5199    0.0000 </r>
       <r>    2.2044    0.0000 </r>
       <r>    2.3499    0.0000 </r>
       <r>    2.4360    0.0000 </r>
      </set>
      <set comment="kpoint 44">
       <r>  -21.7860    1.0000 </r>
       <r>  -10.6138    1.0000 </r>
       <r>   -9.5579    1.0000 </r>
       <r>   -9.3450    1.0000 </r>
       <r>    1.6130    0.0000 </r>
       <r>    2.2989    0.0000 </r>
       <r>    2.4456    0.0000 </r>
       <r>    2.5314    0.0000 </r>
      </set>
      <set comment="kpoint 45">
       <r>  -21.7169    1.0000 </r>
       <r>  -10.7401    1.0000 </r>
       <r>   -9.4774    1.0000 </r>
       <r>   -9.4517    1.0000 </r>
       <r>    1.7084    0.0000 </r>
       <r>    2.3957    0.0000 </r>
       <r>    2.5437    0.0000 </r>
       <r>    2.6291    0.0000 </r>
      </set>
      <set comment="kpoint 46">
       <r>  -21.6462    1.0000 </r>
       <r>  -10.8661    1.0000 </r>
       <r>   -9.5568    1.0000 </r>
       <r>   -9.3952    1.0000 </r>
       <r>    1.8059    0.0000 </r>
       <r>    2.4946    0.0000 </r>
       <r>    2.6439    0.0000 </r>
       <r>    2.7290    0.0000 </r>
      </set>
      <set comment="kpoint 47">
       <r>  -21.5742    1.0000 </r>
       <r>  -10.9910    1.0000 </r>
       <r>   -9.6629    1.0000 </r>
       <r>   -9.3107    1.0000 </r>
       <r>    1.9056    0.0000 </r>
       <r>    2.5957    0.0000 </r>
       <r>    2.7465    0.0000 </r>
       <r>    2.8311    0.0000 </r>
      </set>
      <set comment="kpoint 48">
       <r>  -21.5004    1.0000 </r>
       <r>  -11.1168    1.0000 </r>
       <r>   -9.7693    1.0000 </r>
       <r>   -9.2251    1.0000 </r>
       <r>    2.0075    0.0000 </r>
       <r>    2.6989    0.0000 </r>
       <r>    2.8512    0.0000 </r>
       <r>    2.9355    0.0000 </r>
      </set>
      <set comment="kpoint 49">
       <r>  -21.4251    1.0000 </r>
       <r>  -11.2406    1.0000 </r>
       <r>   -9.8760    1.0000 </r>
       <r>   -9.1379    1.0000 </r>
       <r>    2.1115    0.0000 </r>
       <r>    2.8043    0.0000 </r>
       <r>    2.9583    0.0000 </r>
       <r>    3.0421    0.0000 </r>
      </set>
      <set comment="kpoint 50">
       <r>  -21.3484    1.0000 </r>
       <r>  -11.3647    1.0000 </r>
       <r>   -9.9827    1.0000 </r>
       <r>   -9.0491    1.0000 </r>
       <r>    2.2177    0.0000 </r>
       <r>    2.9118    0.0000 </r>
       <r>    2.9707    0.0000 </r>
       <r>    3.0676    0.0000 </r>
      </set>
      <set comment="kpoint 51">
       <r>  -21.2705    1.0000 </r>
       <r>  -11.4868    1.0000 </r>
       <r>  -10.0882    1.0000 </r>
       <r>   -8.9580    1.0000 </r>
       <r>    2.3260    0.0000 </r>
       <r>    2.8162    0.0000 </r>
       <r>    3.0217    0.0000 </r>
       <r>    3.1791    0.0000 </r>
      </set>
      <set comment="kpoint 52">
       <r>  -21.1908    1.0000 </r>
       <r>  -11.6090    1.0000 </r>
       <r>  -10.1958    1.0000 </r>
       <r>   -8.8662    1.0000 </r>
       <r>    2.4365    0.0000 </r>
       <r>    2.6624    0.0000 </r>
       <r>    3.1335    0.0000 </r>
       <r>    3.2929    0.0000 </r>
      </set>
      <set comment="kpoint 53">
       <r>  -21.1096    1.0000 </r>
       <r>  -11.7322    1.0000 </r>
       <r>  -10.3047    1.0000 </r>
       <r>   -8.7725    1.0000 </r>
       <r>    2.5092    0.0000 </r>
       <r>    2.5491    0.0000 </r>
       <r>    3.2474    0.0000 </r>
       <r>    3.4089    0.0000 </r>
      </set>
      <set comment="kpoint 54">
       <r>  -21.0269    1.0000 </r>
       <r>  -11.8525    1.0000 </r>
       <r>  -10.4121    1.0000 </r>
       <r>   -8.6776    1.0000 </r>
       <r>    2.3560    0.0000 </r>
       <r>    2.6639    0.0000 </r>
       <r>    3.3634    0.0000 </r>
       <r>    3.5272    0.0000 </r>
      </set>
      <set comment="kpoint 55">
       <r>  -20.9431    1.0000 </r>
       <r>  -11.9729    1.0000 </r>
       <r>  -10.5200    1.0000 </r>
       <r>   -8.5808    1.0000 </r>
       <r>    2.2029    0.0000 </r>
       <r>    2.7808    0.0000 </r>
       <r>    3.4815    0.0000 </r>
       <r>    3.6478    0.0000 </r>
      </set>
      <set comment="kpoint 56">
       <r>  -20.8575    1.0000 </r>
       <r>  -12.0936    1.0000 </r>
       <r>  -10.6276    1.0000 </r>
       <r>   -8.4832    1.0000 </r>
       <r>    2.0501    0.0000 </r>
       <r>    2.8998    0.0000 </r>
       <r>    3.6017    0.0000 </r>
       <r>    3.7706    0.0000 </r>
      </set>
      <set comment="kpoint 57">
       <r>  -20.7706    1.0000 </r>
       <r>  -12.2123    1.0000 </r>
       <r>  -10.7352    1.0000 </r>
       <r>   -8.3842    1.0000 </r>
       <r>    1.8958    0.0000 </r>
       <r>    3.0210    0.0000 </r>
       <r>    3.7239    0.0000 </r>
       <r>    3.8957    0.0000 </r>
      </set>
      <set comment="kpoint 58">
       <r>  -20.6822    1.0000 </r>
       <r>  -12.3288    1.0000 </r>
       <r>  -10.8404    1.0000 </r>
       <r>   -8.2837    1.0000 </r>
       <r>    1.7427    0.0000 </r>
       <r>    3.1442    0.0000 </r>
       <r>    3.8481    0.0000 </r>
       <r>    4.0230    0.0000 </r>
      </set>
      <set comment="kpoint 59">
       <r>  -20.5926    1.0000 </r>
       <r>  -12.4461    1.0000 </r>
       <r>  -10.9478    1.0000 </r>
       <r>   -8.1822    1.0000 </r>
       <r>    1.5915    0.0000 </r>
       <r>    3.2695    0.0000 </r>
       <r>    3.9742    0.0000 </r>
       <r>    4.1525    0.0000 </r>
      </set>
      <set comment="kpoint 60">
       <r>  -20.5014    1.0000 </r>
       <r>  -12.5620    1.0000 </r>
       <r>  -11.0544    1.0000 </r>
       <r>   -8.0807    1.0000 </r>
       <r>    1.4412    0.0000 </r>
       <r>    3.3971    0.0000 </r>
       <r>    4.1022    0.0000 </r>
       <r>    4.2843    0.0000 </r>
      </set>
      <set comment="kpoint 61">
       <r>  -20.4088    1.0000 </r>
       <r>  -12.6774    1.0000 </r>
       <r>  -11.1609    1.0000 </r>
       <r>   -7.9764    1.0000 </r>
       <r>    1.2914    0.0000 </r>
       <r>    3.5266    0.0000 </r>
       <r>    4.2322    0.0000 </r>
       <r>    4.4184    0.0000 </r>
      </set>
      <set comment="kpoint 62">
       <r>  -20.3148    1.0000 </r>
       <r>  -12.7923    1.0000 </r>
       <r>  -11.2681    1.0000 </r>
       <r>   -7.8696    1.0000 </r>
       <r>    1.1404    0.0000 </r>
       <r>    3.6583    0.0000 </r>
       <r>    4.3642    0.0000 </r>
       <r>    4.5547    0.0000 </r>
      </set>
      <set comment="kpoint 63">
       <r>  -20.2194    1.0000 </r>
       <r>  -12.9046    1.0000 </r>
       <r>  -11.3733    1.0000 </r>
       <r>   -7.7616    1.0000 </r>
       <r>    0.9932    0.0000 </r>
       <r>    3.7921    0.0000 </r>
       <r>    4.4980    0.0000 </r>
       <r>    4.6933    0.0000 </r>
      </set>
      <set comment="kpoint 64">
       <r>  -20.1230    1.0000 </r>
       <r>  -13.0164    1.0000 </r>
       <r>  -11.4786    1.0000 </r>
       <r>   -7.6541    1.0000 </r>
       <r>    0.8458    0.0000 </r>
       <r>    3.9279    0.0000 </r>
       <r>    4.6333    0.0000 </r>
       <r>    4.8341    0.0000 </r>
      </set>
      <set comment="kpoint 65">
       <r>  -20.0249    1.0000 </r>
       <r>  -13.1255    1.0000 </r>
       <r>  -11.5809    1.0000 </r>
       <r>   -7.5431    1.0000 </r>
       <r>    0.7008    0.0000 </r>
       <r>    4.0658    0.0000 </r>
       <r>    4.7705    0.0000 </r>
       <r>    4.9772    0.0000 </r>
      </set>
      <set comment="kpoint 66">
       <r>  -19.9256    1.0000 </r>
       <r>  -13.2367    1.0000 </r>
       <r>  -11.6847    1.0000 </r>
       <r>   -7.4339    1.0000 </r>
       <r>    0.5554    0.0000 </r>
       <r>    4.2057    0.0000 </r>
       <r>    4.9089    0.0000 </r>
       <r>    5.1225    0.0000 </r>
      </set>
      <set comment="kpoint 67">
       <r>  -19.8251    1.0000 </r>
       <r>  -13.3475    1.0000 </r>
       <r>  -11.7891    1.0000 </r>
       <r>   -7.3231    1.0000 </r>
       <r>    0.4099    0.0000 </r>
       <r>    4.3476    0.0000 </r>
       <r>    5.0489    0.0000 </r>
       <r>    5.2701    0.0000 </r>
      </set>
      <set comment="kpoint 68">
       <r>  -19.7235    1.0000 </r>
       <r>  -13.4572    1.0000 </r>
       <r>  -11.8919    1.0000 </r>
       <r>   -7.2115    1.0000 </r>
       <r>    0.2664    0.0000 </r>
       <r>    4.4914    0.0000 </r>
       <r>    5.1900    0.0000 </r>
       <r>    5.4199    0.0000 </r>
      </set>
      <set comment="kpoint 69">
       <r>  -19.6204    1.0000 </r>
       <r>  -13.5651    1.0000 </r>
       <r>  -11.9934    1.0000 </r>
       <r>   -7.0987    1.0000 </r>
       <r>    0.1242    0.0000 </r>
       <r>    4.6373    0.0000 </r>
       <r>    5.3321    0.0000 </r>
       <r>    5.5720    0.0000 </r>
      </set>
      <set comment="kpoint 70">
       <r>  -19.5161    1.0000 </r>
       <r>  -13.6725    1.0000 </r>
       <r>  -12.0945    1.0000 </r>
       <r>   -6.9836    1.0000 </r>
       <r>   -0.0171    0.0000 </r>
       <r>    4.7853    0.0000 </r>
       <r>    5.4752    0.0000 </r>
       <r>    5.7263    0.0000 </r>
      </set>
      <set comment="kpoint 71">
       <r>  -19.4106    1.0000 </r>
       <r>  -13.7781    1.0000 </r>
       <r>  -12.1944    1.0000 </r>
       <r>   -6.8691    1.0000 </r>
       <r>   -0.1571    0.0000 </r>
       <r>    4.9351    0.0000 </r>
       <r>    5.6186    0.0000 </r>
       <r>    5.8828    0.0000 </r>
      </set>
      <set comment="kpoint 72">
       <r>  -19.3040    1.0000 </r>
       <r>  -13.8822    1.0000 </r>
       <r>  -12.2928    1.0000 </r>
       <r>   -6.7541    1.0000 </r>
       <r>   -0.2993    0.0000 </r>
       <r>    5.0869    0.0000 </r>
       <r>    5.7619    0.0000 </r>
       <r>    6.0417    0.0000 </r>
      </set>
      <set comment="kpoint 73">
       <r>  -19.1966    1.0000 </r>
       <r>  -13.9858    1.0000 </r>
       <r>  -12.3905    1.0000 </r>
       <r>   -6.6383    1.0000 </r>
       <r>   -0.4350    0.0000 </r>
       <r>    5.2404    0.0000 </r>
       <r>    5.9047    0.0000 </r>
       <r>    6.2027    0.0000 </r>
      </set>
      <set comment="kpoint 74">
       <r>  -19.0877    1.0000 </r>
       <r>  -14.0884    1.0000 </r>
       <r>  -12.4877    1.0000 </r>
       <r>   -6.5219    1.0000 </r>
       <r>   -0.5715    0.0000 </r>
       <r>    5.3959    0.0000 </r>
       <r>    6.0463    0.0000 </r>
       <r>    6.3661    0.0000 </r>
      </set>
      <set comment="kpoint 75">
       <r>  -18.9778    1.0000 </r>
       <r>  -14.1898    1.0000 </r>
       <r>  -12.5838    1.0000 </r>
       <r>   -6.4049    1.0000 </r>
       <r>   -0.7066    0.0000 </r>
       <r>    5.5532    0.0000 </r>
       <r>    6.1857    0.0000 </r>
       <r>    6.5316    0.0000 </r>
      </set>
      <set comment="kpoint 76">
       <r>  -18.8668    1.0000 </r>
       <r>  -14.2896    1.0000 </r>
       <r>  -12.6785    1.0000 </r>
       <r>   -6.2875    1.0000 </r>
       <r>   -0.8404    0.0000 </r>
       <r>    5.7123    0.0000 </r>
       <r>    6.3218    0.0000 </r>
       <r>    6.6994    0.0000 </r>
      </set>
      <set comment="kpoint 77">
       <r>  -18.7550    1.0000 </r>
       <r>  -14.3887    1.0000 </r>
       <r>  -12.7725    1.0000 </r>
       <r>   -6.1700    1.0000 </r>
       <r>   -0.9748    0.0000 </r>
       <r>    5.8732    0.0000 </r>
       <r>    6.4528    0.0000 </r>
       <r>    6.8695    0.0000 </r>
      </set>
      <set comment="kpoint 78">
       <r>  -18.6425    1.0000 </r>
       <r>  -14.4851    1.0000 </r>
       <r>  -12.8630    1.0000 </r>
       <r>   -6.0510    1.0000 </r>
       <r>   -1.1048    0.0000 </r>
       <r>    6.0356    0.0000 </r>
       <r>    6.5771    0.0000 </r>
       <r>    7.0418    0.0000 </r>
      </set>
      <set comment="kpoint 79">
       <r>  -18.5288    1.0000 </r>
       <r>  -14.5812    1.0000 </r>
       <r>  -12.9538    1.0000 </r>
       <r>   -5.9309    1.0000 </r>
       <r>   -1.2344    0.0000 </r>
       <r>    6.1999    0.0000 </r>
       <r>    6.6927    0.0000 </r>
       <r>    7.2554    0.0000 </r>
      </set>
      <set comment="kpoint 80">
       <r>  -18.4157    1.0000 </r>
       <r>  -14.6765    1.0000 </r>
       <r>  -13.0446    1.0000 </r>
       <r>   -5.8125    1.0000 </r>
       <r>   -1.3627    0.0000 </r>
       <r>    6.3646    0.0000 </r>
       <r>    6.7965    0.0000 </r>
       <r>    7.4275    0.0000 </r>
      </set>
      <set comment="kpoint 81">
       <r>  -18.3011    1.0000 </r>
       <r>  -14.7702    1.0000 </r>
       <r>  -13.1330    1.0000 </r>
       <r>   -5.6951    1.0000 </r>
       <r>   -1.4895    0.0000 </r>
       <r>    6.5315    0.0000 </r>
       <r>    6.8863    0.0000 </r>
       <r>    7.6014    0.0000 </r>
      </set>
      <set comment="kpoint 82">
       <r>  -18.1861    1.0000 </r>
       <r>  -14.8629    1.0000 </r>
       <r>  -13.2201    1.0000 </r>
       <r>   -5.5768    1.0000 </r>
       <r>   -1.6148    0.0000 </r>
       <r>    6.6994    0.0000 </r>
       <r>    6.9607    0.0000 </r>
       <r>    7.7770    0.0000 </r>
      </set>
      <set comment="kpoint 83">
       <r>  -18.0707    1.0000 </r>
       <r>  -14.9544    1.0000 </r>
       <r>  -13.3062    1.0000 </r>
       <r>   -5.4596    1.0000 </r>
       <r>   -1.7403    0.0000 </r>
       <r>    6.8685    0.0000 </r>
       <r>    7.0182    0.0000 </r>
       <r>    7.9543    0.0000 </r>
      </set>
      <set comment="kpoint 84">
       <r>  -17.9544    1.0000 </r>
       <r>  -15.0434    1.0000 </r>
       <r>  -13.3878    1.0000 </r>
       <r>   -5.3407    1.0000 </r>
       <r>   -1.8635    0.0000 </r>
       <r>    7.0390    0.0000 </r>
       <r>    7.0599    0.0000 </r>
       <r>    8.1334    0.0000 </r>
      </set>
      <set comment="kpoint 85">
       <r>  -17.8380    1.0000 </r>
       <r>  -15.1318    1.0000 </r>
       <r>  -13.4691    1.0000 </r>
       <r>   -5.2225    1.0000 </r>
       <r>   -1.9826    0.0000 </r>
       <r>    7.0869    0.0000 </r>
       <r>    7.2103    0.0000 </r>
       <r>    8.3144    0.0000 </r>
      </set>
[...]
       <r>  -11.2283    1.0000 </r>
       <r>   -6.9217    1.0000 </r>
       <r>   -6.7954    1.0000 </r>
       <r>   -0.3174    0.0000 </r>
       <r>    0.3365    0.0000 </r>
       <r>    0.4646    0.0000 </r>
       <r>    0.5559    0.0000 </r>
      </set>
      <set comment="kpoint 290">
       <r>  -23.2085    1.0000 </r>
       <r>  -11.2434    1.0000 </r>
       <r>   -6.8712    1.0000 </r>
       <r>   -6.7669    1.0000 </r>
       <r>   -0.3347    0.0000 </r>
       <r>    0.3189    0.0000 </r>
       <r>    0.4469    0.0000 </r>
       <r>    0.5382    0.0000 </r>
      </set>
      <set comment="kpoint 291">
       <r>  -23.2199    1.0000 </r>
       <r>  -11.2572    1.0000 </r>
       <r>   -6.8263    1.0000 </r>
       <r>   -6.7398    1.0000 </r>
       <r>   -0.3503    0.0000 </r>
       <r>    0.3030    0.0000 </r>
       <r>    0.4308    0.0000 </r>
       <r>    0.5222    0.0000 </r>
      </set>
      <set comment="kpoint 292">
       <r>  -23.2302    1.0000 </r>
       <r>  -11.2696    1.0000 </r>
       <r>   -6.7880    1.0000 </r>
       <r>   -6.7144    1.0000 </r>
       <r>   -0.3643    0.0000 </r>
       <r>    0.2887    0.0000 </r>
       <r>    0.4164    0.0000 </r>
       <r>    0.5079    0.0000 </r>
      </set>
      <set comment="kpoint 293">
       <r>  -23.2393    1.0000 </r>
       <r>  -11.2805    1.0000 </r>
       <r>   -6.7548    1.0000 </r>
       <r>   -6.6902    1.0000 </r>
       <r>   -0.3766    0.0000 </r>
       <r>    0.2761    0.0000 </r>
       <r>    0.4038    0.0000 </r>
       <r>    0.4952    0.0000 </r>
      </set>
      <set comment="kpoint 294">
       <r>  -23.2471    1.0000 </r>
       <r>  -11.2900    1.0000 </r>
       <r>   -6.7291    1.0000 </r>
       <r>   -6.6688    1.0000 </r>
       <r>   -0.3873    0.0000 </r>
       <r>    0.2652    0.0000 </r>
       <r>    0.3928    0.0000 </r>
       <r>    0.4843    0.0000 </r>
      </set>
      <set comment="kpoint 295">
       <r>  -23.2537    1.0000 </r>
       <r>  -11.2980    1.0000 </r>
       <r>   -6.7073    1.0000 </r>
       <r>   -6.6478    1.0000 </r>
       <r>   -0.3964    0.0000 </r>
       <r>    0.2560    0.0000 </r>
       <r>    0.3835    0.0000 </r>
       <r>    0.4750    0.0000 </r>
      </set>
      <set comment="kpoint 296">
       <r>  -23.2591    1.0000 </r>
       <r>  -11.3044    1.0000 </r>
       <r>   -6.6891    1.0000 </r>
       <r>   -6.6279    1.0000 </r>
       <r>   -0.4037    0.0000 </r>
       <r>    0.2484    0.0000 </r>
       <r>    0.3759    0.0000 </r>
       <r>    0.4674    0.0000 </r>
      </set>
      <set comment="kpoint 297">
       <r>  -23.2634    1.0000 </r>
       <r>  -11.3095    1.0000 </r>
       <r>   -6.6768    1.0000 </r>
       <r>   -6.6129    1.0000 </r>
       <r>   -0.4095    0.0000 </r>
       <r>    0.2425    0.0000 </r>
       <r>    0.3700    0.0000 </r>
       <r>    0.4615    0.0000 </r>
      </set>
      <set comment="kpoint 298">
       <r>  -23.2664    1.0000 </r>
       <r>  -11.3119    1.0000 </r>
       <r>   -6.6688    1.0000 </r>
       <r>   -6.6027    1.0000 </r>
       <r>   -0.4136    0.0000 </r>
       <r>    0.2384    0.0000 </r>
       <r>    0.3657    0.0000 </r>
       <r>    0.4573    0.0000 </r>
      </set>
      <set comment="kpoint 299">
       <r>  -23.2682    1.0000 </r>
       <r>  -11.3140    1.0000 </r>
       <r>   -6.6643    1.0000 </r>
       <r>   -6.5955    1.0000 </r>
       <r>   -0.4161    0.0000 </r>
       <r>    0.2359    0.0000 </r>
       <r>    0.3632    0.0000 </r>
       <r>    0.4548    0.0000 </r>
      </set>
      <set comment="kpoint 300">
       <r>  -23.2689    1.0000 </r>
       <r>  -11.3148    1.0000 </r>
       <r>   -6.6649    1.0000 </r>
       <r>   -6.5964    1.0000 </r>
       <r>   -0.4170    0.0000 </r>
       <r>    0.2351    0.0000 </r>
       <r>    0.3624    0.0000 </r>
       <r>    0.4539    0.0000 </r>
      </set>
     </set>
    </set>
   </array>
  </eigenvalues>
  <separator name="orbital magnetization" >
   <v name="MAGDIPOLOUT">      0.00000000      0.00000000      0.00000000</v>
  </separator>
  <dos>
   <i name="efermi">     -3.60040993 </i>
   <total>
    <array>
     <dimension dim="1">gridpoints</dimension>
     <dimension dim="2">spin</dimension>
     <field>energy</field>
     <field>total</field>
     <field>integrated</field>
     <set>
      <set comment="spin 1">
       <r>   -25.2689     0.0000     0.0000 </r>
       <r>   -25.1460     0.0000     0.0000 </r>
       <r>   -25.0230     0.0000     0.0000 </r>
       <r>   -24.9001     0.0000     0.0000 </r>
       <r>   -24.7772     0.0000     0.0000 </r>
       <r>   -24.6542     0.0000     0.0000 </r>
       <r>   -24.5313     0.0000     0.0000 </r>
       <r>   -24.4083     0.0000     0.0000 </r>
       <r>   -24.2854     0.0000     0.0000 </r>
       <r>   -24.1625     0.0000     0.0000 </r>
       <r>   -24.0395     0.0000     0.0000 </r>
       <r>   -23.9166     0.0000     0.0000 </r>
       <r>   -23.7936     0.0001     0.0000 </r>
       <r>   -23.6707     0.0017     0.0002 </r>
       <r>   -23.5478     0.0202     0.0027 </r>
       <r>   -23.4248     0.1198     0.0174 </r>
       <r>   -23.3019     0.3706     0.0630 </r>
       <r>   -23.1789     0.6348     0.1410 </r>
       <r>   -23.0560     0.6755     0.2241 </r>
       <r>   -22.9331     0.5495     0.2916 </r>
       <r>   -22.8101     0.4327     0.3448 </r>
       <r>   -22.6872     0.3647     0.3897 </r>
       <r>   -22.5642     0.3234     0.4294 </r>
       <r>   -22.4413     0.2945     0.4656 </r>
       <r>   -22.3184     0.2726     0.4991 </r>
       <r>   -22.1954     0.2551     0.5305 </r>
       <r>   -22.0725     0.2408     0.5601 </r>
       <r>   -21.9496     0.2287     0.5882 </r>
       <r>   -21.8266     0.2184     0.6151 </r>
       <r>   -21.7037     0.2094     0.6408 </r>
       <r>   -21.5807     0.2015     0.6656 </r>
       <r>   -21.4578     0.1945     0.6895 </r>
       <r>   -21.3349     0.1882     0.7126 </r>
       <r>   -21.2119     0.1825     0.7351 </r>
       <r>   -21.0890     0.1774     0.7569 </r>
       <r>   -20.9660     0.1727     0.7781 </r>
       <r>   -20.8431     0.1684     0.7988 </r>
       <r>   -20.7202     0.1645     0.8190 </r>
       <r>   -20.5972     0.1608     0.8388 </r>
       <r>   -20.4743     0.1575     0.8582 </r>
       <r>   -20.3513     0.1554     0.8773 </r>
       <r>   -20.2284     0.1637     0.8974 </r>
       <r>   -20.1055     0.2244     0.9250 </r>
       <r>   -19.9825     0.3908     0.9730 </r>
       <r>   -19.8596     0.5807     1.0444 </r>
       <r>   -19.7366     0.6231     1.1210 </r>
       <r>   -19.6137     0.5397     1.1874 </r>
       <r>   -19.4908     0.4548     1.2433 </r>
       <r>   -19.3678     0.4038     1.2929 </r>
       <r>   -19.2449     0.3726     1.3387 </r>
       <r>   -19.1219     0.3509     1.3819 </r>
       <r>   -18.9990     0.3349     1.4231 </r>
       <r>   -18.8761     0.3226     1.4627 </r>
       <r>   -18.7531     0.3132     1.5012 </r>
       <r>   -18.6302     0.3065     1.5389 </r>
       <r>   -18.5072     0.3031     1.5762 </r>
       <r>   -18.3843     0.3048     1.6136 </r>
       <r>   -18.2614     0.3170     1.6526 </r>
       <r>   -18.1384     0.3402     1.6944 </r>
       <r>   -18.0155     0.3402     1.7363 </r>
       <r>   -17.8926     0.2752     1.7701 </r>
       <r>   -17.7696     0.1868     1.7931 </r>
       <r>   -17.6467     0.1386     1.8101 </r>
       <r>   -17.5237     0.1260     1.8256 </r>
       <r>   -17.4008     0.1241     1.8409 </r>
       <r>   -17.2779     0.1248     1.8562 </r>
       <r>   -17.1549     0.1334     1.8726 </r>
       <r>   -17.0320     0.1714     1.8937 </r>
       <r>   -16.9090     0.2496     1.9243 </r>
       <r>   -16.7861     0.3152     1.9631 </r>
       <r>   -16.6632     0.3204     2.0025 </r>
       <r>   -16.5402     0.3037     2.0398 </r>
       <r>   -16.4173     0.3124     2.0782 </r>
       <r>   -16.2943     0.3482     2.1210 </r>
       <r>   -16.1714     0.3959     2.1697 </r>
       <r>   -16.0485     0.4701     2.2275 </r>
       <r>   -15.9255     0.5531     2.2955 </r>
       <r>   -15.8026     0.5548     2.3637 </r>
       <r>   -15.6796     0.4723     2.4218 </r>
       <r>   -15.5567     0.3920     2.4700 </r>
       <r>   -15.4338     0.3463     2.5126 </r>
       <r>   -15.3108     0.3211     2.5520 </r>
       <r>   -15.1879     0.3043     2.5895 </r>
       <r>   -15.0649     0.2918     2.6253 </r>
       <r>   -14.9420     0.2822     2.6600 </r>
       <r>   -14.8191     0.2744     2.6938 </r>
       <r>   -14.6961     0.2682     2.7267 </r>
       <r>   -14.5732     0.2661     2.7594 </r>
       <r>   -14.4502     0.2823     2.7941 </r>
       <r>   -14.3273     0.3459     2.8367 </r>
       <r>   -14.2044     0.4420     2.8910 </r>
       <r>   -14.0814     0.4887     2.9511 </r>
       <r>   -13.9585     0.4663     3.0084 </r>
       <r>   -13.8356     0.4328     3.0616 </r>
       <r>   -13.7126     0.4179     3.1130 </r>
       <r>   -13.5897     0.4219     3.1649 </r>
       <r>   -13.4667     0.4375     3.2187 </r>
       <r>   -13.3438     0.4282     3.2713 </r>
       <r>   -13.2209     0.3610     3.3157 </r>
       <r>   -13.0979     0.2799     3.3501 </r>
       <r>   -12.9750     0.2380     3.3793 </r>
       <r>   -12.8520     0.2262     3.4071 </r>
       <r>   -12.7291     0.2225     3.4345 </r>
       <r>   -12.6062     0.2199     3.4615 </r>
       <r>   -12.4832     0.2179     3.4883 </r>
       <r>   -12.3603     0.2165     3.5149 </r>
       <r>   -12.2373     0.2155     3.5414 </r>
       <r>   -12.1144     0.2171     3.5681 </r>
       <r>   -11.9915     0.2342     3.5969 </r>
       <r>   -11.8685     0.2902     3.6326 </r>
       <r>   -11.7456     0.3702     3.6781 </r>
       <r>   -11.6226     0.4186     3.7296 </r>
       <r>   -11.4997     0.4705     3.7874 </r>
       <r>   -11.3768     0.6467     3.8669 </r>
       <r>   -11.2538     0.8960     3.9771 </r>
       <r>   -11.1309     0.9818     4.0978 </r>
       <r>   -11.0079     0.8839     4.2064 </r>
       <r>   -10.8850     0.7702     4.3011 </r>
       <r>   -10.7621     0.7057     4.3879 </r>
       <r>   -10.6391     0.6732     4.4706 </r>
       <r>   -10.5162     0.6583     4.5516 </r>
       <r>   -10.3932     0.6614     4.6329 </r>
       <r>   -10.2703     0.7057     4.7196 </r>
       <r>   -10.1474     0.8341     4.8222 </r>
       <r>   -10.0244     1.0085     4.9462 </r>
       <r>    -9.9015     1.0730     5.0781 </r>
       <r>    -9.7786     0.9663     5.1969 </r>
       <r>    -9.6556     0.7790     5.2926 </r>
       <r>    -9.5327     0.6253     5.3695 </r>
       <r>    -9.4097     0.5485     5.4370 </r>
       <r>    -9.2868     0.5172     5.5005 </r>
       <r>    -9.1639     0.5006     5.5621 </r>
       <r>    -9.0409     0.4886     5.6221 </r>
       <r>    -8.9180     0.4790     5.6810 </r>
       <r>    -8.7950     0.4716     5.7390 </r>
       <r>    -8.6721     0.4663     5.7963 </r>
       <r>    -8.5492     0.4629     5.8532 </r>
       <r>    -8.4262     0.4612     5.9099 </r>
       <r>    -8.3033     0.4609     5.9666 </r>
       <r>    -8.1803     0.4617     6.0234 </r>
       <r>    -8.0574     0.4636     6.0804 </r>
       <r>    -7.9345     0.4669     6.1377 </r>
       <r>    -7.8115     0.4761     6.1963 </r>
       <r>    -7.6886     0.5161     6.2597 </r>
       <r>    -7.5656     0.6470     6.3393 </r>
       <r>    -7.4427     0.8666     6.4458 </r>
       <r>    -7.3198     1.0126     6.5703 </r>
       <r>    -7.1968     1.0034     6.6937 </r>
       <r>    -7.0739     0.9587     6.8115 </r>
       <r>    -6.9509     0.9782     6.9318 </r>
       <r>    -6.8280     1.0809     7.0647 </r>
       <r>    -6.7051     1.1885     7.2108 </r>
       <r>    -6.5821     1.0965     7.3456 </r>
       <r>    -6.4592     0.7814     7.4417 </r>
       <r>    -6.3362     0.5181     7.5054 </r>
       <r>    -6.2133     0.4472     7.5603 </r>
       <r>    -6.0904     0.4713     7.6183 </r>
       <r>    -5.9674     0.4426     7.6727 </r>
       <r>    -5.8445     0.3138     7.7113 </r>
       <r>    -5.7216     0.1900     7.7346 </r>
       <r>    -5.5986     0.1382     7.7516 </r>
       <r>    -5.4757     0.1266     7.7672 </r>
       <r>    -5.3527     0.1238     7.7824 </r>
       <r>    -5.2298     0.1223     7.7974 </r>
       <r>    -5.1069     0.1212     7.8124 </r>
       <r>    -4.9839     0.1205     7.8272 </r>
       <r>    -4.8610     0.1199     7.8419 </r>
       <r>    -4.7380     0.1191     7.8565 </r>
       <r>    -4.6151     0.1184     7.8711 </r>
       <r>    -4.4922     0.1180     7.8856 </r>
       <r>    -4.3692     0.1182     7.9001 </r>
       <r>    -4.2463     0.1184     7.9147 </r>
       <r>    -4.1233     0.1186     7.9293 </r>
       <r>    -4.0004     0.1194     7.9440 </r>
       <r>    -3.8775     0.1228     7.9591 </r>
       <r>    -3.7545     0.1352     7.9757 </r>
       <r>    -3.6316     0.1561     7.9949 </r>
       <r>    -3.5086     0.1633     8.0149 </r>
       <r>    -3.3857     0.1471     8.0330 </r>
       <r>    -3.2628     0.1300     8.0490 </r>
       <r>    -3.1398     0.1241     8.0643 </r>
       <r>    -3.0169     0.1234     8.0794 </r>
       <r>    -2.8939     0.1237     8.0946 </r>
       <r>    -2.7710     0.1246     8.1100 </r>
       <r>    -2.6481     0.1259     8.1254 </r>
       <r>    -2.5251     0.1276     8.1411 </r>
       <r>    -2.4022     0.1298     8.1571 </r>
       <r>    -2.2792     0.1334     8.1735 </r>
       <r>    -2.1563     0.1488     8.1918 </r>
       <r>    -2.0334     0.2077     8.2173 </r>
       <r>    -1.9104     0.3227     8.2570 </r>
       <r>    -1.7875     0.4121     8.3076 </r>
       <r>    -1.6646     0.4067     8.3576 </r>
       <r>    -1.5416     0.3595     8.4018 </r>
       <r>    -1.4187     0.3261     8.4419 </r>
       <r>    -1.2957     0.3088     8.4799 </r>
       <r>    -1.1728     0.2988     8.5166 </r>
       <r>    -1.0499     0.2922     8.5525 </r>
       <r>    -0.9269     0.2871     8.5878 </r>
       <r>    -0.8040     0.2849     8.6229 </r>
       <r>    -0.6810     0.3028     8.6601 </r>
       <r>    -0.5581     0.4023     8.7095 </r>
       <r>    -0.4352     0.6316     8.7872 </r>
       <r>    -0.3122     0.8445     8.8910 </r>
       <r>    -0.1893     0.8571     8.9964 </r>
       <r>    -0.0663     0.7611     9.0900 </r>
       <r>     0.0566     0.7568     9.1830 </r>
       <r>     0.1795     1.0009     9.3060 </r>
       <r>     0.3025     1.5325     9.4944 </r>
       <r>     0.4254     2.0839     9.7506 </r>
       <r>     0.5484     2.2255    10.0242 </r>
       <r>     0.6713     1.9044    10.2584 </r>
       <r>     0.7942     1.5038    10.4432 </r>
       <r>     0.9172     1.2543    10.5974 </r>
       <r>     1.0401     1.1170    10.7348 </r>
       <r>     1.1631     1.0272    10.8610 </r>
       <r>     1.2860     0.9601    10.9791 </r>
       <r>     1.4089     0.9072    11.0906 </r>
       <r>     1.5319     0.8635    11.1968 </r>
       <r>     1.6548     0.8264    11.2984 </r>
       <r>     1.7778     0.7944    11.3960 </r>
       <r>     1.9007     0.7665    11.4903 </r>
       <r>     2.0236     0.7420    11.5815 </r>
       <r>     2.1466     0.7204    11.6701 </r>
       <r>     2.2695     0.7017    11.7563 </r>
       <r>     2.3924     0.6867    11.8408 </r>
       <r>     2.5154     0.6757    11.9238 </r>
       <r>     2.6383     0.6599    12.0050 </r>
       <r>     2.7613     0.6227    12.0815 </r>
       <r>     2.8842     0.5723    12.1519 </r>
       <r>     3.0071     0.5243    12.2163 </r>
       <r>     3.1301     0.4655    12.2735 </r>
       <r>     3.2530     0.4066    12.3235 </r>
       <r>     3.3760     0.3747    12.3696 </r>
       <r>     3.4989     0.3816    12.4165 </r>
       <r>     3.6218     0.4799    12.4755 </r>
       <r>     3.7448     0.7323    12.5655 </r>
       <r>     3.8677     1.0046    12.6890 </r>
       <r>     3.9907     1.0882    12.8228 </r>
       <r>     4.1136     1.0567    12.9527 </r>
       <r>     4.2365     1.0164    13.0777 </r>
       <r>     4.3595     0.9071    13.1892 </r>
       <r>     4.4824     0.7701    13.2839 </r>
       <r>     4.6054     0.6967    13.3695 </r>
       <r>     4.7283     0.6969    13.4552 </r>
       <r>     4.8512     0.8054    13.5542 </r>
       <r>     4.9742     1.0010    13.6773 </r>
       <r>     5.0971     1.1374    13.8171 </r>
       <r>     5.2201     1.1055    13.9530 </r>
       <r>     5.3430     0.9534    14.0702 </r>
       <r>     5.4659     0.8224    14.1713 </r>
       <r>     5.5889     0.7568    14.2644 </r>
       <r>     5.7118     0.7145    14.3522 </r>
       <r>     5.8348     0.6719    14.4348 </r>
       <r>     5.9577     0.6202    14.5111 </r>
       <r>     6.0806     0.5626    14.5802 </r>
       <r>     6.2036     0.5195    14.6441 </r>
       <r>     6.3265     0.4983    14.7054 </r>
       <r>     6.4494     0.4887    14.7655 </r>
       <r>     6.5724     0.4850    14.8251 </r>
       <r>     6.6953     0.5008    14.8866 </r>
       <r>     6.8183     0.5853    14.9586 </r>
       <r>     6.9412     0.7673    15.0529 </r>
       <r>     7.0641     0.9056    15.1643 </r>
       <r>     7.1871     0.8410    15.2677 </r>
       <r>     7.3100     0.6858    15.3520 </r>
       <r>     7.4330     0.5888    15.4244 </r>
       <r>     7.5559     0.5095    15.4870 </r>
       <r>     7.6788     0.4175    15.5383 </r>
       <r>     7.8018     0.3505    15.5814 </r>
       <r>     7.9247     0.2973    15.6179 </r>
       <r>     8.0477     0.2332    15.6466 </r>
       <r>     8.1706     0.1787    15.6686 </r>
       <r>     8.2935     0.1548    15.6876 </r>
       <r>     8.4165     0.1506    15.7061 </r>
       <r>     8.5394     0.1515    15.7248 </r>
       <r>     8.6624     0.1536    15.7436 </r>
       <r>     8.7853     0.1573    15.7630 </r>
       <r>     8.9082     0.1633    15.7831 </r>
       <r>     9.0312     0.1749    15.8046 </r>
       <r>     9.1541     0.2038    15.8296 </r>
       <r>     9.2771     0.2699    15.8628 </r>
       <r>     9.4000     0.3545    15.9064 </r>
       <r>     9.5229     0.3626    15.9509 </r>
       <r>     9.6459     0.2517    15.9819 </r>
       <r>     9.7688     0.1121    15.9957 </r>
       <r>     9.8918     0.0303    15.9994 </r>
       <r>    10.0147     0.0046    16.0000 </r>
       <r>    10.1376     0.0004    16.0000 </r>
       <r>    10.2606     0.0000    16.0000 </r>
       <r>    10.3835     0.0000    16.0000 </r>
       <r>    10.5064     0.0000    16.0000 </r>
       <r>    10.6294     0.0000    16.0000 </r>
       <r>    10.7523     0.0000    16.0000 </r>
       <r>    10.8753     0.0000    16.0000 </r>
       <r>    10.9982     0.0000    16.0000 </r>
       <r>    11.1211     0.0000    16.0000 </r>
       <r>    11.2441     0.0000    16.0000 </r>
       <r>    11.3670     0.0000    16.0000 </r>
       <r>    11.4900     0.0000    16.0000 </r>
       <r>    11.6129     0.0000    16.0000 </r>
      </set>
     </set>
    </array>
   </total>
  </dos>
 </calculation>
 <structure name="finalpos" >
  <crystal>
   <varray name="basis" >
    <v>       2.13036000      -1.23000000       0.00000000 </v>
    <v>       2.13036000       1.23000000       0.00000000 </v>
    <v>       0.00000000       0.00000000      49.20000000 </v>
   </varray>
   <i name="volume">    257.84173152 </i>
   <varray name="rec_basis" >
    <v>       0.23470212      -0.40650407       0.00000000 </v>
    <v>       0.23470212       0.40650407       0.00000000 </v>
    <v>       0.00000000       0.00000000       0.02032520 </v>
   </varray>
  </crystal>
  <varray name="positions" >
   <v>       0.00000000       0.00000000       0.00000000 </v>
   <v>       0.66670000       0.66670000       0.00000000 </v>
  </varray>
 </structure>
</modeling>
