Si                                      
   5.40000000000000     
    -0.000000    0.510110    0.510110
     0.510110    0.000000    0.510110
     0.510110    0.510110    0.000000
   Si
     2
Direct
  0.000000  0.000000  0.000000
  0.250000  0.250000  0.250000
 
   32   32   32
 -7.6558     -5.9402     -1.3478      4.6965      10.482      14.653      16.610      16.558      15.241      13.516    
  11.815      10.291      9.0194      8.0291      7.3246      6.9033      6.7631      6.9033      7.3246      8.0291    
  9.0195      10.291      11.815      13.516      15.240      16.558      16.610      14.653      10.483      4.6966    
 -1.3478     -5.9403     -5.9402     -2.5799      3.0487      9.2373      14.353      17.399      18.229      17.392    
  15.765      14.018      12.376      10.947      9.7771      8.8866      8.2856      7.9823      7.9823      8.2855    
  8.8866      9.7772      10.947      12.376      14.018      15.765      17.392      18.229      17.399      14.353    
  9.2374      3.0486     -2.5801     -5.9403     -1.3478      3.0487      8.7597      14.111      17.830      19.421    
  19.157      17.791      16.106      14.441      12.928      11.631      10.582      9.8049      9.3246      9.1619    
  9.3246      9.8049      10.582      11.631      12.928      14.441      16.106      17.791      19.157      19.420    
  17.830      14.111      8.7596      3.0485     -1.3479     -3.0006      4.6965      9.2373      14.111      17.965    
  20.041      20.317      19.338      17.849      16.282      14.792      13.453      12.305      11.383      10.728    
  10.387      10.387      10.728      11.383      12.305      13.453      14.792      16.282      17.849      19.338    
  20.317      20.041      17.965      14.111      9.2374      4.6966      1.9509      1.9508      10.482      14.353    
  17.830      20.041      20.722      20.178      19.014      17.677      16.335      15.067      13.912      12.906    
  12.107      11.587      11.405      11.587      12.107      12.906      13.912      15.067      16.335      17.677    
  19.014      20.178      20.722      20.041      17.830      14.353      10.483      7.4366      6.2801      7.4364    
  14.653      17.399      19.421      20.317      20.178      19.425      18.432      17.359      16.282      15.233    
  14.238      13.356      12.682      12.312      12.312      12.682      13.356      14.238      15.233      16.282    
  17.359      18.432      19.425      20.178      20.317      19.421      17.399      14.653      12.002      10.371    
  10.371      12.002      16.610      18.229      19.157      19.338      19.014      18.432      17.718      16.937    
  16.106      15.232      14.361      13.587      13.037      12.837      13.037      13.587      14.361      15.232    
  16.106      16.937      17.718      18.432      19.014      19.338      19.157      18.229      16.610      14.718    
  13.189      12.603      13.189      14.718      16.558      17.392      17.791      17.849      17.677      17.359    
  16.937      16.411      15.765      15.014      14.222      13.528      13.116      13.116      13.528      14.222    
  15.014      15.765      16.411      16.937      17.359      17.677      17.849      17.791      17.392      16.558    
  15.406      14.272      13.566      13.567      14.273      15.406      15.241      15.765      16.106      16.282    
  16.335      16.282      16.106      15.765      15.241      14.546      13.795      13.202      12.976      13.202    
  13.795      14.546      15.241      15.765      16.106      16.282      16.335      16.282      16.106      15.765    
  15.241      14.546      13.795      13.202      12.976      13.202      13.795      14.546      13.516      14.018    
  14.441      14.792      15.067      15.233      15.232      15.014      14.546      13.877      13.203      12.778    
  12.778      13.203      13.877      14.546      15.014      15.232      15.233      15.067      14.792      14.441    
  14.018      13.516      12.951      12.383      11.907      11.631      11.631      11.907      12.383      12.951    
  11.815      12.376      12.928      13.453      13.912      14.238      14.361      14.222      13.795      13.203    
  12.689      12.485      12.689      13.203      13.795      14.222      14.361      14.238      13.912      13.453    
  12.928      12.376      11.815      11.258      10.733      10.289      9.9872      9.8799      9.9871      10.289    
  10.733      11.258      10.291      10.947      11.631      12.305      12.906      13.356      13.587      13.528    
  13.202      12.778      12.485      12.485      12.778      13.202      13.528      13.587      13.356      12.906    
  12.305      11.631      10.947      10.291      9.6858      9.1486      8.7031      8.3798      8.2088      8.2088    
  8.3799      8.7032      9.1487      9.6858      9.0194      9.7771      10.582      11.383      12.107      12.682    
  13.037      13.116      12.976      12.778      12.689      12.778      12.976      13.116      13.037      12.682    
  12.107      11.383      10.582      9.7772      9.0195      8.3405      7.7575      7.2829      6.9294      6.7102    
  6.6358      6.7102      6.9295      7.2830      7.7575      8.3405      8.0291      8.8866      9.8049      10.728    
  11.587      12.312      12.837      13.116      13.202      13.203      13.203      13.202      13.116      12.837    
  12.312      11.587      10.728      9.8049      8.8866      8.0291      7.2686      6.6239      6.1030      5.7092    
  5.4447      5.3118      5.3118      5.4447      5.7091      6.1029      6.6239      7.2686      7.3246      8.2856    
  9.3246      10.387      11.405      12.312      13.037      13.528      13.795      13.877      13.795      13.528    
  13.037      12.312      11.405      10.387      9.3246      8.2855      7.3245      6.4780      5.7643      5.1885    
  4.7482      4.4383      4.2544      4.1934      4.2544      4.4383      4.7481      5.1885      5.7643      6.4780    
  6.9033      7.9823      9.1619      10.387      11.587      12.682      13.587      14.222      14.546      14.546    
  14.222      13.587      12.682      11.587      10.387      9.1618      7.9823      6.9033      5.9600      5.1689    
  4.5315      4.0403      3.6844      3.4535      3.3400      3.3400      3.4535      3.6844      4.0403      4.5315    
  5.1690      5.9601      6.7631      7.9823      9.3246      10.728      12.107      13.356      14.361      15.014    
  15.241      15.014      14.361      13.356      12.107      10.728      9.3246      7.9823      6.7631      5.7042    
  4.8206      4.1105      3.5615      3.1567      2.8802      2.7195      2.6667      2.7195      2.8802      3.1568    
  3.5615      4.1106      4.8206      5.7041      6.9033      8.2855      9.8049      11.383      12.906      14.238    
  15.232      15.765      15.765      15.232      14.238      12.906      11.383      9.8049      8.2855      6.9033    
  5.7042      4.7061      3.9056      3.2861      2.8250      2.5002      2.2937      2.1935      2.1935      2.2937    
  2.5002      2.8250      3.2861      3.9056      4.7060      5.7042      7.3246      8.8866      10.582      12.305    
  13.912      15.233      16.106      16.411      16.106      15.233      13.912      12.305      10.582      8.8866    
  7.3245      5.9600      4.8206      3.9056      3.1963      2.6653      2.2843      2.0292      1.8828      1.8350    
  1.8828      2.0292      2.2843      2.6653      3.1963      3.9056      4.8206      5.9601      8.0291      9.7772    
  11.631      13.453      15.067      16.282      16.937      16.937      16.282      15.067      13.453      11.631    
  9.7772      8.0291      6.4780      5.1689      4.1105      3.2861      2.6653      2.2143      1.9026      1.7070    
  1.6127      1.6127      1.7070      1.9026      2.2143      2.6653      3.2861      4.1106      5.1690      6.4780    
  9.0195      10.947      12.928      14.792      16.335      17.359      17.718      17.359      16.335      14.792    
  12.928      10.947      9.0195      7.2686      5.7643      4.5315      3.5615      2.8250      2.2843      1.9026    
  1.6501      1.5062      1.4595      1.5062      1.6501      1.9026      2.2843      2.8250      3.5615      4.5315    
  5.7643      7.2686      10.291      12.376      14.441      16.282      17.677      18.432      18.432      17.677    
  16.282      14.441      12.376      10.291      8.3405      6.6239      5.1885      4.0403      3.1567      2.5002    
  2.0292      1.7070      1.5062      1.4098      1.4098      1.5062      1.7070      2.0292      2.5002      3.1568    
  4.0403      5.1885      6.6239      8.3405      11.815      14.018      16.106      17.849      19.014      19.425    
  19.014      17.849      16.106      14.018      11.815      9.6858      7.7575      6.1030      4.7482      3.6844    
  2.8802      2.2937      1.8828      1.6127      1.4595      1.4098      1.4595      1.6127      1.8828      2.2938    
  2.8802      3.6843      4.7481      6.1029      7.7575      9.6858      13.516      15.765      17.791      19.338    
  20.178      20.178      19.338      17.791      15.765      13.516      11.258      9.1486      7.2829      5.7092    
  4.4383      3.4535      2.7195      2.1935      1.8350      1.6127      1.5062      1.5062      1.6127      1.8350    
  2.1935      2.7195      3.4535      4.4383      5.7091      7.2829      9.1487      11.258      15.240      17.392    
  19.157      20.317      20.722      20.317      19.157      17.392      15.241      12.951      10.733      8.7031    
  6.9294      5.4447      4.2544      3.3400      2.6667      2.1935      1.8828      1.7070      1.6501      1.7070    
  1.8828      2.1935      2.6667      3.3400      4.2544      5.4448      6.9295      8.7032      10.733      12.951    
  16.558      18.229      19.420      20.041      20.041      19.421      18.229      16.558      14.546      12.383    
  10.289      8.3798      6.7102      5.3118      4.1934      3.3400      2.7195      2.2937      2.0292      1.9026    
  1.9026      2.0292      2.2938      2.7195      3.3400      4.1934      5.3118      6.7102      8.3799      10.289    
  12.383      14.546      16.610      17.399      17.830      17.965      17.830      17.399      16.610      15.406    
  13.795      11.907      9.9872      8.2088      6.6358      5.3118      4.2544      3.4535      2.8802      2.5002    
  2.2843      2.2143      2.2843      2.5002      2.8802      3.4535      4.2544      5.3118      6.6358      8.2087    
  9.9871      11.907      13.795      15.406      14.653      14.353      14.111      14.111      14.353      14.653    
  14.718      14.272      13.202      11.631      9.8799      8.2088      6.7102      5.4447      4.4383      3.6844    
  3.1568      2.8250      2.6653      2.6653      2.8250      3.1568      3.6843      4.4383      5.4448      6.7102    
  8.2087      9.8798      11.631      13.202      14.273      14.718      10.483      9.2374      8.7596      9.2374    
  10.483      12.002      13.189      13.566      12.976      11.631      9.9871      8.3799      6.9295      5.7091    
  4.7481      4.0403      3.5615      3.2861      3.1963      3.2861      3.5615      4.0403      4.7481      5.7091    
  6.9295      8.3799      9.9871      11.631      12.976      13.566      13.189      12.002      4.6966      3.0486    
  3.0485      4.6966      7.4366      10.371      12.603      13.567      13.202      11.907      10.289      8.7032    
  7.2830      6.1029      5.1885      4.5315      4.1106      3.9056      3.9056      4.1106      4.5315      5.1885    
  6.1029      7.2829      8.7032      10.289      11.907      13.202      13.566      12.603      10.371      7.4366    
 -1.3478     -2.5801     -1.3479      1.9509      6.2801      10.371      13.189      14.273      13.795      12.383    
  10.733      9.1487      7.7575      6.6239      5.7643      5.1690      4.8206      4.7060      4.8206      5.1690    
  5.7643      6.6239      7.7575      9.1487      10.733      12.383      13.795      14.273      13.189      10.371    
  6.2802      1.9510     -5.9403     -5.9403     -3.0006      1.9508      7.4364      12.002      14.718      15.406    
  14.546      12.951      11.258      9.6858      8.3405      7.2686      6.4780      5.9601      5.7041      5.7042    
  5.9601      6.4780      7.2686      8.3405      9.6858      11.258      12.951      14.546      15.406      14.718    
  12.002      7.4366      1.9510     -3.0004     -5.9402     -2.5799      3.0487      9.2373      14.353      17.399    
  18.229      17.392      15.765      14.018      12.376      10.947      9.7771      8.8866      8.2856      7.9823    
  7.9823      8.2855      8.8866      9.7772      10.947      12.376      14.018      15.765      17.392      18.229    
  17.399      14.353      9.2374      3.0486     -2.5801     -5.9403     -2.5799      2.0789      8.1443      13.855    
  17.868      19.651      19.478      18.123      16.411      14.717      13.175      11.852      10.781      9.9864    
  9.4950      9.3283      9.4950      9.9864      10.781      11.852      13.175      14.717      16.411      18.123    
  19.478      19.651      17.868      13.855      8.1442      2.0786     -2.5801     -4.3298      3.0487      8.1443    
  13.649      18.066      20.542      21.030      20.101      18.566      16.937      15.385      13.989      12.789    
  11.822      11.134      10.774      10.774      11.134      11.822      12.789      13.989      15.385      16.937    
  18.566      20.101      21.030      20.542      18.066      13.649      8.1442      3.0486     -.23347E-01 -.23318E-01
  9.2373      13.855      18.066      20.845      21.859      21.423      20.213      18.790      17.359      16.004    
  14.766      13.682      12.815      12.248      12.050      12.248      12.815      13.682      14.766      16.004    
  17.359      18.790      20.213      21.423      21.859      20.845      18.066      13.855      9.2374      5.6289    
  4.2629      5.6288      14.353      17.868      20.542      21.859      21.888      21.109      20.028      18.856    
  17.677      16.522      15.416      14.426      13.660      13.236      13.236      13.660      14.426      15.416    
  16.522      17.677      18.856      20.028      21.109      21.888      21.859      20.542      17.868      14.353    
  11.008      8.9632      8.9632      11.008      17.399      19.651      21.030      21.423      21.109      20.464    
  19.666      18.790      17.849      16.845      15.823      14.885      14.207      13.957      14.207      14.886    
  15.823      16.845      17.849      18.790      19.666      20.464      21.109      21.423      21.030      19.651    
  17.399      14.834      12.788      12.007      12.788      14.834      18.229      19.478      20.101      20.213    
  20.028      19.666      19.181      18.566      17.791      16.850      15.808      14.873      14.314      14.314    
  14.873      15.808      16.850      17.791      18.566      19.181      19.666      20.028      20.213      20.101    
  19.478      18.229      16.551      14.926      13.922      13.922      14.926      16.551      17.392      18.123    
  18.566      18.790      18.856      18.790      18.566      18.123      17.392      16.370      15.249      14.362    
  14.024      14.362      15.249      16.370      17.392      18.123      18.566      18.790      18.856      18.790    
  18.566      18.123      17.392      16.370      15.249      14.362      14.024      14.362      15.249      16.370    
  15.765      16.411      16.937      17.359      17.677      17.849      17.791      17.392      16.558      15.406    
  14.273      13.567      13.566      14.272      15.406      16.558      17.392      17.791      17.849      17.677    
  17.359      16.937      16.411      15.765      15.014      14.222      13.528      13.116      13.116      13.528    
  14.222      15.014      14.018      14.717      15.385      16.004      16.522      16.845      16.850      16.370    
  15.406      14.218      13.235      12.854      13.235      14.218      15.406      16.370      16.850      16.845    
  16.522      16.004      15.385      14.717      14.018      13.300      12.602      11.996      11.577      11.427    
  11.577      11.996      12.602      13.300      12.376      13.175      13.989      14.766      15.416      15.823    
  15.808      15.249      14.273      13.235      12.570      12.570      13.235      14.272      15.249      15.808    
  15.823      15.416      14.766      13.989      13.175      12.376      11.620      10.930      10.341      9.9033    
  9.6686      9.6686      9.9033      10.341      10.930      11.620      10.947      11.852      12.789      13.682    
  14.426      14.885      14.873      14.362      13.567      12.854      12.570      12.854      13.566      14.362    
  14.873      14.886      14.426      13.682      12.789      11.852      10.947      10.118      9.3904      8.7842    
  8.3227      8.0317      7.9321      8.0318      8.3228      8.7843      9.3904      10.118      9.7771      10.781    
  11.822      12.815      13.660      14.207      14.314      14.024      13.566      13.235      13.235      13.566    
  14.024      14.313      14.207      13.660      12.815      11.822      10.781      9.7772      8.8667      8.0803    
  7.4334      6.9357      6.5965      6.4244      6.4244      6.5966      6.9357      7.4334      8.0803      8.8667    
  8.8866      9.9864      11.134      12.248      13.236      13.957      14.314      14.362      14.272      14.218    
  14.272      14.362      14.313      13.957      13.236      12.248      11.134      9.9864      8.8866      7.8931    
  7.0395      6.3399      5.7975      5.4114      5.1801      5.1031      5.1801      5.4113      5.7974      6.3398    
  7.0394      7.8931      8.2856      9.4950      10.774      12.050      13.236      14.207      14.873      15.249    
  15.406      15.406      15.249      14.873      14.207      13.236      12.050      10.774      9.4950      8.2855    
  7.2009      6.2730      5.5138      4.9217      4.4885      4.2055      4.0658      4.0658      4.2055      4.4885    
  4.9216      5.5138      6.2731      7.2009      7.9823      9.3283      10.774      12.248      13.660      14.886    
  15.808      16.370      16.558      16.370      15.808      14.886      13.660      12.248      10.774      9.3283    
  7.9823      6.7873      5.7715      4.9429      4.2949      3.8131      3.4821      3.2889      3.2254      3.2889    
  3.4821      3.8132      4.2949      4.9430      5.7715      6.7873      7.9823      9.4950      11.134      12.815    
  14.426      15.823      16.850      17.392      17.392      16.850      15.823      14.426      12.815      11.134    
  9.4950      7.9823      6.6497      5.5239      4.6093      3.8941      3.3579      2.9783      2.7363      2.6186    
  2.6186      2.7363      2.9783      3.3579      3.8942      4.6093      5.5239      6.6497      8.2855      9.9864    
  11.822      13.682      15.416      16.845      17.791      18.123      17.791      16.845      15.416      13.682    
  11.822      9.9864      8.2855      6.7873      5.5239      4.4997      3.6992      3.0964      2.6622      2.3710    
  2.2038      2.1492      2.2038      2.3710      2.6622      3.0964      3.6992      4.4996      5.5239      6.7873    
  8.8866      10.781      12.789      14.766      16.522      17.849      18.566      18.566      17.849      16.522    
  14.766      12.789      10.781      8.8866      7.2009      5.7715      4.6093      3.6992      3.0112      2.5102    
  2.1637      1.9463      1.8416      1.8416      1.9463      2.1637      2.5102      3.0112      3.6992      4.6093    
  5.7716      7.2009      9.7772      11.852      13.989      16.004      17.677      18.790      19.181      18.790    
  17.677      16.004      13.989      11.852      9.7772      7.8931      6.2730      4.9429      3.8941      3.0964    
  2.5102      2.0965      1.8232      1.6676      1.6171      1.6676      1.8232      2.0965      2.5102      3.0964    
  3.8942      4.9430      6.2731      7.8931      10.947      13.175      15.385      17.359      18.856      19.666    
  19.666      18.856      17.359      15.385      13.175      10.947      8.8667      7.0395      5.5138      4.2949    
  3.3579      2.6622      2.1637      1.8232      1.6114      1.5097      1.5097      1.6113      1.8232      2.1637    
  2.6622      3.3579      4.2949      5.5138      7.0394      8.8667      12.376      14.717      16.937      18.790    
  20.028      20.464      20.028      18.790      16.937      14.717      12.376      10.118      8.0803      6.3399    
  4.9217      3.8131      2.9783      2.3710      1.9463      1.6676      1.5097      1.4586      1.5098      1.6676    
  1.9463      2.3710      2.9783      3.8132      4.9216      6.3398      8.0803      10.118      14.018      16.411    
  18.566      20.213      21.109      21.109      20.213      18.566      16.411      14.018      11.620      9.3904    
  7.4334      5.7975      4.4885      3.4821      2.7363      2.2038      1.8416      1.6171      1.5097      1.5098    
  1.6172      1.8416      2.2038      2.7363      3.4821      4.4885      5.7974      7.4333      9.3905      11.620    
  15.765      18.123      20.101      21.423      21.888      21.423      20.101      18.123      15.765      13.300    
  10.930      8.7842      6.9357      5.4114      4.2055      3.2889      2.6186      2.1492      1.8416      1.6676    
  1.6113      1.6676      1.8416      2.1493      2.6186      3.2889      4.2055      5.4113      6.9357      8.7843    
  10.930      13.300      17.392      19.478      21.030      21.859      21.859      21.030      19.478      17.392    
  15.014      12.602      10.341      8.3227      6.5965      5.1801      4.0658      3.2254      2.6186      2.2038    
  1.9463      1.8232      1.8232      1.9463      2.2038      2.6186      3.2254      4.0658      5.1802      6.5966    
  8.3228      10.341      12.602      15.014      18.229      19.651      20.542      20.845      20.542      19.651    
  18.229      16.370      14.222      11.996      9.9033      8.0317      6.4244      5.1031      4.0658      3.2889    
  2.7363      2.3710      2.1637      2.0965      2.1637      2.3710      2.7363      3.2889      4.0658      5.1031    
  6.4244      8.0318      9.9033      11.996      14.222      16.370      17.399      17.868      18.066      18.066    
  17.868      17.399      16.551      15.249      13.528      11.577      9.6686      7.9321      6.4244      5.1801    
  4.2055      3.4821      2.9783      2.6622      2.5102      2.5102      2.6622      2.9783      3.4821      4.2055    
  5.1802      6.4244      7.9320      9.6685      11.577      13.528      15.249      16.551      14.353      13.855    
  13.649      13.855      14.353      14.834      14.926      14.362      13.116      11.427      9.6686      8.0318    
  6.5966      5.4113      4.4885      3.8132      3.3579      3.0964      3.0112      3.0964      3.3579      3.8132    
  4.4885      5.4113      6.5966      8.0318      9.6685      11.427      13.116      14.362      14.926      14.834    
  9.2374      8.1442      8.1442      9.2374      11.008      12.788      13.922      14.024      13.116      11.577    
  9.9033      8.3228      6.9357      5.7974      4.9216      4.2949      3.8942      3.6992      3.6992      3.8942    
  4.2949      4.9216      5.7974      6.9357      8.3228      9.9033      11.577      13.116      14.024      13.922    
  12.788      11.008      3.0486      2.0786      3.0486      5.6289      8.9632      12.007      13.922      14.362    
  13.528      11.996      10.341      8.7843      7.4334      6.3398      5.5138      4.9430      4.6093      4.4996    
  4.6093      4.9430      5.5138      6.3398      7.4333      8.7843      10.341      11.996      13.528      14.362    
  13.922      12.007      8.9632      5.6289     -2.5801     -2.5801     -.23347E-01  4.2629      8.9632      12.788    
  14.926      15.249      14.222      12.602      10.930      9.3904      8.0803      7.0394      6.2731      5.7715    
  5.5239      5.5239      5.7716      6.2731      7.0394      8.0803      9.3905      10.930      12.602      14.222    
  15.249      14.926      12.788      8.9632      4.2629     -.23375E-01 -5.9403     -4.3298     -.23318E-01  5.6288    
  11.008      14.834      16.551      16.370      15.014      13.300      11.620      10.118      8.8667      7.8931    
  7.2009      6.7873      6.6497      6.7873      7.2009      7.8931      8.8667      10.118      11.620      13.300    
  15.014      16.370      16.551      14.834      11.008      5.6289     -.23375E-01 -4.3299     -1.3478      3.0487    
  8.7597      14.111      17.830      19.421      19.157      17.791      16.106      14.441      12.928      11.631    
  10.582      9.8049      9.3246      9.1619      9.3246      9.8049      10.582      11.631      12.928      14.441    
  16.106      17.791      19.157      19.420      17.830      14.111      8.7596      3.0485     -1.3479     -3.0006    
  3.0487      8.1443      13.649      18.066      20.542      21.030      20.101      18.566      16.937      15.385    
  13.989      12.789      11.822      11.134      10.774      10.774      11.134      11.822      12.789      13.989    
  15.385      16.937      18.566      20.101      21.030      20.542      18.066      13.649      8.1442      3.0486    
 -.23347E-01 -.23318E-01  8.7597      13.649      18.128      21.116      22.253      21.860      20.635      19.181    
  17.718      16.333      15.065      13.954      13.063      12.479      12.275      12.479      13.063      13.953    
  15.065      16.333      17.718      19.181      20.635      21.860      22.253      21.116      18.128      13.649    
  8.7597      4.9464      3.5041      4.9464      14.111      18.066      21.116      22.679      22.813      22.025    
  20.894      19.666      18.432      17.219      16.053      15.004      14.186      13.730      13.730      14.186    
  15.004      16.053      17.219      18.432      19.666      20.894      22.025      22.813      22.679      21.116    
  18.066      14.111      10.370      8.0889      8.0888      10.370      17.830      20.542      22.253      22.813    
  22.517      21.825      20.968      20.028      19.014      17.923      16.791      15.734      14.960      14.674    
  14.960      15.734      16.791      17.923      19.014      20.028      20.968      21.825      22.517      22.813    
  22.253      20.542      17.830      14.780      12.362      11.441      12.362      14.780      19.421      21.030    
  21.860      22.025      21.825      21.427      20.894      20.213      19.338      18.229      16.969      15.827    
  15.141      15.141      15.827      16.969      18.229      19.338      20.213      20.894      21.427      21.825    
  22.025      21.860      21.030      19.421      17.295      15.254      13.998      13.999      15.254      17.295    
  19.157      20.101      20.635      20.894      20.968      20.894      20.635      20.101      19.157      17.809    
  16.327      15.157      14.711      15.157      16.327      17.809      19.157      20.101      20.635      20.894    
  20.968      20.894      20.635      20.101      19.157      17.809      16.327      15.157      14.711      15.157    
  16.327      17.809      17.791      18.566      19.181      19.666      20.028      20.213      20.101      19.478    
  18.229      16.551      14.926      13.922      13.922      14.926      16.551      18.229      19.478      20.101    
  20.213      20.028      19.666      19.181      18.566      17.791      16.850      15.808      14.873      14.314    
  14.314      14.873      15.808      16.850      16.106      16.937      17.718      18.432      19.014      19.338    
  19.157      18.229      16.610      14.718      13.189      12.603      13.189      14.718      16.610      18.229    
  19.157      19.338      19.014      18.432      17.718      16.937      16.106      15.232      14.361      13.587    
  13.037      12.837      13.037      13.587      14.361      15.232      14.441      15.385      16.333      17.219    
  17.923      18.229      17.809      16.551      14.718      12.894      11.757      11.757      12.894      14.718    
  16.551      17.809      18.229      17.923      17.219      16.333      15.385      14.441      13.531      12.681    
  11.941      11.381      11.077      11.077      11.381      11.941      12.681      13.531      12.928      13.989    
  15.065      16.053      16.791      16.969      16.327      14.926      13.189      11.757      11.203      11.757    
  13.189      14.926      16.327      16.969      16.791      16.053      15.065      13.989      12.928      11.941    
  11.060      10.311      9.7298      9.3584      9.2302      9.3584      9.7298      10.311      11.060      11.941    
  11.631      12.789      13.954      15.004      15.734      15.827      15.157      13.922      12.603      11.757    
  11.757      12.603      13.922      15.157      15.827      15.734      15.004      13.953      12.789      11.631    
  10.561      9.6207      8.8351      8.2211      7.7969      7.5795      7.5795      7.7969      8.2212      8.8351    
  9.6207      10.561      10.582      11.822      13.063      14.186      14.960      15.141      14.711      13.922    
  13.189      12.894      13.189      13.922      14.711      15.141      14.960      14.186      13.063      11.822    