Si                                      
   5.40000000000000     
    -0.000000    0.505926    0.505926
     0.505926    0.000000    0.505926
     0.505926    0.505926    0.000000
   Si
     2
Direct
 -0.000000 -0.000000 -0.000000
  0.250000  0.250000  0.250000
 
   32   32   32
 -.78414482484E+01 -.60411238205E+01 -.12359105957E+01 0.50475575924E+01 0.10991946765E+02
 0.15180478364E+02 0.17025143366E+02 0.16795694075E+02 0.15318609279E+02 0.13492741389E+02
 0.11728165575E+02 0.10171079784E+02 0.88889525030E+01 0.79002775305E+01 0.72018242384E+01
 0.67860330325E+01 0.66479405158E+01 0.67860264263E+01 0.72018297663E+01 0.79003016991E+01
 0.88889790597E+01 0.10171092441E+02 0.11728159224E+02 0.13492707028E+02 0.15318540606E+02
 0.16795630730E+02 0.17025174916E+02 0.15180655489E+02 0.10992191531E+02 0.50477139215E+01
 -.12359128563E+01 -.60411917172E+01 -.60411238205E+01 -.25300495187E+01 0.33248800246E+01
 0.97069048964E+01 0.14897828856E+02 0.17879706618E+02 0.18548951876E+02 0.17534586029E+02
 0.15780813584E+02 0.13952996234E+02 0.12266858615E+02 0.10820255958E+02 0.96507073920E+01
 0.87680863143E+01 0.81757877165E+01 0.78779093232E+01 0.78778932892E+01 0.81757661341E+01
 0.87680973111E+01 0.96507448319E+01 0.10820287234E+02 0.12266875123E+02 0.13953005030E+02
 0.15780797188E+02 0.17534529711E+02 0.18548913076E+02 0.17879784009E+02 0.14898018719E+02
 0.97070456660E+01 0.33248184984E+01 -.25302521022E+01 -.60412350348E+01 -.12359105957E+01
 0.33248800246E+01 0.92104164831E+01 0.14656486283E+02 0.18345881311E+02 0.19800124820E+02
 0.19357735876E+02 0.17844432063E+02 0.16066848414E+02 0.14347237547E+02 0.12811419895E+02
 0.11513547910E+02 0.10474748494E+02 0.97107366575E+01 0.92405841742E+01 0.90815439428E+01
 0.92405901401E+01 0.97107385934E+01 0.10474742891E+02 0.11513548872E+02 0.12811446065E+02
 0.14347285254E+02 0.16066885393E+02 0.17844428694E+02 0.19357702448E+02 0.19800104726E+02
 0.18345898317E+02 0.14656508013E+02 0.92103877034E+01 0.33247943419E+01 -.12359890509E+01
 -.29555426824E+01 0.50475575924E+01 0.97069048964E+01 0.14656486283E+02 0.18491859243E+02
 0.20450711973E+02 0.20557963762E+02 0.19424026581E+02 0.17834361368E+02 0.16205991067E+02
 0.14688496370E+02 0.13348889558E+02 0.12214865945E+02 0.11311074542E+02 0.10673486014E+02
 0.10341692505E+02 0.10341715054E+02 0.10673523179E+02 0.11311079690E+02 0.12214843102E+02
 0.13348883904E+02 0.14688528383E+02 0.16206034144E+02 0.17834385619E+02 0.19424030325E+02
 0.20557950278E+02 0.20450670601E+02 0.18491798648E+02 0.14656460932E+02 0.97069632457E+01
 0.50476647825E+01 0.22159070585E+01 0.22158525823E+01 0.10991946765E+02 0.14897828856E+02
 0.18345881311E+02 0.20450711973E+02 0.20977006678E+02 0.20282502772E+02 0.19017034184E+02
 0.17616539231E+02 0.16245202384E+02 0.14977315380E+02 0.13840855622E+02 0.12861620587E+02
 0.12087737039E+02 0.11584581026E+02 0.11409330676E+02 0.11584621013E+02 0.12087779616E+02
 0.12861638504E+02 0.13840859123E+02 0.14977326342E+02 0.16245221188E+02 0.17616551043E+02
 0.19017032897E+02 0.20282490259E+02 0.20976980197E+02 0.20450678655E+02 0.18345881823E+02
 0.14897911467E+02 0.10992098170E+02 0.78912243040E+01 0.67095089365E+01 0.78910996672E+01
 0.15180478364E+02 0.17879706618E+02 0.19800124820E+02 0.20557963762E+02 0.20282502772E+02
 0.19433889024E+02 0.18380333878E+02 0.17279815922E+02 0.16205991067E+02 0.15180443177E+02
 0.14219897209E+02 0.13372978065E+02 0.12725020854E+02 0.12370212124E+02 0.12370231056E+02
 0.12725065054E+02 0.13373023667E+02 0.14219932828E+02 0.15180474139E+02 0.16206022414E+02
 0.17279839292E+02 0.18380334530E+02 0.19433861993E+02 0.20282459528E+02 0.20557926455E+02
 0.19800116268E+02 0.17879739478E+02 0.15180544046E+02 0.12533357518E+02 0.10892134419E+02
 0.10892106416E+02 0.12533291199E+02 0.17025143366E+02 0.18548951876E+02 0.19357735876E+02
 0.19424026581E+02 0.19017034184E+02 0.18380333878E+02 0.17643103882E+02 0.16868780012E+02
 0.16066848414E+02 0.15235690577E+02 0.14409008526E+02 0.13674566017E+02 0.13153249045E+02
 0.12962881104E+02 0.13153275138E+02 0.13674603267E+02 0.14409042648E+02 0.15235722976E+02
 0.16066892532E+02 0.16868839604E+02 0.17643157874E+02 0.18380350677E+02 0.19017004054E+02
 0.19423973466E+02 0.19357690921E+02 0.18548919831E+02 0.17025105161E+02 0.15189770344E+02
 0.13686746971E+02 0.13106246251E+02 0.13686788256E+02 0.15189822120E+02 0.16795694075E+02
 0.17534586029E+02 0.17844432063E+02 0.17834361368E+02 0.17616539231E+02 0.17279815922E+02
 0.16868780012E+02 0.16377411767E+02 0.15780813584E+02 0.15084211839E+02 0.14347055124E+02
 0.13696358476E+02 0.13307974552E+02 0.13307979228E+02 0.13696372862E+02 0.14347074765E+02
 0.15084227315E+02 0.15780828570E+02 0.16377450365E+02 0.16868856597E+02 0.17279902292E+02
 0.17616585213E+02 0.17834352417E+02 0.17844402997E+02 0.17534565393E+02 0.16795659441E+02
 0.15723942855E+02 0.14643887260E+02 0.13963552864E+02 0.13963603064E+02 0.14643993388E+02
 0.15724025857E+02 0.15318609279E+02 0.15780813584E+02 0.16066848414E+02 0.16205991067E+02
 0.16245202384E+02 0.16205991067E+02 0.16066848414E+02 0.15780813584E+02 0.15318609279E+02
 0.14691777732E+02 0.13998780794E+02 0.13443916700E+02 0.13230742459E+02 0.13443906570E+02
 0.13998782241E+02 0.14691793846E+02 0.15318616314E+02 0.15780805402E+02 0.16066860985E+02
 0.16206057306E+02 0.16245298375E+02 0.16206057306E+02 0.16066860985E+02 0.15780805402E+02
 0.15318616314E+02 0.14691793846E+02 0.13998782241E+02 0.13443906570E+02 0.13230742459E+02
 0.13443916700E+02 0.13998780794E+02 0.14691777732E+02 0.13492741389E+02 0.13952996234E+02
 0.14347237547E+02 0.14688496370E+02 0.14977315380E+02 0.15180443177E+02 0.15235690577E+02
 0.15084211839E+02 0.14691777732E+02 0.14093541252E+02 0.13471339508E+02 0.13072789156E+02
 0.13072768064E+02 0.13471307207E+02 0.14093545434E+02 0.14691813074E+02 0.15084227819E+02
 0.15235666701E+02 0.15180423420E+02 0.14977350199E+02 0.14688570513E+02 0.14347283020E+02
 0.13952976427E+02 0.13492700416E+02 0.12973916499E+02 0.12447958270E+02 0.12005571961E+02
 0.11747931495E+02 0.11747874855E+02 0.12005446305E+02 0.12447857293E+02 0.12973899702E+02
 0.11728165575E+02 0.12266858615E+02 0.12811419895E+02 0.13348889558E+02 0.13840855622E+02
 0.14219897209E+02 0.14409008526E+02 0.14347055124E+02 0.13998780794E+02 0.13471339508E+02
 0.12997040783E+02 0.12806914147E+02 0.12996970070E+02 0.13471279267E+02 0.13998796398E+02
 0.14347121974E+02 0.14409048803E+02 0.14219875889E+02 0.13840815098E+02 0.13348886172E+02
 0.12811449330E+02 0.12266864826E+02 0.11728118045E+02 0.11201875574E+02 0.10708937913E+02
 0.10292676034E+02 0.10009872267E+02 0.99091868369E+01 0.10009807969E+02 0.10292616749E+02
 0.10708945067E+02 0.11201936418E+02 0.10171079784E+02 0.10820255958E+02 0.11513547910E+02
 0.12214865945E+02 0.12861620587E+02 0.13372978065E+02 0.13674566017E+02 0.13696358476E+02
 0.13443916700E+02 0.13072789156E+02 0.12806914147E+02 0.12806851909E+02 0.13072659627E+02
 0.13443833864E+02 0.13696381783E+02 0.13674651530E+02 0.13373036449E+02 0.12861611446E+02
 0.12214827251E+02 0.11513539317E+02 0.10820288314E+02 0.10171107406E+02 0.95829384761E+01
 0.90678655792E+01 0.86441616904E+01 0.83380208926E+01 0.81763909882E+01 0.81764179148E+01
 0.83380963438E+01 0.86442627078E+01 0.90679485969E+01 0.95829645000E+01 0.88889525030E+01
 0.96507073920E+01 0.10474748494E+02 0.11311074542E+02 0.12087737039E+02 0.12725020854E+02
 0.13153249045E+02 0.13307974552E+02 0.13230742459E+02 0.13072768064E+02 0.12996970070E+02
 0.13072659627E+02 0.13230601493E+02 0.13307891669E+02 0.13153259666E+02 0.12725086568E+02
 0.12087791580E+02 0.11311087553E+02 0.10474745177E+02 0.96507294089E+01 0.88890061748E+01
 0.82169352883E+01 0.76473524427E+01 0.71882731228E+01 0.68487362867E+01 0.66391717635E+01
 0.65682222515E+01 0.66392352034E+01 0.68488272221E+01 0.71883389646E+01 0.76473576822E+01
 0.82168885241E+01 0.79002775305E+01 0.87680863143E+01 0.97107366575E+01 0.10673486014E+02
 0.11584581026E+02 0.12370212124E+02 0.12962881104E+02 0.13307979228E+02 0.13443906570E+02
 0.13471307207E+02 0.13471279267E+02 0.13443833864E+02 0.13307891669E+02 0.12962815895E+02
 0.12370194837E+02 0.11584608757E+02 0.10673528162E+02 0.97107591015E+01 0.87680816687E+01
 0.79002717951E+01 0.71403439355E+01 0.65032094601E+01 0.59930973873E+01 0.56102443432E+01
 0.53545617255E+01 0.52264861780E+01 0.52264900583E+01 0.53545588289E+01 0.56102109526E+01
 0.59930351017E+01 0.65031504023E+01 0.71403187415E+01 0.72018242384E+01 0.81757877165E+01
 0.92405841742E+01 0.10341692505E+02 0.11409330676E+02 0.12370231056E+02 0.13153275138E+02
 0.13696372862E+02 0.13998782241E+02 0.14093545434E+02 0.13998796398E+02 0.13696381783E+02
 0.13153259666E+02 0.12370194837E+02 0.11409300637E+02 0.10341689840E+02 0.92405956970E+01
 0.81757774494E+01 0.72017797485E+01 0.63526449794E+01 0.56433786090E+01 0.50756400223E+01
 0.46442772418E+01 0.43423132410E+01 0.41637302046E+01 0.41046442553E+01 0.41637143629E+01
 0.43422629174E+01 0.46441967083E+01 0.50755737963E+01 0.56433703401E+01 0.63526878389E+01
 0.67860330325E+01 0.78779093232E+01 0.90815439428E+01 0.10341715054E+02 0.11584621013E+02
 0.12725065054E+02 0.13674603267E+02 0.14347074765E+02 0.14691793846E+02 0.14691813074E+02
 0.14347121974E+02 0.13674651530E+02 0.12725086568E+02 0.11584608757E+02 0.10341689840E+02
 0.90815330460E+01 0.78779161818E+01 0.67860338704E+01 0.58394456323E+01 0.50516438106E+01
 0.44211734502E+01 0.39381091589E+01 0.35897686464E+01 0.33645803662E+01 0.32541502140E+01
 0.32541409250E+01 0.33645584923E+01 0.35897514672E+01 0.39381169517E+01 0.44212110950E+01
 0.50516906506E+01 0.58394724055E+01 0.66479405158E+01 0.78778932892E+01 0.92405901401E+01
 0.10673523179E+02 0.12087779616E+02 0.13373023667E+02 0.14409042648E+02 0.15084227315E+02
 0.15318616314E+02 0.15084227819E+02 0.14409048803E+02 0.13373036449E+02 0.12087791580E+02
 0.10673528162E+02 0.92405956970E+01 0.78779161818E+01 0.66479842442E+01 0.55867144565E+01
 0.47068462877E+01 0.40038724311E+01 0.34630946806E+01 0.30661667379E+01 0.27959200539E+01
 0.26391489518E+01 0.25877772131E+01 0.26391284217E+01 0.27959152849E+01 0.30662063541E+01
 0.34631631859E+01 0.40039229025E+01 0.47068464388E+01 0.55866745943E+01 0.67860264263E+01
 0.81757661341E+01 0.97107385934E+01 0.11311079690E+02 0.12861638504E+02 0.14219932828E+02
 0.15235722976E+02 0.15780828570E+02 0.15780805402E+02 0.15235666701E+02 0.14219875889E+02
 0.12861611446E+02 0.11311087553E+02 0.97107591015E+01 0.81757774494E+01 0.67860338704E+01
 0.55867144565E+01 0.45936994696E+01 0.38013146229E+01 0.31908202281E+01 0.27382587885E+01
 0.24205114915E+01 0.22190097123E+01 0.21213102835E+01 0.21213080237E+01 0.22190127979E+01
 0.24205305055E+01 0.27382788586E+01 0.31908124139E+01 0.38012731778E+01 0.45936519516E+01
 0.55866886200E+01 0.72018297663E+01 0.87680973111E+01 0.10474742891E+02 0.12214843102E+02
 0.13840859123E+02 0.15180474139E+02 0.16066892532E+02 0.16377450365E+02 0.16066860985E+02
 0.15180423420E+02 0.13840815098E+02 0.12214827251E+02 0.10474745177E+02 0.87680816687E+01
 0.72017797485E+01 0.58394456323E+01 0.47068462877E+01 0.38013146229E+01 0.31022336946E+01
 0.25808010442E+01 0.22078074803E+01 0.19587088012E+01 0.18159872372E+01 0.17695075813E+01
 0.18159995816E+01 0.19587286356E+01 0.22078129898E+01 0.25807656249E+01 0.31021632639E+01
 0.38012574785E+01 0.47068474743E+01 0.58394966543E+01 0.79003016991E+01 0.96507448319E+01
 0.11513548872E+02 0.13348883904E+02 0.14977326342E+02 0.16206022414E+02 0.16868839604E+02
 0.16868856597E+02 0.16206057306E+02 0.14977350199E+02 0.13348886172E+02 0.11513539317E+02
 0.96507294089E+01 0.79002717951E+01 0.63526449794E+01 0.50516438106E+01 0.40038724311E+01
 0.31908202281E+01 0.25808010442E+01 0.21389763445E+01 0.18343731099E+01 0.16435896490E+01
 0.15517237525E+01 0.15517264585E+01 0.16435949941E+01 0.18343736236E+01 0.21389660593E+01
 0.25807863906E+01 0.31908209334E+01 0.40039034841E+01 0.50516967316E+01 0.63526943919E+01
 0.88889790597E+01 0.10820287234E+02 0.12811446065E+02 0.14688528383E+02 0.16245221188E+02
 0.17279839292E+02 0.17643157874E+02 0.17279902292E+02 0.16245298375E+02 0.14688570513E+02
 0.12811449330E+02 0.10820288314E+02 0.88890061748E+01 0.71403439355E+01 0.56433786090E+01
 0.44211734502E+01 0.34630946806E+01 0.27382587885E+01 0.22078074803E+01 0.18343731099E+01
 0.15878532430E+01 0.14475969342E+01 0.14020639868E+01 0.14476014678E+01 0.15878477318E+01
 0.18343581039E+01 0.22078108989E+01 0.27383051970E+01 0.34631680422E+01 0.44212252083E+01
 0.56433772792E+01 0.71403077955E+01 0.10171092441E+02 0.12266875123E+02 0.14347285254E+02
 0.16206034144E+02 0.17616551043E+02 0.18380334530E+02 0.18380350677E+02 0.17616585213E+02
 0.16206057306E+02 0.14347283020E+02 0.12266864826E+02 0.10171107406E+02 0.82169352883E+01
 0.65032094601E+01 0.50756400223E+01 0.39381091589E+01 0.30661667379E+01 0.24205114915E+01
 0.19587088012E+01 0.16435896490E+01 0.14475969342E+01 0.13535779555E+01 0.13535825261E+01
 0.14476029747E+01 0.16435879790E+01 0.19587073639E+01 0.24205257785E+01 0.30661917614E+01
 0.39381148362E+01 0.50756031536E+01 0.65031442116E+01 0.82168822573E+01 0.11728159224E+02
 0.13953005030E+02 0.16066885393E+02 0.17834385619E+02 0.19017032897E+02 0.19433861993E+02
 0.19017004054E+02 0.17834352417E+02 0.16066860985E+02 0.13952976427E+02 0.11728118045E+02
 0.95829384761E+01 0.76473524427E+01 0.59930973873E+01 0.46442772418E+01 0.35897686464E+01
 0.27959200539E+01 0.22190097123E+01 0.18159872372E+01 0.15517237525E+01 0.14020639868E+01
 0.13535825261E+01 0.14020651465E+01 0.15517265406E+01 0.18159944839E+01 0.22190185798E+01
 0.27959119422E+01 0.35897216670E+01 0.46441974923E+01 0.59930270103E+01 0.76473325055E+01
 0.95829673481E+01 0.13492707028E+02 0.15780797188E+02 0.17844428694E+02 0.19424030325E+02
 0.20282490259E+02 0.20282459528E+02 0.19423973466E+02 0.17844402997E+02 0.15780805402E+02
 0.13492700416E+02 0.11201875574E+02 0.90678655792E+01 0.71882731228E+01 0.56102443432E+01
 0.43423132410E+01 0.33645803662E+01 0.26391489518E+01 0.21213102835E+01 0.17695075813E+01
 0.15517264585E+01 0.14476014678E+01 0.14476029747E+01 0.15517265406E+01 0.17695023943E+01
 0.21213050848E+01 0.26391452021E+01 0.33645650867E+01 0.43422796333E+01 0.56102170888E+01
 0.71882884682E+01 0.90679210418E+01 0.11201923471E+02 0.15318540606E+02 0.17534529711E+02
 0.19357702448E+02 0.20557950278E+02 0.20976980197E+02 0.20557926455E+02 0.19357690921E+02
 0.17534565393E+02 0.15318616314E+02 0.12973916499E+02 0.10708937913E+02 0.86441616904E+01
 0.68487362867E+01 0.53545617255E+01 0.41637302046E+01 0.32541502140E+01 0.25877772131E+01
 0.21213080237E+01 0.18159995816E+01 0.16435949941E+01 0.15878477318E+01 0.16435879790E+01
 0.18159944839E+01 0.21213050848E+01 0.25877657010E+01 0.32541318680E+01 0.41637332153E+01
 0.53546145374E+01 0.68488262620E+01 0.86442329913E+01 0.10708940085E+02 0.12973853061E+02
 0.16795630730E+02 0.18548913076E+02 0.19800104726E+02 0.20450670601E+02 0.20450678655E+02
 0.19800116268E+02 0.18548919831E+02 0.16795659441E+02 0.14691793846E+02 0.12447958270E+02
 0.10292676034E+02 0.83380208926E+01 0.66391717635E+01 0.52264861780E+01 0.41046442553E+01
 0.32541409250E+01 0.26391284217E+01 0.22190127979E+01 0.19587286356E+01 0.18343736236E+01
 0.18343581039E+01 0.19587073639E+01 0.22190185798E+01 0.26391452021E+01 0.32541318680E+01
 0.41046220836E+01 0.52265062826E+01 0.66392464334E+01 0.83380839154E+01 0.10292659724E+02
 0.12447877418E+02 0.14691720186E+02 0.17025174916E+02 0.17879784009E+02 0.18345898317E+02
 0.18491798648E+02 0.18345881823E+02 0.17879739478E+02 0.17025105161E+02 0.15723942855E+02
 0.13998782241E+02 0.12005571961E+02 0.10009872267E+02 0.81763909882E+01 0.65682222515E+01
 0.52264900583E+01 0.41637143629E+01 0.33645584923E+01 0.27959152849E+01 0.24205305055E+01
 0.22078129898E+01 0.21389660593E+01 0.22078108989E+01 0.24205257785E+01 0.27959119422E+01
 0.33645650867E+01 0.41637332153E+01 0.52265062826E+01 0.65682100808E+01 0.81763387440E+01
 0.10009802251E+02 0.12005529355E+02 0.13998797762E+02 0.15724005649E+02 0.15180655489E+02
 0.14898018719E+02 0.14656508013E+02 0.14656460932E+02 0.14897911467E+02 0.15180544046E+02
 0.15189770344E+02 0.14643887260E+02 0.13443906570E+02 0.11747931495E+02 0.99091868369E+01
 0.81764179148E+01 0.66392352034E+01 0.53545588289E+01 0.43422629174E+01 0.35897514672E+01
 0.30662063541E+01 0.27382788586E+01 0.25807656249E+01 0.25807863906E+01 0.27383051970E+01
 0.30661917614E+01 0.35897216670E+01 0.43422796333E+01 0.53546145374E+01 0.66392464334E+01
 0.81763387440E+01 0.99090792040E+01 0.11747891395E+02 0.13443956070E+02 0.14643978768E+02
 0.15189870114E+02 0.10992191531E+02 0.97070456660E+01 0.92103877034E+01 0.97069632457E+01
 0.10992098170E+02 0.12533357518E+02 0.13686746971E+02 0.13963552864E+02 0.13230742459E+02
 0.11747874855E+02 0.10009807969E+02 0.83380963438E+01 0.68488272221E+01 0.56102109526E+01
 0.46441967083E+01 0.39381169517E+01 0.34631631859E+01 0.31908124139E+01 0.31021632639E+01
 0.31908209334E+01 0.34631680422E+01 0.39381148362E+01 0.46441974923E+01 0.56102170888E+01
 0.68488262620E+01 0.83380839154E+01 0.10009802251E+02 0.11747891395E+02 0.13230766459E+02
 0.13963560609E+02 0.13686751375E+02 0.12533401945E+02 0.50477139215E+01 0.33248184984E+01
 0.33247943419E+01 0.50476647825E+01 0.78912243040E+01 0.10892134419E+02 0.13106246251E+02
 0.13963603064E+02 0.13443916700E+02 0.12005446305E+02 0.10292616749E+02 0.86442627078E+01
 0.71883389646E+01 0.59930351017E+01 0.50755737963E+01 0.44212110950E+01 0.40039229025E+01
 0.38012731778E+01 0.38012574785E+01 0.40039034841E+01 0.44212252083E+01 0.50756031536E+01
 0.59930270103E+01 0.71882884682E+01 0.86442329913E+01 0.10292659724E+02 0.12005529355E+02
 0.13443956070E+02 0.13963560609E+02 0.13106168020E+02 0.10892093418E+02 0.78912459304E+01
 -.12359128563E+01 -.25302521022E+01 -.12359890509E+01 0.22159070585E+01 0.67095089365E+01
 0.10892106416E+02 0.13686788256E+02 0.14643993388E+02 0.13998780794E+02 0.12447857293E+02
 0.10708945067E+02 0.90679485969E+01 0.76473576822E+01 0.65031504023E+01 0.56433703401E+01
 0.50516906506E+01 0.47068464388E+01 0.45936519516E+01 0.47068474743E+01 0.50516967316E+01
 0.56433772792E+01 0.65031442116E+01 0.76473325055E+01 0.90679210418E+01 0.10708940085E+02
 0.12447877418E+02 0.13998797762E+02 0.14643978768E+02 0.13686751375E+02 0.10892093418E+02
 0.67095573819E+01 0.22160013252E+01 -.60411917172E+01 -.60412350348E+01 -.29555426824E+01
 0.22158525823E+01 0.78910996672E+01 0.12533291199E+02 0.15189822120E+02 0.15724025857E+02
 0.14691777732E+02 0.12973899702E+02 0.11201936418E+02 0.95829645000E+01 0.82168885241E+01
 0.71403187415E+01 0.63526878389E+01 0.58394724055E+01 0.55866745943E+01 0.55866886200E+01
 0.58394966543E+01 0.63526943919E+01 0.71403077955E+01 0.82168822573E+01 0.95829673481E+01
 0.11201923471E+02 0.12973853061E+02 0.14691720186E+02 0.15724005649E+02 0.15189870114E+02
 0.12533401945E+02 0.78912459304E+01 0.22160013252E+01 -.29554286510E+01 -.60411238205E+01
 -.25300495187E+01 0.33248800246E+01 0.97069048964E+01 0.14897828856E+02 0.17879706618E+02
 0.18548951876E+02 0.17534586029E+02 0.15780813584E+02 0.13952996234E+02 0.12266858615E+02
 0.10820255958E+02 0.96507073920E+01 0.87680863143E+01 0.81757877165E+01 0.78779093232E+01
 0.78778932892E+01 0.81757661341E+01 0.87680973111E+01 0.96507448319E+01 0.10820287234E+02
 0.12266875123E+02 0.13953005030E+02 0.15780797188E+02 0.17534529711E+02 0.18548913076E+02
 0.17879784009E+02 0.14898018719E+02 0.97070456660E+01 0.33248184984E+01 -.25302521022E+01
 -.60412350348E+01 -.25300495187E+01 0.23101898218E+01 0.85720849580E+01 0.14397535110E+02
 0.18394211465E+02 0.20046056382E+02 0.19691940400E+02 0.18184097978E+02 0.16377411767E+02
 0.14625765106E+02 0.13059769605E+02 0.11735374362E+02 0.10674376128E+02 0.98932296618E+01
 0.94120949064E+01 0.92492543388E+01 0.94121020783E+01 0.98932298874E+01 0.10674365239E+02
 0.11735373448E+02 0.13059804683E+02 0.14625829076E+02 0.16377459817E+02 0.18184096356E+02
 0.19691915282E+02 0.20046069995E+02 0.18394275819E+02 0.14397569113E+02 0.85719911540E+01
 0.23099810289E+01 -.25302277062E+01 -.43531989642E+01 0.33248800246E+01 0.85720849580E+01
 0.14187635087E+02 0.18611498606E+02 0.20982799722E+02 0.21300372652E+02 0.20207176893E+02
 0.18563602756E+02 0.16868780012E+02 0.15286922729E+02 0.13888683125E+02 0.12702539178E+02
 0.11754525949E+02 0.11083839839E+02 0.10734108490E+02 0.10734129851E+02 0.11083869759E+02
 0.11754512346E+02 0.12702489842E+02 0.13888659613E+02 0.15286962898E+02 0.16868858795E+02
 0.18563673493E+02 0.20207219098E+02 0.21300382396E+02 0.20982761608E+02 0.18611401196E+02
 0.14187506094E+02 0.85719791664E+01 0.33248270008E+01 0.14661524235E+00 0.14662817285E+00
 0.97069048964E+01 0.14397535110E+02 0.18611498606E+02 0.21301438701E+02 0.22160300798E+02
 0.21561707802E+02 0.20236472148E+02 0.18743970545E+02 0.17279815922E+02 0.15923978671E+02
 0.14704300392E+02 0.13647433598E+02 0.12807085571E+02 0.12258029515E+02 0.12066280481E+02
 0.12258067883E+02 0.12807116034E+02 0.13647420315E+02 0.14704256656E+02 0.15923946392E+02
 0.17279825900E+02 0.18744028685E+02 0.20236559241E+02 0.21561773236E+02 0.22160280350E+02
 0.21301318880E+02 0.18611362595E+02 0.14397502360E+02 0.97070012054E+01 0.60129964379E+01
 0.46098597640E+01 0.60128827008E+01 0.14897828856E+02 0.18394211465E+02 0.20982799722E+02
 0.22160300798E+02 0.22038662172E+02 0.21147541412E+02 0.19998013050E+02 0.18793778956E+02
 0.17616539231E+02 0.16485806771E+02 0.15416349287E+02 0.14462998691E+02 0.13726647269E+02
 0.13319796113E+02 0.13319814646E+02 0.13726688474E+02 0.14463032672E+02 0.15416355445E+02
 0.16485786365E+02 0.17616512051E+02 0.18793772583E+02 0.19998044815E+02 0.21147596226E+02
 0.22038692265E+02 0.22160268573E+02 0.20982730057E+02 0.18394183514E+02 0.14897894369E+02
 0.11527079051E+02 0.94532317580E+01 0.94531750242E+01 0.11526964803E+02 0.17879706618E+02
 0.20046056382E+02 0.21300372652E+02 0.21561707802E+02 0.21147541412E+02 0.20439847113E+02
 0.19614104372E+02 0.18743970545E+02 0.17834361368E+02 0.16876279203E+02 0.15904794827E+02
 0.15015129156E+02 0.14369082930E+02 0.14130837750E+02 0.14369093549E+02 0.15015149240E+02
 0.15904818952E+02 0.16876298362E+02 0.17834370085E+02 0.18743972835E+02 0.19614109941E+02
 0.20439860303E+02 0.21147555007E+02 0.21561709144E+02 0.21300355859E+02 0.20046027928E+02
 0.17879679262E+02 0.15354283025E+02 0.13317009186E+02 0.12534997688E+02 0.13317016510E+02
 0.15354300615E+02 0.18548951876E+02 0.19691940400E+02 0.20207176893E+02 0.20236472148E+02
 0.19998013050E+02 0.19614104372E+02 0.19140352093E+02 0.18563602756E+02 0.17844432063E+02
 0.16970244361E+02 0.15993814170E+02 0.15108835304E+02 0.14575065355E+02 0.14575050430E+02
 0.15108805731E+02 0.15993796148E+02 0.16970245771E+02 0.17844444358E+02 0.18563623847E+02
 0.19140388926E+02 0.19614151770E+02 0.19998047677E+02 0.20236476102E+02 0.20207154704E+02
 0.19691902198E+02 0.18548892439E+02 0.16951782337E+02 0.15374297695E+02 0.14390582779E+02
 0.14390620826E+02 0.15374385136E+02 0.16951868628E+02 0.17534586029E+02 0.18184097978E+02
 0.18563602756E+02 0.18743970545E+02 0.18793778956E+02 0.18743970545E+02 0.18563602756E+02
 0.18184097978E+02 0.17534586029E+02 0.16594482749E+02 0.15538690526E+02 0.14692395807E+02
 0.14367579017E+02 0.14692335850E+02 0.15538618930E+02 0.16594437394E+02 0.17534563106E+02
 0.18184086385E+02 0.18563618727E+02 0.18744032632E+02 0.18793865382E+02 0.18744032632E+02
 0.18563618727E+02 0.18184086385E+02 0.17534563106E+02 0.16594437394E+02 0.15538618930E+02
 0.14692335850E+02 0.14367579017E+02 0.14692395807E+02 0.15538690526E+02 0.16594482749E+02
 0.15780813584E+02 0.16377411767E+02 0.16868780012E+02 0.17279815922E+02 0.17616539231E+02
 0.17834361368E+02 0.17844432063E+02 0.17534586029E+02 0.16795694075E+02 0.15724025857E+02
 0.14643993388E+02 0.13963603064E+02 0.13963552864E+02 0.14643887260E+02 0.15723942855E+02
 0.16795659441E+02 0.17534565393E+02 0.17844402997E+02 0.17834352417E+02 0.17616585213E+02
 0.17279902292E+02 0.16868856597E+02 0.16377450365E+02 0.15780828570E+02 0.15084227315E+02
 0.14347074765E+02 0.13696372862E+02 0.13307979228E+02 0.13307974552E+02 0.13696358476E+02
 0.14347055124E+02 0.15084211839E+02 0.13952996234E+02 0.14625765106E+02 0.15286922729E+02
 0.15923978671E+02 0.16485806771E+02 0.16876279203E+02 0.16970244361E+02 0.16594482749E+02
 0.15724025857E+02 0.14603347383E+02 0.13658065448E+02 0.13288510504E+02 0.13657951654E+02
 0.14603222404E+02 0.15723979784E+02 0.16594502538E+02 0.16970251035E+02 0.16876235387E+02
 0.16485757993E+02 0.15923986202E+02 0.15286982769E+02 0.14625816498E+02 0.13953000275E+02
 0.13272651101E+02 0.12613024755E+02 0.12040269401E+02 0.11643839622E+02 0.11501382672E+02
 0.11643764329E+02 0.12040185656E+02 0.12612993192E+02 0.13272662927E+02 0.12266858615E+02
 0.13059769605E+02 0.13888683125E+02 0.14704300392E+02 0.15416349287E+02 0.15904794827E+02
 0.15993814170E+02 0.15538690526E+02 0.14643993388E+02 0.13658065448E+02 0.13015938394E+02
 0.13015860641E+02 0.13657902258E+02 0.14643882618E+02 0.15538700089E+02 0.15993886855E+02
 0.15904826523E+02 0.15416303446E+02 0.14704231703E+02 0.13888657783E+02 0.13059787288E+02
 0.12266866144E+02 0.11530634220E+02 0.10866854894E+02 0.10304536501E+02 0.98882666975E+01
 0.96650259734E+01 0.96650064526E+01 0.98882361735E+01 0.10304541246E+02 0.10866896507E+02
 0.11530666637E+02 0.10820255958E+02 0.11735374362E+02 0.12702539178E+02 0.13647433598E+02
 0.14462998691E+02 0.15015129156E+02 0.15108835304E+02 0.14692395807E+02 0.13963603064E+02
 0.13288510504E+02 0.13015860641E+02 0.13288371278E+02 0.13963428791E+02 0.14692306212E+02
 0.15108867358E+02 0.15015216815E+02 0.14463045464E+02 0.13647404109E+02 0.12702480149E+02
 0.11735351802E+02 0.10820282359E+02 0.99971998217E+01 0.92849709834E+01 0.86975631878E+01
 0.82533498618E+01 0.79743655447E+01 0.78790069617E+01 0.79744271611E+01 0.82534445500E+01
 0.86976421286E+01 0.92849940583E+01 0.99971721885E+01 0.96507073920E+01 0.10674376128E+02
 0.11754525949E+02 0.12807085571E+02 0.13726647269E+02 0.14369082930E+02 0.14575065355E+02
 0.14367579017E+02 0.13963552864E+02 0.13657951654E+02 0.13657902258E+02 0.13963428791E+02
 0.14367443399E+02 0.14574988024E+02 0.14369092759E+02 0.13726708805E+02 0.12807133077E+02
 0.11754527709E+02 0.10674360124E+02 0.96507200309E+01 0.87361831661E+01 0.79563542878E+01
 0.73214389312E+01 0.68368543002E+01 0.65084059221E+01 0.63422007068E+01 0.63422302817E+01
 0.65084741221E+01 0.68369127988E+01 0.73214466467E+01 0.79563124286E+01 0.87361352506E+01
 0.87680863143E+01 0.98932296618E+01 0.11083839839E+02 0.12258029515E+02 0.13319796113E+02
 0.14130837750E+02 0.14575050430E+02 0.14692335850E+02 0.14643887260E+02 0.14603222404E+02
 0.14643882618E+02 0.14692306212E+02 0.14574988024E+02 0.14130770155E+02 0.13319766061E+02
 0.12258051260E+02 0.11083882609E+02 0.98932496278E+01 0.87680724940E+01 0.77645248498E+01
 0.69119177046E+01 0.62197609712E+01 0.56871754862E+01 0.53101721914E+01 0.50852886516E+01
 0.50105324050E+01 0.50852751249E+01 0.53101347318E+01 0.56871169336E+01 0.62197089684E+01
 0.69119015567E+01 0.77645417319E+01 0.81757877165E+01 0.94120949064E+01 0.10734108490E+02
 0.12066280481E+02 0.13319814646E+02 0.14369093549E+02 0.15108805731E+02 0.15538618930E+02
 0.15723942855E+02 0.15723979784E+02 0.15538700089E+02 0.15108867358E+02 0.14369092759E+02
 0.13319766061E+02 0.12066237285E+02 0.10734104053E+02 0.94121080291E+01 0.81757731004E+01
 0.70785333289E+01 0.61489076127E+01 0.53946217331E+01 0.48103383739E+01 0.43853022092E+01
 0.41087050587E+01 0.39724957989E+01 0.39724835396E+01 0.41086634501E+01 0.43852352166E+01
 0.48102802885E+01 0.53946145103E+01 0.61489528500E+01 0.70785847241E+01 0.78779093232E+01
 0.92492543388E+01 0.10734129851E+02 0.12258067883E+02 0.13726688474E+02 0.15015149240E+02
 0.15993796148E+02 0.16594437394E+02 0.16795659441E+02 0.16594502538E+02 0.15993886855E+02
 0.15015216815E+02 0.13726708805E+02 0.12258051260E+02 0.10734104053E+02 0.92492398300E+01
 0.78779065343E+01 0.66704164324E+01 0.56522720277E+01 0.48278112223E+01 0.41870125008E+01
 0.37130811037E+01 0.33886793360E+01 0.31998551492E+01 0.31378854948E+01 0.31998430139E+01
 0.33886713238E+01 0.37130928854E+01 0.41870433299E+01 0.48278449146E+01 0.56522924346E+01
 0.66704216636E+01 0.78778932892E+01 0.94121020783E+01 0.11083869759E+02 0.12807116034E+02
 0.14463032672E+02 0.15904818952E+02 0.16970245771E+02 0.17534563106E+02 0.17534565393E+02
 0.16970251035E+02 0.15904826523E+02 0.14463045464E+02 0.12807133077E+02 0.11083882609E+02
 0.94121080291E+01 0.78779065343E+01 0.65349300917E+01 0.54078299561E+01 0.44978614785E+01
 0.37902541248E+01 0.32622011336E+01 0.28898493090E+01 0.26531273150E+01 0.25382027930E+01
 0.25381927433E+01 0.26531199244E+01 0.28898789296E+01 0.32622601330E+01 0.37902952924E+01
 0.44978530346E+01 0.54077890932E+01 0.65348955042E+01 0.81757661341E+01 0.98932298874E+01
 0.11754512346E+02 0.13647420315E+02 0.15416355445E+02 0.16876298362E+02 0.17844444358E+02
 0.18184086385E+02 0.17844402997E+02 0.16876235387E+02 0.15416303446E+02 0.13647404109E+02
 0.11754527709E+02 0.98932496278E+01 0.81757731004E+01 0.66704164324E+01 0.54078299561E+01
 0.43896318258E+01 0.35978136051E+01 0.30040781616E+01 0.25780239053E+01 0.22930866603E+01
 0.21297680735E+01 0.20765741552E+01 0.21297659516E+01 0.22930934140E+01 0.25780372301E+01
 0.30040762454E+01 0.35977827596E+01 0.43895886613E+01 0.54078026978E+01 0.66704097198E+01
 0.87680973111E+01 0.10674365239E+02 0.12702489842E+02 0.14704256656E+02 0.16485786365E+02
 0.17834370085E+02 0.18563623847E+02 0.18563618727E+02 0.17834352417E+02 0.16485757993E+02
 0.14704231703E+02 0.12702480149E+02 0.10674360124E+02 0.87680724940E+01 0.70785333289E+01
 0.56522720277E+01 0.44978614785E+01 0.35978136051E+01 0.29201308064E+01 0.24283775732E+01
 0.20892400970E+01 0.18769558687E+01 0.17748178595E+01 0.17748260779E+01 0.18769725075E+01
 0.20892447229E+01 0.24283519131E+01 0.29200802580E+01 0.35977717297E+01 0.44978620222E+01