   2   2   1   0
  0.1968300E+02  0.3818377E-09  0.3818377E-09  0.3818377E-09  0.5000000E-15
  1.000000000000000E-004
  CAR 
 Si                                      
     17.54070585     -8.20206110  301      5.66124647      1.00000000
     -8.202  0.0000E+00  0.0000E+00
     -8.116  0.0000E+00  0.0000E+00
     -8.030  0.0000E+00  0.0000E+00
     -7.945  0.0000E+00  0.0000E+00
     -7.859 -0.4273E-33 -0.3667E-34
     -7.773 -0.4914E-30 -0.4221E-31
     -7.687 -0.3499E-27 -0.3007E-28
     -7.601 -0.1726E-24 -0.1484E-25
     -7.516 -0.5903E-22 -0.5080E-23
     -7.430 -0.1399E-19 -0.1206E-20
     -7.344 -0.2234E-17 -0.1929E-18
     -7.258 -0.2531E-15 -0.2191E-16
     -7.172 -0.1986E-13 -0.1726E-14
     -7.087 -0.1079E-11 -0.9433E-13
     -7.001 -0.4055E-10 -0.3574E-11
     -6.915 -0.1052E-08 -0.9386E-10
     -6.829 -0.1881E-07 -0.1708E-08
     -6.743 -0.2306E-06 -0.2150E-07
     -6.657 -0.1924E-05 -0.1866E-06
     -6.572 -0.1075E-04 -0.1109E-05
     -6.486 -0.3873E-04 -0.4432E-05
     -6.400 -0.7992E-04 -0.1129E-04
     -6.314 -0.3831E-04 -0.1458E-04
     -6.228  0.2926E-03  0.1053E-04
     -6.143  0.1042E-02  0.9993E-04
     -6.057  0.2050E-02  0.2758E-03
     -5.971  0.3006E-02  0.5337E-03
     -5.885  0.3755E-02  0.8560E-03
     -5.799  0.4341E-02  0.1228E-02
     -5.714  0.4846E-02  0.1644E-02
     -5.628  0.5312E-02  0.2100E-02
     -5.542  0.5754E-02  0.2594E-02
     -5.456  0.6177E-02  0.3124E-02
     -5.370  0.6586E-02  0.3689E-02
     -5.285  0.6984E-02  0.4288E-02
     -5.199  0.7374E-02  0.4921E-02
     -5.113  0.7760E-02  0.5587E-02
     -5.027  0.8144E-02  0.6286E-02
     -4.941  0.8529E-02  0.7018E-02
     -4.856  0.8916E-02  0.7783E-02
     -4.770  0.9310E-02  0.8582E-02
     -4.684  0.9714E-02  0.9415E-02
     -4.598  0.1013E-01  0.1028E-01
     -4.512  0.1057E-01  0.1119E-01
     -4.426  0.1104E-01  0.1214E-01
     -4.341  0.1154E-01  0.1313E-01
     -4.255  0.1209E-01  0.1417E-01
     -4.169  0.1276E-01  0.1526E-01
     -4.083  0.1370E-01  0.1644E-01
     -3.997  0.1501E-01  0.1773E-01
     -3.912  0.1643E-01  0.1914E-01
     -3.826  0.1739E-01  0.2063E-01
     -3.740  0.1753E-01  0.2213E-01
     -3.654  0.1704E-01  0.2359E-01
     -3.568  0.1636E-01  0.2500E-01
     -3.483  0.1570E-01  0.2635E-01
     -3.397  0.1507E-01  0.2764E-01
     -3.311  0.1446E-01  0.2888E-01
     -3.225  0.1385E-01  0.3007E-01
     -3.139  0.1324E-01  0.3120E-01
     -3.054  0.1262E-01  0.3229E-01
     -2.968  0.1198E-01  0.3332E-01
     -2.882  0.1134E-01  0.3429E-01
     -2.796  0.1067E-01  0.3520E-01
     -2.710  0.9992E-02  0.3606E-01
     -2.624  0.9279E-02  0.3686E-01
     -2.539  0.8516E-02  0.3759E-01
     -2.453  0.7722E-02  0.3825E-01
     -2.367  0.6779E-02  0.3883E-01
     -2.281  0.5604E-02  0.3931E-01
     -2.195  0.4201E-02  0.3967E-01
     -2.110  0.2769E-02  0.3991E-01
     -2.024  0.1946E-02  0.4008E-01
     -1.938  0.2134E-02  0.4026E-01
     -1.852  0.3046E-02  0.4052E-01
     -1.766  0.4301E-02  0.4089E-01
     -1.681  0.5547E-02  0.4137E-01
     -1.595  0.6547E-02  0.4193E-01
     -1.509  0.7460E-02  0.4257E-01
     -1.423  0.8455E-02  0.4330E-01
     -1.337  0.1031E-01  0.4418E-01
     -1.252  0.1469E-01  0.4544E-01
     -1.166  0.2142E-01  0.4728E-01
     -1.080  0.2689E-01  0.4959E-01
     -0.994  0.2746E-01  0.5194E-01
     -0.908  0.2365E-01  0.5397E-01
     -0.822  0.1909E-01  0.5561E-01
     -0.737  0.1614E-01  0.5699E-01
     -0.651  0.1453E-01  0.5824E-01
     -0.565  0.1339E-01  0.5939E-01
     -0.479  0.1249E-01  0.6046E-01
     -0.393  0.1173E-01  0.6147E-01
     -0.308  0.1100E-01  0.6241E-01
     -0.222  0.1035E-01  0.6330E-01
     -0.136  0.9821E-02  0.6414E-01
     -0.050  0.9294E-02  0.6494E-01
      0.036  0.8789E-02  0.6570E-01
      0.121  0.8374E-02  0.6641E-01
      0.207  0.7975E-02  0.6710E-01
      0.293  0.7564E-02  0.6775E-01
      0.379  0.7214E-02  0.6837E-01
      0.465  0.6899E-02  0.6896E-01
      0.550  0.6563E-02  0.6952E-01
      0.636  0.6254E-02  0.7006E-01
      0.722  0.5992E-02  0.7057E-01
      0.808  0.5717E-02  0.7106E-01
      0.894  0.5424E-02  0.7153E-01
      0.980  0.5121E-02  0.7197E-01
      1.065  0.4729E-02  0.7237E-01
      1.151  0.4388E-02  0.7275E-01
      1.237  0.4800E-02  0.7316E-01
      1.323  0.6898E-02  0.7375E-01
      1.409  0.1094E-01  0.7469E-01
      1.494  0.1611E-01  0.7608E-01
      1.580  0.2084E-01  0.7786E-01
      1.666  0.2359E-01  0.7989E-01
      1.752  0.2392E-01  0.8194E-01
      1.838  0.2283E-01  0.8390E-01
      1.923  0.2161E-01  0.8575E-01
      2.009  0.2088E-01  0.8755E-01
      2.095  0.2069E-01  0.8932E-01
      2.181  0.2082E-01  0.9111E-01
      2.267  0.2112E-01  0.9292E-01
      2.352  0.2153E-01  0.9477E-01
      2.438  0.2206E-01  0.9666E-01
      2.524  0.2275E-01  0.9861E-01
      2.610  0.2373E-01  0.1006E+00
      2.696  0.2523E-01  0.1028E+00
      2.782  0.2729E-01  0.1052E+00
      2.867  0.2931E-01  0.1077E+00
      2.953  0.3048E-01  0.1103E+00
      3.039  0.3059E-01  0.1129E+00
      3.125  0.3009E-01  0.1155E+00
      3.211  0.2947E-01  0.1180E+00
      3.296  0.2891E-01  0.1205E+00
      3.382  0.2842E-01  0.1229E+00
      3.468  0.2793E-01  0.1253E+00
      3.554  0.2745E-01  0.1277E+00
      3.640  0.2698E-01  0.1300E+00
      3.725  0.2651E-01  0.1323E+00
      3.811  0.2604E-01  0.1345E+00
      3.897  0.2559E-01  0.1367E+00
      3.983  0.2515E-01  0.1389E+00
      4.069  0.2473E-01  0.1410E+00
      4.154  0.2436E-01  0.1431E+00
      4.240  0.2404E-01  0.1451E+00
      4.326  0.2353E-01  0.1472E+00
      4.412  0.2233E-01  0.1491E+00
      4.498  0.2011E-01  0.1508E+00
      4.584  0.1727E-01  0.1523E+00
      4.669  0.1463E-01  0.1535E+00
      4.755  0.1260E-01  0.1546E+00
      4.841  0.1107E-01  0.1556E+00
      4.927  0.9792E-02  0.1564E+00
      5.013  0.8649E-02  0.1572E+00
      5.098  0.7598E-02  0.1578E+00
      5.184  0.6620E-02  0.1584E+00
      5.270  0.5695E-02  0.1589E+00
      5.356  0.4784E-02  0.1593E+00
      5.442  0.3811E-02  0.1596E+00
      5.527  0.2698E-02  0.1598E+00
      5.613  0.1516E-02  0.1600E+00
      5.699  0.5473E-03  0.1600E+00
      5.785  0.2885E-04  0.1600E+00
      5.871 -0.1033E-03  0.1600E+00
      5.956 -0.9602E-04  0.1600E+00
      6.042 -0.1098E-03  0.1600E+00
      6.128 -0.1038E-03  0.1600E+00
      6.214  0.1570E-03  0.1600E+00
      6.300  0.9493E-03  0.1601E+00
      6.386  0.2307E-02  0.1603E+00
      6.471  0.3938E-02  0.1606E+00
      6.557  0.5481E-02  0.1611E+00
      6.643  0.6776E-02  0.1617E+00
      6.729  0.7866E-02  0.1623E+00
      6.815  0.8835E-02  0.1631E+00
      6.900  0.9748E-02  0.1639E+00
      6.986  0.1068E-01  0.1648E+00
      7.072  0.1175E-01  0.1659E+00
      7.158  0.1307E-01  0.1670E+00
      7.244  0.1462E-01  0.1682E+00
      7.329  0.1621E-01  0.1696E+00
      7.415  0.1780E-01  0.1712E+00
      7.501  0.1947E-01  0.1728E+00
      7.587  0.2141E-01  0.1747E+00
      7.673  0.2393E-01  0.1767E+00
      7.758  0.2713E-01  0.1790E+00
      7.844  0.3026E-01  0.1816E+00
      7.930  0.3217E-01  0.1844E+00
      8.016  0.3238E-01  0.1872E+00
      8.102  0.3125E-01  0.1899E+00
      8.188  0.2933E-01  0.1924E+00
      8.273  0.2708E-01  0.1947E+00
      8.359  0.2497E-01  0.1968E+00
      8.445  0.2341E-01  0.1989E+00
      8.531  0.2219E-01  0.2008E+00
      8.617  0.2094E-01  0.2026E+00
      8.702  0.2060E-01  0.2043E+00
      8.788  0.2373E-01  0.2064E+00
      8.874  0.3138E-01  0.2090E+00
      8.960  0.3974E-01  0.2125E+00
      9.046  0.4308E-01  0.2162E+00
      9.131  0.4048E-01  0.2196E+00
      9.217  0.3611E-01  0.2227E+00
      9.303  0.3357E-01  0.2256E+00
      9.389  0.3305E-01  0.2284E+00
      9.475  0.3276E-01  0.2313E+00
      9.560  0.3103E-01  0.2339E+00
      9.646  0.2800E-01  0.2363E+00
      9.732  0.2529E-01  0.2385E+00
      9.818  0.2394E-01  0.2405E+00
      9.904  0.2368E-01  0.2426E+00
      9.989  0.2399E-01  0.2446E+00
     10.075  0.2498E-01  0.2468E+00
     10.161  0.2649E-01  0.2491E+00
     10.247  0.2738E-01  0.2514E+00
     10.333  0.2699E-01  0.2537E+00
     10.419  0.2607E-01  0.2560E+00
     10.504  0.2542E-01  0.2581E+00
     10.590  0.2493E-01  0.2603E+00
     10.676  0.2445E-01  0.2624E+00
     10.762  0.2425E-01  0.2645E+00
     10.848  0.2419E-01  0.2665E+00
     10.933  0.2382E-01  0.2686E+00
     11.019  0.2341E-01  0.2706E+00
     11.105  0.2340E-01  0.2726E+00
     11.191  0.2331E-01  0.2746E+00
     11.277  0.2274E-01  0.2765E+00
     11.362  0.2212E-01  0.2784E+00
     11.448  0.2171E-01  0.2803E+00
     11.534  0.2128E-01  0.2821E+00
     11.620  0.2076E-01  0.2839E+00
     11.706  0.2034E-01  0.2857E+00
     11.791  0.2007E-01  0.2874E+00
     11.877  0.1977E-01  0.2891E+00
     11.963  0.1933E-01  0.2907E+00
     12.049  0.1890E-01  0.2924E+00
     12.135  0.1865E-01  0.2940E+00
     12.221  0.1846E-01  0.2955E+00
     12.306  0.1815E-01  0.2971E+00
     12.392  0.1783E-01  0.2986E+00
     12.478  0.1736E-01  0.3001E+00
     12.564  0.1633E-01  0.3015E+00
     12.650  0.1506E-01  0.3028E+00
     12.735  0.1432E-01  0.3040E+00
     12.821  0.1395E-01  0.3052E+00
     12.907  0.1314E-01  0.3064E+00
     12.993  0.1211E-01  0.3074E+00
     13.079  0.1163E-01  0.3084E+00
     13.164  0.1144E-01  0.3094E+00
     13.250  0.1113E-01  0.3103E+00
     13.336  0.1130E-01  0.3113E+00
     13.422  0.1199E-01  0.3123E+00
     13.508  0.1190E-01  0.3134E+00
     13.593  0.1054E-01  0.3143E+00
     13.679  0.8854E-02  0.3150E+00
     13.765  0.7350E-02  0.3157E+00
     13.851  0.5867E-02  0.3162E+00
     13.937  0.4724E-02  0.3166E+00
     14.023  0.4274E-02  0.3169E+00
     14.108  0.4070E-02  0.3173E+00
     14.194  0.3693E-02  0.3176E+00
     14.280  0.3367E-02  0.3179E+00
     14.366  0.3208E-02  0.3182E+00
     14.452  0.2989E-02  0.3184E+00
     14.537  0.2683E-02  0.3186E+00
     14.623  0.2428E-02  0.3189E+00
     14.709  0.2209E-02  0.3190E+00
     14.795  0.1987E-02  0.3192E+00
     14.881  0.1782E-02  0.3194E+00
     14.966  0.1573E-02  0.3195E+00
     15.052  0.1363E-02  0.3196E+00
     15.138  0.1186E-02  0.3197E+00
     15.224  0.1016E-02  0.3198E+00
     15.310  0.8327E-03  0.3199E+00
     15.395  0.6487E-03  0.3199E+00
     15.481  0.4543E-03  0.3200E+00
     15.567  0.2529E-03  0.3200E+00
     15.653  0.9137E-04  0.3200E+00
     15.739  0.5955E-05  0.3200E+00
     15.825 -0.1542E-04  0.3200E+00
     15.910 -0.1013E-04  0.3200E+00
     15.996 -0.3413E-05  0.3200E+00
     16.082 -0.7162E-06  0.3200E+00
     16.168 -0.9863E-07  0.3200E+00
     16.254 -0.9103E-08  0.3200E+00
     16.339 -0.5693E-09  0.3200E+00
     16.425 -0.2427E-10  0.3200E+00
     16.511 -0.7084E-12  0.3200E+00
     16.597 -0.1419E-13  0.3200E+00
     16.683 -0.1954E-15  0.3200E+00
     16.768 -0.1863E-17  0.3200E+00
     16.854  0.0000E+00  0.3200E+00
     16.940  0.0000E+00  0.3200E+00
     17.026  0.0000E+00  0.3200E+00
     17.112  0.0000E+00  0.3200E+00
     17.197  0.0000E+00  0.3200E+00
     17.283  0.0000E+00  0.3200E+00
     17.369  0.0000E+00  0.3200E+00
     17.455  0.0000E+00  0.3200E+00
     17.541  0.0000E+00  0.3200E+00
     17.54070585     -8.20206110  301      5.66124647      1.00000000
     -8.202  0.0000E+00  0.0000E+00  0.0000E+00
     -8.116  0.0000E+00  0.0000E+00  0.0000E+00
     -8.030  0.0000E+00  0.0000E+00  0.0000E+00
     -7.945  0.0000E+00  0.0000E+00  0.0000E+00
     -7.859 -0.6730E-32 -0.5237E-35 -0.3825E-36
     -7.773 -0.7738E-29 -0.8598E-32 -0.5899E-33
     -7.687 -0.5509E-26 -0.6537E-29 -0.4444E-30
     -7.601 -0.2718E-23 -0.3451E-26 -0.2326E-27
     -7.516 -0.9293E-21 -0.1267E-23 -0.8464E-25
     -7.430 -0.2203E-18 -0.3236E-21 -0.2144E-22
     -7.344 -0.3516E-16 -0.5628E-19 -0.3698E-20
     -7.258 -0.3983E-14 -0.6895E-17 -0.4500E-18
     -7.172 -0.3126E-12 -0.5918E-15 -0.3836E-16
     -7.087 -0.1698E-10 -0.3540E-13 -0.2281E-14
     -7.001 -0.6380E-09 -0.1476E-11 -0.9463E-13
     -6.915 -0.1655E-07 -0.4290E-10 -0.2740E-11
     -6.829 -0.2958E-06 -0.8698E-09 -0.5540E-10
     -6.743 -0.3626E-05 -0.1229E-07 -0.7820E-09
     -6.657 -0.3024E-04 -0.1208E-06 -0.7696E-08
     -6.572 -0.1689E-03 -0.8228E-06 -0.5261E-07
     -6.486 -0.6078E-03 -0.3834E-05 -0.2471E-06
     -6.400 -0.1252E-02 -0.1183E-04 -0.7749E-06
     -6.314 -0.5899E-03 -0.2157E-04 -0.1469E-05
     -6.228  0.4616E-02 -0.8860E-05 -0.8240E-06
     -6.143  0.1637E-01  0.7579E-04  0.4420E-05
     -6.057  0.3212E-01  0.2800E-03  0.1776E-04
     -5.971  0.4697E-01  0.6159E-03  0.4079E-04
     -5.885  0.5850E-01  0.1062E-02  0.7307E-04
     -5.799  0.6740E-01  0.1591E-02  0.1136E-03
     -5.714  0.7498E-01  0.2185E-02  0.1621E-03
     -5.628  0.8193E-01  0.2837E-02  0.2185E-03
     -5.542  0.8847E-01  0.3542E-02  0.2830E-03
     -5.456  0.9469E-01  0.4297E-02  0.3560E-03
     -5.370  0.1007E+00  0.5099E-02  0.4380E-03
     -5.285  0.1064E+00  0.5947E-02  0.5293E-03
     -5.199  0.1121E+00  0.6837E-02  0.6305E-03
     -5.113  0.1177E+00  0.7771E-02  0.7423E-03
     -5.027  0.1232E+00  0.8747E-02  0.8655E-03
     -4.941  0.1287E+00  0.9765E-02  0.1001E-02
     -4.856  0.1343E+00  0.1082E-01  0.1149E-02
     -4.770  0.1400E+00  0.1193E-01  0.1313E-02
     -4.684  0.1458E+00  0.1308E-01  0.1492E-02
     -4.598  0.1519E+00  0.1427E-01  0.1689E-02
     -4.512  0.1583E+00  0.1553E-01  0.1908E-02
     -4.426  0.1651E+00  0.1685E-01  0.2150E-02
     -4.341  0.1724E+00  0.1824E-01  0.2421E-02
     -4.255  0.1807E+00  0.1972E-01  0.2729E-02
     -4.169  0.1908E+00  0.2139E-01  0.3104E-02
     -4.083  0.2053E+00  0.2342E-01  0.3614E-02
     -3.997  0.2256E+00  0.2596E-01  0.4308E-02
     -3.912  0.2478E+00  0.2873E-01  0.5086E-02
     -3.826  0.2626E+00  0.3100E-01  0.5698E-02
     -3.740  0.2644E+00  0.3226E-01  0.5975E-02
     -3.654  0.2564E+00  0.3270E-01  0.5989E-02
     -3.568  0.2453E+00  0.3279E-01  0.5908E-02
     -3.483  0.2345E+00  0.3280E-01  0.5824E-02
     -3.397  0.2245E+00  0.3276E-01  0.5748E-02
     -3.311  0.2147E+00  0.3263E-01  0.5667E-02
     -3.225  0.2049E+00  0.3240E-01  0.5575E-02
     -3.139  0.1952E+00  0.3208E-01  0.5471E-02
     -3.054  0.1854E+00  0.3161E-01  0.5349E-02
     -2.968  0.1755E+00  0.3104E-01  0.5213E-02
     -2.882  0.1655E+00  0.3035E-01  0.5057E-02
     -2.796  0.1551E+00  0.2947E-01  0.4875E-02
     -2.710  0.1446E+00  0.2848E-01  0.4674E-02
     -2.624  0.1337E+00  0.2729E-01  0.4439E-02
     -2.539  0.1221E+00  0.2584E-01  0.4164E-02
     -2.453  0.1101E+00  0.2420E-01  0.3852E-02
     -2.367  0.9608E-01  0.2191E-01  0.3443E-02
     -2.281  0.7892E-01  0.1868E-01  0.2892E-02
     -2.195  0.5877E-01  0.1441E-01  0.2194E-02
     -2.110  0.3840E-01  0.9799E-02  0.1458E-02
     -2.024  0.2654E-01  0.7272E-02  0.1035E-02
     -1.938  0.2862E-01  0.8396E-02  0.1152E-02
     -1.852  0.4066E-01  0.1225E-01  0.1683E-02
     -1.766  0.5726E-01  0.1758E-01  0.2434E-02
     -1.681  0.7363E-01  0.2305E-01  0.3207E-02
     -1.595  0.8670E-01  0.2763E-01  0.3879E-02
     -1.509  0.9882E-01  0.3184E-01  0.4558E-02
     -1.423  0.1114E+00  0.3682E-01  0.5269E-02
     -1.337  0.1302E+00  0.4860E-01  0.6181E-02
     -1.252  0.1700E+00  0.7876E-01  0.7863E-02
     -1.166  0.2287E+00  0.1264E+00  0.1026E-01
     -1.080  0.2744E+00  0.1665E+00  0.1223E-01
     -0.994  0.2761E+00  0.1732E+00  0.1259E-01
     -0.908  0.2383E+00  0.1498E+00  0.1138E-01
     -0.822  0.1939E+00  0.1209E+00  0.9834E-02
     -0.737  0.1649E+00  0.1026E+00  0.8862E-02
     -0.651  0.1485E+00  0.9304E-01  0.8358E-02
     -0.565  0.1362E+00  0.8659E-01  0.7978E-02
     -0.479  0.1265E+00  0.8159E-01  0.7701E-02
     -0.393  0.1183E+00  0.7744E-01  0.7487E-02
     -0.308  0.1103E+00  0.7343E-01  0.7239E-02
     -0.222  0.1031E+00  0.6992E-01  0.7025E-02
     -0.136  0.9728E-01  0.6704E-01  0.6874E-02
     -0.050  0.9144E-01  0.6417E-01  0.6692E-02
      0.036  0.8579E-01  0.6143E-01  0.6506E-02
      0.121  0.8118E-01  0.5919E-01  0.6378E-02
      0.207  0.7676E-01  0.5700E-01  0.6240E-02
      0.293  0.7216E-01  0.5472E-01  0.6071E-02
      0.379  0.6827E-01  0.5279E-01  0.5946E-02
      0.465  0.6480E-01  0.5104E-01  0.5836E-02
      0.550  0.6107E-01  0.4913E-01  0.5687E-02
      0.636  0.5766E-01  0.4737E-01  0.5554E-02
      0.722  0.5480E-01  0.4588E-01  0.5457E-02
      0.808  0.5182E-01  0.4425E-01  0.5331E-02
      0.894  0.4882E-01  0.4240E-01  0.5186E-02
      0.980  0.4630E-01  0.4013E-01  0.5057E-02
      1.065  0.4387E-01  0.3667E-01  0.4882E-02
      1.151  0.4123E-01  0.3391E-01  0.4692E-02
      1.237  0.3904E-01  0.4038E-01  0.4803E-02
      1.323  0.3766E-01  0.6776E-01  0.5625E-02
      1.409  0.3707E-01  0.1196E+00  0.7336E-02
      1.494  0.3759E-01  0.1856E+00  0.9736E-02
      1.580  0.3914E-01  0.2460E+00  0.1221E-01
      1.666  0.4060E-01  0.2817E+00  0.1397E-01
      1.752  0.4127E-01  0.2871E+00  0.1467E-01
      1.838  0.4138E-01  0.2745E+00  0.1469E-01
      1.923  0.4118E-01  0.2604E+00  0.1461E-01
      2.009  0.4060E-01  0.2529E+00  0.1470E-01
      2.095  0.3993E-01  0.2523E+00  0.1503E-01
      2.181  0.3932E-01  0.2561E+00  0.1554E-01
      2.267  0.3853E-01  0.2623E+00  0.1612E-01
      2.352  0.3760E-01  0.2703E+00  0.1676E-01
      2.438  0.3670E-01  0.2801E+00  0.1748E-01
      2.524  0.3579E-01  0.2925E+00  0.1829E-01
      2.610  0.3469E-01  0.3095E+00  0.1920E-01
      2.696  0.3357E-01  0.3351E+00  0.2035E-01
      2.782  0.3246E-01  0.3695E+00  0.2177E-01
      2.867  0.3120E-01  0.4038E+00  0.2327E-01
      2.953  0.2986E-01  0.4252E+00  0.2456E-01
      3.039  0.2856E-01  0.4300E+00  0.2553E-01
      3.125  0.2728E-01  0.4254E+00  0.2630E-01
      3.211  0.2593E-01  0.4190E+00  0.2698E-01
      3.296  0.2463E-01  0.4136E+00  0.2765E-01
      3.382  0.2339E-01  0.4090E+00  0.2833E-01
      3.468  0.2211E-01  0.4046E+00  0.2896E-01
      3.554  0.2083E-01  0.4002E+00  0.2957E-01
      3.640  0.1961E-01  0.3960E+00  0.3016E-01
      3.725  0.1838E-01  0.3918E+00  0.3073E-01
      3.811  0.1714E-01  0.3877E+00  0.3126E-01
      3.897  0.1593E-01  0.3838E+00  0.3179E-01
      3.983  0.1474E-01  0.3800E+00  0.3230E-01
      4.069  0.1354E-01  0.3766E+00  0.3281E-01
      4.154  0.1235E-01  0.3741E+00  0.3337E-01
      4.240  0.1118E-01  0.3723E+00  0.3397E-01
      4.326  0.1000E-01  0.3674E+00  0.3431E-01
      4.412  0.8848E-02  0.3508E+00  0.3369E-01
      4.498  0.7764E-02  0.3169E+00  0.3163E-01
      4.584  0.6763E-02  0.2723E+00  0.2857E-01
      4.669  0.5864E-02  0.2306E+00  0.2558E-01
      4.755  0.5058E-02  0.1988E+00  0.2322E-01
      4.841  0.4319E-02  0.1749E+00  0.2138E-01
      4.927  0.3635E-02  0.1551E+00  0.1978E-01
      5.013  0.3004E-02  0.1373E+00  0.1825E-01
      5.098  0.2422E-02  0.1210E+00  0.1675E-01
      5.184  0.1889E-02  0.1057E+00  0.1525E-01
      5.270  0.1406E-02  0.9124E-01  0.1373E-01
      5.356  0.9742E-03  0.7688E-01  0.1207E-01
      5.442  0.6013E-03  0.6141E-01  0.1004E-01
      5.527  0.3055E-03  0.4357E-01  0.7398E-02
      5.613  0.1073E-03  0.2454E-01  0.4311E-02
      5.699  0.8841E-05  0.8881E-02  0.1625E-02
      5.785 -0.2130E-04  0.4993E-03  0.1251E-03
      5.871 -0.4003E-04 -0.1553E-02 -0.2908E-03
      5.956 -0.1153E-03 -0.1095E-02 -0.3160E-03
      6.042 -0.2730E-03 -0.6386E-03 -0.4247E-03
      6.128 -0.2907E-03 -0.4308E-03 -0.4254E-03
      6.214  0.5128E-03  0.5074E-03  0.6240E-03
      6.300  0.2926E-02  0.3278E-02  0.3858E-02
      6.386  0.6987E-02  0.8088E-02  0.9444E-02
      6.471  0.1175E-01  0.1403E-01  0.1620E-01
      6.557  0.1612E-01  0.1995E-01  0.2262E-01
      6.643  0.1961E-01  0.2537E-01  0.2801E-01
      6.729  0.2237E-01  0.3039E-01  0.3255E-01
      6.815  0.2463E-01  0.3526E-01  0.3660E-01
      6.900  0.2659E-01  0.4015E-01  0.4043E-01
      6.986  0.2886E-01  0.4526E-01  0.4433E-01
      7.072  0.3263E-01  0.5076E-01  0.4864E-01
      7.158  0.3896E-01  0.5703E-01  0.5374E-01
      7.244  0.4728E-01  0.6429E-01  0.5958E-01
      7.329  0.5579E-01  0.7224E-01  0.6558E-01
      7.415  0.6358E-01  0.8090E-01  0.7158E-01
      7.501  0.7117E-01  0.9068E-01  0.7796E-01
      7.587  0.7990E-01  0.1023E+00  0.8532E-01
      7.673  0.9169E-01  0.1173E+00  0.9491E-01
      7.758  0.1069E+00  0.1365E+00  0.1070E+00
      7.844  0.1213E+00  0.1565E+00  0.1188E+00
      7.930  0.1287E+00  0.1719E+00  0.1258E+00
      8.016  0.1265E+00  0.1795E+00  0.1264E+00
      8.102  0.1173E+00  0.1795E+00  0.1222E+00
      8.188  0.1048E+00  0.1736E+00  0.1154E+00
      8.273  0.9189E-01  0.1635E+00  0.1076E+00
      8.359  0.8092E-01  0.1532E+00  0.1002E+00
      8.445  0.7302E-01  0.1464E+00  0.9440E-01
      8.531  0.6709E-01  0.1422E+00  0.8945E-01
      8.617  0.6082E-01  0.1379E+00  0.8430E-01
      8.702  0.5421E-01  0.1393E+00  0.8399E-01
      8.788  0.5085E-01  0.1640E+00  0.1006E+00
      8.874  0.5353E-01  0.2200E+00  0.1386E+00
      8.960  0.5963E-01  0.2815E+00  0.1796E+00
      9.046  0.6363E-01  0.3074E+00  0.1964E+00
      9.131  0.6365E-01  0.2897E+00  0.1850E+00
      9.217  0.6224E-01  0.2588E+00  0.1650E+00
      9.303  0.6242E-01  0.2413E+00  0.1533E+00
      9.389  0.6476E-01  0.2382E+00  0.1508E+00
      9.475  0.6595E-01  0.2365E+00  0.1497E+00
      9.560  0.6134E-01  0.2251E+00  0.1431E+00
      9.646  0.5145E-01  0.2051E+00  0.1314E+00
      9.732  0.4209E-01  0.1871E+00  0.1213E+00
      9.818  0.3724E-01  0.1777E+00  0.1170E+00
      9.904  0.3619E-01  0.1750E+00  0.1171E+00
      9.989  0.3673E-01  0.1763E+00  0.1197E+00
     10.075  0.3806E-01  0.1823E+00  0.1259E+00
     10.161  0.4010E-01  0.1920E+00  0.1348E+00
     10.247  0.4214E-01  0.1985E+00  0.1395E+00
     10.333  0.4353E-01  0.1969E+00  0.1366E+00
     10.419  0.4434E-01  0.1912E+00  0.1310E+00
     10.504  0.4478E-01  0.1872E+00  0.1273E+00
     10.590  0.4466E-01  0.1843E+00  0.1247E+00
     10.676  0.4398E-01  0.1812E+00  0.1227E+00
     10.762  0.4341E-01  0.1799E+00  0.1223E+00
     10.848  0.4298E-01  0.1798E+00  0.1225E+00
     10.933  0.4214E-01  0.1775E+00  0.1210E+00
     11.019  0.4127E-01  0.1747E+00  0.1193E+00
     11.105  0.4083E-01  0.1750E+00  0.1197E+00
     11.191  0.4010E-01  0.1750E+00  0.1195E+00
     11.277  0.3851E-01  0.1714E+00  0.1169E+00
     11.362  0.3649E-01  0.1674E+00  0.1144E+00
     11.448  0.3460E-01  0.1653E+00  0.1132E+00
     11.534  0.3287E-01  0.1630E+00  0.1117E+00
     11.620  0.3119E-01  0.1598E+00  0.1096E+00
     11.706  0.2969E-01  0.1574E+00  0.1080E+00
     11.791  0.2843E-01  0.1560E+00  0.1072E+00
     11.877  0.2715E-01  0.1543E+00  0.1063E+00
     11.963  0.2577E-01  0.1517E+00  0.1044E+00
     12.049  0.2463E-01  0.1489E+00  0.1025E+00
     12.135  0.2382E-01  0.1471E+00  0.1018E+00
     12.221  0.2292E-01  0.1457E+00  0.1016E+00
     12.306  0.2186E-01  0.1435E+00  0.1005E+00
     12.392  0.2104E-01  0.1416E+00  0.9879E-01
     12.478  0.2007E-01  0.1389E+00  0.9619E-01
     12.564  0.1829E-01  0.1318E+00  0.9064E-01
     12.650  0.1624E-01  0.1222E+00  0.8366E-01
     12.735  0.1493E-01  0.1170E+00  0.7962E-01
     12.821  0.1401E-01  0.1150E+00  0.7761E-01
     12.907  0.1271E-01  0.1091E+00  0.7294E-01
     12.993  0.1141E-01  0.1012E+00  0.6684E-01
     13.079  0.1062E-01  0.9849E-01  0.6383E-01
     13.164  0.9914E-02  0.9787E-01  0.6215E-01
     13.250  0.8964E-02  0.9429E-01  0.5816E-01
     13.336  0.8241E-02  0.9309E-01  0.5449E-01
     13.422  0.7773E-02  0.9690E-01  0.5344E-01
     13.508  0.6960E-02  0.9661E-01  0.5088E-01
     13.593  0.5874E-02  0.8816E-01  0.4462E-01
     13.679  0.5096E-02  0.7822E-01  0.3829E-01
     13.765  0.4545E-02  0.6911E-01  0.3347E-01
     13.851  0.3864E-02  0.5805E-01  0.2840E-01
     13.937  0.3280E-02  0.4842E-01  0.2403E-01
     14.023  0.3033E-02  0.4457E-01  0.2220E-01
     14.108  0.2801E-02  0.4286E-01  0.2104E-01
     14.194  0.2380E-02  0.3941E-01  0.1881E-01
     14.280  0.2048E-02  0.3647E-01  0.1687E-01
     14.366  0.1896E-02  0.3514E-01  0.1588E-01
     14.452  0.1697E-02  0.3314E-01  0.1461E-01
     14.537  0.1415E-02  0.3023E-01  0.1293E-01
     14.623  0.1196E-02  0.2779E-01  0.1155E-01
     14.709  0.1041E-02  0.2568E-01  0.1034E-01
     14.795  0.8738E-03  0.2354E-01  0.9086E-02
     14.881  0.7105E-03  0.2151E-01  0.7974E-02
     14.966  0.5754E-03  0.1933E-01  0.6887E-02
     15.052  0.4538E-03  0.1713E-01  0.5785E-02
     15.138  0.3441E-03  0.1528E-01  0.4851E-02
     15.224  0.2522E-03  0.1339E-01  0.4008E-02
     15.310  0.1721E-03  0.1126E-01  0.3139E-02
     15.395  0.1032E-03  0.9028E-02  0.2314E-02
     15.481  0.5136E-04  0.6493E-02  0.1532E-02
     15.567  0.1823E-04  0.3705E-02  0.8042E-03
     15.653  0.1769E-05  0.1383E-02  0.2670E-03
     15.739 -0.2830E-05  0.1152E-03  0.4289E-05
     15.825 -0.2164E-05 -0.2178E-03 -0.5311E-04
     15.910 -0.8484E-06 -0.1477E-03 -0.3254E-04
     15.996 -0.2130E-06 -0.5028E-04 -0.1072E-04
     16.082 -0.3614E-07 -0.1060E-04 -0.2228E-05
     16.168 -0.4228E-08 -0.1464E-05 -0.3055E-06
     16.254 -0.3436E-09 -0.1353E-06 -0.2815E-07
     16.339 -0.1946E-10 -0.8467E-08 -0.1759E-08
     16.425 -0.7682E-12 -0.3612E-09 -0.7499E-10
     16.511 -0.2114E-13 -0.1054E-10 -0.2189E-11
     16.597 -0.4053E-15 -0.2113E-12 -0.4385E-13
     16.683 -0.5405E-17 -0.2909E-14 -0.6038E-15
     16.768 -0.4991E-19 -0.2775E-16 -0.5758E-17
     16.854  0.0000E+00  0.0000E+00  0.0000E+00
     16.940  0.0000E+00  0.0000E+00  0.0000E+00
     17.026  0.0000E+00  0.0000E+00  0.0000E+00
     17.112  0.0000E+00  0.0000E+00  0.0000E+00
     17.197  0.0000E+00  0.0000E+00  0.0000E+00
     17.283  0.0000E+00  0.0000E+00  0.0000E+00
     17.369  0.0000E+00  0.0000E+00  0.0000E+00
     17.455  0.0000E+00  0.0000E+00  0.0000E+00
     17.541  0.0000E+00  0.0000E+00  0.0000E+00
     17.54070585     -8.20206110  301      5.66124647      1.00000000
     -8.202  0.0000E+00  0.0000E+00  0.0000E+00
     -8.116  0.0000E+00  0.0000E+00  0.0000E+00
     -8.030  0.0000E+00  0.0000E+00  0.0000E+00
     -7.945  0.0000E+00  0.0000E+00  0.0000E+00
     -7.859 -0.6730E-32 -0.5237E-35 -0.3825E-36
     -7.773 -0.7738E-29 -0.8598E-32 -0.5899E-33
     -7.687 -0.5509E-26 -0.6537E-29 -0.4444E-30
     -7.601 -0.2718E-23 -0.3451E-26 -0.2326E-27
     -7.516 -0.9293E-21 -0.1267E-23 -0.8464E-25
     -7.430 -0.2203E-18 -0.3236E-21 -0.2144E-22
     -7.344 -0.3516E-16 -0.5628E-19 -0.3698E-20
     -7.258 -0.3983E-14 -0.6895E-17 -0.4500E-18
     -7.172 -0.3126E-12 -0.5918E-15 -0.3836E-16
     -7.087 -0.1698E-10 -0.3540E-13 -0.2281E-14
     -7.001 -0.6380E-09 -0.1476E-11 -0.9463E-13
     -6.915 -0.1655E-07 -0.4290E-10 -0.2740E-11
     -6.829 -0.2958E-06 -0.8698E-09 -0.5540E-10
     -6.743 -0.3626E-05 -0.1229E-07 -0.7820E-09
     -6.657 -0.3024E-04 -0.1208E-06 -0.7696E-08
     -6.572 -0.1689E-03 -0.8228E-06 -0.5261E-07
     -6.486 -0.6078E-03 -0.3834E-05 -0.2471E-06
     -6.400 -0.1252E-02 -0.1183E-04 -0.7749E-06
     -6.314 -0.5899E-03 -0.2157E-04 -0.1469E-05
     -6.228  0.4616E-02 -0.8860E-05 -0.8240E-06
     -6.143  0.1637E-01  0.7579E-04  0.4420E-05
     -6.057  0.3212E-01  0.2800E-03  0.1776E-04
     -5.971  0.4697E-01  0.6159E-03  0.4079E-04
     -5.885  0.5850E-01  0.1062E-02  0.7307E-04
     -5.799  0.6740E-01  0.1591E-02  0.1136E-03
     -5.714  0.7498E-01  0.2185E-02  0.1621E-03
     -5.628  0.8193E-01  0.2837E-02  0.2185E-03
     -5.542  0.8847E-01  0.3542E-02  0.2830E-03
     -5.456  0.9469E-01  0.4297E-02  0.3560E-03
     -5.370  0.1007E+00  0.5099E-02  0.4380E-03
     -5.285  0.1064E+00  0.5947E-02  0.5293E-03
     -5.199  0.1121E+00  0.6837E-02  0.6305E-03
     -5.113  0.1177E+00  0.7771E-02  0.7423E-03
     -5.027  0.1232E+00  0.8747E-02  0.8655E-03
     -4.941  0.1287E+00  0.9765E-02  0.1001E-02
     -4.856  0.1343E+00  0.1082E-01  0.1149E-02
     -4.770  0.1400E+00  0.1193E-01  0.1313E-02
     -4.684  0.1458E+00  0.1308E-01  0.1492E-02
     -4.598  0.1519E+00  0.1427E-01  0.1689E-02
     -4.512  0.1583E+00  0.1553E-01  0.1908E-02
     -4.426  0.1651E+00  0.1685E-01  0.2150E-02
     -4.341  0.1724E+00  0.1824E-01  0.2421E-02
     -4.255  0.1807E+00  0.1972E-01  0.2729E-02
     -4.169  0.1908E+00  0.2139E-01  0.3104E-02
     -4.083  0.2053E+00  0.2342E-01  0.3614E-02
     -3.997  0.2256E+00  0.2596E-01  0.4308E-02
     -3.912  0.2478E+00  0.2873E-01  0.5086E-02
     -3.826  0.2626E+00  0.3100E-01  0.5698E-02
     -3.740  0.2644E+00  0.3226E-01  0.5975E-02
     -3.654  0.2564E+00  0.3270E-01  0.5989E-02
     -3.568  0.2453E+00  0.3279E-01  0.5908E-02
     -3.483  0.2345E+00  0.3280E-01  0.5824E-02
     -3.397  0.2245E+00  0.3276E-01  0.5748E-02
     -3.311  0.2147E+00  0.3263E-01  0.5667E-02
     -3.225  0.2049E+00  0.3240E-01  0.5575E-02
     -3.139  0.1952E+00  0.3208E-01  0.5471E-02
     -3.054  0.1854E+00  0.3161E-01  0.5349E-02
     -2.968  0.1755E+00  0.3104E-01  0.5213E-02
     -2.882  0.1655E+00  0.3035E-01  0.5057E-02
     -2.796  0.1551E+00  0.2947E-01  0.4875E-02
     -2.710  0.1446E+00  0.2848E-01  0.4674E-02
     -2.624  0.1337E+00  0.2729E-01  0.4439E-02
     -2.539  0.1221E+00  0.2584E-01  0.4164E-02
     -2.453  0.1101E+00  0.2420E-01  0.3852E-02
     -2.367  0.9608E-01  0.2191E-01  0.3443E-02
     -2.281  0.7892E-01  0.1868E-01  0.2892E-02
     -2.195  0.5877E-01  0.1441E-01  0.2194E-02
     -2.110  0.3840E-01  0.9799E-02  0.1458E-02
     -2.024  0.2654E-01  0.7272E-02  0.1035E-02
     -1.938  0.2862E-01  0.8396E-02  0.1152E-02
     -1.852  0.4066E-01  0.1225E-01  0.1683E-02
     -1.766  0.5726E-01  0.1758E-01  0.2434E-02
     -1.681  0.7363E-01  0.2305E-01  0.3207E-02
     -1.595  0.8670E-01  0.2763E-01  0.3879E-02
     -1.509  0.9882E-01  0.3184E-01  0.4558E-02
     -1.423  0.1114E+00  0.3682E-01  0.5269E-02
     -1.337  0.1302E+00  0.4860E-01  0.6181E-02
     -1.252  0.1700E+00  0.7876E-01  0.7863E-02
     -1.166  0.2287E+00  0.1264E+00  0.1026E-01
     -1.080  0.2744E+00  0.1665E+00  0.1223E-01
     -0.994  0.2761E+00  0.1732E+00  0.1259E-01
     -0.908  0.2383E+00  0.1498E+00  0.1138E-01
     -0.822  0.1939E+00  0.1209E+00  0.9834E-02
     -0.737  0.1649E+00  0.1026E+00  0.8862E-02
     -0.651  0.1485E+00  0.9304E-01  0.8358E-02
     -0.565  0.1362E+00  0.8659E-01  0.7978E-02