    2    2   50    1
  0.1968300E+02  0.3818377E-09  0.3818377E-09  0.3818377E-09  0.5000000E-15
  1.000000000000000E-004
  CAR 
 Si                                      
      8   2480      8
 
  0.1666667E-01  0.1666667E-01  0.1666667E-01  0.7407407E-04
    1       -6.202061   1.000000
    2        5.578155   0.820200
    3        5.616159   0.685511
    4        5.616159   0.685511
    5        8.209279  -0.000000
    6        8.209279  -0.000000
    7        8.211502  -0.000000
    8        8.790411  -0.000000
 
  0.5000000E-01  0.1666667E-01  0.1666667E-01  0.2222222E-03
    1       -6.182981   1.000000
    2        5.378444   1.031249
    3        5.540382   0.921946
    4        5.607680   0.717897
    5        8.228846  -0.000000
    6        8.241831  -0.000000
    7        8.287953  -0.000000
    8        8.940116  -0.000000
 
  0.8333333E-01  0.1666667E-01  0.1666667E-01  0.2222222E-03
    1       -6.135245   1.000000
    2        4.934252   1.000002
    3        5.443581   1.032032
    4        5.552909   0.892128
    5        8.242847  -0.000000
    6        8.315623  -0.000000
    7        8.405893  -0.000000
    8        9.321315  -0.000000
 
  0.1166667E+00  0.1666667E-01  0.1666667E-01  0.2222222E-03
    1       -6.059172   1.000000
    2        4.376417   1.000000
    3        5.324486   1.019259
    4        5.460968   1.025271
    5        8.167301  -0.000000
    6        8.453703  -0.000000
    7        8.573672  -0.000000
    8        9.841393  -0.000000
 
  0.1500000E+00  0.1666667E-01  0.1666667E-01  0.2222222E-03
    1       -5.955118   1.000000
    2        3.771889   1.000000
    3        5.194705   1.002366
    4        5.347604   1.024537
    5        8.054597  -0.000000
    6        8.620558  -0.000000
    7        8.759950  -0.000000
    8       10.416145  -0.000000
 
  0.1833333E+00  0.1666667E-01  0.1666667E-01  0.2222222E-03
    1       -5.823756   1.000000
    2        3.151213   1.000000
    3        5.063047   1.000098
    4        5.223242   1.004127
    5        7.925859  -0.000000
    6        8.790843  -0.000000
    7        8.938517  -0.000000
    8       11.005834  -0.000000
 
  0.2166667E+00  0.1666667E-01  0.1666667E-01  0.2222222E-03
    1       -5.665880   1.000000
    2        2.534183   1.000000
    3        4.935494   1.000002
    4        5.095886   1.000238
    5        7.794630  -0.000000
    6        8.939770  -0.000000
    7        9.086107  -0.000000
    8       11.589277   0.000000
 
  0.2500000E+00  0.1666667E-01  0.1666667E-01  0.2222222E-03
    1       -5.482960   1.000000
    2        1.929073   1.000000
    3        4.817808   1.000000
    4        4.973308   1.000006
    5        7.665469  -0.000000
    6        9.048347  -0.000000
    7        9.184811  -0.000000
    8       12.141763   0.000000
 
  0.2833333E+00  0.1666667E-01  0.1666667E-01  0.2222222E-03
    1       -5.276971   1.000000
    2        1.344319   1.000000
    3        4.712560   1.000000
    4        4.858786   1.000000
    5        7.544985  -0.000000
    6        9.108872  -0.000000
    7        9.230386  -0.000000
    8       12.635909   0.000000
 
  0.3166667E+00  0.1666667E-01  0.1666667E-01  0.2222222E-03
    1       -5.050953   1.000000
    2        0.786409   1.000000
    3        4.621460   1.000000
    4        4.755529   1.000000
    5        7.436885  -0.000000
    6        9.126092  -0.000000
    7        9.229490  -0.000000
    8       13.051427   0.000000
 
  0.3500000E+00  0.1666667E-01  0.1666667E-01  0.2222222E-03
    1       -4.809801   1.000000
    2        0.262681   1.000000
    3        4.545793   1.000000
    4        4.664964   1.000000
    5        7.343478  -0.000000
    6        9.111815  -0.000000
    7        9.195840  -0.000000
    8       13.346039   0.000000
 
  0.3833333E+00  0.1666667E-01  0.1666667E-01  0.2222222E-03
    1       -4.561633   1.000000
    2       -0.217822   1.000000
    3        4.485932   1.000000
    4        4.588072   1.000000
    5        7.265890  -0.000000
    6        9.080388  -0.000000
    7        9.145395  -0.000000
    8       13.443451   0.000000
 
  0.4166667E+00  0.1666667E-01  0.1666667E-01  0.2222222E-03
    1       -4.319990   1.000000
    2       -0.638873   1.000000
    3        4.442708   1.000000
    4        4.525848   1.000000
    5        7.205839  -0.000000
    6        9.048536  -0.000000
    7        9.093334  -0.000000
    8       13.423595   0.000000
 
  0.4500000E+00  0.1666667E-01  0.1666667E-01  0.2222222E-03
    1       -4.107858   1.000000
    2       -0.976486   1.000000
    3        4.415853   1.000000
    4        4.479359   1.000000
    5        7.163525  -0.000000
    6        9.024908  -0.000000
    7        9.046430  -0.000000
    8       13.381528   0.000000
 
  0.4833333E+00  0.1666667E-01  0.1666667E-01  0.2222222E-03
    1       -3.961834   1.000000
    2       -1.194491   1.000000
    3        4.404954   1.000000
    4        4.447722   1.000000
    5        7.137766  -0.000000
    6        9.013477  -0.000000
    7        9.013525  -0.000000
    8       13.350597   0.000000
 
 -0.4833333E+00  0.1666667E-01  0.1666667E-01  0.2222222E-03
    1       -3.921414   1.000000
    2       -1.252941   1.000000
    3        4.410203   1.000000
    4        4.431762   1.000000
    5        7.131714  -0.000000
    6        8.996903  -0.000000
    7        9.018580  -0.000000
    8       13.342094   0.000000
 
 -0.4500000E+00  0.1666667E-01  0.1666667E-01  0.2222222E-03
    1       -4.000504   1.000000
    2       -1.137745   1.000000
    3        4.431417   1.000000
    4        4.431758   1.000000
    5        7.145588  -0.000000
    6        8.997669  -0.000000
    7        9.040870  -0.000000
    8       13.358216   0.000000
 
 -0.4166667E+00  0.1666667E-01  0.1666667E-01  0.2222222E-03
    1       -4.173335   1.000000
    2       -0.875224   1.000000
    3        4.447792   1.000000
    4        4.467822   1.000000
    5        7.175844  -0.000000
    6        9.013790  -0.000000
    7        9.078260  -0.000000
    8       13.392873   0.000000
 
 -0.3833333E+00  0.1666667E-01  0.1666667E-01  0.2222222E-03
    1       -4.398605   1.000000
    2       -0.506433   1.000000
    3        4.479933   1.000000
    4        4.519949   1.000000
    5        7.224489  -0.000000
    6        9.042250  -0.000000
    7        9.128773  -0.000000
    8       13.427908   0.000000
 
 -0.3500000E+00  0.1666667E-01  0.1666667E-01  0.2222222E-03
    1       -4.644364   1.000000
    2       -0.062886   1.000000
    3        4.528324   1.000000
    4        4.587380   1.000000
    5        7.290508  -0.000000
    6        9.075203  -0.000000
    7        9.180533  -0.000000
    8       13.395336   0.000000
 
 -0.3166667E+00  0.1666667E-01  0.1666667E-01  0.2222222E-03
    1       -4.891451   1.000000
    2        0.432905   1.000000
    3        4.593000   1.000000
    4        4.669181   1.000000
    5        7.373460  -0.000000
    6        9.103135  -0.000000
    7        9.226053  -0.000000
    8       13.158455   0.000000
 
 -0.2833333E+00  0.1666667E-01  0.1666667E-01  0.2222222E-03
    1       -5.128253   1.000000
    2        0.968938   1.000000
    3        4.673317   1.000000
    4        4.764504   1.000000
    5        7.471996  -0.000000
    6        9.109132  -0.000000
    7        9.249699  -0.000000
    8       12.805102   0.000000
 
 -0.2500000E+00  0.1666667E-01  0.1666667E-01  0.2222222E-03
    1       -5.348029   1.000000
    2        1.536603   1.000000
    3        4.768841   1.000000
    4        4.872313   1.000000
    5        7.584559  -0.000000
    6        9.078697  -0.000000
    7        9.237840  -0.000000
    8       12.420576   0.000000
 
 -0.2166667E+00  0.1666667E-01  0.1666667E-01  0.2222222E-03
    1       -5.546599   1.000000
    2        2.128918   1.000000
    3        4.877615   1.000000
    4        4.990539   1.000011
    5        7.708499  -0.000000
    6        9.002073  -0.000000
    7        9.174331  -0.000000
    8       11.946180   0.000000
 
 -0.1833333E+00  0.1666667E-01  0.1666667E-01  0.2222222E-03
    1       -5.721397   1.000000
    2        2.738884   1.000000
    3        4.997982   1.000014
    4        5.116145   1.000399
    5        7.837797  -0.000000
    6        8.877806  -0.000000
    7        9.059461  -0.000000
    8       11.390912   0.000000
 
 -0.1500000E+00  0.1666667E-01  0.1666667E-01  0.2222222E-03
    1       -5.870527   1.000000
    2        3.358706   1.000000
    3        5.126675   1.000517
    4        5.243938   1.005985
    5        7.969289  -0.000000
    6        8.718467  -0.000000
    7        8.900775  -0.000000
    8       10.806239  -0.000000
 
 -0.1166667E+00  0.1666667E-01  0.1666667E-01  0.2222222E-03
    1       -5.992875   1.000000
    2        3.976642   1.000000
    3        5.257346   1.007503
    4        5.366701   1.028849
    5        8.093628  -0.000000
    6        8.546822  -0.000000
    7        8.718494  -0.000000
    8       10.219087  -0.000000
 
 -0.8333333E-01  0.1666667E-01  0.1666667E-01  0.2222222E-03
    1       -6.087648   1.000000
    2        4.570951   1.000000
    3        5.383007   1.032089
    4        5.475598   1.015989
    5        8.193050  -0.000000
    6        8.391655  -0.000000
    7        8.535620  -0.000000
    8        9.655719  -0.000000
 
 -0.5000000E-01  0.1666667E-01  0.1666667E-01  0.2222222E-03
    1       -6.154344   1.000000
    2        5.102710   1.000284
    3        5.493147   0.999694
    4        5.556230   0.883562
    5        8.221711  -0.000000
    6        8.300373  -0.000000
    7        8.375846  -0.000000
    8        9.168931  -0.000000
 
 -0.1666667E-01  0.1666667E-01  0.1666667E-01  0.2222222E-03
    1       -6.192520   1.000000
    2        5.491138   1.001872
    3        5.576020   0.826875
    4        5.596292   0.759436
    5        8.186065  -0.000000
    6        8.257125  -0.000000
    7        8.261173  -0.000000
    8        8.860275  -0.000000
 
  0.5000000E-01  0.5000000E-01  0.1666667E-01  0.2222222E-03
    1       -6.173434   1.000000
    2        5.356144   1.026501
    3        5.498998   0.992868
    4        5.530497   0.942678
    5        8.139642  -0.000000
    6        8.347949  -0.000000
    7        8.360313  -0.000000
    8        8.988951  -0.000000
 
  0.8333333E-01  0.5000000E-01  0.1666667E-01  0.4444444E-03
    1       -6.135223   1.000000
    2        5.040774   1.000052
    3        5.360777   1.027547
    4        5.500931   0.990451
    5        8.123964  -0.000000
    6        8.434619  -0.000000
    7        8.488778  -0.000000
    8        9.265238  -0.000000
 
  0.1166667E+00  0.5000000E-01  0.1666667E-01  0.4444444E-03
    1       -6.068552   1.000000
    2        4.534759   1.000000
    3        5.224063   1.004190
    4        5.447086   1.031000
    5        8.164456  -0.000000
    6        8.430167  -0.000000
    7        8.671248  -0.000000
    8        9.726405  -0.000000
 
  0.1500000E+00  0.5000000E-01  0.1666667E-01  0.4444444E-03
    1       -5.973796   1.000000
    2        3.955066   1.000000
    3        5.084218   1.000175
    4        5.356976   1.026690
    5        8.169587  -0.000000
    6        8.464516  -0.000000
    7        8.870463  -0.000000
    8       10.258956  -0.000000
 
  0.1833333E+00  0.5000000E-01  0.1666667E-01  0.4444444E-03
    1       -5.851491   1.000000
    2        3.346606   1.000000
    3        4.946317   1.000003
    4        5.242767   1.005864
    5        8.088080  -0.000000
    6        8.590685  -0.000000
    7        9.062367  -0.000000
    8       10.794579  -0.000000
 
  0.2166667E+00  0.5000000E-01  0.1666667E-01  0.4444444E-03
    1       -5.702400   1.000000
    2        2.733239   1.000000
    3        4.815196   1.000000
    4        5.115878   1.000396
    5        7.973339  -0.000000
    6        8.741869  -0.000000
    7        9.224260  -0.000000
    8       11.282369   0.000000
 
  0.2500000E+00  0.5000000E-01  0.1666667E-01  0.4444444E-03
    1       -5.527685   1.000000
    2        2.127804   1.000000
    3        4.695965   1.000000
    4        4.987117   1.000010
    5        7.851751  -0.000000
    6        8.873474  -0.000000
    7        9.337281  -0.000000
    8       11.673825   0.000000
 
  0.2833333E+00  0.5000000E-01  0.1666667E-01  0.4444444E-03
    1       -5.329172   1.000000
    2        1.538835   1.000000
    3        4.590481   1.000000
    4        4.861802   1.000000
    5        7.732919  -0.000000
    6        8.963370  -0.000000
    7        9.393013  -0.000000
    8       11.989654   0.000000
 
  0.3166667E+00  0.5000000E-01  0.1666667E-01  0.4444444E-03
    1       -5.109444   1.000000
    2        0.973588   1.000000
    3        4.500180   1.000000
    4        4.745156   1.000000
    5        7.623676  -0.000000
    6        9.006378  -0.000000
    7        9.395199  -0.000000
    8       12.306620   0.000000
 
  0.3500000E+00  0.5000000E-01  0.1666667E-01  0.4444444E-03
    1       -4.872683   1.000000
    2        0.439310   1.000000
    3        4.425529   1.000000
    4        4.640112   1.000000
    5        7.527364  -0.000000
    6        9.014169  -0.000000
    7        9.358907  -0.000000
    8       12.665011   0.000000
 
  0.3833333E+00  0.5000000E-01  0.1666667E-01  0.4444444E-03
    1       -4.625632   1.000000
    2       -0.055444   1.000000
    3        4.366441   1.000000
    4        4.549358   1.000000
    5        7.446034  -0.000000
    6        9.000492  -0.000000
    7        9.301856  -0.000000
    8       13.035035   0.000000
 
  0.4166667E+00  0.5000000E-01  0.1666667E-01  0.4444444E-03
    1       -4.379768   1.000000
    2       -0.497747   1.000000
    3        4.321200   1.000000
    4        4.475960   1.000000
    5        7.381038  -0.000000
    6        8.980345  -0.000000
    7        9.237185  -0.000000
    8       13.308699   0.000000
 
  0.4500000E+00  0.5000000E-01  0.1666667E-01  0.4444444E-03
    1       -4.154403   1.000000
    2       -0.865973   1.000000
    3        4.286708   1.000000
    4        4.423928   1.000000
    5        7.333033  -0.000000
    6        8.964320  -0.000000
    7        9.175009  -0.000000
    8       13.408364   0.000000
 
  0.4833333E+00  0.5000000E-01  0.1666667E-01  0.4444444E-03
    1       -3.981538   1.000000
    2       -1.128277   1.000000
    3        4.259678   1.000000
    4        4.396870   1.000000
    5        7.302336  -0.000000
    6        8.958733  -0.000000
    7        9.126239  -0.000000
    8       13.422347   0.000000
 
 -0.4833333E+00  0.5000000E-01  0.1666667E-01  0.4444444E-03
    1       -3.902256   1.000000
    2       -1.243364   1.000000
    3        4.239720   1.000000
    4        4.395960   1.000000
    5        7.288859  -0.000000
    6        8.966382  -0.000000
    7        9.095501  -0.000000
    8       13.421959   0.000000
 
 -0.4500000E+00  0.5000000E-01  0.1666667E-01  0.4444444E-03
    1       -3.942760   1.000000
    2       -1.184883   1.000000
    3        4.229122   1.000000
    4        4.418164   1.000000
    5        7.294470  -0.000000
    6        8.982424  -0.000000
    7        9.090306  -0.000000
    8       13.428166   0.000000
 
 -0.4166667E+00  0.5000000E-01  0.1666667E-01  0.4444444E-03
    1       -4.089068   1.000000
    2       -0.966989   1.000000
    3        4.231260   1.000000
    4        4.459979   1.000000
    5        7.319486  -0.000000
    6        9.001830  -0.000000
    7        9.113954  -0.000000
    8       13.436909   0.000000
 
 -0.3833333E+00  0.5000000E-01  0.1666667E-01  0.4444444E-03
    1       -4.301217   1.000000
    2       -0.629768   1.000000
    3        4.248695   1.000000
    4        4.519369   1.000000
    5        7.360689  -0.000000
    6        9.022991  -0.000000
    7        9.162059  -0.000000
    8       13.415799   0.000000
 
 -0.3500000E+00  0.5000000E-01  0.1666667E-01  0.4444444E-03
    1       -4.542878   1.000000
    2       -0.209269   1.000000
    3        4.282494   1.000000
    4        4.594791   1.000000
    5        7.419502  -0.000000
    6        9.045381  -0.000000
    7        9.223065  -0.000000
    8       13.274928   0.000000
 
 -0.3166667E+00  0.5000000E-01  0.1666667E-01  0.4444444E-03
    1       -4.791105   1.000000
    2        0.269832   1.000000
    3        4.333381   1.000000
    4        4.684653   1.000000
    5        7.495308  -0.000000
    6        9.062845  -0.000000
    7        9.284562  -0.000000
    8       12.960506   0.000000
 
 -0.2833333E+00  0.5000000E-01  0.1666667E-01  0.4444444E-03
    1       -5.032245   1.000000
    2        0.791945   1.000000
    3        4.401554   1.000000
    4        4.787294   1.000000
    5        7.586640  -0.000000
    6        9.062452  -0.000000
    7        9.329468  -0.000000
    8       12.593831   0.000000
 
 -0.2500000E+00  0.5000000E-01  0.1666667E-01  0.4444444E-03
    1       -5.258208   1.000000
    2        1.347530   1.000000
    3        4.486850   1.000000
    4        4.900842   1.000001
    5        7.692169  -0.000000
    6        9.031625  -0.000000
    7        9.340702  -0.000000
    8       12.246441   0.000000
 
 -0.2166667E+00  0.5000000E-01  0.1666667E-01  0.4444444E-03
    1       -5.464134   1.000000
    2        1.929215   1.000000
    3        4.588841   1.000000
    4        5.022847   1.000031
    5        7.809388  -0.000000
    6        8.956511  -0.000000
    7        9.301553  -0.000000
    8       11.895033   0.000000
 
 -0.1833333E+00  0.5000000E-01  0.1666667E-01  0.4444444E-03
    1       -5.646988   1.000000
    2        2.529490   1.000000
    3        4.706196   1.000000
    4        5.149861   1.000895
    5        7.933694  -0.000000
    6        8.836632  -0.000000
    7        9.202638  -0.000000
    8       11.481449   0.000000
 
 -0.1500000E+00  0.5000000E-01  0.1666667E-01  0.4444444E-03
    1       -5.804791   1.000000
    2        3.140516   1.000000
    3        4.837034   1.000000
    4        5.275933   1.010062
    5        8.058541  -0.000000
    6        8.684533  -0.000000
    7        9.048591  -0.000000
    8       10.992716  -0.000000
 
 -0.1166667E+00  0.5000000E-01  0.1666667E-01  0.4444444E-03
    1       -5.936104   1.000000
    2        3.749952   1.000000
    3        4.979132   1.000008
    4        5.393109   1.033697
    5        8.174882  -0.000000
    6        8.525600  -0.000000
    7        8.856834  -0.000000
    8       10.461892  -0.000000
 
 -0.8333333E-01  0.5000000E-01  0.1666667E-01  0.4444444E-03
    1       -6.040101   1.000000
    2        4.337243   1.000000
    3        5.128339   1.000538
    4        5.489840   1.003234
    5        8.249532  -0.000000
    6        8.406163  -0.000000
    7        8.652233  -0.000000
    8        9.926348  -0.000000
 
 -0.5000000E-01  0.5000000E-01  0.1666667E-01  0.4444444E-03
    1       -6.116150   1.000000
    2        4.859891   1.000000
    3        5.285602   1.011611
    4        5.554743   0.887432
    5        8.219194  -0.000000
    6        8.392157  -0.000000
    7        8.463267  -0.000000
    8        9.437198  -0.000000
 
 -0.1666667E-01  0.5000000E-01  0.1666667E-01  0.4444444E-03
    1       -6.163866   1.000000
    2        5.224349   1.004212
    3        5.465082   1.023021
    4        5.577194   0.823216
    5        8.189356  -0.000000
    6        8.323410  -0.000000
    7        8.360050  -0.000000
    8        9.082325  -0.000000
 
  0.8333333E-01  0.8333333E-01  0.1666667E-01  0.2222222E-03
    1       -6.106554   1.000000
    2        4.975658   1.000007
    3        5.270717   1.009288
    4        5.301383   1.014458
    5        7.989297  -0.000000
    6        8.643781  -0.000000
    7        8.670577  -0.000000
    8        9.355355  -0.000000
 
  0.1166667E+00  0.8333333E-01  0.1666667E-01  0.4444444E-03
    1       -6.049366   1.000000
    2        4.611045   1.000000
    3        5.097431   1.000248
    4        5.251128   1.006766
    5        7.944576  -0.000000
    6        8.750426  -0.000000
    7        8.852541  -0.000000
    8        9.677939  -0.000000
 
  0.1500000E+00  0.8333333E-01  0.1666667E-01  0.4444444E-03
    1       -5.963971   1.000000
    2        4.089934   1.000000
    3        4.941920   1.000002
    4        5.192385   1.002256
    5        7.978153  -0.000000
    6        8.728644  -0.000000
    7        9.065878  -0.000000
    8       10.130454  -0.000000
 
  0.1833333E+00  0.8333333E-01  0.1666667E-01  0.4444444E-03
    1       -5.850832   1.000000
    2        3.512329   1.000000
    3        4.795757   1.000000
    4        5.098471   1.000255
    5        8.046464  -0.000000
    6        8.690826  -0.000000
    7        9.273397  -0.000000
    8       10.567170  -0.000000
 
  0.2166667E+00  0.8333333E-01  0.1666667E-01  0.4444444E-03
    1       -5.710640   1.000000
    2        2.916185   1.000000
    3        4.659056   1.000000
    4        4.979118   1.000008
    5        8.085804  -0.000000
    6        8.697381  -0.000000
    7        9.452831  -0.000000
    8       10.895762  -0.000000
 
  0.2500000E+00  0.8333333E-01  0.1666667E-01  0.4444444E-03
    1       -5.544384   1.000000
    2        2.318891   1.000000
    3        4.535698   1.000000
    4        4.848186   1.000000
    5        8.061353  -0.000000
    6        8.763957  -0.000000
    7        9.583818  -0.000000
    8       11.112568  -0.000000
 
  0.2833333E+00  0.8333333E-01  0.1666667E-01  0.4444444E-03
    1       -5.353684   1.000000
    2        1.732590   1.000000
    3        4.426179   1.000000
    4        4.715837   1.000000
    5        7.989290  -0.000000
    6        8.846502  -0.000000
    7        9.653497  -0.000000
    8       11.304473   0.000000
 
  0.3166667E+00  0.8333333E-01  0.1666667E-01  0.4444444E-03
    1       -5.140760   1.000000
    2        1.165392   1.000000
    3        4.330690   1.000000
    4        4.589817   1.000000
    5        7.901390  -0.000000
    6        8.904467  -0.000000
    7        9.664792  -0.000000
    8       11.551016   0.000000
 
  0.3500000E+00  0.8333333E-01  0.1666667E-01  0.4444444E-03
    1       -4.909156   1.000000
    2        0.624959   1.000000
    3        4.247236   1.000000
    4        4.477878   1.000000
    5        7.813892  -0.000000
    6        8.927552  -0.000000
    7        9.630629  -0.000000
    8       11.876030   0.000000
 
  0.3833333E+00  0.8333333E-01  0.1666667E-01  0.4444444E-03
    1       -4.664586   1.000000
    2        0.119466   1.000000
    3        4.172155   1.000000
    4        4.387406   1.000000
    5        7.735160  -0.000000
    6        8.925454  -0.000000
    7        9.567087  -0.000000
    8       12.269596   0.000000
 
  0.4166667E+00  0.8333333E-01  0.1666667E-01  0.4444444E-03
    1       -4.416448   1.000000
    2       -0.339261   1.000000
    3        4.101298   1.000000
    4        4.324600   1.000000
    5        7.669530  -0.000000
    6        8.914867  -0.000000
    7        9.490837  -0.000000
    8       12.703159   0.000000
 
  0.4500000E+00  0.8333333E-01  0.1666667E-01  0.4444444E-03
    1       -4.181250   1.000000
    2       -0.733454   1.000000
    3        4.033825   1.000000
    4        4.291737   1.000000
    5        7.618989  -0.000000
    6        8.904920  -0.000000
    7        9.413474  -0.000000
    8       13.113113   0.000000
 
  0.4833333E+00  0.8333333E-01  0.1666667E-01  0.4444444E-03
    1       -3.986403   1.000000
    2       -1.034424   1.000000
    3        3.973242   1.000000
    4        4.285965   1.000000
    5        7.584874  -0.000000
    6        8.905176  -0.000000
    7        9.344212  -0.000000
    8       13.407014   0.000000
 
 -0.4833333E+00  0.8333333E-01  0.1666667E-01  0.4444444E-03
    1       -3.871384   1.000000
    2       -1.202469   1.000000
    3        3.923694   1.000000
    4        4.303764   1.000000
    5        7.566050  -0.000000
    6        8.919902  -0.000000
    7        9.287992  -0.000000
    8       13.542142   0.000000
 
 -0.4500000E+00  0.8333333E-01  0.1666667E-01  0.4444444E-03
    1       -3.871680   1.000000
    2       -1.202063   1.000000
    3        3.888490   1.000000
    4        4.342056   1.000000
    5        7.566564  -0.000000
    6        8.949935  -0.000000
    7        9.251128  -0.000000
    8       13.583505   0.000000
 
 -0.4166667E+00  0.8333333E-01  0.1666667E-01  0.4444444E-03
    1       -3.986952   1.000000
    2       -1.033300   1.000000
    3        3.869479   1.000000
    4        4.398841   1.000000
    5        7.585489  -0.000000
    6        8.991393  -0.000000
    7        9.234902  -0.000000
    8       13.567242   0.000000
 
 -0.3833333E+00  0.8333333E-01  0.1666667E-01  0.4444444E-03
    1       -4.182019   1.000000
    2       -0.731787   1.000000
    3        3.867845   1.000000
    4        4.472613   1.000000
    5        7.621570  -0.000000
    6        9.037986  -0.000000
    7        9.243571  -0.000000
    8       13.457451   0.000000
 
 -0.3500000E+00  0.8333333E-01  0.1666667E-01  0.4444444E-03
    1       -4.417442   1.000000
    2       -0.337264   1.000000
    3        3.884958   1.000000
    4        4.561767   1.000000
    5        7.674024  -0.000000
    6        9.076976  -0.000000
    7        9.278312  -0.000000
    8       13.185399   0.000000
 
 -0.3166667E+00  0.8333333E-01  0.1666667E-01  0.4444444E-03
    1       -4.665446   1.000000
    2        0.121631   1.000000
    3        3.921581   1.000000
    4        4.664563   1.000000
    5        7.742922  -0.000000
    6        9.098403  -0.000000
    7        9.332313  -0.000000
    8       12.797395   0.000000
 
 -0.2833333E+00  0.8333333E-01  0.1666667E-01  0.4444444E-03
    1       -4.909936   1.000000
    2        0.626936   1.000000
    3        3.978262   1.000000
    4        4.778818   1.000000
    5        7.827310  -0.000000
    6        9.095899  -0.000000
    7        9.386437  -0.000000
    8       12.403528   0.000000
 
 -0.2500000E+00  0.8333333E-01  0.1666667E-01  0.4444444E-03
    1       -5.141508   1.000000
    2        1.166532   1.000000
    3        4.055104   1.000000
    4        4.901992   1.000001
    5        7.924785  -0.000000
    6        9.059311  -0.000000
    7        9.412648  -0.000000
    8       12.048832   0.000000
 
 -0.2166667E+00  0.8333333E-01  0.1666667E-01  0.4444444E-03
    1       -5.354344   1.000000
    2        1.732170   1.000000
    3        4.153042   1.000000
    4        5.031036   1.000039
    5        8.033512  -0.000000
    6        8.981379  -0.000000
    7        9.389912  -0.000000
    8       11.742326   0.000000
 
 -0.1833333E+00  0.8333333E-01  0.1666667E-01  0.4444444E-03
    1       -5.544974   1.000000
    2        2.314710   1.000000
    3        4.272301   1.000000
    4        5.161638   1.001168
    5        8.148201  -0.000000
    6        8.859736  -0.000000
    7        9.298375  -0.000000
    8       11.448645   0.000000
 
 -0.1500000E+00  0.8333333E-01  0.1666667E-01  0.4444444E-03
    1       -5.711104   1.000000
    2        2.903700   1.000000
    3        4.414221   1.000000
    4        5.286329   1.011734
    5        8.261071  -0.000000
    6        8.709687  -0.000000
    7        9.136111  -0.000000
    8       11.121970   0.000000
 
 -0.1166667E+00  0.8333333E-01  0.1666667E-01  0.4444444E-03
    1       -5.851204   1.000000
    2        3.481885   1.000000
    3        4.582691   1.000000
    4        5.395918   1.034070
    5        8.355179  -0.000000
    6        8.565655  -0.000000
    7        8.924814  -0.000000
    8       10.733477  -0.000000
 
 -0.8333333E-01  0.8333333E-01  0.1666667E-01  0.4444444E-03
    1       -5.964229   1.000000
    2        4.015831   1.000000
    3        4.790347   1.000000
    4        5.478887   1.013387
    5        8.350997  -0.000000
    6        8.512430  -0.000000
    7        8.702131  -0.000000
    8       10.295670  -0.000000
 
 -0.5000000E-01  0.8333333E-01  0.1666667E-01  0.4444444E-03
    1       -6.049538   1.000000
    2        4.447777   1.000000
    3        5.055893   1.000080
    4        5.522568   0.957545
    5        8.273776  -0.000000
    6        8.454688  -0.000000
    7        8.575565  -0.000000
    8        9.862005  -0.000000
 
 -0.1666667E-01  0.8333333E-01  0.1666667E-01  0.4444444E-03
    1       -6.106660   1.000000
    2        4.742097   1.000000
    3        5.345394   1.024026
    4        5.521692   0.959094
    5        8.224964  -0.000000
    6        8.347568  -0.000000
    7        8.513383  -0.000000
    8        9.514175  -0.000000
 
  0.1166667E+00  0.1166667E+00  0.1666667E-01  0.2222222E-03
    1       -6.001643   1.000000
    2        4.497461   1.000000
    3        4.986104   1.000010
    4        5.007514   1.000019
    5        7.783835  -0.000000
    6        9.047808  -0.000000
    7        9.083230  -0.000000
    8        9.745226  -0.000000
 
  0.1500000E+00  0.1166667E+00  0.1666667E-01  0.4444444E-03
    1       -5.925635   1.000000
    2        4.123960   1.000000
    3        4.798798   1.000000
    4        4.936665   1.000002
    5        7.723054  -0.000000
    6        9.161286  -0.000000
    7        9.299863  -0.000000
    8       10.018702  -0.000000
 
  0.1833333E+00  0.1166667E+00  0.1666667E-01  0.4444444E-03
    1       -5.821753   1.000000
    2        3.616513   1.000000
    3        4.636343   1.000000
    4        4.862211   1.000000
    5        7.752706  -0.000000
    6        9.130762  -0.000000
    7        9.525578  -0.000000
    8       10.328624  -0.000000
 
  0.2166667E+00  0.1166667E+00  0.1666667E-01  0.4444444E-03
    1       -5.690582   1.000000
    2        3.059208   1.000000
    3        4.490560   1.000000
    4        4.756534   1.000000
    5        7.836235  -0.000000
    6        9.077748  -0.000000
    7        9.726292  -0.000000
    8       10.517237  -0.000000
 