Automatically generated mesh
    2480
Reciprocal lattice
    0.01666666666667    0.01666666666667    0.01666666666667            96
    0.05000000000000    0.01666666666667    0.01666666666667           288
    0.08333333333333    0.01666666666667    0.01666666666667           288
    0.11666666666667    0.01666666666667    0.01666666666667           288
    0.15000000000000    0.01666666666667    0.01666666666667           288
    0.18333333333333    0.01666666666667    0.01666666666667           288
    0.21666666666667    0.01666666666667    0.01666666666667           288
    0.25000000000000    0.01666666666667    0.01666666666667           288
    0.28333333333333    0.01666666666667    0.01666666666667           288
    0.31666666666667    0.01666666666667    0.01666666666667           288
    0.35000000000000    0.01666666666667    0.01666666666667           288
    0.38333333333333    0.01666666666667    0.01666666666667           288
    0.41666666666667    0.01666666666667    0.01666666666667           288
    0.45000000000000    0.01666666666667    0.01666666666667           288
    0.48333333333333    0.01666666666667    0.01666666666667           288
   -0.48333333333333    0.01666666666667    0.01666666666667           288
   -0.45000000000000    0.01666666666667    0.01666666666667           288
   -0.41666666666667    0.01666666666667    0.01666666666667           288
   -0.38333333333333    0.01666666666667    0.01666666666667           288
   -0.35000000000000    0.01666666666667    0.01666666666667           288
   -0.31666666666667    0.01666666666667    0.01666666666667           288
   -0.28333333333333    0.01666666666667    0.01666666666667           288
   -0.25000000000000    0.01666666666667    0.01666666666667           288
   -0.21666666666667    0.01666666666667    0.01666666666667           288
   -0.18333333333333    0.01666666666667    0.01666666666667           288
   -0.15000000000000    0.01666666666667    0.01666666666667           288
   -0.11666666666667    0.01666666666667    0.01666666666667           288
   -0.08333333333333    0.01666666666667    0.01666666666667           288
   -0.05000000000000    0.01666666666667    0.01666666666667           288
   -0.01666666666667    0.01666666666667    0.01666666666667           288
    0.05000000000000    0.05000000000000    0.01666666666667           288
    0.08333333333333    0.05000000000000    0.01666666666667           576
    0.11666666666667    0.05000000000000    0.01666666666667           576
    0.15000000000000    0.05000000000000    0.01666666666667           576
    0.18333333333333    0.05000000000000    0.01666666666667           576
    0.21666666666667    0.05000000000000    0.01666666666667           576
    0.25000000000000    0.05000000000000    0.01666666666667           576
    0.28333333333333    0.05000000000000    0.01666666666667           576
    0.31666666666667    0.05000000000000    0.01666666666667           576
    0.35000000000000    0.05000000000000    0.01666666666667           576
    0.38333333333333    0.05000000000000    0.01666666666667           576
    0.41666666666667    0.05000000000000    0.01666666666667           576
    0.45000000000000    0.05000000000000    0.01666666666667           576
    0.48333333333333    0.05000000000000    0.01666666666667           576
   -0.48333333333333    0.05000000000000    0.01666666666667           576
   -0.45000000000000    0.05000000000000    0.01666666666667           576
   -0.41666666666667    0.05000000000000    0.01666666666667           576
   -0.38333333333333    0.05000000000000    0.01666666666667           576
   -0.35000000000000    0.05000000000000    0.01666666666667           576
   -0.31666666666667    0.05000000000000    0.01666666666667           576
   -0.28333333333333    0.05000000000000    0.01666666666667           576
   -0.25000000000000    0.05000000000000    0.01666666666667           576
   -0.21666666666667    0.05000000000000    0.01666666666667           576
   -0.18333333333333    0.05000000000000    0.01666666666667           576
   -0.15000000000000    0.05000000000000    0.01666666666667           576
   -0.11666666666667    0.05000000000000    0.01666666666667           576
   -0.08333333333333    0.05000000000000    0.01666666666667           576
   -0.05000000000000    0.05000000000000    0.01666666666667           576
   -0.01666666666667    0.05000000000000    0.01666666666667           576
    0.08333333333333    0.08333333333333    0.01666666666667           288
    0.11666666666667    0.08333333333333    0.01666666666667           576
    0.15000000000000    0.08333333333333    0.01666666666667           576
    0.18333333333333    0.08333333333333    0.01666666666667           576
    0.21666666666667    0.08333333333333    0.01666666666667           576
    0.25000000000000    0.08333333333333    0.01666666666667           576
    0.28333333333333    0.08333333333333    0.01666666666667           576
    0.31666666666667    0.08333333333333    0.01666666666667           576
    0.35000000000000    0.08333333333333    0.01666666666667           576
    0.38333333333333    0.08333333333333    0.01666666666667           576
    0.41666666666667    0.08333333333333    0.01666666666667           576
    0.45000000000000    0.08333333333333    0.01666666666667           576
    0.48333333333333    0.08333333333333    0.01666666666667           576
   -0.48333333333333    0.08333333333333    0.01666666666667           576
   -0.45000000000000    0.08333333333333    0.01666666666667           576
   -0.41666666666667    0.08333333333333    0.01666666666667           576
   -0.38333333333333    0.08333333333333    0.01666666666667           576
   -0.35000000000000    0.08333333333333    0.01666666666667           576
   -0.31666666666667    0.08333333333333    0.01666666666667           576
   -0.28333333333333    0.08333333333333    0.01666666666667           576
   -0.25000000000000    0.08333333333333    0.01666666666667           576
   -0.21666666666667    0.08333333333333    0.01666666666667           576
   -0.18333333333333    0.08333333333333    0.01666666666667           576
   -0.15000000000000    0.08333333333333    0.01666666666667           576
   -0.11666666666667    0.08333333333333    0.01666666666667           576
   -0.08333333333333    0.08333333333333    0.01666666666667           576
   -0.05000000000000    0.08333333333333    0.01666666666667           576
   -0.01666666666667    0.08333333333333    0.01666666666667           576
    0.11666666666667    0.11666666666667    0.01666666666667           288
    0.15000000000000    0.11666666666667    0.01666666666667           576
    0.18333333333333    0.11666666666667    0.01666666666667           576
    0.21666666666667    0.11666666666667    0.01666666666667           576
    0.25000000000000    0.11666666666667    0.01666666666667           576
    0.28333333333333    0.11666666666667    0.01666666666667           576
    0.31666666666667    0.11666666666667    0.01666666666667           576
    0.35000000000000    0.11666666666667    0.01666666666667           576
    0.38333333333333    0.11666666666667    0.01666666666667           576
    0.41666666666667    0.11666666666667    0.01666666666667           576
    0.45000000000000    0.11666666666667    0.01666666666667           576
    0.48333333333333    0.11666666666667    0.01666666666667           576
   -0.48333333333333    0.11666666666667    0.01666666666667           576
   -0.45000000000000    0.11666666666667    0.01666666666667           576
   -0.41666666666667    0.11666666666667    0.01666666666667           576
   -0.38333333333333    0.11666666666667    0.01666666666667           576
   -0.35000000000000    0.11666666666667    0.01666666666667           576
   -0.31666666666667    0.11666666666667    0.01666666666667           576
   -0.28333333333333    0.11666666666667    0.01666666666667           576
   -0.25000000000000    0.11666666666667    0.01666666666667           576
   -0.21666666666667    0.11666666666667    0.01666666666667           576
   -0.18333333333333    0.11666666666667    0.01666666666667           576
   -0.15000000000000    0.11666666666667    0.01666666666667           576
   -0.11666666666667    0.11666666666667    0.01666666666667           576
   -0.08333333333333    0.11666666666667    0.01666666666667           576
   -0.05000000000000    0.11666666666667    0.01666666666667           576
   -0.01666666666667    0.11666666666667    0.01666666666667           576
    0.15000000000000    0.15000000000000    0.01666666666667           288
    0.18333333333333    0.15000000000000    0.01666666666667           576
    0.21666666666667    0.15000000000000    0.01666666666667           576
    0.25000000000000    0.15000000000000    0.01666666666667           576
    0.28333333333333    0.15000000000000    0.01666666666667           576
    0.31666666666667    0.15000000000000    0.01666666666667           576
    0.35000000000000    0.15000000000000    0.01666666666667           576
    0.38333333333333    0.15000000000000    0.01666666666667           576
    0.41666666666667    0.15000000000000    0.01666666666667           576
    0.45000000000000    0.15000000000000    0.01666666666667           576
    0.48333333333333    0.15000000000000    0.01666666666667           576
   -0.48333333333333    0.15000000000000    0.01666666666667           576
   -0.45000000000000    0.15000000000000    0.01666666666667           576
   -0.41666666666667    0.15000000000000    0.01666666666667           576
   -0.38333333333333    0.15000000000000    0.01666666666667           576
   -0.35000000000000    0.15000000000000    0.01666666666667           576
   -0.31666666666667    0.15000000000000    0.01666666666667           576
   -0.28333333333333    0.15000000000000    0.01666666666667           576
   -0.25000000000000    0.15000000000000    0.01666666666667           576
   -0.21666666666667    0.15000000000000    0.01666666666667           576
   -0.18333333333333    0.15000000000000    0.01666666666667           576
   -0.15000000000000    0.15000000000000    0.01666666666667           576
   -0.11666666666667    0.15000000000000    0.01666666666667           576
   -0.08333333333333    0.15000000000000    0.01666666666667           576
   -0.05000000000000    0.15000000000000    0.01666666666667           576
   -0.01666666666667    0.15000000000000    0.01666666666667           576
    0.18333333333333    0.18333333333333    0.01666666666667           288
    0.21666666666667    0.18333333333333    0.01666666666667           576
    0.25000000000000    0.18333333333333    0.01666666666667           576
    0.28333333333333    0.18333333333333    0.01666666666667           576
    0.31666666666667    0.18333333333333    0.01666666666667           576
    0.35000000000000    0.18333333333333    0.01666666666667           576
    0.38333333333333    0.18333333333333    0.01666666666667           576
    0.41666666666667    0.18333333333333    0.01666666666667           576
    0.45000000000000    0.18333333333333    0.01666666666667           576
    0.48333333333333    0.18333333333333    0.01666666666667           576
   -0.48333333333333    0.18333333333333    0.01666666666667           576
   -0.45000000000000    0.18333333333333    0.01666666666667           576
   -0.41666666666667    0.18333333333333    0.01666666666667           576
   -0.38333333333333    0.18333333333333    0.01666666666667           576
   -0.35000000000000    0.18333333333333    0.01666666666667           576
   -0.31666666666667    0.18333333333333    0.01666666666667           576
   -0.28333333333333    0.18333333333333    0.01666666666667           576
   -0.25000000000000    0.18333333333333    0.01666666666667           576
   -0.21666666666667    0.18333333333333    0.01666666666667           576
   -0.18333333333333    0.18333333333333    0.01666666666667           576
   -0.15000000000000    0.18333333333333    0.01666666666667           576
   -0.11666666666667    0.18333333333333    0.01666666666667           576
   -0.08333333333333    0.18333333333333    0.01666666666667           576
   -0.05000000000000    0.18333333333333    0.01666666666667           576
   -0.01666666666667    0.18333333333333    0.01666666666667           576
    0.21666666666667    0.21666666666667    0.01666666666667           288
    0.25000000000000    0.21666666666667    0.01666666666667           576
    0.28333333333333    0.21666666666667    0.01666666666667           576
    0.31666666666667    0.21666666666667    0.01666666666667           576
    0.35000000000000    0.21666666666667    0.01666666666667           576
    0.38333333333333    0.21666666666667    0.01666666666667           576
    0.41666666666667    0.21666666666667    0.01666666666667           576
    0.45000000000000    0.21666666666667    0.01666666666667           576
    0.48333333333333    0.21666666666667    0.01666666666667           576
   -0.48333333333333    0.21666666666667    0.01666666666667           576
   -0.45000000000000    0.21666666666667    0.01666666666667           576
   -0.41666666666667    0.21666666666667    0.01666666666667           576
   -0.38333333333333    0.21666666666667    0.01666666666667           576
   -0.35000000000000    0.21666666666667    0.01666666666667           576
   -0.31666666666667    0.21666666666667    0.01666666666667           576
   -0.28333333333333    0.21666666666667    0.01666666666667           576
   -0.25000000000000    0.21666666666667    0.01666666666667           576
   -0.21666666666667    0.21666666666667    0.01666666666667           576
   -0.18333333333333    0.21666666666667    0.01666666666667           576
   -0.15000000000000    0.21666666666667    0.01666666666667           576
   -0.11666666666667    0.21666666666667    0.01666666666667           576
   -0.08333333333333    0.21666666666667    0.01666666666667           576
   -0.05000000000000    0.21666666666667    0.01666666666667           576
   -0.01666666666667    0.21666666666667    0.01666666666667           576
    0.25000000000000    0.25000000000000    0.01666666666667           288
    0.28333333333333    0.25000000000000    0.01666666666667           576
    0.31666666666667    0.25000000000000    0.01666666666667           576
    0.35000000000000    0.25000000000000    0.01666666666667           576
    0.38333333333333    0.25000000000000    0.01666666666667           576
    0.41666666666667    0.25000000000000    0.01666666666667           576
    0.45000000000000    0.25000000000000    0.01666666666667           576
    0.48333333333333    0.25000000000000    0.01666666666667           576
   -0.48333333333333    0.25000000000000    0.01666666666667           576
   -0.45000000000000    0.25000000000000    0.01666666666667           576
   -0.41666666666667    0.25000000000000    0.01666666666667           576
   -0.38333333333333    0.25000000000000    0.01666666666667           576
   -0.35000000000000    0.25000000000000    0.01666666666667           576
   -0.31666666666667    0.25000000000000    0.01666666666667           576
   -0.28333333333333    0.25000000000000    0.01666666666667           576
   -0.25000000000000    0.25000000000000    0.01666666666667           576
   -0.21666666666667    0.25000000000000    0.01666666666667           576
   -0.18333333333333    0.25000000000000    0.01666666666667           576
   -0.15000000000000    0.25000000000000    0.01666666666667           576
   -0.11666666666667    0.25000000000000    0.01666666666667           576
   -0.08333333333333    0.25000000000000    0.01666666666667           576
   -0.05000000000000    0.25000000000000    0.01666666666667           576
   -0.01666666666667    0.25000000000000    0.01666666666667           576
    0.28333333333333    0.28333333333333    0.01666666666667           288
    0.31666666666667    0.28333333333333    0.01666666666667           576
    0.35000000000000    0.28333333333333    0.01666666666667           576
    0.38333333333333    0.28333333333333    0.01666666666667           576
    0.41666666666667    0.28333333333333    0.01666666666667           576
    0.45000000000000    0.28333333333333    0.01666666666667           576
    0.48333333333333    0.28333333333333    0.01666666666667           576
   -0.48333333333333    0.28333333333333    0.01666666666667           576
   -0.45000000000000    0.28333333333333    0.01666666666667           576
   -0.41666666666667    0.28333333333333    0.01666666666667           576
   -0.38333333333333    0.28333333333333    0.01666666666667           576
   -0.35000000000000    0.28333333333333    0.01666666666667           576
   -0.31666666666667    0.28333333333333    0.01666666666667           576
   -0.28333333333333    0.28333333333333    0.01666666666667           576
   -0.25000000000000    0.28333333333333    0.01666666666667           576
   -0.21666666666667    0.28333333333333    0.01666666666667           576
   -0.18333333333333    0.28333333333333    0.01666666666667           576
   -0.15000000000000    0.28333333333333    0.01666666666667           576
   -0.11666666666667    0.28333333333333    0.01666666666667           576
   -0.08333333333333    0.28333333333333    0.01666666666667           576
   -0.05000000000000    0.28333333333333    0.01666666666667           576
   -0.01666666666667    0.28333333333333    0.01666666666667           576
    0.31666666666667    0.31666666666667    0.01666666666667           288
    0.35000000000000    0.31666666666667    0.01666666666667           576
    0.38333333333333    0.31666666666667    0.01666666666667           576
    0.41666666666667    0.31666666666667    0.01666666666667           576
    0.45000000000000    0.31666666666667    0.01666666666667           576
    0.48333333333333    0.31666666666667    0.01666666666667           576
   -0.48333333333333    0.31666666666667    0.01666666666667           576
   -0.45000000000000    0.31666666666667    0.01666666666667           576
   -0.41666666666667    0.31666666666667    0.01666666666667           576
   -0.38333333333333    0.31666666666667    0.01666666666667           576
   -0.35000000000000    0.31666666666667    0.01666666666667           576
   -0.31666666666667    0.31666666666667    0.01666666666667           576
   -0.28333333333333    0.31666666666667    0.01666666666667           576
   -0.25000000000000    0.31666666666667    0.01666666666667           576
   -0.21666666666667    0.31666666666667    0.01666666666667           576
   -0.18333333333333    0.31666666666667    0.01666666666667           576
   -0.15000000000000    0.31666666666667    0.01666666666667           576
   -0.11666666666667    0.31666666666667    0.01666666666667           576
   -0.08333333333333    0.31666666666667    0.01666666666667           576
   -0.05000000000000    0.31666666666667    0.01666666666667           576
   -0.01666666666667    0.31666666666667    0.01666666666667           576
    0.35000000000000    0.35000000000000    0.01666666666667           288
    0.38333333333333    0.35000000000000    0.01666666666667           576
    0.41666666666667    0.35000000000000    0.01666666666667           576
    0.45000000000000    0.35000000000000    0.01666666666667           576
    0.48333333333333    0.35000000000000    0.01666666666667           576
   -0.48333333333333    0.35000000000000    0.01666666666667           576
   -0.45000000000000    0.35000000000000    0.01666666666667           576
   -0.41666666666667    0.35000000000000    0.01666666666667           576
   -0.38333333333333    0.35000000000000    0.01666666666667           576
   -0.35000000000000    0.35000000000000    0.01666666666667           576
   -0.31666666666667    0.35000000000000    0.01666666666667           576
   -0.28333333333333    0.35000000000000    0.01666666666667           576
   -0.25000000000000    0.35000000000000    0.01666666666667           576
   -0.21666666666667    0.35000000000000    0.01666666666667           576
   -0.18333333333333    0.35000000000000    0.01666666666667           576
   -0.15000000000000    0.35000000000000    0.01666666666667           576
   -0.11666666666667    0.35000000000000    0.01666666666667           576
   -0.08333333333333    0.35000000000000    0.01666666666667           576
   -0.05000000000000    0.35000000000000    0.01666666666667           576
   -0.01666666666667    0.35000000000000    0.01666666666667           576
    0.38333333333333    0.38333333333333    0.01666666666667           288
    0.41666666666667    0.38333333333333    0.01666666666667           576
    0.45000000000000    0.38333333333333    0.01666666666667           576
    0.48333333333333    0.38333333333333    0.01666666666667           576
   -0.48333333333333    0.38333333333333    0.01666666666667           576
   -0.45000000000000    0.38333333333333    0.01666666666667           576
   -0.41666666666667    0.38333333333333    0.01666666666667           576
   -0.38333333333333    0.38333333333333    0.01666666666667           576
   -0.35000000000000    0.38333333333333    0.01666666666667           576
   -0.31666666666667    0.38333333333333    0.01666666666667           576
   -0.28333333333333    0.38333333333333    0.01666666666667           576
   -0.25000000000000    0.38333333333333    0.01666666666667           576
   -0.21666666666667    0.38333333333333    0.01666666666667           576
   -0.18333333333333    0.38333333333333    0.01666666666667           576
   -0.15000000000000    0.38333333333333    0.01666666666667           576
   -0.11666666666667    0.38333333333333    0.01666666666667           576
   -0.08333333333333    0.38333333333333    0.01666666666667           576
   -0.05000000000000    0.38333333333333    0.01666666666667           576
   -0.01666666666667    0.38333333333333    0.01666666666667           576
    0.41666666666667    0.41666666666667    0.01666666666667           288
    0.45000000000000    0.41666666666667    0.01666666666667           576
    0.48333333333333    0.41666666666667    0.01666666666667           576
   -0.48333333333333    0.41666666666667    0.01666666666667           576
   -0.45000000000000    0.41666666666667    0.01666666666667           576
   -0.41666666666667    0.41666666666667    0.01666666666667           576
   -0.38333333333333    0.41666666666667    0.01666666666667           576
   -0.35000000000000    0.41666666666667    0.01666666666667           576
   -0.31666666666667    0.41666666666667    0.01666666666667           576
   -0.28333333333333    0.41666666666667    0.01666666666667           576
   -0.25000000000000    0.41666666666667    0.01666666666667           576
   -0.21666666666667    0.41666666666667    0.01666666666667           576
   -0.18333333333333    0.41666666666667    0.01666666666667           576
   -0.15000000000000    0.41666666666667    0.01666666666667           576
   -0.11666666666667    0.41666666666667    0.01666666666667           576
   -0.08333333333333    0.41666666666667    0.01666666666667           576
   -0.05000000000000    0.41666666666667    0.01666666666667           576
   -0.01666666666667    0.41666666666667    0.01666666666667           576
    0.45000000000000    0.45000000000000    0.01666666666667           288
    0.48333333333333    0.45000000000000    0.01666666666667           576
   -0.48333333333333    0.45000000000000    0.01666666666667           576
   -0.45000000000000    0.45000000000000    0.01666666666667           576
   -0.41666666666667    0.45000000000000    0.01666666666667           576
   -0.38333333333333    0.45000000000000    0.01666666666667           576
   -0.35000000000000    0.45000000000000    0.01666666666667           576
   -0.31666666666667    0.45000000000000    0.01666666666667           576
   -0.28333333333333    0.45000000000000    0.01666666666667           576
   -0.25000000000000    0.45000000000000    0.01666666666667           576
   -0.21666666666667    0.45000000000000    0.01666666666667           576
   -0.18333333333333    0.45000000000000    0.01666666666667           576
   -0.15000000000000    0.45000000000000    0.01666666666667           576
   -0.11666666666667    0.45000000000000    0.01666666666667           576
   -0.08333333333333    0.45000000000000    0.01666666666667           576
   -0.05000000000000    0.45000000000000    0.01666666666667           576
   -0.01666666666667    0.45000000000000    0.01666666666667           576
    0.48333333333333    0.48333333333333    0.01666666666667           288
   -0.48333333333333    0.48333333333333    0.01666666666667           576
   -0.45000000000000    0.48333333333333    0.01666666666667           576
   -0.41666666666667    0.48333333333333    0.01666666666667           576
   -0.38333333333333    0.48333333333333    0.01666666666667           576
   -0.35000000000000    0.48333333333333    0.01666666666667           576
   -0.31666666666667    0.48333333333333    0.01666666666667           576
   -0.28333333333333    0.48333333333333    0.01666666666667           576
   -0.25000000000000    0.48333333333333    0.01666666666667           576
   -0.21666666666667    0.48333333333333    0.01666666666667           576
   -0.18333333333333    0.48333333333333    0.01666666666667           576
   -0.15000000000000    0.48333333333333    0.01666666666667           576
   -0.11666666666667    0.48333333333333    0.01666666666667           576
   -0.08333333333333    0.48333333333333    0.01666666666667           576
   -0.05000000000000    0.48333333333333    0.01666666666667           576
   -0.01666666666667    0.48333333333333    0.01666666666667           576
   -0.48333333333333   -0.48333333333333    0.01666666666667           288
   -0.45000000000000   -0.48333333333333    0.01666666666667           576
   -0.41666666666667   -0.48333333333333    0.01666666666667           576
   -0.38333333333333   -0.48333333333333    0.01666666666667           576
   -0.35000000000000   -0.48333333333333    0.01666666666667           576
   -0.31666666666667   -0.48333333333333    0.01666666666667           576
   -0.28333333333333   -0.48333333333333    0.01666666666667           576
   -0.25000000000000   -0.48333333333333    0.01666666666667           576
   -0.21666666666667   -0.48333333333333    0.01666666666667           576
   -0.18333333333333   -0.48333333333333    0.01666666666667           576
   -0.15000000000000   -0.48333333333333    0.01666666666667           576
   -0.11666666666667   -0.48333333333333    0.01666666666667           576
   -0.08333333333333   -0.48333333333333    0.01666666666667           576
   -0.05000000000000   -0.48333333333333    0.01666666666667           576
   -0.45000000000000   -0.45000000000000    0.01666666666667           288
   -0.41666666666667   -0.45000000000000    0.01666666666667           576
   -0.38333333333333   -0.45000000000000    0.01666666666667           576
   -0.35000000000000   -0.45000000000000    0.01666666666667           576
   -0.31666666666667   -0.45000000000000    0.01666666666667           576
   -0.28333333333333   -0.45000000000000    0.01666666666667           576
   -0.25000000000000   -0.45000000000000    0.01666666666667           576
   -0.21666666666667   -0.45000000000000    0.01666666666667           576
   -0.18333333333333   -0.45000000000000    0.01666666666667           576
   -0.15000000000000   -0.45000000000000    0.01666666666667           576
   -0.11666666666667   -0.45000000000000    0.01666666666667           576
   -0.08333333333333   -0.45000000000000    0.01666666666667           576
   -0.05000000000000   -0.45000000000000    0.01666666666667           576
   -0.41666666666667   -0.41666666666667    0.01666666666667           288
   -0.38333333333333   -0.41666666666667    0.01666666666667           576
   -0.35000000000000   -0.41666666666667    0.01666666666667           576
   -0.31666666666667   -0.41666666666667    0.01666666666667           576
   -0.28333333333333   -0.41666666666667    0.01666666666667           576
   -0.25000000000000   -0.41666666666667    0.01666666666667           576
   -0.21666666666667   -0.41666666666667    0.01666666666667           576
   -0.18333333333333   -0.41666666666667    0.01666666666667           576
   -0.15000000000000   -0.41666666666667    0.01666666666667           576
   -0.11666666666667   -0.41666666666667    0.01666666666667           576
   -0.08333333333333   -0.41666666666667    0.01666666666667           576
   -0.05000000000000   -0.41666666666667    0.01666666666667           576
   -0.38333333333333   -0.38333333333333    0.01666666666667           288
   -0.35000000000000   -0.38333333333333    0.01666666666667           576
   -0.31666666666667   -0.38333333333333    0.01666666666667           576
   -0.28333333333333   -0.38333333333333    0.01666666666667           576
   -0.25000000000000   -0.38333333333333    0.01666666666667           576
   -0.21666666666667   -0.38333333333333    0.01666666666667           576
   -0.18333333333333   -0.38333333333333    0.01666666666667           576
   -0.15000000000000   -0.38333333333333    0.01666666666667           576
   -0.11666666666667   -0.38333333333333    0.01666666666667           576
   -0.08333333333333   -0.38333333333333    0.01666666666667           576
   -0.05000000000000   -0.38333333333333    0.01666666666667           576
   -0.35000000000000   -0.35000000000000    0.01666666666667           288
   -0.31666666666667   -0.35000000000000    0.01666666666667           576
   -0.28333333333333   -0.35000000000000    0.01666666666667           576
   -0.25000000000000   -0.35000000000000    0.01666666666667           576