       N       E                     dE             d eps       ncg     rms          rms(c)
DAV:   1     0.222359937167E+00    0.22236E+00   -0.22331E+03 40064   0.432E+02
DAV:   2    -0.108826157817E+02   -0.11105E+02   -0.10601E+02 61728   0.604E+01
DAV:   3    -0.110055342801E+02   -0.12292E+00   -0.12291E+00 48648   0.804E+00
DAV:   4    -0.110059238065E+02   -0.38953E-03   -0.38953E-03 65392   0.474E-01
DAV:   5    -0.110059240215E+02   -0.21495E-06   -0.21464E-06 49960   0.834E-03    0.305E+00
DAV:   6    -0.108792278719E+02    0.12670E+00   -0.89704E-02 47304   0.155E+00    0.181E+00
DAV:   7    -0.108209584238E+02    0.58269E-01   -0.16797E-01 50512   0.223E+00    0.160E-01
DAV:   8    -0.108218578970E+02   -0.89947E-03   -0.39818E-03 45928   0.457E-01    0.269E-02
DAV:   9    -0.108218948313E+02   -0.36934E-04   -0.93460E-05 63480   0.734E-02    0.143E-02
DAV:  10    -0.108219084766E+02   -0.13645E-04   -0.17557E-05 46440   0.318E-02    0.144E-03
DAV:  11    -0.108219080073E+02    0.46929E-06   -0.28751E-07 43800   0.337E-03
   1 F= -.10821908E+02 E0= -.10822038E+02  d E =-.108219E+02
       N       E                     dE             d eps       ncg     rms          rms(c)
DAV:   1    -0.108499862452E+02   -0.28078E-01   -0.76971E-01 52080   0.484E+00    0.559E-01
DAV:   2    -0.108364904536E+02    0.13496E-01   -0.11335E-02 52320   0.668E-01    0.318E-01
DAV:   3    -0.108296807238E+02    0.68097E-02   -0.14714E-02 47192   0.606E-01    0.413E-02
DAV:   4    -0.108296555137E+02    0.25210E-04   -0.15925E-04 57336   0.106E-01    0.986E-03
DAV:   5    -0.108296540894E+02    0.14242E-05   -0.32394E-06 53408   0.135E-02    0.177E-03
DAV:   6    -0.108296552712E+02   -0.11818E-05   -0.13705E-07 32800   0.308E-03    0.378E-04
DAV:   7    -0.108296554205E+02   -0.14934E-06   -0.35728E-08 23232   0.152E-03
   2 F= -.10829655E+02 E0= -.10829794E+02  d E =-.774741E-02
       N       E                     dE             d eps       ncg     rms          rms(c)
DAV:   1    -0.108399654510E+02   -0.10310E-01   -0.13521E-01 50792   0.206E+00    0.235E-01
DAV:   2    -0.108376372073E+02    0.23282E-02   -0.19562E-03 53656   0.277E-01    0.134E-01
DAV:   3    -0.108364834048E+02    0.11538E-02   -0.25270E-03 46624   0.252E-01    0.176E-02
DAV:   4    -0.108364861204E+02   -0.27156E-05   -0.27610E-05 57704   0.449E-02    0.379E-03
DAV:   5    -0.108364875581E+02   -0.14377E-05   -0.42100E-07 42720   0.497E-03    0.710E-04
DAV:   6    -0.108364870954E+02    0.46273E-06   -0.24572E-08 24840   0.132E-03
   3 F= -.10836487E+02 E0= -.10836622E+02  d E =-.145791E-01
