 vasp.5.4.4.18Apr17-6-g9f103f2a35 (build May 20 2018 16:52:39) complex          
  
 executed on             LinuxIFC date 2022.10.21  19:36:53
 running on    1 total cores
 distrk:  each k-point on    1 cores,    1 groups
 distr:  one band on NCORES_PER_BAND=   1 cores,    1 groups


--------------------------------------------------------------------------------------------------------


 INCAR:
 POTCAR:    PAW Si                                
 POTCAR:    PAW Si                                
   VRHFIN =Si: s2p2                                                             
   LEXCH  = 91                                                                  
   EATOM  =   103.3076 eV,    7.5929 Ry                                         
                                                                                
   TITEL  = PAW Si                                                              
   LULTRA =        F    use ultrasoft PP ?                                      
   IUNSCR =        1    unscreen: 0-lin 1-nonlin 2-no                           
   RPACOR =    1.500    partial core radius                                     
   POMASS =   28.085; ZVAL   =    4.000    mass and valenz                      
   RCORE  =    1.900    outmost cutoff radius                                   
   RWIGS  =    2.480; RWIGS  =    1.312    wigner-seitz radius (au A)           
   ENMAX  =  245.435; ENMIN  =  184.076 eV                                      
   ICORE  =        2    local potential                                         
   LCOR   =        T    correct aug charges                                     
   LPAW   =        T    paw PP                                                  
   EAUG   =  322.069                                                            
   DEXC   =    -.001                                                            
   RMAX   =    2.943    core radius for proj-oper                               
   RAUG   =    1.300    factor for augmentation sphere                          
   RDEP   =    1.993    core radius for depl-charge                             
   QCUT   =   -4.247; QGAM   =    8.494    optimization parameters              
                                                                                
   Description                                                                  
     l     E      TYP  RCUT    TYP  RCUT                                        
     0   .000     23  1.900                                                     
     0   .000     23  1.900                                                     
     1   .000     23  1.900                                                     
     1   .000     23  1.900                                                     
     2   .000      7  1.900                                                     
  local pseudopotential read in
  partial core-charges read in
  atomic valenz-charges read in
  non local Contribution for L=           0  read in
    real space projection operators read in
  non local Contribution for L=           0  read in
    real space projection operators read in
  non local Contribution for L=           1  read in
    real space projection operators read in
  non local Contribution for L=           1  read in
    real space projection operators read in
    PAW grid and wavefunctions read in
 
   number of l-projection  operators is LMAX  =           4
   number of lm-projection operators is LMMAX =           8
 
  PAW Si                                :
 energy of atom  1       EATOM= -103.3076
 kinetic energy error for atom=    0.0057 (will be added to EATOM!!)
 
 
 POSCAR: Si                                      
  positions in direct lattice
  No initial velocities read in
 exchange correlation table for  LEXCH =        7
   RHO(1)=    0.500       N(1)  =     2000
   RHO(2)=  100.500       N(2)  =     4000
 


--------------------------------------------------------------------------------------------------------


 ion  position               nearest neighbor table
   1  0.000  0.000  0.000-   2 2.34   2 2.34   2 2.34   2 2.34
   2  0.250  0.250  0.250-   1 2.34   1 2.34   1 2.34   1 2.34
 
  LATTYP: Found a face centered cubic cell.
 ALAT       =     5.4000000000
  
  Lattice vectors:
  
 A1 = (   0.0000000000,   2.7000000000,   2.7000000000)
 A2 = (   2.7000000000,   0.0000000000,   2.7000000000)
 A3 = (   2.7000000000,   2.7000000000,   0.0000000000)


Analysis of symmetry for initial positions (statically):
=====================================================================
 Subroutine PRICEL returns:
 Original cell was already a primitive cell.
 

 Routine SETGRP: Setting up the symmetry group for a 
 face centered cubic supercell.


 Subroutine GETGRP returns: Found 48 space group operations
 (whereof 24 operations were pure point group operations)
 out of a pool of 48 trial point group operations.


The static configuration has the point symmetry T_d .
 The point group associated with its full space group is O_h .


Analysis of symmetry for dynamics (positions and initial velocities):
=====================================================================
 Subroutine PRICEL returns:
 Original cell was already a primitive cell.
 

 Routine SETGRP: Setting up the symmetry group for a 
 face centered cubic supercell.


 Subroutine GETGRP returns: Found 48 space group operations
 (whereof 24 operations were pure point group operations)
 out of a pool of 48 trial point group operations.


The dynamic configuration has the point symmetry T_d .
 The point group associated with its full space group is O_h .


 Subroutine INISYM returns: Found 48 space group operations
 (whereof 24 operations are pure point group operations),
 and found     1 'primitive' translations

 
 
 KPOINTS: 30x30x30                                

Automatic generation of k-mesh.
Space group operators:
 irot       det(A)        alpha          n_x          n_y          n_z        tau_x        tau_y        tau_z
    1     1.000000     0.000000     1.000000     0.000000     0.000000     0.000000     0.000000     0.000000
    2     1.000000   120.000000    -0.577350    -0.577350    -0.577350     0.000000     0.000000     0.000000
    3     1.000000   120.000000     0.577350     0.577350     0.577350     0.000000     0.000000     0.000000
    4    -1.000000    90.000000     0.000000     0.000000    -1.000000     0.000000     0.000000     0.000000
    5    -1.000000   180.000000     0.000000     0.707107     0.707107     0.000000     0.000000     0.000000
    6    -1.000000    90.000000     0.000000     1.000000     0.000000     0.000000     0.000000     0.000000
    7     1.000000   180.000000     0.000000     0.000000     1.000000     0.000000     0.000000     0.000000
    8     1.000000   120.000000    -0.577350     0.577350     0.577350     0.000000     0.000000     0.000000
    9     1.000000   120.000000    -0.577350     0.577350    -0.577350     0.000000     0.000000     0.000000
   10    -1.000000    90.000000     0.000000     0.000000     1.000000     0.000000     0.000000     0.000000
   11    -1.000000    90.000000    -1.000000     0.000000     0.000000     0.000000     0.000000     0.000000
   12    -1.000000   180.000000     0.707107     0.000000     0.707107     0.000000     0.000000     0.000000
   13     1.000000   120.000000     0.577350    -0.577350     0.577350     0.000000     0.000000     0.000000
   14     1.000000   120.000000    -0.577350    -0.577350     0.577350     0.000000     0.000000     0.000000
   15     1.000000   180.000000     1.000000     0.000000     0.000000     0.000000     0.000000     0.000000
   16    -1.000000    90.000000     0.000000    -1.000000     0.000000     0.000000     0.000000     0.000000
   17    -1.000000   180.000000     0.707107     0.707107     0.000000     0.000000     0.000000     0.000000
   18    -1.000000    90.000000     1.000000     0.000000     0.000000     0.000000     0.000000     0.000000
   19     1.000000   120.000000     0.577350    -0.577350    -0.577350     0.000000     0.000000     0.000000
   20     1.000000   180.000000     0.000000     1.000000     0.000000     0.000000     0.000000     0.000000
   21     1.000000   120.000000     0.577350     0.577350    -0.577350     0.000000     0.000000     0.000000
   22    -1.000000   180.000000     0.000000    -0.707107     0.707107     0.000000     0.000000     0.000000
   23    -1.000000   180.000000     0.707107    -0.707107     0.000000     0.000000     0.000000     0.000000
   24    -1.000000   180.000000     0.707107     0.000000    -0.707107     0.000000     0.000000     0.000000
   25    -1.000000     0.000000     1.000000     0.000000     0.000000     0.250000     0.250000     0.250000
   26    -1.000000   120.000000    -0.577350    -0.577350    -0.577350     0.250000     0.250000     0.250000
   27    -1.000000   120.000000     0.577350     0.577350     0.577350     0.250000     0.250000     0.250000
   28     1.000000    90.000000     0.000000     0.000000    -1.000000     0.250000     0.250000     0.250000
   29     1.000000   180.000000     0.000000     0.707107     0.707107     0.250000     0.250000     0.250000
   30     1.000000    90.000000     0.000000     1.000000     0.000000     0.250000     0.250000     0.250000
   31    -1.000000   180.000000     0.000000     0.000000     1.000000     0.250000     0.250000     0.250000
   32    -1.000000   120.000000    -0.577350     0.577350     0.577350     0.250000     0.250000     0.250000
   33    -1.000000   120.000000    -0.577350     0.577350    -0.577350     0.250000     0.250000     0.250000
   34     1.000000    90.000000     0.000000     0.000000     1.000000     0.250000     0.250000     0.250000
   35     1.000000    90.000000    -1.000000     0.000000     0.000000     0.250000     0.250000     0.250000
   36     1.000000   180.000000     0.707107     0.000000     0.707107     0.250000     0.250000     0.250000
   37    -1.000000   120.000000     0.577350    -0.577350     0.577350     0.250000     0.250000     0.250000
   38    -1.000000   120.000000    -0.577350    -0.577350     0.577350     0.250000     0.250000     0.250000
   39    -1.000000   180.000000     1.000000     0.000000     0.000000     0.250000     0.250000     0.250000
   40     1.000000    90.000000     0.000000    -1.000000     0.000000     0.250000     0.250000     0.250000
   41     1.000000   180.000000     0.707107     0.707107     0.000000     0.250000     0.250000     0.250000
   42     1.000000    90.000000     1.000000     0.000000     0.000000     0.250000     0.250000     0.250000
   43    -1.000000   120.000000     0.577350    -0.577350    -0.577350     0.250000     0.250000     0.250000
   44    -1.000000   180.000000     0.000000     1.000000     0.000000     0.250000     0.250000     0.250000
   45    -1.000000   120.000000     0.577350     0.577350    -0.577350     0.250000     0.250000     0.250000
   46     1.000000   180.000000     0.000000    -0.707107     0.707107     0.250000     0.250000     0.250000
   47     1.000000   180.000000     0.707107    -0.707107     0.000000     0.250000     0.250000     0.250000
   48     1.000000   180.000000     0.707107     0.000000    -0.707107     0.250000     0.250000     0.250000
 
 Subroutine IBZKPT returns following result:
 ===========================================
 
 Found   2480 irreducible k-points:
 
 Following reciprocal coordinates:
            Coordinates               Weight
  0.016667  0.016667  0.016667     96.000000
  0.050000  0.016667  0.016667    288.000000
  0.083333  0.016667  0.016667    288.000000
  0.116667  0.016667  0.016667    288.000000
  0.150000  0.016667  0.016667    288.000000
  0.183333  0.016667  0.016667    288.000000
  0.216667  0.016667  0.016667    288.000000
  0.250000  0.016667  0.016667    288.000000
  0.283333  0.016667  0.016667    288.000000
  0.316667  0.016667  0.016667    288.000000
  0.350000  0.016667  0.016667    288.000000
  0.383333  0.016667  0.016667    288.000000
  0.416667  0.016667  0.016667    288.000000
  0.450000  0.016667  0.016667    288.000000
  0.483333  0.016667  0.016667    288.000000
 -0.483333  0.016667  0.016667    288.000000
 -0.450000  0.016667  0.016667    288.000000
 -0.416667  0.016667  0.016667    288.000000
 -0.383333  0.016667  0.016667    288.000000
 -0.350000  0.016667  0.016667    288.000000
 -0.316667  0.016667  0.016667    288.000000
 -0.283333  0.016667  0.016667    288.000000
 -0.250000  0.016667  0.016667    288.000000
 -0.216667  0.016667  0.016667    288.000000
 -0.183333  0.016667  0.016667    288.000000
 -0.150000  0.016667  0.016667    288.000000
 -0.116667  0.016667  0.016667    288.000000
 -0.083333  0.016667  0.016667    288.000000
 -0.050000  0.016667  0.016667    288.000000
 -0.016667  0.016667  0.016667    288.000000
  0.050000  0.050000  0.016667    288.000000
  0.083333  0.050000  0.016667    576.000000
  0.116667  0.050000  0.016667    576.000000
  0.150000  0.050000  0.016667    576.000000
  0.183333  0.050000  0.016667    576.000000
  0.216667  0.050000  0.016667    576.000000
  0.250000  0.050000  0.016667    576.000000
  0.283333  0.050000  0.016667    576.000000
  0.316667  0.050000  0.016667    576.000000
  0.350000  0.050000  0.016667    576.000000
  0.383333  0.050000  0.016667    576.000000
  0.416667  0.050000  0.016667    576.000000
  0.450000  0.050000  0.016667    576.000000
  0.483333  0.050000  0.016667    576.000000
 -0.483333  0.050000  0.016667    576.000000
 -0.450000  0.050000  0.016667    576.000000
 -0.416667  0.050000  0.016667    576.000000
 -0.383333  0.050000  0.016667    576.000000
 -0.350000  0.050000  0.016667    576.000000
 -0.316667  0.050000  0.016667    576.000000
 -0.283333  0.050000  0.016667    576.000000
 -0.250000  0.050000  0.016667    576.000000
 -0.216667  0.050000  0.016667    576.000000
 -0.183333  0.050000  0.016667    576.000000
 -0.150000  0.050000  0.016667    576.000000
 -0.116667  0.050000  0.016667    576.000000
 -0.083333  0.050000  0.016667    576.000000
 -0.050000  0.050000  0.016667    576.000000
 -0.016667  0.050000  0.016667    576.000000
  0.083333  0.083333  0.016667    288.000000
  0.116667  0.083333  0.016667    576.000000
  0.150000  0.083333  0.016667    576.000000
  0.183333  0.083333  0.016667    576.000000
  0.216667  0.083333  0.016667    576.000000
  0.250000  0.083333  0.016667    576.000000
  0.283333  0.083333  0.016667    576.000000
  0.316667  0.083333  0.016667    576.000000
  0.350000  0.083333  0.016667    576.000000
  0.383333  0.083333  0.016667    576.000000
  0.416667  0.083333  0.016667    576.000000
  0.450000  0.083333  0.016667    576.000000
  0.483333  0.083333  0.016667    576.000000
 -0.483333  0.083333  0.016667    576.000000
 -0.450000  0.083333  0.016667    576.000000
 -0.416667  0.083333  0.016667    576.000000
 -0.383333  0.083333  0.016667    576.000000
 -0.350000  0.083333  0.016667    576.000000
 -0.316667  0.083333  0.016667    576.000000
 -0.283333  0.083333  0.016667    576.000000
 -0.250000  0.083333  0.016667    576.000000
 -0.216667  0.083333  0.016667    576.000000
 -0.183333  0.083333  0.016667    576.000000
 -0.150000  0.083333  0.016667    576.000000
 -0.116667  0.083333  0.016667    576.000000
 -0.083333  0.083333  0.016667    576.000000
 -0.050000  0.083333  0.016667    576.000000
 -0.016667  0.083333  0.016667    576.000000
  0.116667  0.116667  0.016667    288.000000
  0.150000  0.116667  0.016667    576.000000
  0.183333  0.116667  0.016667    576.000000
  0.216667  0.116667  0.016667    576.000000
  0.250000  0.116667  0.016667    576.000000
  0.283333  0.116667  0.016667    576.000000
  0.316667  0.116667  0.016667    576.000000
  0.350000  0.116667  0.016667    576.000000
  0.383333  0.116667  0.016667    576.000000
  0.416667  0.116667  0.016667    576.000000
  0.450000  0.116667  0.016667    576.000000
  0.483333  0.116667  0.016667    576.000000
 -0.483333  0.116667  0.016667    576.000000
 -0.450000  0.116667  0.016667    576.000000
 -0.416667  0.116667  0.016667    576.000000
 -0.383333  0.116667  0.016667    576.000000
 -0.350000  0.116667  0.016667    576.000000
 -0.316667  0.116667  0.016667    576.000000
 -0.283333  0.116667  0.016667    576.000000
 -0.250000  0.116667  0.016667    576.000000
 -0.216667  0.116667  0.016667    576.000000
 -0.183333  0.116667  0.016667    576.000000
 -0.150000  0.116667  0.016667    576.000000
 -0.116667  0.116667  0.016667    576.000000
 -0.083333  0.116667  0.016667    576.000000
 -0.050000  0.116667  0.016667    576.000000
 -0.016667  0.116667  0.016667    576.000000
  0.150000  0.150000  0.016667    288.000000
  0.183333  0.150000  0.016667    576.000000
  0.216667  0.150000  0.016667    576.000000
  0.250000  0.150000  0.016667    576.000000
  0.283333  0.150000  0.016667    576.000000
  0.316667  0.150000  0.016667    576.000000
  0.350000  0.150000  0.016667    576.000000
  0.383333  0.150000  0.016667    576.000000
  0.416667  0.150000  0.016667    576.000000
  0.450000  0.150000  0.016667    576.000000
  0.483333  0.150000  0.016667    576.000000
 -0.483333  0.150000  0.016667    576.000000
 -0.450000  0.150000  0.016667    576.000000
 -0.416667  0.150000  0.016667    576.000000
 -0.383333  0.150000  0.016667    576.000000
 -0.350000  0.150000  0.016667    576.000000
 -0.316667  0.150000  0.016667    576.000000
 -0.283333  0.150000  0.016667    576.000000
 -0.250000  0.150000  0.016667    576.000000
 -0.216667  0.150000  0.016667    576.000000
 -0.183333  0.150000  0.016667    576.000000
 -0.150000  0.150000  0.016667    576.000000
 -0.116667  0.150000  0.016667    576.000000
 -0.083333  0.150000  0.016667    576.000000
 -0.050000  0.150000  0.016667    576.000000
 -0.016667  0.150000  0.016667    576.000000
  0.183333  0.183333  0.016667    288.000000
  0.216667  0.183333  0.016667    576.000000
  0.250000  0.183333  0.016667    576.000000
  0.283333  0.183333  0.016667    576.000000
  0.316667  0.183333  0.016667    576.000000
  0.350000  0.183333  0.016667    576.000000
  0.383333  0.183333  0.016667    576.000000
  0.416667  0.183333  0.016667    576.000000
  0.450000  0.183333  0.016667    576.000000
  0.483333  0.183333  0.016667    576.000000
 -0.483333  0.183333  0.016667    576.000000
 -0.450000  0.183333  0.016667    576.000000
 -0.416667  0.183333  0.016667    576.000000
 -0.383333  0.183333  0.016667    576.000000
 -0.350000  0.183333  0.016667    576.000000
 -0.316667  0.183333  0.016667    576.000000
 -0.283333  0.183333  0.016667    576.000000
 -0.250000  0.183333  0.016667    576.000000
 -0.216667  0.183333  0.016667    576.000000
 -0.183333  0.183333  0.016667    576.000000
 -0.150000  0.183333  0.016667    576.000000
 -0.116667  0.183333  0.016667    576.000000
 -0.083333  0.183333  0.016667    576.000000
 -0.050000  0.183333  0.016667    576.000000
 -0.016667  0.183333  0.016667    576.000000
  0.216667  0.216667  0.016667    288.000000
  0.250000  0.216667  0.016667    576.000000
  0.283333  0.216667  0.016667    576.000000
  0.316667  0.216667  0.016667    576.000000
  0.350000  0.216667  0.016667    576.000000
  0.383333  0.216667  0.016667    576.000000
  0.416667  0.216667  0.016667    576.000000
  0.450000  0.216667  0.016667    576.000000
  0.483333  0.216667  0.016667    576.000000
 -0.483333  0.216667  0.016667    576.000000
 -0.450000  0.216667  0.016667    576.000000
 -0.416667  0.216667  0.016667    576.000000
 -0.383333  0.216667  0.016667    576.000000
 -0.350000  0.216667  0.016667    576.000000
 -0.316667  0.216667  0.016667    576.000000
 -0.283333  0.216667  0.016667    576.000000
 -0.250000  0.216667  0.016667    576.000000
 -0.216667  0.216667  0.016667    576.000000
 -0.183333  0.216667  0.016667    576.000000
 -0.150000  0.216667  0.016667    576.000000
 -0.116667  0.216667  0.016667    576.000000
 -0.083333  0.216667  0.016667    576.000000
 -0.050000  0.216667  0.016667    576.000000
 -0.016667  0.216667  0.016667    576.000000
  0.250000  0.250000  0.016667    288.000000
  0.283333  0.250000  0.016667    576.000000
  0.316667  0.250000  0.016667    576.000000
  0.350000  0.250000  0.016667    576.000000
  0.383333  0.250000  0.016667    576.000000
  0.416667  0.250000  0.016667    576.000000
  0.450000  0.250000  0.016667    576.000000
  0.483333  0.250000  0.016667    576.000000
 -0.483333  0.250000  0.016667    576.000000
 -0.450000  0.250000  0.016667    576.000000
 -0.416667  0.250000  0.016667    576.000000
 -0.383333  0.250000  0.016667    576.000000
 -0.350000  0.250000  0.016667    576.000000
 -0.316667  0.250000  0.016667    576.000000
 -0.283333  0.250000  0.016667    576.000000
 -0.250000  0.250000  0.016667    576.000000
 -0.216667  0.250000  0.016667    576.000000
 -0.183333  0.250000  0.016667    576.000000
 -0.150000  0.250000  0.016667    576.000000
 -0.116667  0.250000  0.016667    576.000000
 -0.083333  0.250000  0.016667    576.000000
 -0.050000  0.250000  0.016667    576.000000
 -0.016667  0.250000  0.016667    576.000000
  0.283333  0.283333  0.016667    288.000000
  0.316667  0.283333  0.016667    576.000000
  0.350000  0.283333  0.016667    576.000000
  0.383333  0.283333  0.016667    576.000000
  0.416667  0.283333  0.016667    576.000000
  0.450000  0.283333  0.016667    576.000000
  0.483333  0.283333  0.016667    576.000000
 -0.483333  0.283333  0.016667    576.000000
 -0.450000  0.283333  0.016667    576.000000
 -0.416667  0.283333  0.016667    576.000000
 -0.383333  0.283333  0.016667    576.000000
 -0.350000  0.283333  0.016667    576.000000
 -0.316667  0.283333  0.016667    576.000000
 -0.283333  0.283333  0.016667    576.000000
 -0.250000  0.283333  0.016667    576.000000
 -0.216667  0.283333  0.016667    576.000000
 -0.183333  0.283333  0.016667    576.000000
 -0.150000  0.283333  0.016667    576.000000
 -0.116667  0.283333  0.016667    576.000000
 -0.083333  0.283333  0.016667    576.000000
 -0.050000  0.283333  0.016667    576.000000
 -0.016667  0.283333  0.016667    576.000000
  0.316667  0.316667  0.016667    288.000000
  0.350000  0.316667  0.016667    576.000000
  0.383333  0.316667  0.016667    576.000000
  0.416667  0.316667  0.016667    576.000000
  0.450000  0.316667  0.016667    576.000000
  0.483333  0.316667  0.016667    576.000000
 -0.483333  0.316667  0.016667    576.000000
 -0.450000  0.316667  0.016667    576.000000
 -0.416667  0.316667  0.016667    576.000000
 -0.383333  0.316667  0.016667    576.000000
 -0.350000  0.316667  0.016667    576.000000
 -0.316667  0.316667  0.016667    576.000000
 -0.283333  0.316667  0.016667    576.000000
 -0.250000  0.316667  0.016667    576.000000
 -0.216667  0.316667  0.016667    576.000000
 -0.183333  0.316667  0.016667    576.000000
 -0.150000  0.316667  0.016667    576.000000
 -0.116667  0.316667  0.016667    576.000000
 -0.083333  0.316667  0.016667    576.000000
 -0.050000  0.316667  0.016667    576.000000
 -0.016667  0.316667  0.016667    576.000000
  0.350000  0.350000  0.016667    288.000000
  0.383333  0.350000  0.016667    576.000000
  0.416667  0.350000  0.016667    576.000000
  0.450000  0.350000  0.016667    576.000000
  0.483333  0.350000  0.016667    576.000000
 -0.483333  0.350000  0.016667    576.000000
 -0.450000  0.350000  0.016667    576.000000
 -0.416667  0.350000  0.016667    576.000000
 -0.383333  0.350000  0.016667    576.000000
 -0.350000  0.350000  0.016667    576.000000
 -0.316667  0.350000  0.016667    576.000000
 -0.283333  0.350000  0.016667    576.000000
 -0.250000  0.350000  0.016667    576.000000
 -0.216667  0.350000  0.016667    576.000000
 -0.183333  0.350000  0.016667    576.000000
 -0.150000  0.350000  0.016667    576.000000
 -0.116667  0.350000  0.016667    576.000000
 -0.083333  0.350000  0.016667    576.000000
 -0.050000  0.350000  0.016667    576.000000
 -0.016667  0.350000  0.016667    576.000000
  0.383333  0.383333  0.016667    288.000000
  0.416667  0.383333  0.016667    576.000000
  0.450000  0.383333  0.016667    576.000000
  0.483333  0.383333  0.016667    576.000000
 -0.483333  0.383333  0.016667    576.000000
 -0.450000  0.383333  0.016667    576.000000
 -0.416667  0.383333  0.016667    576.000000
 -0.383333  0.383333  0.016667    576.000000
 -0.350000  0.383333  0.016667    576.000000
 -0.316667  0.383333  0.016667    576.000000
 -0.283333  0.383333  0.016667    576.000000
 -0.250000  0.383333  0.016667    576.000000
 -0.216667  0.383333  0.016667    576.000000
 -0.183333  0.383333  0.016667    576.000000
 -0.150000  0.383333  0.016667    576.000000
 -0.116667  0.383333  0.016667    576.000000
 -0.083333  0.383333  0.016667    576.000000
 -0.050000  0.383333  0.016667    576.000000
 -0.016667  0.383333  0.016667    576.000000
  0.416667  0.416667  0.016667    288.000000
  0.450000  0.416667  0.016667    576.000000
  0.483333  0.416667  0.016667    576.000000
 -0.483333  0.416667  0.016667    576.000000
 -0.450000  0.416667  0.016667    576.000000
 -0.416667  0.416667  0.016667    576.000000
 -0.383333  0.416667  0.016667    576.000000
 -0.350000  0.416667  0.016667    576.000000
 -0.316667  0.416667  0.016667    576.000000
 -0.283333  0.416667  0.016667    576.000000
 -0.250000  0.416667  0.016667    576.000000
 -0.216667  0.416667  0.016667    576.000000
 -0.183333  0.416667  0.016667    576.000000
 -0.150000  0.416667  0.016667    576.000000
 -0.116667  0.416667  0.016667    576.000000
 -0.083333  0.416667  0.016667    576.000000
 -0.050000  0.416667  0.016667    576.000000
 -0.016667  0.416667  0.016667    576.000000
  0.450000  0.450000  0.016667    288.000000
  0.483333  0.450000  0.016667    576.000000
 -0.483333  0.450000  0.016667    576.000000
 -0.450000  0.450000  0.016667    576.000000
 -0.416667  0.450000  0.016667    576.000000
 -0.383333  0.450000  0.016667    576.000000
 -0.350000  0.450000  0.016667    576.000000
 -0.316667  0.450000  0.016667    576.000000
 -0.283333  0.450000  0.016667    576.000000
 -0.250000  0.450000  0.016667    576.000000
 -0.216667  0.450000  0.016667    576.000000
 -0.183333  0.450000  0.016667    576.000000
 -0.150000  0.450000  0.016667    576.000000
 -0.116667  0.450000  0.016667    576.000000
 -0.083333  0.450000  0.016667    576.000000
 -0.050000  0.450000  0.016667    576.000000
 -0.016667  0.450000  0.016667    576.000000
  0.483333  0.483333  0.016667    288.000000
 -0.483333  0.483333  0.016667    576.000000
 -0.450000  0.483333  0.016667    576.000000
 -0.416667  0.483333  0.016667    576.000000
 -0.383333  0.483333  0.016667    576.000000
 -0.350000  0.483333  0.016667    576.000000
 -0.316667  0.483333  0.016667    576.000000
 -0.283333  0.483333  0.016667    576.000000
 -0.250000  0.483333  0.016667    576.000000
 -0.216667  0.483333  0.016667    576.000000
 -0.183333  0.483333  0.016667    576.000000
 -0.150000  0.483333  0.016667    576.000000
 -0.116667  0.483333  0.016667    576.000000
 -0.083333  0.483333  0.016667    576.000000
 -0.050000  0.483333  0.016667    576.000000
 -0.016667  0.483333  0.016667    576.000000
 -0.483333 -0.483333  0.016667    288.000000
 -0.450000 -0.483333  0.016667    576.000000
 -0.416667 -0.483333  0.016667    576.000000
 -0.383333 -0.483333  0.016667    576.000000
 -0.350000 -0.483333  0.016667    576.000000
 -0.316667 -0.483333  0.016667    576.000000
 -0.283333 -0.483333  0.016667    576.000000
 -0.250000 -0.483333  0.016667    576.000000
 -0.216667 -0.483333  0.016667    576.000000
 -0.183333 -0.483333  0.016667    576.000000
 -0.150000 -0.483333  0.016667    576.000000
 -0.116667 -0.483333  0.016667    576.000000
 -0.083333 -0.483333  0.016667    576.000000
 -0.050000 -0.483333  0.016667    576.000000
 -0.450000 -0.450000  0.016667    288.000000
 -0.416667 -0.450000  0.016667    576.000000
 -0.383333 -0.450000  0.016667    576.000000
 -0.350000 -0.450000  0.016667    576.000000
 -0.316667 -0.450000  0.016667    576.000000
 -0.283333 -0.450000  0.016667    576.000000
 -0.250000 -0.450000  0.016667    576.000000
 -0.216667 -0.450000  0.016667    576.000000
 -0.183333 -0.450000  0.016667    576.000000
 -0.150000 -0.450000  0.016667    576.000000
 -0.116667 -0.450000  0.016667    576.000000
 -0.083333 -0.450000  0.016667    576.000000
 -0.050000 -0.450000  0.016667    576.000000
 -0.416667 -0.416667  0.016667    288.000000
 -0.383333 -0.416667  0.016667    576.000000
 -0.350000 -0.416667  0.016667    576.000000
 -0.316667 -0.416667  0.016667    576.000000
 -0.283333 -0.416667  0.016667    576.000000
 -0.250000 -0.416667  0.016667    576.000000
 -0.216667 -0.416667  0.016667    576.000000
 -0.183333 -0.416667  0.016667    576.000000
 -0.150000 -0.416667  0.016667    576.000000
 -0.116667 -0.416667  0.016667    576.000000
 -0.083333 -0.416667  0.016667    576.000000
 -0.050000 -0.416667  0.016667    576.000000
 -0.383333 -0.383333  0.016667    288.000000
 -0.350000 -0.383333  0.016667    576.000000
 -0.316667 -0.383333  0.016667    576.000000
 -0.283333 -0.383333  0.016667    576.000000
 -0.250000 -0.383333  0.016667    576.000000
 -0.216667 -0.383333  0.016667    576.000000
 -0.183333 -0.383333  0.016667    576.000000
 -0.150000 -0.383333  0.016667    576.000000
 -0.116667 -0.383333  0.016667    576.000000
 -0.083333 -0.383333  0.016667    576.000000
 -0.050000 -0.383333  0.016667    576.000000
 -0.350000 -0.350000  0.016667    288.000000
 -0.316667 -0.350000  0.016667    576.000000
 -0.283333 -0.350000  0.016667    576.000000
 -0.250000 -0.350000  0.016667    576.000000
 -0.216667 -0.350000  0.016667    576.000000
 -0.183333 -0.350000  0.016667    576.000000
 -0.150000 -0.350000  0.016667    576.000000
 -0.116667 -0.350000  0.016667    576.000000
 -0.083333 -0.350000  0.016667    576.000000
 -0.050000 -0.350000  0.016667    576.000000
 -0.316667 -0.316667  0.016667    288.000000
 -0.283333 -0.316667  0.016667    576.000000
 -0.250000 -0.316667  0.016667    576.000000
 -0.216667 -0.316667  0.016667    576.000000
 -0.183333 -0.316667  0.016667    576.000000
 -0.150000 -0.316667  0.016667    576.000000
 -0.116667 -0.316667  0.016667    576.000000
 -0.083333 -0.316667  0.016667    576.000000
 -0.050000 -0.316667  0.016667    576.000000
 -0.283333 -0.283333  0.016667    288.000000
 -0.250000 -0.283333  0.016667    576.000000
 -0.216667 -0.283333  0.016667    576.000000
 -0.183333 -0.283333  0.016667    576.000000
 -0.150000 -0.283333  0.016667    576.000000
 -0.116667 -0.283333  0.016667    576.000000
 -0.083333 -0.283333  0.016667    576.000000
 -0.050000 -0.283333  0.016667    576.000000
 -0.250000 -0.250000  0.016667    288.000000
 -0.216667 -0.250000  0.016667    576.000000
 -0.183333 -0.250000  0.016667    576.000000
 -0.150000 -0.250000  0.016667    576.000000
 -0.116667 -0.250000  0.016667    576.000000
 -0.083333 -0.250000  0.016667    576.000000
 -0.050000 -0.250000  0.016667    576.000000
 -0.216667 -0.216667  0.016667    288.000000
 -0.183333 -0.216667  0.016667    576.000000
 -0.150000 -0.216667  0.016667    576.000000
 -0.116667 -0.216667  0.016667    576.000000
 -0.083333 -0.216667  0.016667    576.000000
 -0.050000 -0.216667  0.016667    576.000000
 -0.183333 -0.183333  0.016667    288.000000
 -0.150000 -0.183333  0.016667    576.000000
 -0.116667 -0.183333  0.016667    576.000000
 -0.083333 -0.183333  0.016667    576.000000
 -0.050000 -0.183333  0.016667    576.000000
 -0.150000 -0.150000  0.016667    288.000000
 -0.116667 -0.150000  0.016667    576.000000
 -0.083333 -0.150000  0.016667    576.000000
 -0.050000 -0.150000  0.016667    576.000000
 -0.116667 -0.116667  0.016667    288.000000
 -0.083333 -0.116667  0.016667    576.000000
 -0.050000 -0.116667  0.016667    576.000000
 -0.083333 -0.083333  0.016667    288.000000
 -0.050000 -0.083333  0.016667    576.000000
 -0.050000 -0.050000  0.016667    288.000000
  0.050000  0.050000  0.050000     96.000000
  0.083333  0.050000  0.050000    288.000000
  0.116667  0.050000  0.050000    288.000000
  0.150000  0.050000  0.050000    288.000000
  0.183333  0.050000  0.050000    288.000000
  0.216667  0.050000  0.050000    288.000000
  0.250000  0.050000  0.050000    288.000000
  0.283333  0.050000  0.050000    288.000000
  0.316667  0.050000  0.050000    288.000000
  0.350000  0.050000  0.050000    288.000000
  0.383333  0.050000  0.050000    288.000000
  0.416667  0.050000  0.050000    288.000000
  0.450000  0.050000  0.050000    288.000000
  0.483333  0.050000  0.050000    288.000000
 -0.483333  0.050000  0.050000    288.000000
 -0.450000  0.050000  0.050000    288.000000
 -0.416667  0.050000  0.050000    288.000000
 -0.383333  0.050000  0.050000    288.000000
 -0.350000  0.050000  0.050000    288.000000
 -0.316667  0.050000  0.050000    288.000000
 -0.283333  0.050000  0.050000    288.000000
 -0.250000  0.050000  0.050000    288.000000
 -0.216667  0.050000  0.050000    288.000000
 -0.183333  0.050000  0.050000    288.000000
 -0.150000  0.050000  0.050000    288.000000
 -0.116667  0.050000  0.050000    288.000000
 -0.083333  0.050000  0.050000    288.000000
 -0.050000  0.050000  0.050000    288.000000
  0.083333  0.083333  0.050000    288.000000
  0.116667  0.083333  0.050000    576.000000
  0.150000  0.083333  0.050000    576.000000
  0.183333  0.083333  0.050000    576.000000
  0.216667  0.083333  0.050000    576.000000
  0.250000  0.083333  0.050000    576.000000
  0.283333  0.083333  0.050000    576.000000
  0.316667  0.083333  0.050000    576.000000
  0.350000  0.083333  0.050000    576.000000
  0.383333  0.083333  0.050000    576.000000
  0.416667  0.083333  0.050000    576.000000
  0.450000  0.083333  0.050000    576.000000
  0.483333  0.083333  0.050000    576.000000
 -0.483333  0.083333  0.050000    576.000000
 -0.450000  0.083333  0.050000    576.000000
 -0.416667  0.083333  0.050000    576.000000
 -0.383333  0.083333  0.050000    576.000000
 -0.350000  0.083333  0.050000    576.000000
 -0.316667  0.083333  0.050000    576.000000
 -0.283333  0.083333  0.050000    576.000000
 -0.250000  0.083333  0.050000    576.000000
 -0.216667  0.083333  0.050000    576.000000
 -0.183333  0.083333  0.050000    576.000000
 -0.150000  0.083333  0.050000    576.000000
 -0.116667  0.083333  0.050000    576.000000
 -0.083333  0.083333  0.050000    576.000000
 -0.050000  0.083333  0.050000    576.000000
  0.116667  0.116667  0.050000    288.000000
  0.150000  0.116667  0.050000    576.000000
  0.183333  0.116667  0.050000    576.000000
  0.216667  0.116667  0.050000    576.000000
  0.250000  0.116667  0.050000    576.000000
  0.283333  0.116667  0.050000    576.000000
  0.316667  0.116667  0.050000    576.000000
  0.350000  0.116667  0.050000    576.000000
  0.383333  0.116667  0.050000    576.000000
  0.416667  0.116667  0.050000    576.000000
  0.450000  0.116667  0.050000    576.000000
  0.483333  0.116667  0.050000    576.000000
 -0.483333  0.116667  0.050000    576.000000
 -0.450000  0.116667  0.050000    576.000000
 -0.416667  0.116667  0.050000    576.000000
 -0.383333  0.116667  0.050000    576.000000
 -0.350000  0.116667  0.050000    576.000000
 -0.316667  0.116667  0.050000    576.000000
 -0.283333  0.116667  0.050000    576.000000
 -0.250000  0.116667  0.050000    576.000000
 -0.216667  0.116667  0.050000    576.000000
 -0.183333  0.116667  0.050000    576.000000
 -0.150000  0.116667  0.050000    576.000000
 -0.116667  0.116667  0.050000    576.000000
 -0.083333  0.116667  0.050000    576.000000
 -0.050000  0.116667  0.050000    576.000000
  0.150000  0.150000  0.050000    288.000000
  0.183333  0.150000  0.050000    576.000000
  0.216667  0.150000  0.050000    576.000000
  0.250000  0.150000  0.050000    576.000000
  0.283333  0.150000  0.050000    576.000000
  0.316667  0.150000  0.050000    576.000000
  0.350000  0.150000  0.050000    576.000000
  0.383333  0.150000  0.050000    576.000000
  0.416667  0.150000  0.050000    576.000000
  0.450000  0.150000  0.050000    576.000000
  0.483333  0.150000  0.050000    576.000000
 -0.483333  0.150000  0.050000    576.000000
 -0.450000  0.150000  0.050000    576.000000
 -0.416667  0.150000  0.050000    576.000000
 -0.383333  0.150000  0.050000    576.000000
 -0.350000  0.150000  0.050000    576.000000
 -0.316667  0.150000  0.050000    576.000000
 -0.283333  0.150000  0.050000    576.000000
 -0.250000  0.150000  0.050000    576.000000
 -0.216667  0.150000  0.050000    576.000000
 -0.183333  0.150000  0.050000    576.000000
 -0.150000  0.150000  0.050000    576.000000
 -0.116667  0.150000  0.050000    576.000000
 -0.083333  0.150000  0.050000    576.000000
 -0.050000  0.150000  0.050000    576.000000
  0.183333  0.183333  0.050000    288.000000
  0.216667  0.183333  0.050000    576.000000
  0.250000  0.183333  0.050000    576.000000
  0.283333  0.183333  0.050000    576.000000
  0.316667  0.183333  0.050000    576.000000
  0.350000  0.183333  0.050000    576.000000
  0.383333  0.183333  0.050000    576.000000
  0.416667  0.183333  0.050000    576.000000
  0.450000  0.183333  0.050000    576.000000
  0.483333  0.183333  0.050000    576.000000
 -0.483333  0.183333  0.050000    576.000000
 -0.450000  0.183333  0.050000    576.000000
 -0.416667  0.183333  0.050000    576.000000
 -0.383333  0.183333  0.050000    576.000000
 -0.350000  0.183333  0.050000    576.000000
 -0.316667  0.183333  0.050000    576.000000
 -0.283333  0.183333  0.050000    576.000000
 -0.250000  0.183333  0.050000    576.000000
 -0.216667  0.183333  0.050000    576.000000
 -0.183333  0.183333  0.050000    576.000000
 -0.150000  0.183333  0.050000    576.000000
 -0.116667  0.183333  0.050000    576.000000
 -0.083333  0.183333  0.050000    576.000000
 -0.050000  0.183333  0.050000    576.000000
  0.216667  0.216667  0.050000    288.000000
  0.250000  0.216667  0.050000    576.000000
  0.283333  0.216667  0.050000    576.000000
  0.316667  0.216667  0.050000    576.000000
  0.350000  0.216667  0.050000    576.000000
  0.383333  0.216667  0.050000    576.000000
  0.416667  0.216667  0.050000    576.000000
  0.450000  0.216667  0.050000    576.000000
  0.483333  0.216667  0.050000    576.000000
 -0.483333  0.216667  0.050000    576.000000
 -0.450000  0.216667  0.050000    576.000000
 -0.416667  0.216667  0.050000    576.000000
 -0.383333  0.216667  0.050000    576.000000
 -0.350000  0.216667  0.050000    576.000000
 -0.316667  0.216667  0.050000    576.000000
 -0.283333  0.216667  0.050000    576.000000
 -0.250000  0.216667  0.050000    576.000000
 -0.216667  0.216667  0.050000    576.000000
 -0.183333  0.216667  0.050000    576.000000
 -0.150000  0.216667  0.050000    576.000000
 -0.116667  0.216667  0.050000    576.000000
 -0.083333  0.216667  0.050000    576.000000
 -0.050000  0.216667  0.050000    576.000000
  0.250000  0.250000  0.050000    288.000000
  0.283333  0.250000  0.050000    576.000000
  0.316667  0.250000  0.050000    576.000000
  0.350000  0.250000  0.050000    576.000000
  0.383333  0.250000  0.050000    576.000000
  0.416667  0.250000  0.050000    576.000000
  0.450000  0.250000  0.050000    576.000000
  0.483333  0.250000  0.050000    576.000000
 -0.483333  0.250000  0.050000    576.000000
 -0.450000  0.250000  0.050000    576.000000
 -0.416667  0.250000  0.050000    576.000000
 -0.383333  0.250000  0.050000    576.000000
 -0.350000  0.250000  0.050000    576.000000
 -0.316667  0.250000  0.050000    576.000000
 -0.283333  0.250000  0.050000    576.000000
 -0.250000  0.250000  0.050000    576.000000
 -0.216667  0.250000  0.050000    576.000000
 -0.183333  0.250000  0.050000    576.000000
 -0.150000  0.250000  0.050000    576.000000
 -0.116667  0.250000  0.050000    576.000000
 -0.083333  0.250000  0.050000    576.000000
 -0.050000  0.250000  0.050000    576.000000
  0.283333  0.283333  0.050000    288.000000
  0.316667  0.283333  0.050000    576.000000
  0.350000  0.283333  0.050000    576.000000
  0.383333  0.283333  0.050000    576.000000
  0.416667  0.283333  0.050000    576.000000
  0.450000  0.283333  0.050000    576.000000
  0.483333  0.283333  0.050000    576.000000
 -0.483333  0.283333  0.050000    576.000000
 -0.450000  0.283333  0.050000    576.000000
 -0.416667  0.283333  0.050000    576.000000
 -0.383333  0.283333  0.050000    576.000000
 -0.350000  0.283333  0.050000    576.000000
 -0.316667  0.283333  0.050000    576.000000
 -0.283333  0.283333  0.050000    576.000000
 -0.250000  0.283333  0.050000    576.000000
 -0.216667  0.283333  0.050000    576.000000
 -0.183333  0.283333  0.050000    576.000000
 -0.150000  0.283333  0.050000    576.000000
 -0.116667  0.283333  0.050000    576.000000
 -0.083333  0.283333  0.050000    576.000000
 -0.050000  0.283333  0.050000    576.000000
  0.316667  0.316667  0.050000    288.000000
  0.350000  0.316667  0.050000    576.000000
  0.383333  0.316667  0.050000    576.000000
  0.416667  0.316667  0.050000    576.000000
  0.450000  0.316667  0.050000    576.000000
  0.483333  0.316667  0.050000    576.000000
 -0.483333  0.316667  0.050000    576.000000
 -0.450000  0.316667  0.050000    576.000000
 -0.416667  0.316667  0.050000    576.000000
 -0.383333  0.316667  0.050000    576.000000
 -0.350000  0.316667  0.050000    576.000000
 -0.316667  0.316667  0.050000    576.000000
 -0.283333  0.316667  0.050000    576.000000
 -0.250000  0.316667  0.050000    576.000000
 -0.216667  0.316667  0.050000    576.000000
 -0.183333  0.316667  0.050000    576.000000
 -0.150000  0.316667  0.050000    576.000000
 -0.116667  0.316667  0.050000    576.000000
 -0.083333  0.316667  0.050000    576.000000
 -0.050000  0.316667  0.050000    576.000000
  0.350000  0.350000  0.050000    288.000000
  0.383333  0.350000  0.050000    576.000000
  0.416667  0.350000  0.050000    576.000000
  0.450000  0.350000  0.050000    576.000000
  0.483333  0.350000  0.050000    576.000000
 -0.483333  0.350000  0.050000    576.000000
 -0.450000  0.350000  0.050000    576.000000
 -0.416667  0.350000  0.050000    576.000000
 -0.383333  0.350000  0.050000    576.000000
 -0.350000  0.350000  0.050000    576.000000
 -0.316667  0.350000  0.050000    576.000000
 -0.283333  0.350000  0.050000    576.000000
 -0.250000  0.350000  0.050000    576.000000
 -0.216667  0.350000  0.050000    576.000000
 -0.183333  0.350000  0.050000    576.000000
 -0.150000  0.350000  0.050000    576.000000
 -0.116667  0.350000  0.050000    576.000000
 -0.083333  0.350000  0.050000    576.000000
 -0.050000  0.350000  0.050000    576.000000
  0.383333  0.383333  0.050000    288.000000
  0.416667  0.383333  0.050000    576.000000
  0.450000  0.383333  0.050000    576.000000
  0.483333  0.383333  0.050000    576.000000
 -0.483333  0.383333  0.050000    576.000000
 -0.450000  0.383333  0.050000    576.000000
 -0.416667  0.383333  0.050000    576.000000
 -0.383333  0.383333  0.050000    576.000000
 -0.350000  0.383333  0.050000    576.000000
 -0.316667  0.383333  0.050000    576.000000
 -0.283333  0.383333  0.050000    576.000000
 -0.250000  0.383333  0.050000    576.000000
 -0.216667  0.383333  0.050000    576.000000
 -0.183333  0.383333  0.050000    576.000000
 -0.150000  0.383333  0.050000    576.000000
 -0.116667  0.383333  0.050000    576.000000
 -0.083333  0.383333  0.050000    576.000000
 -0.050000  0.383333  0.050000    576.000000
  0.416667  0.416667  0.050000    288.000000
  0.450000  0.416667  0.050000    576.000000
  0.483333  0.416667  0.050000    576.000000
 -0.483333  0.416667  0.050000    576.000000
 -0.450000  0.416667  0.050000    576.000000
 -0.416667  0.416667  0.050000    576.000000
 -0.383333  0.416667  0.050000    576.000000
 -0.350000  0.416667  0.050000    576.000000
 -0.316667  0.416667  0.050000    576.000000
 -0.283333  0.416667  0.050000    576.000000
 -0.250000  0.416667  0.050000    576.000000
 -0.216667  0.416667  0.050000    576.000000
 -0.183333  0.416667  0.050000    576.000000
 -0.150000  0.416667  0.050000    576.000000
 -0.116667  0.416667  0.050000    576.000000
 -0.083333  0.416667  0.050000    576.000000
 -0.050000  0.416667  0.050000    576.000000
  0.450000  0.450000  0.050000    288.000000
  0.483333  0.450000  0.050000    576.000000
 -0.483333  0.450000  0.050000    576.000000
 -0.450000  0.450000  0.050000    576.000000
 -0.416667  0.450000  0.050000    576.000000
 -0.383333  0.450000  0.050000    576.000000
 -0.350000  0.450000  0.050000    576.000000
 -0.316667  0.450000  0.050000    576.000000
 -0.283333  0.450000  0.050000    576.000000
 -0.250000  0.450000  0.050000    576.000000
 -0.216667  0.450000  0.050000    576.000000
 -0.183333  0.450000  0.050000    576.000000
 -0.150000  0.450000  0.050000    576.000000
 -0.116667  0.450000  0.050000    576.000000
 -0.083333  0.450000  0.050000    576.000000
 -0.050000  0.450000  0.050000    576.000000
  0.483333  0.483333  0.050000    288.000000
 -0.483333  0.483333  0.050000    576.000000
 -0.450000  0.483333  0.050000    576.000000
 -0.416667  0.483333  0.050000    576.000000
 -0.383333  0.483333  0.050000    576.000000
 -0.350000  0.483333  0.050000    576.000000
 -0.316667  0.483333  0.050000    576.000000
 -0.283333  0.483333  0.050000    576.000000
 -0.250000  0.483333  0.050000    576.000000
 -0.216667  0.483333  0.050000    576.000000
 -0.183333  0.483333  0.050000    576.000000
 -0.150000  0.483333  0.050000    576.000000
 -0.116667  0.483333  0.050000    576.000000
 -0.083333  0.483333  0.050000    576.000000
 -0.050000  0.483333  0.050000    576.000000
 -0.483333 -0.483333  0.050000    288.000000
 -0.450000 -0.483333  0.050000    576.000000
 -0.416667 -0.483333  0.050000    576.000000
 -0.383333 -0.483333  0.050000    576.000000
 -0.350000 -0.483333  0.050000    576.000000
 -0.316667 -0.483333  0.050000    576.000000
 -0.283333 -0.483333  0.050000    576.000000
 -0.250000 -0.483333  0.050000    576.000000
 -0.216667 -0.483333  0.050000    576.000000
 -0.183333 -0.483333  0.050000    576.000000
 -0.150000 -0.483333  0.050000    576.000000
 -0.116667 -0.483333  0.050000    576.000000
 -0.083333 -0.483333  0.050000    576.000000
 -0.450000 -0.450000  0.050000    288.000000
 -0.416667 -0.450000  0.050000    576.000000
 -0.383333 -0.450000  0.050000    576.000000
 -0.350000 -0.450000  0.050000    576.000000
 -0.316667 -0.450000  0.050000    576.000000
 -0.283333 -0.450000  0.050000    576.000000
 -0.250000 -0.450000  0.050000    576.000000
 -0.216667 -0.450000  0.050000    576.000000
 -0.183333 -0.450000  0.050000    576.000000
 -0.150000 -0.450000  0.050000    576.000000
 -0.116667 -0.450000  0.050000    576.000000
 -0.083333 -0.450000  0.050000    576.000000
 -0.416667 -0.416667  0.050000    288.000000
 -0.383333 -0.416667  0.050000    576.000000
 -0.350000 -0.416667  0.050000    576.000000
 -0.316667 -0.416667  0.050000    576.000000
 -0.283333 -0.416667  0.050000    576.000000
 -0.250000 -0.416667  0.050000    576.000000
 -0.216667 -0.416667  0.050000    576.000000
 -0.183333 -0.416667  0.050000    576.000000
 -0.150000 -0.416667  0.050000    576.000000
 -0.116667 -0.416667  0.050000    576.000000
 -0.083333 -0.416667  0.050000    576.000000
 -0.383333 -0.383333  0.050000    288.000000
 -0.350000 -0.383333  0.050000    576.000000
 -0.316667 -0.383333  0.050000    576.000000
 -0.283333 -0.383333  0.050000    576.000000
 -0.250000 -0.383333  0.050000    576.000000
 -0.216667 -0.383333  0.050000    576.000000
 -0.183333 -0.383333  0.050000    576.000000
 -0.150000 -0.383333  0.050000    576.000000
 -0.116667 -0.383333  0.050000    576.000000
 -0.083333 -0.383333  0.050000    576.000000
 -0.350000 -0.350000  0.050000    288.000000
 -0.316667 -0.350000  0.050000    576.000000
 -0.283333 -0.350000  0.050000    576.000000
 -0.250000 -0.350000  0.050000    576.000000
 -0.216667 -0.350000  0.050000    576.000000
 -0.183333 -0.350000  0.050000    576.000000
 -0.150000 -0.350000  0.050000    576.000000
 -0.116667 -0.350000  0.050000    576.000000
 -0.083333 -0.350000  0.050000    576.000000
 -0.316667 -0.316667  0.050000    288.000000
 -0.283333 -0.316667  0.050000    576.000000
 -0.250000 -0.316667  0.050000    576.000000
 -0.216667 -0.316667  0.050000    576.000000
 -0.183333 -0.316667  0.050000    576.000000
 -0.150000 -0.316667  0.050000    576.000000
 -0.116667 -0.316667  0.050000    576.000000
 -0.083333 -0.316667  0.050000    576.000000
 -0.283333 -0.283333  0.050000    288.000000
 -0.250000 -0.283333  0.050000    576.000000
 -0.216667 -0.283333  0.050000    576.000000
 -0.183333 -0.283333  0.050000    576.000000
 -0.150000 -0.283333  0.050000    576.000000
 -0.116667 -0.283333  0.050000    576.000000
 -0.083333 -0.283333  0.050000    576.000000
 -0.250000 -0.250000  0.050000    288.000000
 -0.216667 -0.250000  0.050000    576.000000
 -0.183333 -0.250000  0.050000    576.000000
 -0.150000 -0.250000  0.050000    576.000000
 -0.116667 -0.250000  0.050000    576.000000
 -0.083333 -0.250000  0.050000    576.000000
 -0.216667 -0.216667  0.050000    288.000000
 -0.183333 -0.216667  0.050000    576.000000
 -0.150000 -0.216667  0.050000    576.000000
 -0.116667 -0.216667  0.050000    576.000000
 -0.083333 -0.216667  0.050000    576.000000
 -0.183333 -0.183333  0.050000    288.000000
 -0.150000 -0.183333  0.050000    576.000000
 -0.116667 -0.183333  0.050000    576.000000
 -0.083333 -0.183333  0.050000    576.000000
 -0.150000 -0.150000  0.050000    288.000000
 -0.116667 -0.150000  0.050000    576.000000
 -0.083333 -0.150000  0.050000    576.000000
 -0.116667 -0.116667  0.050000    288.000000
 -0.083333 -0.116667  0.050000    576.000000
 -0.083333 -0.083333  0.050000    288.000000
  0.083333  0.083333  0.083333     96.000000
  0.116667  0.083333  0.083333    288.000000
  0.150000  0.083333  0.083333    288.000000
  0.183333  0.083333  0.083333    288.000000
  0.216667  0.083333  0.083333    288.000000
  0.250000  0.083333  0.083333    288.000000
  0.283333  0.083333  0.083333    288.000000
  0.316667  0.083333  0.083333    288.000000
  0.350000  0.083333  0.083333    288.000000
  0.383333  0.083333  0.083333    288.000000
  0.416667  0.083333  0.083333    288.000000
  0.450000  0.083333  0.083333    288.000000
  0.483333  0.083333  0.083333    288.000000
 -0.483333  0.083333  0.083333    288.000000
 -0.450000  0.083333  0.083333    288.000000
 -0.416667  0.083333  0.083333    288.000000
 -0.383333  0.083333  0.083333    288.000000
 -0.350000  0.083333  0.083333    288.000000
 -0.316667  0.083333  0.083333    288.000000
 -0.283333  0.083333  0.083333    288.000000
 -0.250000  0.083333  0.083333    288.000000
 -0.216667  0.083333  0.083333    288.000000
 -0.183333  0.083333  0.083333    288.000000
 -0.150000  0.083333  0.083333    288.000000
 -0.116667  0.083333  0.083333    288.000000
 -0.083333  0.083333  0.083333    288.000000
  0.116667  0.116667  0.083333    288.000000
  0.150000  0.116667  0.083333    576.000000
  0.183333  0.116667  0.083333    576.000000
  0.216667  0.116667  0.083333    576.000000
  0.250000  0.116667  0.083333    576.000000
  0.283333  0.116667  0.083333    576.000000
  0.316667  0.116667  0.083333    576.000000
  0.350000  0.116667  0.083333    576.000000
  0.383333  0.116667  0.083333    576.000000
  0.416667  0.116667  0.083333    576.000000
  0.450000  0.116667  0.083333    576.000000
  0.483333  0.116667  0.083333    576.000000
 -0.483333  0.116667  0.083333    576.000000
 -0.450000  0.116667  0.083333    576.000000
 -0.416667  0.116667  0.083333    576.000000
 -0.383333  0.116667  0.083333    576.000000
 -0.350000  0.116667  0.083333    576.000000
 -0.316667  0.116667  0.083333    576.000000
 -0.283333  0.116667  0.083333    576.000000
 -0.250000  0.116667  0.083333    576.000000
 -0.216667  0.116667  0.083333    576.000000
 -0.183333  0.116667  0.083333    576.000000
 -0.150000  0.116667  0.083333    576.000000
 -0.116667  0.116667  0.083333    576.000000
 -0.083333  0.116667  0.083333    576.000000
  0.150000  0.150000  0.083333    288.000000
  0.183333  0.150000  0.083333    576.000000
  0.216667  0.150000  0.083333    576.000000
  0.250000  0.150000  0.083333    576.000000
  0.283333  0.150000  0.083333    576.000000
  0.316667  0.150000  0.083333    576.000000
  0.350000  0.150000  0.083333    576.000000
  0.383333  0.150000  0.083333    576.000000
  0.416667  0.150000  0.083333    576.000000
  0.450000  0.150000  0.083333    576.000000
  0.483333  0.150000  0.083333    576.000000
 -0.483333  0.150000  0.083333    576.000000
 -0.450000  0.150000  0.083333    576.000000
 -0.416667  0.150000  0.083333    576.000000
 -0.383333  0.150000  0.083333    576.000000
 -0.350000  0.150000  0.083333    576.000000
 -0.316667  0.150000  0.083333    576.000000
 -0.283333  0.150000  0.083333    576.000000
 -0.250000  0.150000  0.083333    576.000000
 -0.216667  0.150000  0.083333    576.000000
 -0.183333  0.150000  0.083333    576.000000
 -0.150000  0.150000  0.083333    576.000000
 -0.116667  0.150000  0.083333    576.000000
 -0.083333  0.150000  0.083333    576.000000
  0.183333  0.183333  0.083333    288.000000
  0.216667  0.183333  0.083333    576.000000
  0.250000  0.183333  0.083333    576.000000
  0.283333  0.183333  0.083333    576.000000
  0.316667  0.183333  0.083333    576.000000
  0.350000  0.183333  0.083333    576.000000
  0.383333  0.183333  0.083333    576.000000
  0.416667  0.183333  0.083333    576.000000
  0.450000  0.183333  0.083333    576.000000
  0.483333  0.183333  0.083333    576.000000
 -0.483333  0.183333  0.083333    576.000000
 -0.450000  0.183333  0.083333    576.000000
 -0.416667  0.183333  0.083333    576.000000
 -0.383333  0.183333  0.083333    576.000000
 -0.350000  0.183333  0.083333    576.000000
 -0.316667  0.183333  0.083333    576.000000
 -0.283333  0.183333  0.083333    576.000000
 -0.250000  0.183333  0.083333    576.000000
 -0.216667  0.183333  0.083333    576.000000
 -0.183333  0.183333  0.083333    576.000000
 -0.150000  0.183333  0.083333    576.000000
 -0.116667  0.183333  0.083333    576.000000
 -0.083333  0.183333  0.083333    576.000000
  0.216667  0.216667  0.083333    288.000000
  0.250000  0.216667  0.083333    576.000000
  0.283333  0.216667  0.083333    576.000000
  0.316667  0.216667  0.083333    576.000000
  0.350000  0.216667  0.083333    576.000000
  0.383333  0.216667  0.083333    576.000000
  0.416667  0.216667  0.083333    576.000000
  0.450000  0.216667  0.083333    576.000000
  0.483333  0.216667  0.083333    576.000000
 -0.483333  0.216667  0.083333    576.000000
 -0.450000  0.216667  0.083333    576.000000
 -0.416667  0.216667  0.083333    576.000000
 -0.383333  0.216667  0.083333    576.000000
 -0.350000  0.216667  0.083333    576.000000
 -0.316667  0.216667  0.083333    576.000000
 -0.283333  0.216667  0.083333    576.000000
 -0.250000  0.216667  0.083333    576.000000
 -0.216667  0.216667  0.083333    576.000000
 -0.183333  0.216667  0.083333    576.000000
 -0.150000  0.216667  0.083333    576.000000
 -0.116667  0.216667  0.083333    576.000000
 -0.083333  0.216667  0.083333    576.000000
  0.250000  0.250000  0.083333    288.000000
  0.283333  0.250000  0.083333    576.000000
  0.316667  0.250000  0.083333    576.000000
  0.350000  0.250000  0.083333    576.000000
  0.383333  0.250000  0.083333    576.000000
  0.416667  0.250000  0.083333    576.000000
  0.450000  0.250000  0.083333    576.000000
  0.483333  0.250000  0.083333    576.000000
 -0.483333  0.250000  0.083333    576.000000
 -0.450000  0.250000  0.083333    576.000000
 -0.416667  0.250000  0.083333    576.000000
 -0.383333  0.250000  0.083333    576.000000
 -0.350000  0.250000  0.083333    576.000000
 -0.316667  0.250000  0.083333    576.000000
 -0.283333  0.250000  0.083333    576.000000
 -0.250000  0.250000  0.083333    576.000000
 -0.216667  0.250000  0.083333    576.000000
 -0.183333  0.250000  0.083333    576.000000
 -0.150000  0.250000  0.083333    576.000000
 -0.116667  0.250000  0.083333    576.000000
 -0.083333  0.250000  0.083333    576.000000
  0.283333  0.283333  0.083333    288.000000
  0.316667  0.283333  0.083333    576.000000
  0.350000  0.283333  0.083333    576.000000
  0.383333  0.283333  0.083333    576.000000
  0.416667  0.283333  0.083333    576.000000
  0.450000  0.283333  0.083333    576.000000
  0.483333  0.283333  0.083333    576.000000
 -0.483333  0.283333  0.083333    576.000000
 -0.450000  0.283333  0.083333    576.000000
 -0.416667  0.283333  0.083333    576.000000
 -0.383333  0.283333  0.083333    576.000000
 -0.350000  0.283333  0.083333    576.000000
 -0.316667  0.283333  0.083333    576.000000
 -0.283333  0.283333  0.083333    576.000000
 -0.250000  0.283333  0.083333    576.000000
 -0.216667  0.283333  0.083333    576.000000
 -0.183333  0.283333  0.083333    576.000000
 -0.150000  0.283333  0.083333    576.000000
 -0.116667  0.283333  0.083333    576.000000
 -0.083333  0.283333  0.083333    576.000000
  0.316667  0.316667  0.083333    288.000000
  0.350000  0.316667  0.083333    576.000000
  0.383333  0.316667  0.083333    576.000000
  0.416667  0.316667  0.083333    576.000000
  0.450000  0.316667  0.083333    576.000000
  0.483333  0.316667  0.083333    576.000000
 -0.483333  0.316667  0.083333    576.000000
 -0.450000  0.316667  0.083333    576.000000
 -0.416667  0.316667  0.083333    576.000000
 -0.383333  0.316667  0.083333    576.000000
 -0.350000  0.316667  0.083333    576.000000
 -0.316667  0.316667  0.083333    576.000000
 -0.283333  0.316667  0.083333    576.000000
 -0.250000  0.316667  0.083333    576.000000
 -0.216667  0.316667  0.083333    576.000000
 -0.183333  0.316667  0.083333    576.000000
 -0.150000  0.316667  0.083333    576.000000
 -0.116667  0.316667  0.083333    576.000000
 -0.083333  0.316667  0.083333    576.000000
  0.350000  0.350000  0.083333    288.000000
  0.383333  0.350000  0.083333    576.000000
  0.416667  0.350000  0.083333    576.000000
  0.450000  0.350000  0.083333    576.000000
  0.483333  0.350000  0.083333    576.000000
 -0.483333  0.350000  0.083333    576.000000
 -0.450000  0.350000  0.083333    576.000000
 -0.416667  0.350000  0.083333    576.000000
 -0.383333  0.350000  0.083333    576.000000
 -0.350000  0.350000  0.083333    576.000000
 -0.316667  0.350000  0.083333    576.000000
 -0.283333  0.350000  0.083333    576.000000
 -0.250000  0.350000  0.083333    576.000000
 -0.216667  0.350000  0.083333    576.000000
 -0.183333  0.350000  0.083333    576.000000
 -0.150000  0.350000  0.083333    576.000000
 -0.116667  0.350000  0.083333    576.000000
 -0.083333  0.350000  0.083333    576.000000
  0.383333  0.383333  0.083333    288.000000
  0.416667  0.383333  0.083333    576.000000
  0.450000  0.383333  0.083333    576.000000
  0.483333  0.383333  0.083333    576.000000
 -0.483333  0.383333  0.083333    576.000000
 -0.450000  0.383333  0.083333    576.000000
 -0.416667  0.383333  0.083333    576.000000
 -0.383333  0.383333  0.083333    576.000000
 -0.350000  0.383333  0.083333    576.000000
 -0.316667  0.383333  0.083333    576.000000
 -0.283333  0.383333  0.083333    576.000000
 -0.250000  0.383333  0.083333    576.000000
 -0.216667  0.383333  0.083333    576.000000
 -0.183333  0.383333  0.083333    576.000000
 -0.150000  0.383333  0.083333    576.000000
 -0.116667  0.383333  0.083333    576.000000
 -0.083333  0.383333  0.083333    576.000000
  0.416667  0.416667  0.083333    288.000000
  0.450000  0.416667  0.083333    576.000000
  0.483333  0.416667  0.083333    576.000000
 -0.483333  0.416667  0.083333    576.000000
 -0.450000  0.416667  0.083333    576.000000
 -0.416667  0.416667  0.083333    576.000000
 -0.383333  0.416667  0.083333    576.000000
 -0.350000  0.416667  0.083333    576.000000
 -0.316667  0.416667  0.083333    576.000000
 -0.283333  0.416667  0.083333    576.000000
 -0.250000  0.416667  0.083333    576.000000
 -0.216667  0.416667  0.083333    576.000000
 -0.183333  0.416667  0.083333    576.000000
 -0.150000  0.416667  0.083333    576.000000
 -0.116667  0.416667  0.083333    576.000000
 -0.083333  0.416667  0.083333    576.000000
  0.450000  0.450000  0.083333    288.000000
  0.483333  0.450000  0.083333    576.000000
 -0.483333  0.450000  0.083333    576.000000
 -0.450000  0.450000  0.083333    576.000000
 -0.416667  0.450000  0.083333    576.000000
 -0.383333  0.450000  0.083333    576.000000
 -0.350000  0.450000  0.083333    576.000000
 -0.316667  0.450000  0.083333    576.000000
 -0.283333  0.450000  0.083333    576.000000
 -0.250000  0.450000  0.083333    576.000000
 -0.216667  0.450000  0.083333    576.000000
 -0.183333  0.450000  0.083333    576.000000
 -0.150000  0.450000  0.083333    576.000000
 -0.116667  0.450000  0.083333    576.000000
 -0.083333  0.450000  0.083333    576.000000
  0.483333  0.483333  0.083333    288.000000
 -0.483333  0.483333  0.083333    576.000000
 -0.450000  0.483333  0.083333    576.000000
 -0.416667  0.483333  0.083333    576.000000
 -0.383333  0.483333  0.083333    576.000000
 -0.350000  0.483333  0.083333    576.000000
 -0.316667  0.483333  0.083333    576.000000
 -0.283333  0.483333  0.083333    576.000000
 -0.250000  0.483333  0.083333    576.000000
 -0.216667  0.483333  0.083333    576.000000
 -0.183333  0.483333  0.083333    576.000000
 -0.150000  0.483333  0.083333    576.000000
 -0.116667  0.483333  0.083333    576.000000
 -0.083333  0.483333  0.083333    576.000000
 -0.483333 -0.483333  0.083333    288.000000
 -0.450000 -0.483333  0.083333    576.000000
 -0.416667 -0.483333  0.083333    576.000000
 -0.383333 -0.483333  0.083333    576.000000
 -0.350000 -0.483333  0.083333    576.000000
 -0.316667 -0.483333  0.083333    576.000000
 -0.283333 -0.483333  0.083333    576.000000
 -0.250000 -0.483333  0.083333    576.000000
 -0.216667 -0.483333  0.083333    576.000000
 -0.183333 -0.483333  0.083333    576.000000
 -0.150000 -0.483333  0.083333    576.000000
 -0.116667 -0.483333  0.083333    576.000000
 -0.450000 -0.450000  0.083333    288.000000
 -0.416667 -0.450000  0.083333    576.000000
 -0.383333 -0.450000  0.083333    576.000000
 -0.350000 -0.450000  0.083333    576.000000
 -0.316667 -0.450000  0.083333    576.000000
 -0.283333 -0.450000  0.083333    576.000000
 -0.250000 -0.450000  0.083333    576.000000
 -0.216667 -0.450000  0.083333    576.000000
 -0.183333 -0.450000  0.083333    576.000000
 -0.150000 -0.450000  0.083333    576.000000
 -0.116667 -0.450000  0.083333    576.000000
 -0.416667 -0.416667  0.083333    288.000000
 -0.383333 -0.416667  0.083333    576.000000
 -0.350000 -0.416667  0.083333    576.000000
 -0.316667 -0.416667  0.083333    576.000000
 -0.283333 -0.416667  0.083333    576.000000
 -0.250000 -0.416667  0.083333    576.000000
 -0.216667 -0.416667  0.083333    576.000000
 -0.183333 -0.416667  0.083333    576.000000
 -0.150000 -0.416667  0.083333    576.000000
 -0.116667 -0.416667  0.083333    576.000000
 -0.383333 -0.383333  0.083333    288.000000
 -0.350000 -0.383333  0.083333    576.000000
 -0.316667 -0.383333  0.083333    576.000000
 -0.283333 -0.383333  0.083333    576.000000
 -0.250000 -0.383333  0.083333    576.000000
 -0.216667 -0.383333  0.083333    576.000000
 -0.183333 -0.383333  0.083333    576.000000
 -0.150000 -0.383333  0.083333    576.000000
 -0.116667 -0.383333  0.083333    576.000000
 -0.350000 -0.350000  0.083333    288.000000
 -0.316667 -0.350000  0.083333    576.000000
 -0.283333 -0.350000  0.083333    576.000000
 -0.250000 -0.350000  0.083333    576.000000
 -0.216667 -0.350000  0.083333    576.000000
 -0.183333 -0.350000  0.083333    576.000000
 -0.150000 -0.350000  0.083333    576.000000
 -0.116667 -0.350000  0.083333    576.000000
 -0.316667 -0.316667  0.083333    288.000000
 -0.283333 -0.316667  0.083333    576.000000
 -0.250000 -0.316667  0.083333    576.000000
 -0.216667 -0.316667  0.083333    576.000000
 -0.183333 -0.316667  0.083333    576.000000
 -0.150000 -0.316667  0.083333    576.000000
 -0.116667 -0.316667  0.083333    576.000000
 -0.283333 -0.283333  0.083333    288.000000
 -0.250000 -0.283333  0.083333    576.000000
 -0.216667 -0.283333  0.083333    576.000000
 -0.183333 -0.283333  0.083333    576.000000
 -0.150000 -0.283333  0.083333    576.000000
 -0.116667 -0.283333  0.083333    576.000000
 -0.250000 -0.250000  0.083333    288.000000
 -0.216667 -0.250000  0.083333    576.000000
 -0.183333 -0.250000  0.083333    576.000000
 -0.150000 -0.250000  0.083333    576.000000
 -0.116667 -0.250000  0.083333    576.000000
 -0.216667 -0.216667  0.083333    288.000000
 -0.183333 -0.216667  0.083333    576.000000
 -0.150000 -0.216667  0.083333    576.000000
 -0.116667 -0.216667  0.083333    576.000000
 -0.183333 -0.183333  0.083333    288.000000
 -0.150000 -0.183333  0.083333    576.000000
 -0.116667 -0.183333  0.083333    576.000000
 -0.150000 -0.150000  0.083333    288.000000
 -0.116667 -0.150000  0.083333    576.000000
 -0.116667 -0.116667  0.083333    288.000000
  0.116667  0.116667  0.116667     96.000000
  0.150000  0.116667  0.116667    288.000000
  0.183333  0.116667  0.116667    288.000000
  0.216667  0.116667  0.116667    288.000000
  0.250000  0.116667  0.116667    288.000000
  0.283333  0.116667  0.116667    288.000000
  0.316667  0.116667  0.116667    288.000000
  0.350000  0.116667  0.116667    288.000000
  0.383333  0.116667  0.116667    288.000000
  0.416667  0.116667  0.116667    288.000000
  0.450000  0.116667  0.116667    288.000000
  0.483333  0.116667  0.116667    288.000000
 -0.483333  0.116667  0.116667    288.000000
 -0.450000  0.116667  0.116667    288.000000
 -0.416667  0.116667  0.116667    288.000000
 -0.383333  0.116667  0.116667    288.000000
 -0.350000  0.116667  0.116667    288.000000
 -0.316667  0.116667  0.116667    288.000000
 -0.283333  0.116667  0.116667    288.000000
 -0.250000  0.116667  0.116667    288.000000
 -0.216667  0.116667  0.116667    288.000000
 -0.183333  0.116667  0.116667    288.000000
 -0.150000  0.116667  0.116667    288.000000
 -0.116667  0.116667  0.116667    288.000000
  0.150000  0.150000  0.116667    288.000000
  0.183333  0.150000  0.116667    576.000000
  0.216667  0.150000  0.116667    576.000000
  0.250000  0.150000  0.116667    576.000000
  0.283333  0.150000  0.116667    576.000000
  0.316667  0.150000  0.116667    576.000000
  0.350000  0.150000  0.116667    576.000000
  0.383333  0.150000  0.116667    576.000000
  0.416667  0.150000  0.116667    576.000000
  0.450000  0.150000  0.116667    576.000000
  0.483333  0.150000  0.116667    576.000000
 -0.483333  0.150000  0.116667    576.000000
 -0.450000  0.150000  0.116667    576.000000
 -0.416667  0.150000  0.116667    576.000000
 -0.383333  0.150000  0.116667    576.000000
 -0.350000  0.150000  0.116667    576.000000
 -0.316667  0.150000  0.116667    576.000000
 -0.283333  0.150000  0.116667    576.000000
 -0.250000  0.150000  0.116667    576.000000
 -0.216667  0.150000  0.116667    576.000000
 -0.183333  0.150000  0.116667    576.000000
 -0.150000  0.150000  0.116667    576.000000
 -0.116667  0.150000  0.116667    576.000000
  0.183333  0.183333  0.116667    288.000000
  0.216667  0.183333  0.116667    576.000000
  0.250000  0.183333  0.116667    576.000000
  0.283333  0.183333  0.116667    576.000000
  0.316667  0.183333  0.116667    576.000000
  0.350000  0.183333  0.116667    576.000000
  0.383333  0.183333  0.116667    576.000000
  0.416667  0.183333  0.116667    576.000000
  0.450000  0.183333  0.116667    576.000000
  0.483333  0.183333  0.116667    576.000000
 -0.483333  0.183333  0.116667    576.000000
 -0.450000  0.183333  0.116667    576.000000
 -0.416667  0.183333  0.116667    576.000000
 -0.383333  0.183333  0.116667    576.000000
 -0.350000  0.183333  0.116667    576.000000
 -0.316667  0.183333  0.116667    576.000000
 -0.283333  0.183333  0.116667    576.000000
 -0.250000  0.183333  0.116667    576.000000
 -0.216667  0.183333  0.116667    576.000000
 -0.183333  0.183333  0.116667    576.000000
 -0.150000  0.183333  0.116667    576.000000
 -0.116667  0.183333  0.116667    576.000000
  0.216667  0.216667  0.116667    288.000000
  0.250000  0.216667  0.116667    576.000000
  0.283333  0.216667  0.116667    576.000000
  0.316667  0.216667  0.116667    576.000000
  0.350000  0.216667  0.116667    576.000000
  0.383333  0.216667  0.116667    576.000000
  0.416667  0.216667  0.116667    576.000000
  0.450000  0.216667  0.116667    576.000000
  0.483333  0.216667  0.116667    576.000000
 -0.483333  0.216667  0.116667    576.000000
 -0.450000  0.216667  0.116667    576.000000
 -0.416667  0.216667  0.116667    576.000000
 -0.383333  0.216667  0.116667    576.000000
 -0.350000  0.216667  0.116667    576.000000
 -0.316667  0.216667  0.116667    576.000000
 -0.283333  0.216667  0.116667    576.000000
 -0.250000  0.216667  0.116667    576.000000
 -0.216667  0.216667  0.116667    576.000000
 -0.183333  0.216667  0.116667    576.000000
 -0.150000  0.216667  0.116667    576.000000
 -0.116667  0.216667  0.116667    576.000000
  0.250000  0.250000  0.116667    288.000000
  0.283333  0.250000  0.116667    576.000000
  0.316667  0.250000  0.116667    576.000000
  0.350000  0.250000  0.116667    576.000000
  0.383333  0.250000  0.116667    576.000000
  0.416667  0.250000  0.116667    576.000000
  0.450000  0.250000  0.116667    576.000000
  0.483333  0.250000  0.116667    576.000000
 -0.483333  0.250000  0.116667    576.000000
 -0.450000  0.250000  0.116667    576.000000
 -0.416667  0.250000  0.116667    576.000000
 -0.383333  0.250000  0.116667    576.000000
 -0.350000  0.250000  0.116667    576.000000
 -0.316667  0.250000  0.116667    576.000000
 -0.283333  0.250000  0.116667    576.000000
 -0.250000  0.250000  0.116667    576.000000
 -0.216667  0.250000  0.116667    576.000000
 -0.183333  0.250000  0.116667    576.000000
 -0.150000  0.250000  0.116667    576.000000
 -0.116667  0.250000  0.116667    576.000000
  0.283333  0.283333  0.116667    288.000000
  0.316667  0.283333  0.116667    576.000000
  0.350000  0.283333  0.116667    576.000000
  0.383333  0.283333  0.116667    576.000000
  0.416667  0.283333  0.116667    576.000000
  0.450000  0.283333  0.116667    576.000000
  0.483333  0.283333  0.116667    576.000000
 -0.483333  0.283333  0.116667    576.000000
 -0.450000  0.283333  0.116667    576.000000
 -0.416667  0.283333  0.116667    576.000000
 -0.383333  0.283333  0.116667    576.000000
 -0.350000  0.283333  0.116667    576.000000
 -0.316667  0.283333  0.116667    576.000000
 -0.283333  0.283333  0.116667    576.000000
 -0.250000  0.283333  0.116667    576.000000
 -0.216667  0.283333  0.116667    576.000000
 -0.183333  0.283333  0.116667    576.000000
 -0.150000  0.283333  0.116667    576.000000
 -0.116667  0.283333  0.116667    576.000000
  0.316667  0.316667  0.116667    288.000000
  0.350000  0.316667  0.116667    576.000000
  0.383333  0.316667  0.116667    576.000000
  0.416667  0.316667  0.116667    576.000000
  0.450000  0.316667  0.116667    576.000000
  0.483333  0.316667  0.116667    576.000000
 -0.483333  0.316667  0.116667    576.000000
 -0.450000  0.316667  0.116667    576.000000
 -0.416667  0.316667  0.116667    576.000000
 -0.383333  0.316667  0.116667    576.000000
 -0.350000  0.316667  0.116667    576.000000
 -0.316667  0.316667  0.116667    576.000000
 -0.283333  0.316667  0.116667    576.000000
 -0.250000  0.316667  0.116667    576.000000
 -0.216667  0.316667  0.116667    576.000000
 -0.183333  0.316667  0.116667    576.000000
 -0.150000  0.316667  0.116667    576.000000
 -0.116667  0.316667  0.116667    576.000000
  0.350000  0.350000  0.116667    288.000000
  0.383333  0.350000  0.116667    576.000000
  0.416667  0.350000  0.116667    576.000000
  0.450000  0.350000  0.116667    576.000000
  0.483333  0.350000  0.116667    576.000000
 -0.483333  0.350000  0.116667    576.000000
 -0.450000  0.350000  0.116667    576.000000
 -0.416667  0.350000  0.116667    576.000000
 -0.383333  0.350000  0.116667    576.000000
 -0.350000  0.350000  0.116667    576.000000
 -0.316667  0.350000  0.116667    576.000000
 -0.283333  0.350000  0.116667    576.000000
 -0.250000  0.350000  0.116667    576.000000
 -0.216667  0.350000  0.116667    576.000000
 -0.183333  0.350000  0.116667    576.000000
 -0.150000  0.350000  0.116667    576.000000
 -0.116667  0.350000  0.116667    576.000000
  0.383333  0.383333  0.116667    288.000000
  0.416667  0.383333  0.116667    576.000000
  0.450000  0.383333  0.116667    576.000000
  0.483333  0.383333  0.116667    576.000000
 -0.483333  0.383333  0.116667    576.000000
 -0.450000  0.383333  0.116667    576.000000
 -0.416667  0.383333  0.116667    576.000000
 -0.383333  0.383333  0.116667    576.000000
 -0.350000  0.383333  0.116667    576.000000
 -0.316667  0.383333  0.116667    576.000000
 -0.283333  0.383333  0.116667    576.000000
 -0.250000  0.383333  0.116667    576.000000
 -0.216667  0.383333  0.116667    576.000000
 -0.183333  0.383333  0.116667    576.000000
 -0.150000  0.383333  0.116667    576.000000
 -0.116667  0.383333  0.116667    576.000000
  0.416667  0.416667  0.116667    288.000000
  0.450000  0.416667  0.116667    576.000000
  0.483333  0.416667  0.116667    576.000000
 -0.483333  0.416667  0.116667    576.000000
 -0.450000  0.416667  0.116667    576.000000
 -0.416667  0.416667  0.116667    576.000000
 -0.383333  0.416667  0.116667    576.000000
 -0.350000  0.416667  0.116667    576.000000
 -0.316667  0.416667  0.116667    576.000000
 -0.283333  0.416667  0.116667    576.000000
 -0.250000  0.416667  0.116667    576.000000
 -0.216667  0.416667  0.116667    576.000000
 -0.183333  0.416667  0.116667    576.000000
 -0.150000  0.416667  0.116667    576.000000
 -0.116667  0.416667  0.116667    576.000000
  0.450000  0.450000  0.116667    288.000000
  0.483333  0.450000  0.116667    576.000000
 -0.483333  0.450000  0.116667    576.000000
 -0.450000  0.450000  0.116667    576.000000
 -0.416667  0.450000  0.116667    576.000000
 -0.383333  0.450000  0.116667    576.000000
 -0.350000  0.450000  0.116667    576.000000
 -0.316667  0.450000  0.116667    576.000000
 -0.283333  0.450000  0.116667    576.000000
 -0.250000  0.450000  0.116667    576.000000
 -0.216667  0.450000  0.116667    576.000000
 -0.183333  0.450000  0.116667    576.000000
 -0.150000  0.450000  0.116667    576.000000
 -0.116667  0.450000  0.116667    576.000000
  0.483333  0.483333  0.116667    288.000000
 -0.483333  0.483333  0.116667    576.000000
 -0.450000  0.483333  0.116667    576.000000
 -0.416667  0.483333  0.116667    576.000000
 -0.383333  0.483333  0.116667    576.000000
 -0.350000  0.483333  0.116667    576.000000
 -0.316667  0.483333  0.116667    576.000000
 -0.283333  0.483333  0.116667    576.000000
 -0.250000  0.483333  0.116667    576.000000
 -0.216667  0.483333  0.116667    576.000000
 -0.183333  0.483333  0.116667    576.000000
 -0.150000  0.483333  0.116667    576.000000
 -0.116667  0.483333  0.116667    576.000000
 -0.483333 -0.483333  0.116667    288.000000
 -0.450000 -0.483333  0.116667    576.000000
 -0.416667 -0.483333  0.116667    576.000000
 -0.383333 -0.483333  0.116667    576.000000
 -0.350000 -0.483333  0.116667    576.000000
 -0.316667 -0.483333  0.116667    576.000000
 -0.283333 -0.483333  0.116667    576.000000
 -0.250000 -0.483333  0.116667    576.000000
 -0.216667 -0.483333  0.116667    576.000000
 -0.183333 -0.483333  0.116667    576.000000
 -0.150000 -0.483333  0.116667    576.000000
 -0.450000 -0.450000  0.116667    288.000000
 -0.416667 -0.450000  0.116667    576.000000
 -0.383333 -0.450000  0.116667    576.000000
 -0.350000 -0.450000  0.116667    576.000000
 -0.316667 -0.450000  0.116667    576.000000
 -0.283333 -0.450000  0.116667    576.000000
 -0.250000 -0.450000  0.116667    576.000000
 -0.216667 -0.450000  0.116667    576.000000
 -0.183333 -0.450000  0.116667    576.000000
 -0.150000 -0.450000  0.116667    576.000000
 -0.416667 -0.416667  0.116667    288.000000
 -0.383333 -0.416667  0.116667    576.000000
 -0.350000 -0.416667  0.116667    576.000000
 -0.316667 -0.416667  0.116667    576.000000
 -0.283333 -0.416667  0.116667    576.000000
 -0.250000 -0.416667  0.116667    576.000000
 -0.216667 -0.416667  0.116667    576.000000
 -0.183333 -0.416667  0.116667    576.000000
 -0.150000 -0.416667  0.116667    576.000000
 -0.383333 -0.383333  0.116667    288.000000
 -0.350000 -0.383333  0.116667    576.000000
 -0.316667 -0.383333  0.116667    576.000000
 -0.283333 -0.383333  0.116667    576.000000
 -0.250000 -0.383333  0.116667    576.000000
 -0.216667 -0.383333  0.116667    576.000000
 -0.183333 -0.383333  0.116667    576.000000
 -0.150000 -0.383333  0.116667    576.000000
 -0.350000 -0.350000  0.116667    288.000000
 -0.316667 -0.350000  0.116667    576.000000
 -0.283333 -0.350000  0.116667    576.000000
 -0.250000 -0.350000  0.116667    576.000000
 -0.216667 -0.350000  0.116667    576.000000
 -0.183333 -0.350000  0.116667    576.000000
 -0.150000 -0.350000  0.116667    576.000000
 -0.316667 -0.316667  0.116667    288.000000
 -0.283333 -0.316667  0.116667    576.000000
 -0.250000 -0.316667  0.116667    576.000000
 -0.216667 -0.316667  0.116667    576.000000
 -0.183333 -0.316667  0.116667    576.000000
 -0.150000 -0.316667  0.116667    576.000000
 -0.283333 -0.283333  0.116667    288.000000
 -0.250000 -0.283333  0.116667    576.000000
 -0.216667 -0.283333  0.116667    576.000000
 -0.183333 -0.283333  0.116667    576.000000
 -0.150000 -0.283333  0.116667    576.000000
 -0.250000 -0.250000  0.116667    288.000000
 -0.216667 -0.250000  0.116667    576.000000
 -0.183333 -0.250000  0.116667    576.000000
 -0.150000 -0.250000  0.116667    576.000000
 -0.216667 -0.216667  0.116667    288.000000
 -0.183333 -0.216667  0.116667    576.000000
 -0.150000 -0.216667  0.116667    576.000000
 -0.183333 -0.183333  0.116667    288.000000
 -0.150000 -0.183333  0.116667    576.000000
 -0.150000 -0.150000  0.116667    288.000000
  0.150000  0.150000  0.150000     96.000000
  0.183333  0.150000  0.150000    288.000000
  0.216667  0.150000  0.150000    288.000000
  0.250000  0.150000  0.150000    288.000000
  0.283333  0.150000  0.150000    288.000000
  0.316667  0.150000  0.150000    288.000000
  0.350000  0.150000  0.150000    288.000000
  0.383333  0.150000  0.150000    288.000000
  0.416667  0.150000  0.150000    288.000000
  0.450000  0.150000  0.150000    288.000000
  0.483333  0.150000  0.150000    288.000000
 -0.483333  0.150000  0.150000    288.000000
 -0.450000  0.150000  0.150000    288.000000
 -0.416667  0.150000  0.150000    288.000000
 -0.383333  0.150000  0.150000    288.000000
 -0.350000  0.150000  0.150000    288.000000
 -0.316667  0.150000  0.150000    288.000000
 -0.283333  0.150000  0.150000    288.000000
 -0.250000  0.150000  0.150000    288.000000
 -0.216667  0.150000  0.150000    288.000000
 -0.183333  0.150000  0.150000    288.000000
 -0.150000  0.150000  0.150000    288.000000
  0.183333  0.183333  0.150000    288.000000
  0.216667  0.183333  0.150000    576.000000
  0.250000  0.183333  0.150000    576.000000
  0.283333  0.183333  0.150000    576.000000
  0.316667  0.183333  0.150000    576.000000
  0.350000  0.183333  0.150000    576.000000
  0.383333  0.183333  0.150000    576.000000
  0.416667  0.183333  0.150000    576.000000
  0.450000  0.183333  0.150000    576.000000
  0.483333  0.183333  0.150000    576.000000
 -0.483333  0.183333  0.150000    576.000000
 -0.450000  0.183333  0.150000    576.000000
 -0.416667  0.183333  0.150000    576.000000
 -0.383333  0.183333  0.150000    576.000000
 -0.350000  0.183333  0.150000    576.000000
 -0.316667  0.183333  0.150000    576.000000
 -0.283333  0.183333  0.150000    576.000000
 -0.250000  0.183333  0.150000    576.000000
 -0.216667  0.183333  0.150000    576.000000
 -0.183333  0.183333  0.150000    576.000000
 -0.150000  0.183333  0.150000    576.000000
  0.216667  0.216667  0.150000    288.000000
  0.250000  0.216667  0.150000    576.000000
  0.283333  0.216667  0.150000    576.000000
  0.316667  0.216667  0.150000    576.000000
  0.350000  0.216667  0.150000    576.000000
  0.383333  0.216667  0.150000    576.000000
  0.416667  0.216667  0.150000    576.000000
  0.450000  0.216667  0.150000    576.000000
  0.483333  0.216667  0.150000    576.000000
 -0.483333  0.216667  0.150000    576.000000
[...]
      5       7.7894     -0.00000
      6       9.6878     -0.00000
      7      10.5254     -0.00000
      8      12.8861      0.00000

 k-point  2452 :      -0.4167   -0.4167    0.3833
  band No.  band energies     occupation 
      1      -3.4895      2.00000
      2      -1.0768      2.00000
      3       2.2782      2.00000
      4       3.8860      2.00000
      5       7.6526     -0.00000
      6      10.1961     -0.00000
      7      10.4809     -0.00000
      8      12.8240      0.00000

 k-point  2453 :       0.4167    0.4167    0.4167
  band No.  band energies     occupation 
      1      -4.2476      2.00000
      2      -0.7638      2.00000
      3       4.4886      2.00000
      4       4.4886      2.00000
      5       7.1610     -0.00000
      6       9.0546     -0.00000
      7       9.0546     -0.00000
      8      13.4035      0.00000

 k-point  2454 :       0.4500    0.4167    0.4167
  band No.  band energies     occupation 
      1      -4.1639      2.00000
      2      -0.8704      2.00000
      3       4.3140      2.00000
      4       4.4982      2.00000
      5       7.2564     -0.00000
      6       9.0448     -0.00000
      7       9.0689     -0.00000
      8      13.4222      0.00000

 k-point  2455 :       0.4833    0.4167    0.4167
  band No.  band energies     occupation 
      1      -4.0609      2.00000
      2      -0.9529      2.00000
      3       3.9751      2.00000
      4       4.4501      2.00000
      5       7.5066     -0.00000
      6       9.0439     -0.00000
      7       9.1486     -0.00000
      8      13.5290      0.00000

 k-point  2456 :      -0.4833    0.4167    0.4167
  band No.  band energies     occupation 
      1      -3.9403      2.00000
      2      -1.0111      2.00000
      3       3.5552      2.00000
      4       4.3514      2.00000
      5       7.7701     -0.00000
      6       9.0610     -0.00000
      7       9.3579     -0.00000
      8      13.6921      0.00000

 k-point  2457 :      -0.4500    0.4167    0.4167
  band No.  band energies     occupation 
      1      -3.8036      2.00000
      2      -1.0471      2.00000
      3       3.1118      2.00000
      4       4.2154      2.00000
      5       7.8875     -0.00000
      6       9.2576     -0.00000
      7       9.6616     -0.00000
      8      13.8361      0.00000

 k-point  2458 :      -0.4167    0.4167    0.4167
  band No.  band energies     occupation 
      1      -3.6529      2.00000
      2      -1.0661      2.00000
      3       2.6773      2.00000
      4       4.0560      2.00000
      5       7.8181     -0.00000
      6       9.6648     -0.00000
      7      10.0395     -0.00000
      8      13.5519      0.00000

 k-point  2459 :       0.4500    0.4500    0.4167
  band No.  band energies     occupation 
      1      -4.0985      2.00000
      2      -0.9718      2.00000
      3       4.3838      2.00000
      4       4.4046      2.00000
      5       7.2459     -0.00000
      6       8.9731     -0.00000
      7       9.1201     -0.00000
      8      13.3997      0.00000

 k-point  2460 :       0.4833    0.4500    0.4167
  band No.  band energies     occupation 
      1      -4.0151      2.00000
      2      -1.0473      2.00000
      3       4.1198      2.00000
      4       4.3966      2.00000
      5       7.4229     -0.00000
      6       8.9506     -0.00000
      7       9.1908     -0.00000
      8      13.4630      0.00000

 k-point  2461 :      -0.4833    0.4500    0.4167
  band No.  band energies     occupation 
      1      -3.9154      2.00000
      2      -1.0963      2.00000
      3       3.7443      2.00000
      4       4.3262      2.00000
      5       7.6915     -0.00000
      6       8.9268     -0.00000
      7       9.3642     -0.00000
      8      13.5989      0.00000

 k-point  2462 :      -0.4500    0.4500    0.4167
  band No.  band energies     occupation 
      1      -3.8011      2.00000
      2      -1.1198      2.00000
      3       3.3231      2.00000
      4       4.2054      2.00000
      5       7.9044     -0.00000
      6       8.9806     -0.00000
      7       9.6594     -0.00000
      8      13.7386      0.00000

 k-point  2463 :      -0.4167    0.4500    0.4167
  band No.  band energies     occupation 
      1      -3.6737      2.00000
      2      -1.1217      2.00000
      3       2.8969      2.00000
      4       4.0519      2.00000
      5       7.9223     -0.00000
      6       9.2486     -0.00000
      7      10.0539     -0.00000
      8      13.5851      0.00000

 k-point  2464 :       0.4833    0.4833    0.4167
  band No.  band energies     occupation 
      1      -3.9529      2.00000
      2      -1.1147      2.00000
      3       4.0688      2.00000
      4       4.3136      2.00000
      5       7.4900     -0.00000
      6       8.9180     -0.00000
      7       9.2590     -0.00000
      8      13.4613      0.00000

 k-point  2465 :      -0.4833    0.4833    0.4167
  band No.  band energies     occupation 
      1      -3.8760      2.00000
      2      -1.1537      2.00000
      3       3.7911      2.00000
      4       4.2628      2.00000
      5       7.6809     -0.00000
      6       8.8916     -0.00000
      7       9.4037     -0.00000
      8      13.5358      0.00000

 k-point  2466 :      -0.4500    0.4833    0.4167
  band No.  band energies     occupation 
      1      -3.7860      2.00000
      2      -1.1648      2.00000
      3       3.4283      2.00000
      4       4.1614      2.00000
      5       7.9358     -0.00000
      6       8.8261     -0.00000
      7       9.6979     -0.00000
      8      13.6386      0.00000

 k-point  2467 :      -0.4167    0.4833    0.4167
  band No.  band energies     occupation 
      1      -3.6839      2.00000
      2      -1.1511      2.00000
      3       3.0394      2.00000
      4       4.0119      2.00000
      5       8.1190     -0.00000
      6       8.8543     -0.00000
      7      10.1102     -0.00000
      8      13.6267      0.00000

 k-point  2468 :      -0.4833   -0.4833    0.4167
  band No.  band energies     occupation 
      1      -3.8236      2.00000
      2      -1.1814      2.00000
      3       3.6382      2.00000
      4       4.2215      2.00000
      5       7.7338     -0.00000
      6       8.9709     -0.00000
      7       9.4622     -0.00000
      8      13.5406      0.00000

 k-point  2469 :      -0.4500   -0.4833    0.4167
  band No.  band energies     occupation 
      1      -3.7594      2.00000
      2      -1.1796      2.00000
      3       3.3628      2.00000
      4       4.1486      2.00000
      5       7.8768     -0.00000
      6       8.9707     -0.00000
      7       9.6928     -0.00000
      8      13.5873      0.00000

 k-point  2470 :      -0.4500   -0.4500    0.4167
  band No.  band energies     occupation 
      1      -3.7220      2.00000
      2      -1.1644      2.00000
      3       3.1607      2.00000
      4       4.1336      2.00000
      5       7.8379     -0.00000
      6       9.2304     -0.00000
      7       9.7255     -0.00000
      8      13.5750      0.00000

 k-point  2471 :       0.4500    0.4500    0.4500
  band No.  band energies     occupation 
      1      -4.0528      2.00000
      2      -1.0662      2.00000
      3       4.4570      2.00000
      4       4.4570      2.00000
      5       7.1247     -0.00000
      6       9.0233     -0.00000
      7       9.0233     -0.00000
      8      13.3572      0.00000

 k-point  2472 :       0.4833    0.4500    0.4500
  band No.  band energies     occupation 
      1      -3.9912      2.00000
      2      -1.1329      2.00000
      3       4.3069      2.00000
      4       4.4513      2.00000
      5       7.2263     -0.00000
      6       9.0207     -0.00000
      7       9.0399     -0.00000
      8      13.3978      0.00000

 k-point  2473 :      -0.4833    0.4500    0.4500
  band No.  band energies     occupation 
      1      -3.9145      2.00000
      2      -1.1708      2.00000
      3       3.9886      2.00000
      4       4.3881      2.00000
      5       7.4819     -0.00000
      6       8.9842     -0.00000
      7       9.1690     -0.00000
      8      13.5380      0.00000

 k-point  2474 :      -0.4500    0.4500    0.4500
  band No.  band energies     occupation 
      1      -3.8243      2.00000
      2      -1.1802      2.00000
      3       3.5869      2.00000
      4       4.2777      2.00000
      5       7.7431     -0.00000
      6       9.0064     -0.00000
      7       9.4038     -0.00000
      8      13.7042      0.00000

 k-point  2475 :       0.4833    0.4833    0.4500
  band No.  band energies     occupation 
      1      -3.9523      2.00000
      2      -1.1897      2.00000
      3       4.3424      2.00000
      4       4.4039      2.00000
      5       7.2199     -0.00000
      6       8.9717     -0.00000
      7       9.0773     -0.00000
      8      13.3869      0.00000

 k-point  2476 :      -0.4833    0.4833    0.4500
  band No.  band energies     occupation 
      1      -3.9000      2.00000
      2      -1.2159      2.00000
      3       4.1115      2.00000
      4       4.3715      2.00000
      5       7.4038     -0.00000
      6       8.9448     -0.00000
      7       9.1646     -0.00000
      8      13.4811      0.00000

 k-point  2477 :      -0.4500    0.4833    0.4500
  band No.  band energies     occupation 
      1      -3.8355      2.00000
      2      -1.2116      2.00000
      3       3.7612      2.00000
      4       4.2829      2.00000
      5       7.6769     -0.00000
      6       8.9035     -0.00000
      7       9.3726     -0.00000
      8      13.6307      0.00000

 k-point  2478 :      -0.4833   -0.4833    0.4500
  band No.  band energies     occupation 
      1      -3.8736      2.00000
      2      -1.2295      2.00000
      3       4.0198      2.00000
      4       4.3427      2.00000
      5       7.4766     -0.00000
      6       8.9418     -0.00000
      7       9.2051     -0.00000
      8      13.5193      0.00000

 k-point  2479 :       0.4833    0.4833    0.4833
  band No.  band energies     occupation 
      1      -3.9383      2.00000
      2      -1.2349      2.00000
      3       4.4412      2.00000
      4       4.4412      2.00000
      5       7.1047     -0.00000
      6       9.0063     -0.00000
      7       9.0063     -0.00000
      8      13.3309      0.00000

 k-point  2480 :      -0.4833    0.4833    0.4833
  band No.  band energies     occupation 
      1      -3.9118      2.00000
      2      -1.2481      2.00000
      3       4.3164      2.00000
      4       4.4196      2.00000
      5       7.2134     -0.00000
      6       8.9868     -0.00000
      7       9.0501     -0.00000
      8      13.3839      0.00000


--------------------------------------------------------------------------------------------------------


 soft charge-density along one line, spin component           1
         0         1         2         3         4         5         6         7         8         9
 total charge-density along one line
 
 pseudopotential strength for first ion, spin component:           1
 18.641   0.000  -0.001   0.000  -0.000   0.000  -0.000   0.000  -0.000   0.000   0.000   0.000   0.000   0.000   0.000   0.000
 -0.001   0.000   0.006   0.000   0.000   0.000   0.000   0.000   0.000   0.000  -0.000   0.000  -0.000   0.000  -0.000   0.000
 -0.000   0.000   0.000   0.000   4.227   0.000  -0.000   0.000  -0.000   0.000  -0.004   0.000   0.000   0.000   0.000   0.000
 -0.000   0.000   0.000   0.000  -0.000   0.000   4.227   0.000  -0.000   0.000   0.000   0.000  -0.004   0.000   0.000   0.000
 -0.000   0.000   0.000   0.000  -0.000   0.000  -0.000   0.000   4.227   0.000   0.000   0.000   0.000   0.000  -0.004   0.000
  0.000   0.000  -0.000   0.000  -0.004   0.000   0.000   0.000   0.000   0.000   0.005   0.000  -0.000   0.000  -0.000   0.000
  0.000   0.000  -0.000   0.000   0.000   0.000  -0.004   0.000   0.000   0.000  -0.000   0.000   0.005   0.000  -0.000   0.000
  0.000   0.000  -0.000   0.000   0.000   0.000   0.000   0.000  -0.004   0.000  -0.000   0.000  -0.000   0.000   0.005   0.000
 total augmentation occupancy for first ion, spin component:           1
  1.495  -0.840  -0.000   0.000   0.000  -0.000   0.000   0.000
 -0.840   0.838  -0.000   0.000   0.000   0.000   0.000   0.000
 -0.000   0.000   1.014   0.000   0.000  -0.659   0.000   0.000
  0.000   0.000  -0.000   1.014   0.000   0.000  -0.659   0.000
  0.000  -0.000   0.000  -0.000   1.014   0.000  -0.000  -0.659
 -0.000   0.000  -0.659   0.000   0.000   0.485   0.000   0.000
  0.000   0.000   0.000  -0.659   0.000   0.000   0.485   0.000
  0.000   0.000   0.000   0.000  -0.659   0.000  -0.000   0.485


------------------------ aborting loop because EDIFF is reached ----------------------------------------


    CHARGE:  cpu time    0.7138: real time    1.4408
    FORLOC:  cpu time    0.0016: real time    0.0016
    FORNL :  cpu time    0.9383: real time    1.9073
    STRESS:  cpu time    2.8569: real time    4.5892
    FORCOR:  cpu time    0.0212: real time    0.0343
    FORHAR:  cpu time    0.0053: real time    0.0183
    MIXING:  cpu time    0.0011: real time    0.0011
    OFIELD:  cpu time    0.0000: real time    0.0000

  FORCE on cell =-STRESS in cart. coord.  units (eV):
  Direction    XX          YY          ZZ          XY          YZ          ZX
  --------------------------------------------------------------------------------------
  Alpha Z     3.18281     3.18281     3.18281
  Ewald     -75.71371   -75.71371   -75.71371     0.00000    -0.00000     0.00000
  Hartree     5.07306     5.07306     5.07306    -0.00000    -0.00000    -0.00000
  E(xc)     -25.38879   -25.38879   -25.38879     0.00001     0.00001     0.00001
  Local     -29.92962   -29.92962   -29.92962     0.00005     0.00005     0.00005
  n-local    78.32763    80.70286    75.51934     1.02367    -1.02576     0.00206
  augment   -11.79369   -11.79369   -11.79369    -0.00005    -0.00005    -0.00005
  Kinetic    58.06784    55.85093    55.24147     0.90941    -0.91136     0.00177
  Fock        0.00000     0.00000     0.00000     0.00000     0.00000     0.00000
  -------------------------------------------------------------------------------------
  Total       0.00009     0.00009     0.00009    -0.00000     0.00000    -0.00000
  in kB       0.00354     0.00354     0.00354    -0.00000     0.00000    -0.00000
  external pressure =        0.00 kB  Pullay stress =        0.00 kB


 VOLUME and BASIS-vectors are now :
 -----------------------------------------------------------------------------
  energy-cutoff  :      245.44
  volume of cell :       40.78
      direct lattice vectors                 reciprocal lattice vectors
    -0.000000000  2.732002851  2.732002851    -0.183015914  0.183015914  0.183015914
     2.732002851  0.000000000  2.732002851     0.183015914 -0.183015914  0.183015914
     2.732002851  2.732002851  0.000000000     0.183015914  0.183015914 -0.183015914

  length of vectors
     3.863635484  3.863635484  3.863635484     0.316992862  0.316992862  0.316992862


 FORCES acting on ions
    electron-ion (+dipol)            ewald-force                    non-local-force                 convergence-correction
 -----------------------------------------------------------------------------------------------
   0.426E-06 0.426E-06 0.426E-06   -.136E-14 0.126E-14 0.805E-15   0.694E-17 0.139E-16 0.123E-16   -.126E-07 -.126E-07 -.126E-07
   -.426E-06 -.426E-06 -.426E-06   0.145E-14 -.199E-14 -.391E-15   -.104E-16 -.139E-16 -.152E-16   0.126E-07 0.126E-07 0.126E-07
 -----------------------------------------------------------------------------------------------
   0.167E-14 -.224E-14 0.644E-14   0.849E-16 -.735E-15 0.414E-15   -.347E-17 0.000E+00 -.290E-17   -.170E-15 0.128E-15 0.132E-15
 
 
 POSITION                                       TOTAL-FORCE (eV/Angst)
 -----------------------------------------------------------------------------------
     -0.00000     -0.00000     -0.00000        -0.000000     -0.000000     -0.000000
      1.36600      1.36600      1.36600         0.000000      0.000000      0.000000
 -----------------------------------------------------------------------------------
    total drift:                                0.000000     -0.000000      0.000000


--------------------------------------------------------------------------------------------------------



  FREE ENERGIE OF THE ION-ELECTRON SYSTEM (eV)
  ---------------------------------------------------
  free  energy   TOTEN  =       -10.83648710 eV

  energy  without entropy=      -10.83689195  energy(sigma->0) =      -10.83662205
 
 d Force = 0.0000000E+00[ 0.000E+00, 0.000E+00]  d Energy = 0.6831675E-02-0.683E-02
 d Force = 0.0000000E+00[ 0.000E+00, 0.000E+00]  d Ewald  = 0.1862893E+01-0.186E+01


--------------------------------------------------------------------------------------------------------


    POTLOK:  cpu time    0.0221: real time    0.0481


--------------------------------------------------------------------------------------------------------




--------------------------------------------------------------------------------------------------------


  
 reached required accuracy - stopping structural energy minimisation
     LOOP+:  cpu time   43.2537: real time   71.3129
    4ORBIT:  cpu time    0.0000: real time    0.0000

volume of typ            1:    46.4 %
 
total charge     
 
# of ion       s       p       d       tot
------------------------------------------
    1        1.035   1.498   0.126   2.659
    2        1.035   1.498   0.126   2.659
--------------------------------------------------
tot           2.07    3.00    0.25    5.32
 
orbital moment (x)
 
# of ion     s             p             d             tot
-----------------------------------------------------------------
    1     0.000000E+00 -0.823689E-02 -0.564146E-02 -0.138783E-01
    2     0.000000E+00  0.823689E-02  0.564146E-02  0.138783E-01
------------------------------------------------------------------------------
tot        0.000000E+00 -0.147197E-10  0.115630E-10 -0.315664E-11
 
orbital moment (y)
 
# of ion     s             p             d             tot
-----------------------------------------------------------------
    1     0.000000E+00 -0.210259E+00 -0.787351E-01 -0.288994E+00
    2     0.000000E+00  0.210259E+00  0.787351E-01  0.288994E+00
------------------------------------------------------------------------------
tot        0.000000E+00 -0.207884E-10  0.206737E-12 -0.205817E-10
 
orbital moment (z)
 
# of ion     s             p             d             tot
-----------------------------------------------------------------
    1     0.000000E+00  0.963398E-02  0.610851E-02  0.157425E-01
    2     0.000000E+00 -0.963398E-02 -0.610851E-02 -0.157425E-01
------------------------------------------------------------------------------
tot        0.000000E+00 -0.201433E-10  0.174950E-11 -0.183938E-10
 

 total amount of memory used by VASP MPI-rank0   210061. kBytes
=======================================================================

   base      :      30000. kBytes
   nonl-proj :      56674. kBytes
   fftplans  :       2224. kBytes
   grid      :       2752. kBytes
   one-center:          6. kBytes
   wavefun   :     118405. kBytes
 
  
  
 General timing and accounting informations for this job:
 ========================================================
  
                  Total CPU time used (sec):      299.019
                            User time (sec):      294.776
                          System time (sec):        4.242
                         Elapsed time (sec):      485.152
  
                   Maximum memory used (kb):      271208.
                   Average memory used (kb):           0.
  
                          Minor page faults:        14604
                          Major page faults:            2
                 Voluntary context switches:          351
