Si                                      
           1
     0.000000    2.700000    2.700000
     2.700000    0.000000    2.700000
     2.700000    2.700000    0.000000
   Si
   2
Direct configuration=     1
   0.00000000  0.00000000  0.00000000
   0.25000000  0.25000000  0.25000000
Si                                      
           1
    -0.000000    2.754595    2.754595
     2.754595    0.000000    2.754595
     2.754595    2.754595    0.000000
   Si
   2
Direct configuration=     2
  -0.00000000 -0.00000000 -0.00000000
   0.25000000  0.25000000  0.25000000
Si                                      
           1
    -0.000000    2.732003    2.732003
     2.732003    0.000000    2.732003
     2.732003    2.732003    0.000000
   Si
   2
Direct configuration=     3
  -0.00000000 -0.00000000 -0.00000000
   0.25000000  0.25000000  0.25000000
