bcc Na                                  
   4.15000000000000     
    -0.500000    0.500000    0.500000
     0.500000   -0.500000    0.500000
     0.500000    0.500000   -0.500000
   Na
     1
Direct
  0.000000  0.000000  0.000000
 
   20   20   20
 0.55809     0.52324     0.45525     0.43298     0.51223     0.68088     0.86970      1.0069      1.0752      1.0970    
  1.1001      1.0970      1.0752      1.0069     0.86970     0.68088     0.51223     0.43298     0.45525     0.52324    
 0.52324     0.51305     0.46014     0.42983     0.48541     0.63485     0.82375     0.97741      1.0625      1.0937    
  1.0996      1.0989      1.0877      1.0416     0.93386     0.76161     0.57736     0.45569     0.43295     0.47918    
 0.45525     0.46014     0.43871     0.43059     0.48762     0.62545     0.80536     0.96118      1.0540      1.0909    
  1.0981      1.0984      1.0957      1.0724      1.0011     0.86544     0.68664     0.52809     0.44251     0.43295    
 0.43298     0.42983     0.43059     0.45092     0.52133     0.65289     0.81753     0.96225      1.0522      1.0896    
  1.0960      1.0950      1.0968      1.0916      1.0560     0.96802     0.82484     0.66061     0.52809     0.45569    
 0.51223     0.48541     0.48762     0.52133     0.59757     0.71745     0.85806     0.97980      1.0572      1.0896    
  1.0931      1.0893      1.0912      1.0965      1.0884      1.0455     0.95531     0.82484     0.68664     0.57736    
 0.68088     0.63485     0.62545     0.65289     0.71745     0.81261     0.91842      1.0084      1.0661      1.0893    
  1.0888      1.0818      1.0811      1.0892      1.0968      1.0871      1.0455     0.96802     0.86544     0.76161    
 0.86970     0.82375     0.80536     0.81753     0.85806     0.91842     0.98408      1.0398      1.0747      1.0866    
  1.0822      1.0732      1.0699      1.0764      1.0888      1.0968      1.0884      1.0560      1.0011     0.93386    
  1.0069     0.97741     0.96118     0.96225     0.97980      1.0084      1.0398      1.0652      1.0790      1.0804    
  1.0734      1.0647      1.0609      1.0652      1.0764      1.0892      1.0965      1.0916      1.0724      1.0416    
  1.0752      1.0625      1.0540      1.0522      1.0572      1.0661      1.0747      1.0790      1.0776      1.0716    
  1.0638      1.0580      1.0567      1.0609      1.0699      1.0811      1.0912      1.0968      1.0957      1.0877    
  1.0970      1.0937      1.0909      1.0896      1.0896      1.0893      1.0866      1.0804      1.0716      1.0626    
  1.0564      1.0548      1.0580      1.0647      1.0732      1.0818      1.0893      1.0950      1.0984      1.0989    
  1.1001      1.0996      1.0981      1.0960      1.0931      1.0888      1.0822      1.0734      1.0638      1.0564    
  1.0535      1.0564      1.0638      1.0734      1.0822      1.0888      1.0931      1.0960      1.0981      1.0996    
  1.0970      1.0989      1.0984      1.0950      1.0893      1.0818      1.0732      1.0647      1.0580      1.0548    
  1.0564      1.0626      1.0716      1.0804      1.0866      1.0893      1.0896      1.0896      1.0909      1.0937    
  1.0752      1.0877      1.0957      1.0968      1.0912      1.0811      1.0699      1.0609      1.0567      1.0580    
  1.0638      1.0716      1.0776      1.0790      1.0747      1.0661      1.0572      1.0522      1.0540      1.0625    
  1.0069      1.0416      1.0724      1.0916      1.0965      1.0892      1.0764      1.0652      1.0609      1.0647    
  1.0734      1.0804      1.0790      1.0652      1.0398      1.0084     0.97980     0.96225     0.96118     0.97741    
 0.86970     0.93386      1.0011      1.0560      1.0884      1.0968      1.0888      1.0764      1.0699      1.0732    
  1.0822      1.0866      1.0747      1.0398     0.98408     0.91842     0.85806     0.81753     0.80536     0.82375    
 0.68088     0.76161     0.86544     0.96802      1.0455      1.0871      1.0968      1.0892      1.0811      1.0818    
  1.0888      1.0893      1.0661      1.0084     0.91842     0.81261     0.71745     0.65289     0.62545     0.63485    
 0.51223     0.57736     0.68664     0.82484     0.95531      1.0455      1.0884      1.0965      1.0912      1.0893    
  1.0931      1.0896      1.0572     0.97980     0.85806     0.71745     0.59757     0.52133     0.48762     0.48541    
 0.43298     0.45569     0.52809     0.66061     0.82484     0.96802      1.0560      1.0916      1.0968      1.0950    
  1.0960      1.0896      1.0522     0.96225     0.81753     0.65289     0.52133     0.45092     0.43059     0.42983    
 0.45525     0.43295     0.44251     0.52809     0.68664     0.86544      1.0011      1.0724      1.0957      1.0984    
  1.0981      1.0909      1.0540     0.96118     0.80536     0.62545     0.48762     0.43059     0.43871     0.46014    
 0.52324     0.47918     0.43295     0.45569     0.57736     0.76161     0.93386      1.0416      1.0877      1.0989    
  1.0996      1.0937      1.0625     0.97741     0.82375     0.63485     0.48541     0.42983     0.46014     0.51305    
 0.52324     0.51305     0.46014     0.42983     0.48541     0.63485     0.82375     0.97741      1.0625      1.0937    
  1.0996      1.0989      1.0877      1.0416     0.93386     0.76161     0.57736     0.45569     0.43295     0.47918    
 0.51305     0.52329     0.47926     0.43302     0.45573     0.57738     0.76161     0.93386      1.0416      1.0877    
  1.0989      1.0996      1.0937      1.0625     0.97741     0.82374     0.63483     0.48537     0.42978     0.46010    
 0.46014     0.47926     0.46019     0.43105     0.45104     0.55727     0.73011     0.90560      1.0254      1.0819    
  1.0975      1.0988      1.0975      1.0819      1.0254     0.90560     0.73011     0.55725     0.45099     0.43099    
 0.42983     0.43302     0.43105     0.43059     0.46794     0.57233     0.73289     0.89936      1.0188      1.0787    
  1.0960      1.0967      1.0971      1.0940      1.0660     0.98795     0.84983     0.67882     0.53263     0.45101    
 0.48541     0.45573     0.45104     0.46794     0.52130     0.62531     0.76980     0.91632      1.0235      1.0792    
  1.0949      1.0932      1.0926      1.0963      1.0906      1.0524     0.96450     0.82910     0.67882     0.55727    
 0.63485     0.57738     0.55727     0.57233     0.62531     0.71743     0.83607     0.95194      1.0373      1.0820    
  1.0932      1.0883      1.0848      1.0898      1.0967      1.0884      1.0470     0.96450     0.84983     0.73012    
 0.82375     0.76161     0.73011     0.73289     0.76980     0.83607     0.91842     0.99694      1.0549      1.0845    
  1.0894      1.0818      1.0754      1.0782      1.0889      1.0970      1.0884      1.0524     0.98795     0.90560    
 0.97741     0.93386     0.90560     0.89936     0.91632     0.95194     0.99694      1.0398      1.0704      1.0840    
  1.0826      1.0737      1.0663      1.0668      1.0760      1.0889      1.0967      1.0906      1.0660      1.0254    
  1.0625      1.0416      1.0254      1.0188      1.0235      1.0373      1.0549      1.0704      1.0790      1.0793    
  1.0732      1.0650      1.0594      1.0598      1.0668      1.0782      1.0898      1.0963      1.0940      1.0819    
  1.0937      1.0877      1.0819      1.0787      1.0792      1.0820      1.0845      1.0840      1.0793      1.0716    
  1.0634      1.0577      1.0562      1.0594      1.0663      1.0754      1.0848      1.0926      1.0971      1.0975    
  1.0996      1.0989      1.0975      1.0960      1.0949      1.0932      1.0894      1.0826      1.0732      1.0634    
  1.0564      1.0543      1.0577      1.0650      1.0737      1.0818      1.0883      1.0932      1.0967      1.0988    
  1.0989      1.0996      1.0988      1.0967      1.0932      1.0883      1.0818      1.0737      1.0650      1.0577    
  1.0543      1.0564      1.0634      1.0732      1.0826      1.0894      1.0932      1.0949      1.0960      1.0975    
  1.0877      1.0937      1.0975      1.0971      1.0926      1.0848      1.0754      1.0663      1.0594      1.0562    
  1.0577      1.0634      1.0716      1.0793      1.0840      1.0845      1.0820      1.0792      1.0787      1.0819    
  1.0416      1.0625      1.0819      1.0940      1.0963      1.0898      1.0782      1.0668      1.0598      1.0594    
  1.0650      1.0732      1.0793      1.0790      1.0704      1.0549      1.0373      1.0235      1.0188      1.0254    
 0.93386     0.97741      1.0254      1.0660      1.0906      1.0967      1.0889      1.0760      1.0668      1.0663    
  1.0737      1.0826      1.0840      1.0704      1.0398     0.99694     0.95194     0.91633     0.89937     0.90560    
 0.76161     0.82374     0.90560     0.98795      1.0524      1.0884      1.0970      1.0889      1.0782      1.0754    
  1.0818      1.0894      1.0845      1.0549     0.99694     0.91843     0.83609     0.76983     0.73292     0.73012    
 0.57736     0.63483     0.73011     0.84983     0.96450      1.0470      1.0884      1.0967      1.0898      1.0848    
  1.0883      1.0932      1.0820      1.0373     0.95194     0.83609     0.71747     0.62535     0.57236     0.55727    
 0.45569     0.48537     0.55725     0.67882     0.82910     0.96450      1.0524      1.0906      1.0963      1.0926    
  1.0932      1.0949      1.0792      1.0235     0.91633     0.76983     0.62535     0.52134     0.46794     0.45101    
 0.43295     0.42978     0.45099     0.53263     0.67882     0.84983     0.98795      1.0660      1.0940      1.0971    
  1.0967      1.0960      1.0787      1.0188     0.89937     0.73292     0.57236     0.46794     0.43055     0.43099    
 0.47918     0.46010     0.43099     0.45101     0.55727     0.73012     0.90560      1.0254      1.0819      1.0975    
  1.0988      1.0975      1.0819      1.0254     0.90560     0.73012     0.55727     0.45101     0.43099     0.46010    
 0.45525     0.46014     0.43871     0.43059     0.48762     0.62545     0.80536     0.96118      1.0540      1.0909    
  1.0981      1.0984      1.0957      1.0724      1.0011     0.86544     0.68664     0.52809     0.44251     0.43295    
 0.46014     0.47926     0.46019     0.43105     0.45104     0.55727     0.73011     0.90560      1.0254      1.0819    
  1.0975      1.0988      1.0975      1.0819      1.0254     0.90560     0.73011     0.55725     0.45099     0.43099    
 0.43871     0.46019     0.45532     0.43302     0.44255     0.52810     0.68663     0.86543      1.0011      1.0724    
  1.0957      1.0984      1.0981      1.0909      1.0540     0.96118     0.80535     0.62542     0.48759     0.43055    
 0.43059     0.43105     0.43302     0.42983     0.45100     0.53260     0.67879     0.84981     0.98794      1.0660    
  1.0940      1.0971      1.0967      1.0960      1.0787      1.0188     0.89937     0.73291     0.57234     0.46794    
 0.48762     0.45104     0.44255     0.45100     0.48756     0.57229     0.70708     0.86179     0.98953      1.0652    
  1.0935      1.0955      1.0932      1.0955      1.0935      1.0652     0.98954     0.86181     0.70712     0.57236    
 0.62545     0.55727     0.52810     0.53260     0.57229     0.65284     0.76979     0.89873      1.0050      1.0696    
  1.0938      1.0933      1.0880      1.0897      1.0960      1.0915      1.0563     0.97816     0.86181     0.73292    
 0.80536     0.73011     0.68663     0.67879     0.70708     0.76979     0.85806     0.95195      1.0293      1.0767    
  1.0932      1.0897      1.0816      1.0805      1.0885      1.0969      1.0907      1.0563     0.98954     0.89937    
 0.96118     0.90560     0.86543     0.84981     0.86179     0.89873     0.95195      1.0085      1.0549      1.0825    
  1.0898      1.0836      1.0742      1.0706      1.0765      1.0884      1.0969      1.0915      1.0652      1.0188    
  1.0540      1.0254      1.0011     0.98794     0.98953      1.0050      1.0293      1.0549      1.0747      1.0840    
  1.0828      1.0749      1.0665      1.0628      1.0665      1.0765      1.0885      1.0960      1.0935      1.0787    
  1.0909      1.0819      1.0724      1.0660      1.0652      1.0696      1.0767      1.0825      1.0840      1.0804    
  1.0732      1.0653      1.0599      1.0589      1.0628      1.0706      1.0805      1.0897      1.0955      1.0960    
  1.0981      1.0975      1.0957      1.0940      1.0935      1.0938      1.0932      1.0898      1.0828      1.0732    
  1.0638      1.0577      1.0565      1.0599      1.0665      1.0742      1.0816      1.0880      1.0932      1.0967    
  1.0984      1.0988      1.0984      1.0971      1.0955      1.0933      1.0897      1.0836      1.0749      1.0653    
  1.0577      1.0548      1.0577      1.0653      1.0749      1.0836      1.0897      1.0934      1.0955      1.0971    
  1.0957      1.0975      1.0981      1.0967      1.0932      1.0880      1.0816      1.0742      1.0665      1.0599    
  1.0565      1.0577      1.0638      1.0732      1.0828      1.0898      1.0932      1.0938      1.0935      1.0940    
  1.0724      1.0819      1.0909      1.0960      1.0955      1.0897      1.0805      1.0706      1.0628      1.0589    
  1.0599      1.0653      1.0732      1.0804      1.0840      1.0825      1.0766      1.0696      1.0652      1.0660    
  1.0011      1.0254      1.0540      1.0787      1.0935      1.0960      1.0885      1.0765      1.0665      1.0628    
  1.0665      1.0749      1.0828      1.0840      1.0747      1.0549      1.0293      1.0050     0.98954     0.98795    
 0.86544     0.90560     0.96118      1.0188      1.0652      1.0915      1.0969      1.0884      1.0765      1.0706    
  1.0742      1.0836      1.0898      1.0825      1.0549      1.0084     0.95195     0.89875     0.86181     0.84983    
 0.68664     0.73011     0.80535     0.89937     0.98954      1.0563      1.0907      1.0969      1.0885      1.0805    
  1.0816      1.0897      1.0932      1.0766      1.0293     0.95195     0.85808     0.76983     0.70712     0.67882    
 0.52809     0.55725     0.62542     0.73291     0.86181     0.97816      1.0563      1.0915      1.0960      1.0897    
  1.0880      1.0934      1.0938      1.0696      1.0050     0.89875     0.76983     0.65290     0.57234     0.53263    
 0.44251     0.45099     0.48759     0.57234     0.70712     0.86181     0.98954      1.0652      1.0935      1.0955    
  1.0932      1.0955      1.0935      1.0652     0.98954     0.86181     0.70712     0.57234     0.48759     0.45099    
 0.43295     0.43099     0.43055     0.46794     0.57236     0.73292     0.89937      1.0188      1.0787      1.0960    
  1.0967      1.0971      1.0940      1.0660     0.98795     0.84983     0.67882     0.53263     0.45099     0.42978    
 0.43298     0.42983     0.43059     0.45092     0.52133     0.65289     0.81753     0.96225      1.0522      1.0896    
  1.0960      1.0950      1.0968      1.0916      1.0560     0.96802     0.82484     0.66061     0.52809     0.45569    
 0.42983     0.43302     0.43105     0.43059     0.46794     0.57233     0.73289     0.89936      1.0188      1.0787    
  1.0960      1.0967      1.0971      1.0940      1.0660     0.98795     0.84983     0.67882     0.53263     0.45101    
 0.43059     0.43105     0.43302     0.42983     0.45100     0.53260     0.67879     0.84981     0.98794      1.0660    
  1.0940      1.0971      1.0967      1.0960      1.0787      1.0188     0.89937     0.73291     0.57234     0.46794    
 0.45092     0.43059     0.42983     0.43297     0.45566     0.52805     0.66058     0.82482     0.96801      1.0560    
  1.0916      1.0968      1.0950      1.0960      1.0896      1.0522     0.96225     0.81754     0.65290     0.52134    
 0.52133     0.46794     0.45100     0.45566     0.48533     0.55720     0.67878     0.82908     0.96449      1.0524    
  1.0906      1.0963      1.0926      1.0932      1.0949      1.0792      1.0235     0.91634     0.76983     0.62535    
 0.65289     0.57233     0.53260     0.52805     0.55720     0.62538     0.73288     0.86181     0.97817      1.0563    
  1.0915      1.0960      1.0897      1.0880      1.0933      1.0938      1.0696      1.0050     0.89875     0.76983    
 0.81753     0.73289     0.67879     0.66058     0.67878     0.73288     0.81753     0.91635      1.0050      1.0658    
  1.0932      1.0949      1.0862      1.0815      1.0862      1.0949      1.0931      1.0657      1.0050     0.91633    
 0.96225     0.89936     0.84981     0.82482     0.82908     0.86181     0.91635     0.97983      1.0373      1.0767    
  1.0933      1.0914      1.0815      1.0745      1.0765      1.0863      1.0957      1.0931      1.0696      1.0235    
  1.0522      1.0188     0.98794     0.96801     0.96449     0.97817      1.0050      1.0373      1.0662      1.0845    
  1.0898      1.0846      1.0749      1.0677      1.0676      1.0750      1.0863      1.0949      1.0938      1.0792    
  1.0896      1.0787      1.0660      1.0560      1.0524      1.0563      1.0658      1.0767      1.0845      1.0866    
  1.0826      1.0749      1.0671      1.0622      1.0623      1.0676      1.0765      1.0862      1.0934      1.0949    
  1.0960      1.0960      1.0940      1.0916      1.0906      1.0915      1.0932      1.0933      1.0898      1.0826    
  1.0734      1.0650      1.0599      1.0592      1.0622      1.0677      1.0745      1.0815      1.0880      1.0932    
  1.0950      1.0967      1.0971      1.0968      1.0963      1.0960      1.0949      1.0914      1.0846      1.0749    
  1.0650      1.0580      1.0562      1.0599      1.0671      1.0749      1.0815      1.0862      1.0897      1.0926    
  1.0968      1.0971      1.0967      1.0950      1.0926      1.0897      1.0862      1.0815      1.0749      1.0671    
  1.0599      1.0562      1.0580      1.0650      1.0749      1.0846      1.0914      1.0949      1.0960      1.0963    
  1.0916      1.0940      1.0960      1.0960      1.0932      1.0880      1.0815      1.0745      1.0677      1.0622    
  1.0592      1.0599      1.0650      1.0734      1.0826      1.0898      1.0933      1.0931      1.0915      1.0906    
  1.0560      1.0660      1.0787      1.0896      1.0949      1.0933      1.0862      1.0765      1.0676      1.0623    
  1.0622      1.0671      1.0749      1.0826      1.0866      1.0845      1.0766      1.0657      1.0563      1.0524    
 0.96802     0.98795      1.0188      1.0522      1.0792      1.0938      1.0949      1.0863      1.0750      1.0676    
  1.0677      1.0749      1.0846      1.0898      1.0845      1.0661      1.0373      1.0050     0.97816     0.96450    
 0.82484     0.84983     0.89937     0.96225      1.0235      1.0696      1.0931      1.0957      1.0863      1.0765    
  1.0745      1.0815      1.0914      1.0933      1.0766      1.0373     0.97981     0.91634     0.86181     0.82910    
 0.66061     0.67882     0.73291     0.81754     0.91634      1.0050      1.0657      1.0931      1.0949      1.0862    
  1.0815      1.0862      1.0949      1.0931      1.0657      1.0050     0.91634     0.81754     0.73291     0.67882    
 0.52809     0.53263     0.57234     0.65290     0.76983     0.89875      1.0050      1.0696      1.0938      1.0934    
  1.0880      1.0897      1.0960      1.0915      1.0563     0.97816     0.86181     0.73291     0.62542     0.55725    
 0.45569     0.45101     0.46794     0.52134     0.62535     0.76983     0.91633      1.0235      1.0792      1.0949    
  1.0932      1.0926      1.0963      1.0906      1.0524     0.96450     0.82910     0.67882     0.55725     0.48537    
 0.51223     0.48541     0.48762     0.52133     0.59757     0.71745     0.85806     0.97980      1.0572      1.0896    
  1.0931      1.0893      1.0912      1.0965      1.0884      1.0455     0.95531     0.82484     0.68664     0.57736    
 0.48541     0.45573     0.45104     0.46794     0.52130     0.62531     0.76980     0.91632      1.0235      1.0792    
  1.0949      1.0932      1.0926      1.0963      1.0906      1.0524     0.96450     0.82910     0.67882     0.55727    
 0.48762     0.45104     0.44255     0.45100     0.48756     0.57229     0.70708     0.86179     0.98953      1.0652    
  1.0935      1.0955      1.0932      1.0955      1.0935      1.0652     0.98954     0.86181     0.70712     0.57236    
 0.52133     0.46794     0.45100     0.45566     0.48533     0.55720     0.67878     0.82908     0.96449      1.0524    
  1.0906      1.0963      1.0926      1.0932      1.0949      1.0792      1.0235     0.91634     0.76983     0.62535    
 0.59757     0.52130     0.48756     0.48533     0.51214     0.57730     0.68662     0.82484     0.95532      1.0455    
  1.0884      1.0965      1.0912      1.0893      1.0931      1.0896      1.0572     0.97981     0.85808     0.71747    
 0.71745     0.62531     0.57229     0.55720     0.57730     0.63480     0.73011     0.84985     0.96452      1.0470    
  1.0885      1.0967      1.0898      1.0848      1.0883      1.0932      1.0820      1.0373     0.95195     0.83609    
 0.85806     0.76980     0.70708     0.67878     0.68662     0.73011     0.80539     0.89941     0.98958      1.0563    
  1.0907      1.0969      1.0885      1.0805      1.0816      1.0897      1.0932      1.0766      1.0293     0.95194    
 0.97980     0.91632     0.86179     0.82908     0.82484     0.84985     0.89941     0.96229      1.0236      1.0696    
  1.0932      1.0957      1.0863      1.0765      1.0745      1.0815      1.0914      1.0933      1.0766      1.0373    
  1.0572      1.0235     0.98953     0.96449     0.95532     0.96452     0.98958      1.0236      1.0572      1.0820    
  1.0932      1.0914      1.0820      1.0722      1.0682      1.0722      1.0820      1.0914      1.0932      1.0820    
  1.0896      1.0792      1.0652      1.0524      1.0455      1.0470      1.0563      1.0696      1.0820      1.0893    
  1.0894      1.0836      1.0749      1.0673      1.0636      1.0655      1.0722      1.0815      1.0897      1.0932    
  1.0931      1.0949      1.0935      1.0906      1.0884      1.0885      1.0907      1.0932      1.0932      1.0894    
  1.0822      1.0737      1.0665      1.0622      1.0614      1.0636      1.0682      1.0745      1.0816      1.0883    
  1.0893      1.0932      1.0955      1.0963      1.0965      1.0967      1.0969      1.0957      1.0914      1.0836    
  1.0737      1.0647      1.0594      1.0589      1.0622      1.0673      1.0722      1.0765      1.0805      1.0848    
  1.0912      1.0926      1.0932      1.0926      1.0912      1.0898      1.0885      1.0863      1.0820      1.0749    
  1.0665      1.0594      1.0567      1.0594      1.0665      1.0749      1.0820      1.0863      1.0885      1.0898    
  1.0965      1.0963      1.0955      1.0932      1.0893      1.0848      1.0805      1.0765      1.0722      1.0673    
  1.0622      1.0589      1.0594      1.0647      1.0737      1.0836      1.0914      1.0957      1.0969      1.0967    
  1.0884      1.0906      1.0935      1.0949      1.0931      1.0883      1.0816      1.0745      1.0682      1.0636    
  1.0614      1.0622      1.0665      1.0737      1.0822      1.0894      1.0932      1.0931      1.0907      1.0884    
  1.0455      1.0524      1.0652      1.0792      1.0896      1.0932      1.0897      1.0815      1.0722      1.0655    
  1.0636      1.0673      1.0749      1.0836      1.0894      1.0893      1.0820      1.0696      1.0563      1.0470    
 0.95531     0.96450     0.98954      1.0235      1.0572      1.0820      1.0932      1.0914      1.0820      1.0722    
  1.0682      1.0722      1.0820      1.0914      1.0932      1.0820      1.0572      1.0235     0.98954     0.96450    
 0.82484     0.82910     0.86181     0.91634     0.97981      1.0373      1.0766      1.0933      1.0914      1.0815    
  1.0745      1.0765      1.0863      1.0957      1.0931      1.0696      1.0235     0.96225     0.89937     0.84983    
 0.68664     0.67882     0.70712     0.76983     0.85808     0.95195      1.0293      1.0766      1.0932      1.0897    
  1.0816      1.0805      1.0885      1.0969      1.0907      1.0563     0.98954     0.89937     0.80535     0.73011    
 0.57736     0.55727     0.57236     0.62535     0.71747     0.83609     0.95194      1.0373      1.0820      1.0932    
  1.0883      1.0848      1.0898      1.0967      1.0884      1.0470     0.96450     0.84983     0.73011     0.63483    
 0.68088     0.63485     0.62545     0.65289     0.71745     0.81261     0.91842      1.0084      1.0661      1.0893    
  1.0888      1.0818      1.0811      1.0892      1.0968      1.0871      1.0455     0.96802     0.86544     0.76161    
 0.63485     0.57738     0.55727     0.57233     0.62531     0.71743     0.83607     0.95194      1.0373      1.0820    
  1.0932      1.0883      1.0848      1.0898      1.0967      1.0884      1.0470     0.96450     0.84983     0.73012    
 0.62545     0.55727     0.52810     0.53260     0.57229     0.65284     0.76979     0.89873      1.0050      1.0696    
  1.0938      1.0933      1.0880      1.0897      1.0960      1.0915      1.0563     0.97816     0.86181     0.73292    
 0.65289     0.57233     0.53260     0.52805     0.55720     0.62538     0.73288     0.86181     0.97817      1.0563    
  1.0915      1.0960      1.0897      1.0880      1.0933      1.0938      1.0696      1.0050     0.89875     0.76983    
 0.71745     0.62531     0.57229     0.55720     0.57730     0.63480     0.73011     0.84985     0.96452      1.0470    
  1.0885      1.0967      1.0898      1.0848      1.0883      1.0932      1.0820      1.0373     0.95195     0.83609    
 0.81261     0.71743     0.65284     0.62538     0.63480     0.68087     0.76164     0.86549     0.96806      1.0455    
  1.0871      1.0968      1.0892      1.0811      1.0818      1.0888      1.0893      1.0661      1.0084     0.91843    
 0.91842     0.83607     0.76979     0.73288     0.73011     0.76164     0.82380     0.90566     0.98799      1.0524    
  1.0885      1.0970      1.0889      1.0782      1.0754      1.0818      1.0894      1.0845      1.0549     0.99694    
  1.0084     0.95194     0.89873     0.86181     0.84985     0.86549     0.90566     0.96123      1.0189      1.0652    
  1.0915      1.0969      1.0884      1.0765      1.0706      1.0742      1.0836      1.0898      1.0825      1.0549    
  1.0661      1.0373      1.0050     0.97817     0.96452     0.96806     0.98799      1.0189      1.0522      1.0792    
  1.0938      1.0949      1.0863      1.0750      1.0676      1.0677      1.0749      1.0846      1.0898      1.0845    
  1.0893      1.0820      1.0696      1.0563      1.0470      1.0455      1.0524      1.0652      1.0792      1.0895    
  1.0931      1.0897      1.0815      1.0722      1.0655      1.0636      1.0673      1.0749      1.0836      1.0894    
  1.0888      1.0932      1.0938      1.0915      1.0885      1.0871      1.0885      1.0915      1.0938      1.0931    
  1.0888      1.0818      1.0742      1.0677      1.0636      1.0623      1.0636      1.0677      1.0742      1.0818    
  1.0818      1.0883      1.0933      1.0960      1.0967      1.0968      1.0970      1.0969      1.0949      1.0897    
  1.0818      1.0732      1.0663      1.0628      1.0623      1.0636      1.0655      1.0676      1.0706      1.0754    
  1.0811      1.0848      1.0880      1.0897      1.0898      1.0892      1.0889      1.0884      1.0863      1.0815    
  1.0742      1.0663      1.0609      1.0598      1.0628      1.0677      1.0722      1.0750      1.0765      1.0782    
  1.0892      1.0898      1.0897      1.0880      1.0848      1.0811      1.0782      1.0765      1.0750      1.0722    
  1.0677      1.0628      1.0598      1.0609      1.0663      1.0742      1.0815      1.0863      1.0884      1.0889    
  1.0968      1.0967      1.0960      1.0933      1.0883      1.0818      1.0754      1.0706      1.0676      1.0655    
  1.0636      1.0623      1.0628      1.0663      1.0732      1.0818      1.0897      1.0949      1.0969      1.0970    
  1.0871      1.0884      1.0915      1.0938      1.0932      1.0888      1.0818      1.0742      1.0677      1.0636    
  1.0623      1.0636      1.0677      1.0742      1.0818      1.0888      1.0932      1.0938      1.0915      1.0884    
  1.0455      1.0470      1.0563      1.0696      1.0820      1.0893      1.0894      1.0836      1.0749      1.0673    
  1.0636      1.0655      1.0722      1.0815      1.0897      1.0932      1.0896      1.0792      1.0652      1.0524    
 0.96802     0.96450     0.97816      1.0050      1.0373      1.0661      1.0845      1.0898      1.0846      1.0749    
  1.0677      1.0676      1.0750      1.0863      1.0949      1.0938      1.0792      1.0522      1.0188     0.98795    
 0.86544     0.84983     0.86181     0.89875     0.95195      1.0084      1.0549      1.0825      1.0898      1.0836    
  1.0742      1.0706      1.0765      1.0884      1.0969      1.0915      1.0652      1.0188     0.96118     0.90560    
 0.76161     0.73012     0.73292     0.76983     0.83609     0.91843     0.99694      1.0549      1.0845      1.0894    
  1.0818      1.0754      1.0782      1.0889      1.0970      1.0884      1.0524     0.98795     0.90560     0.82374    
 0.86970     0.82375     0.80536     0.81753     0.85806     0.91842     0.98408      1.0398      1.0747      1.0866    
  1.0822      1.0732      1.0699      1.0764      1.0888      1.0968      1.0884      1.0560      1.0011     0.93386    
 0.82375     0.76161     0.73011     0.73289     0.76980     0.83607     0.91842     0.99694      1.0549      1.0845    
  1.0894      1.0818      1.0754      1.0782      1.0889      1.0970      1.0884      1.0524     0.98795     0.90560    
 0.80536     0.73011     0.68663     0.67879     0.70708     0.76979     0.85806     0.95195      1.0293      1.0767    