bcc Na                                  
   4.15000000000000     
    -0.500000    0.500000    0.500000
     0.500000   -0.500000    0.500000
     0.500000    0.500000   -0.500000
   Na
     1
Direct
  0.000000  0.000000  0.000000
 
   20   20   20
 0.55808535569E+00 0.52324397477E+00 0.45524537947E+00 0.43297912916E+00 0.51222651607E+00
 0.68087801868E+00 0.86969751237E+00 0.10068503139E+01 0.10752435846E+01 0.10969741343E+01
 0.11001428360E+01 0.10969741343E+01 0.10752435846E+01 0.10068503139E+01 0.86969751237E+00
 0.68087801868E+00 0.51222651607E+00 0.43297912916E+00 0.45524537947E+00 0.52324397477E+00
 0.52324397477E+00 0.51304556559E+00 0.46014480326E+00 0.42983144755E+00 0.48541267660E+00
 0.63485000996E+00 0.82374690998E+00 0.97740794833E+00 0.10625494742E+01 0.10937484808E+01
 0.10995710862E+01 0.10989068361E+01 0.10876737255E+01 0.10415988260E+01 0.93386327106E+00
 0.76160715609E+00 0.57736053420E+00 0.45568796036E+00 0.43294841862E+00 0.47918395296E+00
 0.45524537947E+00 0.46014480326E+00 0.43871110338E+00 0.43058577794E+00 0.48762427438E+00
 0.62544654075E+00 0.80536123880E+00 0.96117750309E+00 0.10539595232E+01 0.10908870222E+01
 0.10980655680E+01 0.10983616798E+01 0.10956615717E+01 0.10723557563E+01 0.10010868547E+01
 0.86544055780E+00 0.68664075179E+00 0.52808893833E+00 0.44251055134E+00 0.43294841862E+00
 0.43297912916E+00 0.42983144755E+00 0.43058577794E+00 0.45091625939E+00 0.52133429166E+00
 0.65289176364E+00 0.81752985451E+00 0.96224664105E+00 0.10522121027E+01 0.10895593934E+01
 0.10959591005E+01 0.10950338108E+01 0.10968081116E+01 0.10916314302E+01 0.10560188285E+01
 0.96802012496E+00 0.82483887591E+00 0.66061131665E+00 0.52808893833E+00 0.45568796036E+00
 0.51222651607E+00 0.48541267660E+00 0.48762427438E+00 0.52133429166E+00 0.59756515065E+00
 0.71745096177E+00 0.85806013228E+00 0.97980210668E+00 0.10572234287E+01 0.10895640178E+01
 0.10931353724E+01 0.10892873745E+01 0.10911996410E+01 0.10964544461E+01 0.10883555058E+01
 0.10454785111E+01 0.95530559266E+00 0.82483887591E+00 0.68664075179E+00 0.57736053420E+00
 0.68087801868E+00 0.63485000996E+00 0.62544654075E+00 0.65289176364E+00 0.71745096177E+00
 0.81260508932E+00 0.91842216028E+00 0.10084352553E+01 0.10661402296E+01 0.10892646405E+01
 0.10888373169E+01 0.10817540484E+01 0.10810832499E+01 0.10892432691E+01 0.10967777187E+01
 0.10871005182E+01 0.10454785111E+01 0.96802012496E+00 0.86544055780E+00 0.76160715609E+00
 0.86969751237E+00 0.82374690998E+00 0.80536123880E+00 0.81752985451E+00 0.85806013228E+00
 0.91842216028E+00 0.98407985044E+00 0.10397732856E+01 0.10746665028E+01 0.10865720232E+01
 0.10822255033E+01 0.10732018230E+01 0.10698578803E+01 0.10763671597E+01 0.10887919911E+01
 0.10967777187E+01 0.10883555058E+01 0.10560188285E+01 0.10010868547E+01 0.93386327106E+00
 0.10068503139E+01 0.97740794833E+00 0.96117750309E+00 0.96224664105E+00 0.97980210668E+00
 0.10084352553E+01 0.10397732856E+01 0.10652211557E+01 0.10790357760E+01 0.10803963467E+01
 0.10733649627E+01 0.10647376724E+01 0.10609102883E+01 0.10651730534E+01 0.10763671597E+01
 0.10892432691E+01 0.10964544461E+01 0.10916314302E+01 0.10723557563E+01 0.10415988260E+01
 0.10752435846E+01 0.10625494742E+01 0.10539595232E+01 0.10522121027E+01 0.10572234287E+01
 0.10661402296E+01 0.10746665028E+01 0.10790357760E+01 0.10776455248E+01 0.10715717544E+01
 0.10638378877E+01 0.10579785124E+01 0.10566676799E+01 0.10609102883E+01 0.10698578803E+01
 0.10810832499E+01 0.10911996410E+01 0.10968081116E+01 0.10956615717E+01 0.10876737255E+01
 0.10969741343E+01 0.10937484808E+01 0.10908870222E+01 0.10895593934E+01 0.10895640178E+01
 0.10892646405E+01 0.10865720232E+01 0.10803963467E+01 0.10715717544E+01 0.10625945953E+01
 0.10563623480E+01 0.10547648654E+01 0.10579785124E+01 0.10647376724E+01 0.10732018230E+01
 0.10817540484E+01 0.10892873745E+01 0.10950338108E+01 0.10983616798E+01 0.10989068361E+01
 0.11001428360E+01 0.10995710862E+01 0.10980655680E+01 0.10959591005E+01 0.10931353724E+01
 0.10888373169E+01 0.10822255033E+01 0.10733649627E+01 0.10638378877E+01 0.10563623480E+01
 0.10535181297E+01 0.10563623480E+01 0.10638378877E+01 0.10733649627E+01 0.10822255033E+01
 0.10888373169E+01 0.10931353724E+01 0.10959591005E+01 0.10980655680E+01 0.10995710862E+01
 0.10969741343E+01 0.10989068361E+01 0.10983616798E+01 0.10950338108E+01 0.10892873745E+01
 0.10817540484E+01 0.10732018230E+01 0.10647376724E+01 0.10579785124E+01 0.10547648654E+01
 0.10563623480E+01 0.10625945953E+01 0.10715717544E+01 0.10803963467E+01 0.10865720232E+01
 0.10892646405E+01 0.10895640178E+01 0.10895593934E+01 0.10908870222E+01 0.10937484808E+01
 0.10752435846E+01 0.10876737255E+01 0.10956615717E+01 0.10968081116E+01 0.10911996410E+01
 0.10810832499E+01 0.10698578803E+01 0.10609102883E+01 0.10566676799E+01 0.10579785124E+01
 0.10638378877E+01 0.10715717544E+01 0.10776455248E+01 0.10790357760E+01 0.10746665028E+01
 0.10661402296E+01 0.10572234287E+01 0.10522121027E+01 0.10539595232E+01 0.10625494742E+01
 0.10068503139E+01 0.10415988260E+01 0.10723557563E+01 0.10916314302E+01 0.10964544461E+01
 0.10892432691E+01 0.10763671597E+01 0.10651730534E+01 0.10609102883E+01 0.10647376724E+01
 0.10733649627E+01 0.10803963467E+01 0.10790357760E+01 0.10652211557E+01 0.10397732856E+01
 0.10084352553E+01 0.97980210668E+00 0.96224664105E+00 0.96117750309E+00 0.97740794833E+00
 0.86969751237E+00 0.93386327106E+00 0.10010868547E+01 0.10560188285E+01 0.10883555058E+01
 0.10967777187E+01 0.10887919911E+01 0.10763671597E+01 0.10698578803E+01 0.10732018230E+01
 0.10822255033E+01 0.10865720232E+01 0.10746665028E+01 0.10397732856E+01 0.98407985044E+00
 0.91842216028E+00 0.85806013228E+00 0.81752985451E+00 0.80536123880E+00 0.82374690998E+00
 0.68087801868E+00 0.76160715609E+00 0.86544055780E+00 0.96802012496E+00 0.10454785111E+01
 0.10871005182E+01 0.10967777187E+01 0.10892432691E+01 0.10810832499E+01 0.10817540484E+01
 0.10888373169E+01 0.10892646405E+01 0.10661402296E+01 0.10084352553E+01 0.91842216028E+00
 0.81260508932E+00 0.71745096177E+00 0.65289176364E+00 0.62544654075E+00 0.63485000996E+00
 0.51222651607E+00 0.57736053420E+00 0.68664075179E+00 0.82483887591E+00 0.95530559266E+00
 0.10454785111E+01 0.10883555058E+01 0.10964544461E+01 0.10911996410E+01 0.10892873745E+01
 0.10931353724E+01 0.10895640178E+01 0.10572234287E+01 0.97980210668E+00 0.85806013228E+00
 0.71745096177E+00 0.59756515065E+00 0.52133429166E+00 0.48762427438E+00 0.48541267660E+00
 0.43297912916E+00 0.45568796036E+00 0.52808893833E+00 0.66061131665E+00 0.82483887591E+00
 0.96802012496E+00 0.10560188285E+01 0.10916314302E+01 0.10968081116E+01 0.10950338108E+01
 0.10959591005E+01 0.10895593934E+01 0.10522121027E+01 0.96224664105E+00 0.81752985451E+00
 0.65289176364E+00 0.52133429166E+00 0.45091625939E+00 0.43058577794E+00 0.42983144755E+00
 0.45524537947E+00 0.43294841862E+00 0.44251055134E+00 0.52808893833E+00 0.68664075179E+00
 0.86544055780E+00 0.10010868547E+01 0.10723557563E+01 0.10956615717E+01 0.10983616798E+01
 0.10980655680E+01 0.10908870222E+01 0.10539595232E+01 0.96117750309E+00 0.80536123880E+00
 0.62544654075E+00 0.48762427438E+00 0.43058577794E+00 0.43871110338E+00 0.46014480326E+00
 0.52324397477E+00 0.47918395296E+00 0.43294841862E+00 0.45568796036E+00 0.57736053420E+00
 0.76160715609E+00 0.93386327106E+00 0.10415988260E+01 0.10876737255E+01 0.10989068361E+01
 0.10995710862E+01 0.10937484808E+01 0.10625494742E+01 0.97740794833E+00 0.82374690998E+00
 0.63485000996E+00 0.48541267660E+00 0.42983144755E+00 0.46014480326E+00 0.51304556559E+00
 0.52324397477E+00 0.51304556559E+00 0.46014480326E+00 0.42983144755E+00 0.48541267660E+00
 0.63485000996E+00 0.82374690998E+00 0.97740794833E+00 0.10625494742E+01 0.10937484808E+01
 0.10995710862E+01 0.10989068361E+01 0.10876737255E+01 0.10415988260E+01 0.93386327106E+00
 0.76160715609E+00 0.57736053420E+00 0.45568796036E+00 0.43294841862E+00 0.47918395296E+00
 0.51304556559E+00 0.52329163916E+00 0.47926017865E+00 0.43302120582E+00 0.45573454493E+00
 0.57737881000E+00 0.76160929544E+00 0.93386172756E+00 0.10415988455E+01 0.10876750125E+01
 0.10989080112E+01 0.10995715204E+01 0.10937481962E+01 0.10625489093E+01 0.97740644423E+00
 0.82373961296E+00 0.63482787170E+00 0.48537015738E+00 0.42977757603E+00 0.46010462498E+00
 0.46014480326E+00 0.47926017865E+00 0.46019060017E+00 0.43105267986E+00 0.45104308021E+00
 0.55727060076E+00 0.73011249831E+00 0.90559577246E+00 0.10254002235E+01 0.10818680479E+01
 0.10974581710E+01 0.10988462838E+01 0.10974574781E+01 0.10818678784E+01 0.10254026172E+01
 0.90559983482E+00 0.73010944067E+00 0.55724624229E+00 0.45099114611E+00 0.43098786718E+00
 0.42983144755E+00 0.43302120582E+00 0.43105267986E+00 0.43058707222E+00 0.46793503476E+00
 0.57233140792E+00 0.73289299852E+00 0.89935598279E+00 0.10188400851E+01 0.10787458563E+01
 0.10960251724E+01 0.10966516580E+01 0.10971372699E+01 0.10940265452E+01 0.10660326880E+01
 0.98794560061E+00 0.84982590103E+00 0.67881685386E+00 0.53262506657E+00 0.45101437706E+00
 0.48541267660E+00 0.45573454493E+00 0.45104308021E+00 0.46793503476E+00 0.52130465772E+00
 0.62531149740E+00 0.76979669484E+00 0.91631807215E+00 0.10235323925E+01 0.10792089538E+01
 0.10948603333E+01 0.10931535375E+01 0.10925760793E+01 0.10963464183E+01 0.10905832359E+01
 0.10523884853E+01 0.96449564068E+00 0.82909807462E+00 0.67882452643E+00 0.55727087204E+00
 0.63485000996E+00 0.57737881000E+00 0.55727060076E+00 0.57233140792E+00 0.62531149740E+00
 0.71742900181E+00 0.83606869232E+00 0.95193585156E+00 0.10372753313E+01 0.10820448860E+01
 0.10931629378E+01 0.10883095946E+01 0.10847769595E+01 0.10897837671E+01 0.10966921254E+01
 0.10884488448E+01 0.10470087839E+01 0.96449595229E+00 0.84983078402E+00 0.73012380589E+00
 0.82374690998E+00 0.76160929544E+00 0.73011249831E+00 0.73289299852E+00 0.76979669484E+00
 0.83606869232E+00 0.91841994725E+00 0.99693771648E+00 0.10549273123E+01 0.10845347703E+01
 0.10894344669E+01 0.10818303619E+01 0.10754042999E+01 0.10782304543E+01 0.10888764747E+01
 0.10970307213E+01 0.10884485659E+01 0.10523875789E+01 0.98794617470E+00 0.90560458435E+00
 0.97740794833E+00 0.93386172756E+00 0.90559577246E+00 0.89935598279E+00 0.91631807215E+00
 0.95193585156E+00 0.99693771648E+00 0.10397774081E+01 0.10704034623E+01 0.10839921936E+01
 0.10826114054E+01 0.10737242732E+01 0.10663353618E+01 0.10667807471E+01 0.10759564330E+01
 0.10888771509E+01 0.10966925275E+01 0.10905824011E+01 0.10660315279E+01 0.10254030238E+01
 0.10625494742E+01 0.10415988455E+01 0.10254002235E+01 0.10188400851E+01 0.10235323925E+01
 0.10372753313E+01 0.10549273123E+01 0.10704034623E+01 0.10790373952E+01 0.10793107501E+01
 0.10731865599E+01 0.10649801963E+01 0.10594195901E+01 0.10597904549E+01 0.10667810913E+01
 0.10782316959E+01 0.10897849709E+01 0.10963462889E+01 0.10940253411E+01 0.10818672406E+01
 0.10937484808E+01 0.10876750125E+01 0.10818680479E+01 0.10787458563E+01 0.10792089538E+01
 0.10820448860E+01 0.10845347703E+01 0.10839921936E+01 0.10793107501E+01 0.10715724908E+01
 0.10634186945E+01 0.10576953094E+01 0.10562433495E+01 0.10594190205E+01 0.10663354410E+01
 0.10754056004E+01 0.10847784809E+01 0.10925763305E+01 0.10971361231E+01 0.10974563920E+01
 0.10995710862E+01 0.10989080112E+01 0.10974581710E+01 0.10960251724E+01 0.10948603333E+01
 0.10931629378E+01 0.10894344669E+01 0.10826114054E+01 0.10731865599E+01 0.10634186945E+01
 0.10563628937E+01 0.10543181448E+01 0.10576944285E+01 0.10649792508E+01 0.10737243572E+01
 0.10818317245E+01 0.10883111866E+01 0.10931539256E+01 0.10966504777E+01 0.10988446939E+01
 0.10989068361E+01 0.10995715204E+01 0.10988462838E+01 0.10966516580E+01 0.10931535375E+01
 0.10883095946E+01 0.10818303619E+01 0.10737242732E+01 0.10649801963E+01 0.10576953094E+01
 0.10543181448E+01 0.10563620659E+01 0.10634176892E+01 0.10731860565E+01 0.10826117669E+01
 0.10894355910E+01 0.10931641776E+01 0.10948607300E+01 0.10960241971E+01 0.10974563920E+01
 0.10876737255E+01 0.10937481962E+01 0.10974574781E+01 0.10971372699E+01 0.10925760793E+01
 0.10847769595E+01 0.10754042999E+01 0.10663353618E+01 0.10594195901E+01 0.10562433495E+01
 0.10576944285E+01 0.10634176892E+01 0.10715719823E+01 0.10793104836E+01 0.10839917259E+01
 0.10845343808E+01 0.10820452252E+01 0.10792098891E+01 0.10787462856E+01 0.10818672406E+01
 0.10415988260E+01 0.10625489093E+01 0.10818678784E+01 0.10940265452E+01 0.10963464183E+01
 0.10897837671E+01 0.10782304543E+01 0.10667807471E+01 0.10597904549E+01 0.10594190205E+01
 0.10649792508E+01 0.10731860565E+01 0.10793104836E+01 0.10790360765E+01 0.10704007705E+01
 0.10549252696E+01 0.10372766066E+01 0.10235371677E+01 0.10188454398E+01 0.10254030238E+01
 0.93386327106E+00 0.97740644423E+00 0.10254026172E+01 0.10660326880E+01 0.10905832359E+01
 0.10966921254E+01 0.10888764747E+01 0.10759564330E+01 0.10667810913E+01 0.10663354410E+01
 0.10737243572E+01 0.10826117669E+01 0.10839917259E+01 0.10704007705E+01 0.10397738487E+01
 0.99693805815E+00 0.95194426368E+00 0.91633325631E+00 0.89937121480E+00 0.90560458435E+00
 0.76160715609E+00 0.82373961296E+00 0.90559983482E+00 0.98794560061E+00 0.10523884853E+01
 0.10884488448E+01 0.10970307213E+01 0.10888771509E+01 0.10782316959E+01 0.10754056004E+01
 0.10818317245E+01 0.10894355910E+01 0.10845343808E+01 0.10549252696E+01 0.99693805815E+00
 0.91842968690E+00 0.83609136178E+00 0.76982674471E+00 0.73291831797E+00 0.73012380589E+00
 0.57736053420E+00 0.63482787170E+00 0.73010944067E+00 0.84982590103E+00 0.96449564068E+00
 0.10470087839E+01 0.10884485659E+01 0.10966925275E+01 0.10897849709E+01 0.10847784809E+01
 0.10883111866E+01 0.10931641776E+01 0.10820452252E+01 0.10372766066E+01 0.95194426368E+00
 0.83609136178E+00 0.71746574025E+00 0.62535050756E+00 0.57235572196E+00 0.55727087204E+00
 0.45568796036E+00 0.48537015738E+00 0.55724624229E+00 0.67881685386E+00 0.82909807462E+00
 0.96449595229E+00 0.10523875789E+01 0.10905824011E+01 0.10963462889E+01 0.10925763305E+01
 0.10931539256E+01 0.10948607300E+01 0.10792098891E+01 0.10235371677E+01 0.91633325631E+00
 0.76982674471E+00 0.62535050756E+00 0.52133509395E+00 0.46793825817E+00 0.45101437706E+00
 0.43294841862E+00 0.42977757603E+00 0.45099114611E+00 0.53262506657E+00 0.67882452643E+00
 0.84983078402E+00 0.98794617470E+00 0.10660315279E+01 0.10940253411E+01 0.10971361231E+01
 0.10966504777E+01 0.10960241971E+01 0.10787462856E+01 0.10188454398E+01 0.89937121480E+00
 0.73291831797E+00 0.57235572196E+00 0.46793825817E+00 0.43055406684E+00 0.43098786718E+00
 0.47918395296E+00 0.46010462498E+00 0.43098786718E+00 0.45101437706E+00 0.55727087204E+00
 0.73012380589E+00 0.90560458435E+00 0.10254030238E+01 0.10818672406E+01 0.10974563920E+01
 0.10988446939E+01 0.10974563920E+01 0.10818672406E+01 0.10254030238E+01 0.90560458435E+00
 0.73012380589E+00 0.55727087204E+00 0.45101437706E+00 0.43098786718E+00 0.46010462498E+00
 0.45524537947E+00 0.46014480326E+00 0.43871110338E+00 0.43058577794E+00 0.48762427438E+00
 0.62544654075E+00 0.80536123880E+00 0.96117750309E+00 0.10539595232E+01 0.10908870222E+01
 0.10980655680E+01 0.10983616798E+01 0.10956615717E+01 0.10723557563E+01 0.10010868547E+01
 0.86544055780E+00 0.68664075179E+00 0.52808893833E+00 0.44251055134E+00 0.43294841862E+00
 0.46014480326E+00 0.47926017865E+00 0.46019060017E+00 0.43105267986E+00 0.45104308021E+00
 0.55727060076E+00 0.73011249831E+00 0.90559577246E+00 0.10254002235E+01 0.10818680479E+01
 0.10974581710E+01 0.10988462838E+01 0.10974574781E+01 0.10818678784E+01 0.10254026172E+01
 0.90559983482E+00 0.73010944067E+00 0.55724624229E+00 0.45099114611E+00 0.43098786718E+00
 0.43871110338E+00 0.46019060017E+00 0.45532287202E+00 0.43302356596E+00 0.44255447162E+00
 0.52809667988E+00 0.68662816763E+00 0.86542656926E+00 0.10010801287E+01 0.10723549187E+01
 0.10956626225E+01 0.10983624613E+01 0.10980656167E+01 0.10908868554E+01 0.10539601204E+01
 0.96117761564E+00 0.80535433909E+00 0.62542438702E+00 0.48758809672E+00 0.43055406684E+00
 0.43058577794E+00 0.43105267986E+00 0.43302356596E+00 0.42983017243E+00 0.45100236844E+00
 0.53260228196E+00 0.67879122966E+00 0.84980654661E+00 0.98793597733E+00 0.10660299993E+01
 0.10940263352E+01 0.10971369847E+01 0.10966507681E+01 0.10960242540E+01 0.10787468573E+01
 0.10188459759E+01 0.89936795125E+00 0.73290754292E+00 0.57234208079E+00 0.46793825817E+00
 0.48762427438E+00 0.45104308021E+00 0.44255447162E+00 0.45100236844E+00 0.48756066045E+00
 0.57229323602E+00 0.70707604486E+00 0.86178540605E+00 0.98953289074E+00 0.10651955183E+01
 0.10935077386E+01 0.10955209002E+01 0.10931689923E+01 0.10955200824E+01 0.10935066838E+01
 0.10651964825E+01 0.98954120067E+00 0.86180901868E+00 0.70712083482E+00 0.57235572196E+00
 0.62544654075E+00 0.55727060076E+00 0.52809667988E+00 0.53260228196E+00 0.57229323602E+00
 0.65284209692E+00 0.76979024078E+00 0.89873335790E+00 0.10049812688E+01 0.10696284818E+01
 0.10937933076E+01 0.10933494088E+01 0.10880161099E+01 0.10896877775E+01 0.10959772293E+01
 0.10914750818E+01 0.10562741021E+01 0.97816116666E+00 0.86181119743E+00 0.73291831797E+00
 0.80536123880E+00 0.73011249831E+00 0.68662816763E+00 0.67879122966E+00 0.70707604486E+00
 0.76979024078E+00 0.85805674952E+00 0.95194818948E+00 0.10292699428E+01 0.10766504431E+01
 0.10932326517E+01 0.10897200507E+01 0.10815718967E+01 0.10804805917E+01 0.10884707868E+01
 0.10969045261E+01 0.10907004775E+01 0.10562736433E+01 0.98954107054E+00 0.89937121480E+00
 0.96117750309E+00 0.90559577246E+00 0.86542656926E+00 0.84980654661E+00 0.86178540605E+00
 0.89873335790E+00 0.95194818948E+00 0.10084503769E+01 0.10549362704E+01 0.10824544951E+01
 0.10898432862E+01 0.10836039726E+01 0.10741620238E+01 0.10706189963E+01 0.10765416647E+01
 0.10883688217E+01 0.10969052971E+01 0.10914751890E+01 0.10651955532E+01 0.10188454398E+01
 0.10539595232E+01 0.10254002235E+01 0.10010801287E+01 0.98793597733E+00 0.98953289074E+00
 0.10049812688E+01 0.10292699428E+01 0.10549362704E+01 0.10746739252E+01 0.10839943360E+01
 0.10827764796E+01 0.10749426523E+01 0.10664691420E+01 0.10627559703E+01 0.10664727875E+01
 0.10765426269E+01 0.10884727536E+01 0.10959786851E+01 0.10935067227E+01 0.10787462856E+01
 0.10908870222E+01 0.10818680479E+01 0.10723549187E+01 0.10660299993E+01 0.10651955183E+01
 0.10696284818E+01 0.10766504431E+01 0.10824544951E+01 0.10839943360E+01 0.10803979915E+01
 0.10731874027E+01 0.10653455043E+01 0.10599129576E+01 0.10588834245E+01 0.10627556423E+01
 0.10706199536E+01 0.10804829079E+01 0.10896898877E+01 0.10955208342E+01 0.10960241971E+01
 0.10980655680E+01 0.10974581710E+01 0.10956626225E+01 0.10940263352E+01 0.10935077386E+01
 0.10937933076E+01 0.10932326517E+01 0.10898432862E+01 0.10827764796E+01 0.10731874027E+01
 0.10638394751E+01 0.10576958187E+01 0.10564509539E+01 0.10599117229E+01 0.10664681967E+01
 0.10741627623E+01 0.10815740275E+01 0.10880180296E+01 0.10931696002E+01 0.10966504777E+01
 0.10983616798E+01 0.10988462838E+01 0.10983624613E+01 0.10971369847E+01 0.10955209002E+01
 0.10933494088E+01 0.10897200507E+01 0.10836039726E+01 0.10749426523E+01 0.10653455043E+01
 0.10576958187E+01 0.10547650892E+01 0.10576945633E+01 0.10653440769E+01 0.10749422674E+01
 0.10836049529E+01 0.10897216320E+01 0.10933504637E+01 0.10955208342E+01 0.10971361231E+01
 0.10956615717E+01 0.10974574781E+01 0.10980656167E+01 0.10966507681E+01 0.10931689923E+01
 0.10880161099E+01 0.10815718967E+01 0.10741620238E+01 0.10664691420E+01 0.10599129576E+01
 0.10564509539E+01 0.10576945633E+01 0.10638382437E+01 0.10731871405E+01 0.10827768092E+01
 0.10898432197E+01 0.10932318373E+01 0.10937921844E+01 0.10935067227E+01 0.10940253411E+01
 0.10723557563E+01 0.10818678784E+01 0.10908868554E+01 0.10960242540E+01 0.10955200824E+01
 0.10896877775E+01 0.10804805917E+01 0.10706189963E+01 0.10627559703E+01 0.10588834245E+01
 0.10599117229E+01 0.10653440769E+01 0.10731871405E+01 0.10803982359E+01 0.10839927676E+01
 0.10824500393E+01 0.10766450301E+01 0.10696252597E+01 0.10651955532E+01 0.10660315279E+01
 0.10010868547E+01 0.10254026172E+01 0.10539601204E+01 0.10787468573E+01 0.10935066838E+01
 0.10959772293E+01 0.10884707868E+01 0.10765416647E+01 0.10664727875E+01 0.10627556423E+01
 0.10664681967E+01 0.10749422674E+01 0.10827768092E+01 0.10839927676E+01 0.10746675560E+01
 0.10549263460E+01 0.10292624347E+01 0.10049817339E+01 0.98954107054E+00 0.98794617470E+00
 0.86544055780E+00 0.90559983482E+00 0.96117761564E+00 0.10188459759E+01 0.10651964825E+01
 0.10914750818E+01 0.10969045261E+01 0.10883688217E+01 0.10765426269E+01 0.10706199536E+01
 0.10741627623E+01 0.10836049529E+01 0.10898432197E+01 0.10824500393E+01 0.10549263460E+01
 0.10084405663E+01 0.95194829879E+00 0.89874882762E+00 0.86181119743E+00 0.84983078402E+00
 0.68664075179E+00 0.73010944067E+00 0.80535433909E+00 0.89936795125E+00 0.98954120067E+00
 0.10562741021E+01 0.10907004775E+01 0.10969052971E+01 0.10884727536E+01 0.10804829079E+01
 0.10815740275E+01 0.10897216320E+01 0.10932318373E+01 0.10766450301E+01 0.10292624347E+01
 0.95194829879E+00 0.85807538481E+00 0.76982845661E+00 0.70712083482E+00 0.67882452643E+00
 0.52808893833E+00 0.55724624229E+00 0.62542438702E+00 0.73290754292E+00 0.86180901868E+00
 0.97816116666E+00 0.10562736433E+01 0.10914751890E+01 0.10959786851E+01 0.10896898877E+01
 0.10880180296E+01 0.10933504637E+01 0.10937921844E+01 0.10696252597E+01 0.10049817339E+01
 0.89874882762E+00 0.76982845661E+00 0.65289617125E+00 0.57234208079E+00 0.53262506657E+00
 0.44251055134E+00 0.45099114611E+00 0.48758809672E+00 0.57234208079E+00 0.70712083482E+00
 0.86181119743E+00 0.98954107054E+00 0.10651955532E+01 0.10935067227E+01 0.10955208342E+01
 0.10931696002E+01 0.10955208342E+01 0.10935067227E+01 0.10651955532E+01 0.98954107054E+00
 0.86181119743E+00 0.70712083482E+00 0.57234208079E+00 0.48758809672E+00 0.45099114611E+00
 0.43294841862E+00 0.43098786718E+00 0.43055406684E+00 0.46793825817E+00 0.57235572196E+00
 0.73291831797E+00 0.89937121480E+00 0.10188454398E+01 0.10787462856E+01 0.10960241971E+01
 0.10966504777E+01 0.10971361231E+01 0.10940253411E+01 0.10660315279E+01 0.98794617470E+00
 0.84983078402E+00 0.67882452643E+00 0.53262506657E+00 0.45099114611E+00 0.42977757603E+00
 0.43297912916E+00 0.42983144755E+00 0.43058577794E+00 0.45091625939E+00 0.52133429166E+00
 0.65289176364E+00 0.81752985451E+00 0.96224664105E+00 0.10522121027E+01 0.10895593934E+01
 0.10959591005E+01 0.10950338108E+01 0.10968081116E+01 0.10916314302E+01 0.10560188285E+01
 0.96802012496E+00 0.82483887591E+00 0.66061131665E+00 0.52808893833E+00 0.45568796036E+00
 0.42983144755E+00 0.43302120582E+00 0.43105267986E+00 0.43058707222E+00 0.46793503476E+00
 0.57233140792E+00 0.73289299852E+00 0.89935598279E+00 0.10188400851E+01 0.10787458563E+01
 0.10960251724E+01 0.10966516580E+01 0.10971372699E+01 0.10940265452E+01 0.10660326880E+01
 0.98794560061E+00 0.84982590103E+00 0.67881685386E+00 0.53262506657E+00 0.45101437706E+00
 0.43058577794E+00 0.43105267986E+00 0.43302356596E+00 0.42983017243E+00 0.45100236844E+00
 0.53260228196E+00 0.67879122966E+00 0.84980654661E+00 0.98793597733E+00 0.10660299993E+01
 0.10940263352E+01 0.10971369847E+01 0.10966507681E+01 0.10960242540E+01 0.10787468573E+01
 0.10188459759E+01 0.89936795125E+00 0.73290754292E+00 0.57234208079E+00 0.46793825817E+00
 0.45091625939E+00 0.43058707222E+00 0.42983017243E+00 0.43296701251E+00 0.45566038114E+00
 0.52805128755E+00 0.66057595826E+00 0.82481587084E+00 0.96801081220E+00 0.10560175349E+01
 0.10916319854E+01 0.10968076453E+01 0.10950321302E+01 0.10959569301E+01 0.10895582329E+01
 0.10522140320E+01 0.96225234867E+00 0.81753683541E+00 0.65289617125E+00 0.52133509395E+00
 0.52133429166E+00 0.46793503476E+00 0.45100236844E+00 0.45566038114E+00 0.48532767684E+00
 0.55719980554E+00 0.67878094222E+00 0.82908055098E+00 0.96449385373E+00 0.10523919146E+01
 0.10905860165E+01 0.10963469624E+01 0.10925748031E+01 0.10931513251E+01 0.10948583231E+01
 0.10792092971E+01 0.10235390761E+01 0.91633620246E+00 0.76982845661E+00 0.62535050756E+00
 0.65289176364E+00 0.57233140792E+00 0.53260228196E+00 0.52805128755E+00 0.55719980554E+00
 0.62538306855E+00 0.73288409773E+00 0.86180623331E+00 0.97817105239E+00 0.10562851088E+01
 0.10914819153E+01 0.10959803936E+01 0.10896887428E+01 0.10880155647E+01 0.10933477055E+01
 0.10937904023E+01 0.10696251912E+01 0.10049825124E+01 0.89874882762E+00 0.76982674471E+00
 0.81752985451E+00 0.73289299852E+00 0.67879122966E+00 0.66057595826E+00 0.67878094222E+00
 0.73288409773E+00 0.81753373907E+00 0.91635018822E+00 0.10050021822E+01 0.10657532178E+01
 0.10931542117E+01 0.10948682270E+01 0.10862466557E+01 0.10814868018E+01 0.10862454471E+01
 0.10948652158E+01 0.10931467472E+01 0.10657382678E+01 0.10049817339E+01 0.91633325631E+00
 0.96224664105E+00 0.89935598279E+00 0.84980654661E+00 0.82481587084E+00 0.82908055098E+00
 0.86180623331E+00 0.91635018822E+00 0.97983403885E+00 0.10372997640E+01 0.10766567735E+01
 0.10932717139E+01 0.10914366646E+01 0.10815230404E+01 0.10744683612E+01 0.10765029052E+01
 0.10863365217E+01 0.10957089104E+01 0.10931473972E+01 0.10696252597E+01 0.10235371677E+01
 0.10522121027E+01 0.10188400851E+01 0.98793597733E+00 0.96801081220E+00 0.96449385373E+00
 0.97817105239E+00 0.10050021822E+01 0.10372997640E+01 0.10661559580E+01 0.10845396239E+01
 0.10898426739E+01 0.10845933248E+01 0.10749404111E+01 0.10677292852E+01 0.10675733261E+01
 0.10750252719E+01 0.10863375221E+01 0.10948670830E+01 0.10937921844E+01 0.10792098891E+01
 0.10895593934E+01 0.10787458563E+01 0.10660299993E+01 0.10560175349E+01 0.10523919146E+01
 0.10562851088E+01 0.10657532178E+01 0.10766567735E+01 0.10845396239E+01 0.10865730218E+01
 0.10826113250E+01 0.10749425452E+01 0.10670582053E+01 0.10621976512E+01 0.10623021909E+01
 0.10675735051E+01 0.10765042229E+01 0.10862478299E+01 0.10933504637E+01 0.10948607300E+01
 0.10959591005E+01 0.10960251724E+01 0.10940263352E+01 0.10916319854E+01 0.10905860165E+01
 0.10914819153E+01 0.10931542117E+01 0.10932717139E+01 0.10898426739E+01 0.10826113250E+01
 0.10733660985E+01 0.10649812333E+01 0.10599130874E+01 0.10591566922E+01 0.10621969167E+01
 0.10677291312E+01 0.10744694590E+01 0.10814888345E+01 0.10880180296E+01 0.10931539256E+01
 0.10950338108E+01 0.10966516580E+01 0.10971369847E+01 0.10968076453E+01 0.10963469624E+01
 0.10959803936E+01 0.10948682270E+01 0.10914366646E+01 0.10845933248E+01 0.10749425452E+01
 0.10649812333E+01 0.10579797829E+01 0.10562436258E+01 0.10599120336E+01 0.10670573953E+01
 0.10749407620E+01 0.10815241939E+01 0.10862478299E+01 0.10896898877E+01 0.10925763305E+01
 0.10968081116E+01 0.10971372699E+01 0.10966507681E+01 0.10950321302E+01 0.10925748031E+01
 0.10896887428E+01 0.10862466557E+01 0.10815230404E+01 0.10749404111E+01 0.10670582053E+01
 0.10599130874E+01 0.10562436258E+01 0.10579787300E+01 0.10649805860E+01 0.10749434240E+01
 0.10845949883E+01 0.10914372844E+01 0.10948670830E+01 0.10959786851E+01 0.10963462889E+01
 0.10916314302E+01 0.10940265452E+01 0.10960242540E+01 0.10959569301E+01 0.10931513251E+01
 0.10880155647E+01 0.10814868018E+01 0.10744683612E+01 0.10677292852E+01 0.10621976512E+01
 0.10591566922E+01 0.10599120336E+01 0.10649805860E+01 0.10733674715E+01 0.10826140373E+01
 0.10898436496E+01 0.10932684045E+01 0.10931473972E+01 0.10914751890E+01 0.10905824011E+01
 0.10560188285E+01 0.10660326880E+01 0.10787468573E+01 0.10895582329E+01 0.10948583231E+01
 0.10933477055E+01 0.10862454471E+01 0.10765029052E+01 0.10675733261E+01 0.10623021909E+01
 0.10621969167E+01 0.10670573953E+01 0.10749434240E+01 0.10826140373E+01 0.10865743055E+01
 0.10845349489E+01 0.10766448794E+01 0.10657382678E+01 0.10562736433E+01 0.10523875789E+01
 0.96802012496E+00 0.98794560061E+00 0.10188459759E+01 0.10522140320E+01 0.10792092971E+01
 0.10937904023E+01 0.10948652158E+01 0.10863365217E+01 0.10750252719E+01 0.10675735051E+01
 0.10677291312E+01 0.10749407620E+01 0.10845949883E+01 0.10898436496E+01 0.10845349489E+01
 0.10661418897E+01 0.10372787070E+01 0.10049825124E+01 0.97816116666E+00 0.96449595229E+00
 0.82483887591E+00 0.84982590103E+00 0.89936795125E+00 0.96225234867E+00 0.10235390761E+01
 0.10696251912E+01 0.10931467472E+01 0.10957089104E+01 0.10863375221E+01 0.10765042229E+01
 0.10744694590E+01 0.10815241939E+01 0.10914372844E+01 0.10932684045E+01 0.10766448794E+01
 0.10372787070E+01 0.97981083396E+00 0.91633620246E+00 0.86180901868E+00 0.82909807462E+00
 0.66061131665E+00 0.67881685386E+00 0.73290754292E+00 0.81753683541E+00 0.91633620246E+00
 0.10049825124E+01 0.10657382678E+01 0.10931473972E+01 0.10948670830E+01 0.10862478299E+01
 0.10814888345E+01 0.10862478299E+01 0.10948670830E+01 0.10931473972E+01 0.10657382678E+01
 0.10049825124E+01 0.91633620246E+00 0.81753683541E+00 0.73290754292E+00 0.67881685386E+00
 0.52808893833E+00 0.53262506657E+00 0.57234208079E+00 0.65289617125E+00 0.76982845661E+00
 0.89874882762E+00 0.10049817339E+01 0.10696252597E+01 0.10937921844E+01 0.10933504637E+01
 0.10880180296E+01 0.10896898877E+01 0.10959786851E+01 0.10914751890E+01 0.10562736433E+01
 0.97816116666E+00 0.86180901868E+00 0.73290754292E+00 0.62542438702E+00 0.55724624229E+00
 0.45568796036E+00 0.45101437706E+00 0.46793825817E+00 0.52133509395E+00 0.62535050756E+00
 0.76982674471E+00 0.91633325631E+00 0.10235371677E+01 0.10792098891E+01 0.10948607300E+01
 0.10931539256E+01 0.10925763305E+01 0.10963462889E+01 0.10905824011E+01 0.10523875789E+01
 0.96449595229E+00 0.82909807462E+00 0.67881685386E+00 0.55724624229E+00 0.48537015738E+00
 0.51222651607E+00 0.48541267660E+00 0.48762427438E+00 0.52133429166E+00 0.59756515065E+00
 0.71745096177E+00 0.85806013228E+00 0.97980210668E+00 0.10572234287E+01 0.10895640178E+01
 0.10931353724E+01 0.10892873745E+01 0.10911996410E+01 0.10964544461E+01 0.10883555058E+01
 0.10454785111E+01 0.95530559266E+00 0.82483887591E+00 0.68664075179E+00 0.57736053420E+00
 0.48541267660E+00 0.45573454493E+00 0.45104308021E+00 0.46793503476E+00 0.52130465772E+00
 0.62531149740E+00 0.76979669484E+00 0.91631807215E+00 0.10235323925E+01 0.10792089538E+01