   1   1   1   0
  0.3573669E+02  0.3594005E-09  0.3594005E-09  0.3594005E-09  0.5000000E-15
  1.000000000000000E-004
  CAR 
 bcc Na                                  
     14.55792843     -4.77011776  301      0.57831422      1.00000000
     -4.770  0.0000E+00  0.0000E+00
     -4.706  0.0000E+00  0.0000E+00
     -4.641  0.0000E+00  0.0000E+00
     -4.577  0.0000E+00  0.0000E+00
     -4.512  0.0000E+00  0.0000E+00
     -4.448  0.0000E+00  0.0000E+00
     -4.384 -0.2986E-29 -0.1924E-30
     -4.319 -0.4682E-27 -0.3036E-28
     -4.255 -0.5976E-25 -0.3881E-26
     -4.190 -0.6192E-23 -0.4028E-24
     -4.126 -0.5209E-21 -0.3396E-22
     -4.061 -0.3556E-19 -0.2325E-20
     -3.997 -0.1971E-17 -0.1293E-18
     -3.933 -0.8610E-16 -0.5676E-17
     -3.868 -0.3136E-14 -0.2077E-15
     -3.804 -0.9254E-13 -0.6170E-14
     -3.739 -0.2216E-11 -0.1489E-12
     -3.675 -0.4304E-10 -0.2922E-11
     -3.610 -0.6776E-09 -0.4658E-10
     -3.546 -0.8645E-08 -0.6036E-09
     -3.482 -0.8930E-07 -0.6357E-08
     -3.417 -0.7460E-06 -0.5442E-07
     -3.353 -0.5030E-05 -0.3785E-06
     -3.288 -0.2728E-04 -0.2136E-05
     -3.224 -0.1184E-03 -0.9765E-05
     -3.159 -0.4073E-03 -0.3600E-04
     -3.095 -0.1089E-02 -0.1062E-03
     -3.031 -0.2171E-02 -0.2461E-03
     -2.966 -0.2828E-02 -0.4282E-03
     -2.902 -0.7826E-03 -0.4787E-03
     -2.837  0.7204E-02 -0.1454E-04
     -2.773  0.2324E-01  0.1483E-02
     -2.708  0.4613E-01  0.4455E-02
     -2.644  0.7154E-01  0.9064E-02
     -2.580  0.9496E-01  0.1518E-01
     -2.515  0.1145E+00  0.2256E-01
     -2.451  0.1306E+00  0.3098E-01
     -2.386  0.1439E+00  0.4025E-01
     -2.322  0.1547E+00  0.5022E-01
     -2.257  0.1651E+00  0.6086E-01
     -2.193  0.1770E+00  0.7226E-01
     -2.129  0.1883E+00  0.8439E-01
     -2.064  0.1957E+00  0.9700E-01
     -2.000  0.2010E+00  0.1100E+00
     -1.935  0.2099E+00  0.1235E+00
     -1.871  0.2235E+00  0.1379E+00
     -1.806  0.2360E+00  0.1531E+00
     -1.742  0.2419E+00  0.1687E+00
     -1.678  0.2433E+00  0.1843E+00
     -1.613  0.2467E+00  0.2002E+00
     -1.549  0.2562E+00  0.2168E+00
     -1.484  0.2710E+00  0.2342E+00
     -1.420  0.2851E+00  0.2526E+00
     -1.355  0.2919E+00  0.2714E+00
     -1.291  0.2896E+00  0.2900E+00
     -1.227  0.2846E+00  0.3084E+00
     -1.162  0.2870E+00  0.3269E+00
     -1.098  0.3019E+00  0.3463E+00
     -1.033  0.3233E+00  0.3672E+00
     -0.969  0.3404E+00  0.3891E+00
     -0.905  0.3460E+00  0.4114E+00
     -0.840  0.3385E+00  0.4332E+00
     -0.776  0.3229E+00  0.4540E+00
     -0.711  0.3140E+00  0.4742E+00
     -0.647  0.3290E+00  0.4954E+00
     -0.582  0.3668E+00  0.5190E+00
     -0.518  0.4013E+00  0.5449E+00
     -0.454  0.4071E+00  0.5711E+00
     -0.389  0.3862E+00  0.5960E+00
     -0.325  0.3611E+00  0.6193E+00
     -0.260  0.3499E+00  0.6418E+00
     -0.196  0.3562E+00  0.6648E+00
     -0.131  0.3784E+00  0.6891E+00
     -0.067  0.4141E+00  0.7158E+00
     -0.003  0.4508E+00  0.7449E+00
      0.062  0.4664E+00  0.7749E+00
      0.126  0.4488E+00  0.8038E+00
      0.191  0.4112E+00  0.8303E+00
      0.255  0.3814E+00  0.8549E+00
      0.320  0.3794E+00  0.8793E+00
      0.384  0.4072E+00  0.9056E+00
      0.448  0.4523E+00  0.9347E+00
      0.513  0.4934E+00  0.9665E+00
      0.577  0.5120E+00  0.9995E+00
      0.642  0.5033E+00  0.1032E+01
      0.706  0.4769E+00  0.1063E+01
      0.771  0.4497E+00  0.1092E+01
      0.835  0.4377E+00  0.1120E+01
      0.899  0.4477E+00  0.1149E+01
      0.964  0.4715E+00  0.1179E+01
      1.028  0.4958E+00  0.1211E+01
      1.093  0.5186E+00  0.1244E+01
      1.157  0.5456E+00  0.1280E+01
      1.222  0.5713E+00  0.1316E+01
      1.286  0.5800E+00  0.1354E+01
      1.350  0.5654E+00  0.1390E+01
      1.415  0.5397E+00  0.1425E+01
      1.479  0.5202E+00  0.1458E+01
      1.544  0.5134E+00  0.1491E+01
      1.608  0.5144E+00  0.1525E+01
      1.673  0.5155E+00  0.1558E+01
      1.737  0.5139E+00  0.1591E+01
      1.801  0.5153E+00  0.1624E+01
      1.866  0.5262E+00  0.1658E+01
      1.930  0.5404E+00  0.1693E+01
      1.995  0.5413E+00  0.1728E+01
      2.059  0.5222E+00  0.1761E+01
      2.124  0.4973E+00  0.1793E+01
      2.188  0.4888E+00  0.1825E+01
      2.252  0.5087E+00  0.1858E+01
      2.317  0.5533E+00  0.1893E+01
      2.381  0.6020E+00  0.1932E+01
      2.446  0.6237E+00  0.1972E+01
      2.510  0.6009E+00  0.2011E+01
      2.575  0.5520E+00  0.2047E+01
      2.639  0.5183E+00  0.2080E+01
      2.703  0.5290E+00  0.2114E+01
      2.768  0.5855E+00  0.2152E+01
      2.832  0.6645E+00  0.2195E+01
      2.897  0.7280E+00  0.2241E+01
      2.961  0.7399E+00  0.2289E+01
      3.026  0.6900E+00  0.2334E+01
      3.090  0.6076E+00  0.2373E+01
      3.154  0.5489E+00  0.2408E+01
      3.219  0.5578E+00  0.2444E+01
      3.283  0.6251E+00  0.2484E+01
      3.348  0.6912E+00  0.2529E+01
      3.412  0.7020E+00  0.2574E+01
      3.477  0.6562E+00  0.2616E+01
      3.541  0.5956E+00  0.2655E+01
      3.605  0.5591E+00  0.2691E+01
      3.670  0.5589E+00  0.2727E+01
      3.734  0.5860E+00  0.2765E+01
      3.799  0.6230E+00  0.2805E+01
      3.863  0.6532E+00  0.2847E+01
      3.928  0.6690E+00  0.2890E+01
      3.992  0.6740E+00  0.2933E+01
      4.056  0.6740E+00  0.2977E+01
      4.121  0.6694E+00  0.3020E+01
      4.185  0.6619E+00  0.3062E+01
      4.250  0.6636E+00  0.3105E+01
      4.314  0.6845E+00  0.3149E+01
      4.378  0.7094E+00  0.3195E+01
      4.443  0.7053E+00  0.3240E+01
      4.507  0.6651E+00  0.3283E+01
      4.572  0.6293E+00  0.3324E+01
      4.636  0.6446E+00  0.3365E+01
      4.701  0.7091E+00  0.3411E+01
      4.765  0.7687E+00  0.3461E+01
      4.829  0.7678E+00  0.3510E+01
      4.894  0.7016E+00  0.3555E+01
      4.958  0.6265E+00  0.3596E+01
      5.023  0.6123E+00  0.3635E+01
      5.087  0.6757E+00  0.3679E+01
      5.152  0.7633E+00  0.3728E+01
      5.216  0.8044E+00  0.3780E+01
      5.280  0.7743E+00  0.3829E+01
      5.345  0.7094E+00  0.3875E+01
      5.409  0.6709E+00  0.3918E+01
      5.474  0.6944E+00  0.3963E+01
      5.538  0.7650E+00  0.4012E+01
      5.603  0.8389E+00  0.4066E+01
      5.667  0.8811E+00  0.4123E+01
      5.731  0.8791E+00  0.4180E+01
      5.796  0.8378E+00  0.4234E+01
      5.860  0.7748E+00  0.4284E+01
      5.925  0.7164E+00  0.4330E+01
      5.989  0.6858E+00  0.4374E+01
      6.054  0.6915E+00  0.4419E+01
      6.118  0.7284E+00  0.4466E+01
      6.182  0.7841E+00  0.4516E+01
      6.247  0.8400E+00  0.4570E+01
      6.311  0.8735E+00  0.4627E+01
      6.376  0.8717E+00  0.4683E+01
      6.440  0.8416E+00  0.4737E+01
      6.505  0.8008E+00  0.4788E+01
      6.569  0.7618E+00  0.4838E+01
      6.633  0.7364E+00  0.4885E+01
      6.698  0.7413E+00  0.4933E+01
      6.762  0.7768E+00  0.4983E+01
      6.827  0.8094E+00  0.5035E+01
      6.891  0.8029E+00  0.5087E+01
      6.956  0.7619E+00  0.5136E+01
      7.020  0.7250E+00  0.5183E+01
      7.084  0.7210E+00  0.5229E+01
      7.149  0.7519E+00  0.5277E+01
      7.213  0.8090E+00  0.5330E+01
      7.278  0.8746E+00  0.5386E+01
      7.342  0.9107E+00  0.5445E+01
      7.407  0.8801E+00  0.5501E+01
      7.471  0.7894E+00  0.5552E+01
      7.535  0.6933E+00  0.5597E+01
      7.600  0.6512E+00  0.5639E+01
      7.664  0.6870E+00  0.5683E+01
      7.729  0.7790E+00  0.5733E+01
      7.793  0.8691E+00  0.5789E+01
      7.858  0.8947E+00  0.5847E+01
      7.922  0.8347E+00  0.5901E+01
      7.986  0.7344E+00  0.5948E+01
      8.051  0.6718E+00  0.5991E+01
      8.115  0.6884E+00  0.6036E+01
      8.180  0.7540E+00  0.6084E+01
      8.244  0.8054E+00  0.6136E+01
      8.309  0.8134E+00  0.6188E+01
      8.373  0.7980E+00  0.6240E+01
      8.437  0.7873E+00  0.6291E+01
      8.502  0.7870E+00  0.6341E+01
      8.566  0.7919E+00  0.6392E+01
      8.631  0.8026E+00  0.6444E+01
      8.695  0.8204E+00  0.6497E+01
      8.760  0.8360E+00  0.6551E+01
      8.824  0.8276E+00  0.6604E+01
      8.888  0.7755E+00  0.6654E+01
      8.953  0.6874E+00  0.6698E+01
      9.017  0.6091E+00  0.6738E+01
      9.082  0.5934E+00  0.6776E+01
      9.146  0.6548E+00  0.6818E+01
      9.211  0.7591E+00  0.6867E+01
      9.275  0.8545E+00  0.6922E+01
      9.339  0.9058E+00  0.6980E+01
      9.404  0.9089E+00  0.7039E+01
      9.468  0.8787E+00  0.7095E+01
      9.533  0.8311E+00  0.7149E+01
      9.597  0.7814E+00  0.7199E+01
      9.661  0.7537E+00  0.7248E+01
      9.726  0.7672E+00  0.7297E+01
      9.790  0.8082E+00  0.7349E+01
      9.855  0.8329E+00  0.7403E+01
      9.919  0.8051E+00  0.7455E+01
      9.984  0.7242E+00  0.7502E+01
     10.048  0.6245E+00  0.7542E+01
     10.112  0.5560E+00  0.7578E+01
     10.177  0.5502E+00  0.7613E+01
     10.241  0.5900E+00  0.7651E+01
     10.306  0.6236E+00  0.7691E+01
     10.370  0.6129E+00  0.7731E+01
     10.435  0.5597E+00  0.7767E+01
     10.499  0.4859E+00  0.7798E+01
     10.563  0.4056E+00  0.7824E+01
     10.628  0.3223E+00  0.7845E+01
     10.692  0.2430E+00  0.7861E+01
     10.757  0.1833E+00  0.7872E+01
     10.821  0.1554E+00  0.7882E+01
     10.886  0.1561E+00  0.7893E+01
     10.950  0.1688E+00  0.7903E+01
     11.014  0.1751E+00  0.7915E+01
     11.079  0.1641E+00  0.7925E+01
     11.143  0.1364E+00  0.7934E+01
     11.208  0.1033E+00  0.7941E+01
     11.272  0.8015E-01  0.7946E+01
     11.337  0.7462E-01  0.7951E+01
     11.401  0.8001E-01  0.7956E+01
     11.465  0.8212E-01  0.7961E+01
     11.530  0.7397E-01  0.7966E+01
     11.594  0.6120E-01  0.7970E+01
     11.659  0.5307E-01  0.7973E+01
     11.723  0.5210E-01  0.7977E+01
     11.788  0.5348E-01  0.7980E+01
     11.852  0.5131E-01  0.7983E+01
     11.916  0.4324E-01  0.7986E+01
     11.981  0.3160E-01  0.7988E+01
     12.045  0.2245E-01  0.7990E+01
     12.110  0.2133E-01  0.7991E+01
     12.174  0.2731E-01  0.7993E+01
     12.239  0.3260E-01  0.7995E+01
     12.303  0.3016E-01  0.7997E+01
     12.367  0.2063E-01  0.7998E+01
     12.432  0.1066E-01  0.7999E+01
     12.496  0.5390E-02  0.7999E+01
     12.561  0.4450E-02  0.7999E+01
     12.625  0.4455E-02  0.8000E+01
     12.690  0.3355E-02  0.8000E+01
     12.754  0.1552E-02  0.8000E+01
     12.818  0.1960E-03  0.8000E+01
     12.883 -0.3114E-03  0.8000E+01
     12.947 -0.2931E-03  0.8000E+01
     13.012 -0.1495E-03  0.8000E+01
     13.076 -0.5336E-04  0.8000E+01
     13.141 -0.1429E-04  0.8000E+01
     13.205 -0.2957E-05  0.8000E+01
     13.269 -0.4808E-06  0.8000E+01
     13.334 -0.6198E-07  0.8000E+01
     13.398 -0.6374E-08  0.8000E+01
     13.463 -0.5250E-09  0.8000E+01
     13.527 -0.3473E-10  0.8000E+01
     13.592 -0.1850E-11  0.8000E+01
     13.656 -0.7944E-13  0.8000E+01
     13.720 -0.2755E-14  0.8000E+01
     13.785 -0.7755E-16  0.8000E+01
     13.849  0.0000E+00  0.8000E+01
     13.914  0.0000E+00  0.8000E+01
     13.978  0.0000E+00  0.8000E+01
     14.043  0.0000E+00  0.8000E+01
     14.107  0.0000E+00  0.8000E+01
     14.171  0.0000E+00  0.8000E+01
     14.236  0.0000E+00  0.8000E+01
     14.300  0.0000E+00  0.8000E+01
     14.365  0.0000E+00  0.8000E+01
     14.429  0.0000E+00  0.8000E+01
     14.494  0.0000E+00  0.8000E+01
     14.558  0.0000E+00  0.8000E+01
     14.55792843     -4.77011776  301      0.57831422      1.00000000
     -4.770  0.0000E+00  0.0000E+00  0.0000E+00
     -4.706  0.0000E+00  0.0000E+00  0.0000E+00
     -4.641  0.0000E+00  0.0000E+00  0.0000E+00
     -4.577  0.0000E+00  0.0000E+00  0.0000E+00
     -4.512  0.0000E+00  0.0000E+00  0.0000E+00
     -4.448  0.0000E+00  0.0000E+00  0.0000E+00
     -4.384 -0.1476E-29 -0.6142E-32 -0.6465E-35
     -4.319 -0.2314E-27 -0.9830E-30 -0.1107E-32
     -4.255 -0.2954E-25 -0.1272E-27 -0.1486E-30
     -4.190 -0.3060E-23 -0.1340E-25 -0.1632E-28
     -4.126 -0.2574E-21 -0.1149E-23 -0.1466E-26
     -4.061 -0.1757E-19 -0.8028E-22 -0.1079E-24
     -3.997 -0.9738E-18 -0.4569E-20 -0.6503E-23
     -3.933 -0.4253E-16 -0.2070E-18 -0.3170E-21
     -3.868 -0.1549E-14 -0.7787E-17 -0.1270E-19
     -3.804 -0.4569E-13 -0.2393E-15 -0.4183E-18
     -3.739 -0.1094E-11 -0.6013E-14 -0.1136E-16
     -3.675 -0.2124E-10 -0.1234E-12 -0.2530E-15
     -3.610 -0.3343E-09 -0.2071E-11 -0.4617E-14
     -3.546 -0.4263E-08 -0.2838E-10 -0.6905E-13
     -3.482 -0.4401E-07 -0.3178E-09 -0.8457E-12
     -3.417 -0.3674E-06 -0.2907E-08 -0.8483E-11
     -3.353 -0.2475E-05 -0.2169E-07 -0.6971E-10
     -3.288 -0.1341E-04 -0.1319E-06 -0.4696E-09
     -3.224 -0.5813E-04 -0.6519E-06 -0.2597E-08
     -3.159 -0.1996E-03 -0.2610E-05 -0.1180E-07
     -3.095 -0.5324E-03 -0.8415E-05 -0.4413E-07
     -3.031 -0.1056E-02 -0.2158E-04 -0.1355E-06
     -2.966 -0.1361E-02 -0.4279E-04 -0.3389E-06
     -2.902 -0.3288E-03 -0.6015E-04 -0.6765E-06
     -2.837  0.3614E-02 -0.3802E-04 -0.1019E-05
     -2.773  0.1145E-01  0.8293E-04 -0.9340E-06
     -2.708  0.2254E-01  0.3645E-03  0.3822E-06
     -2.644  0.3468E-01  0.8416E-03  0.4073E-05
     -2.580  0.4563E-01  0.1517E-02  0.1155E-04
     -2.515  0.5448E-01  0.2374E-02  0.2418E-04
     -2.451  0.6149E-01  0.3372E-02  0.4257E-04
     -2.386  0.6701E-01  0.4445E-02  0.6671E-04
     -2.322  0.7125E-01  0.5570E-02  0.9785E-04
     -2.257  0.7513E-01  0.6829E-02  0.1387E-03
     -2.193  0.7956E-01  0.8253E-02  0.1892E-03
     -2.129  0.8372E-01  0.9675E-02  0.2445E-03
     -2.064  0.8611E-01  0.1093E-01  0.3021E-03
     -2.000  0.8740E-01  0.1221E-01  0.3702E-03
     -1.935  0.9007E-01  0.1386E-01  0.4604E-03
     -1.871  0.9477E-01  0.1588E-01  0.5701E-03
     -1.806  0.9896E-01  0.1780E-01  0.6812E-03
     -1.742  0.1004E+00  0.1927E-01  0.7828E-03
     -1.678  0.9975E-01  0.2049E-01  0.8852E-03
     -1.613  0.9980E-01  0.2199E-01  0.1011E-02
     -1.549  0.1023E+00  0.2412E-01  0.1177E-02
     -1.484  0.1068E+00  0.2678E-01  0.1380E-02
     -1.420  0.1110E+00  0.2939E-01  0.1588E-02
     -1.355  0.1124E+00  0.3124E-01  0.1762E-02
     -1.291  0.1102E+00  0.3215E-01  0.1893E-02
     -1.227  0.1069E+00  0.3284E-01  0.2023E-02
     -1.162  0.1062E+00  0.3452E-01  0.2231E-02
     -1.098  0.1101E+00  0.3774E-01  0.2551E-02
     -1.033  0.1163E+00  0.4179E-01  0.2937E-02
     -0.969  0.1210E+00  0.4530E-01  0.3297E-02
     -0.905  0.1215E+00  0.4730E-01  0.3557E-02
     -0.840  0.1174E+00  0.4749E-01  0.3684E-02
     -0.776  0.1106E+00  0.4654E-01  0.3728E-02
     -0.711  0.1058E+00  0.4672E-01  0.3885E-02
     -0.647  0.1088E+00  0.5067E-01  0.4390E-02
     -0.582  0.1194E+00  0.5810E-01  0.5207E-02
     -0.518  0.1291E+00  0.6483E-01  0.5955E-02
     -0.454  0.1295E+00  0.6691E-01  0.6281E-02
     -0.389  0.1213E+00  0.6476E-01  0.6227E-02
     -0.325  0.1116E+00  0.6205E-01  0.6132E-02
     -0.260  0.1062E+00  0.6167E-01  0.6271E-02
     -0.196  0.1062E+00  0.6427E-01  0.6728E-02
     -0.131  0.1109E+00  0.6983E-01  0.7536E-02
     -0.067  0.1193E+00  0.7804E-01  0.8665E-02
     -0.003  0.1278E+00  0.8653E-01  0.9818E-02
      0.062  0.1304E+00  0.9096E-01  0.1048E-01
      0.126  0.1237E+00  0.8891E-01  0.1038E-01
      0.191  0.1115E+00  0.8293E-01  0.9851E-02
      0.255  0.1013E+00  0.7852E-01  0.9548E-02
      0.320  0.9848E-01  0.7980E-01  0.9959E-02
      0.384  0.1034E+00  0.8738E-01  0.1117E-01
      0.448  0.1126E+00  0.9873E-01  0.1288E-01
      0.513  0.1206E+00  0.1093E+00  0.1452E-01
      0.577  0.1230E+00  0.1150E+00  0.1552E-01
      0.642  0.1186E+00  0.1148E+00  0.1566E-01
      0.706  0.1097E+00  0.1109E+00  0.1518E-01
      0.771  0.1005E+00  0.1068E+00  0.1464E-01
      0.835  0.9498E-01  0.1061E+00  0.1467E-01
      0.899  0.9463E-01  0.1103E+00  0.1558E-01
      0.964  0.9742E-01  0.1176E+00  0.1702E-01
      1.028  0.9976E-01  0.1255E+00  0.1843E-01
      1.093  0.1006E+00  0.1343E+00  0.1966E-01
      1.157  0.1010E+00  0.1451E+00  0.2093E-01
      1.222  0.1006E+00  0.1561E+00  0.2206E-01
      1.286  0.9677E-01  0.1629E+00  0.2240E-01
      1.350  0.8815E-01  0.1640E+00  0.2167E-01
      1.415  0.7712E-01  0.1625E+00  0.2046E-01
      1.479  0.6771E-01  0.1620E+00  0.1972E-01
      1.544  0.6222E-01  0.1632E+00  0.1997E-01
      1.608  0.6032E-01  0.1642E+00  0.2111E-01
      1.673  0.6060E-01  0.1632E+00  0.2273E-01
      1.737  0.6201E-01  0.1599E+00  0.2461E-01
      1.801  0.6426E-01  0.1570E+00  0.2682E-01
      1.866  0.6748E-01  0.1572E+00  0.2947E-01
      1.930  0.7172E-01  0.1581E+00  0.3220E-01
      1.995  0.7666E-01  0.1530E+00  0.3428E-01
      2.059  0.8186E-01  0.1395E+00  0.3548E-01
      2.124  0.8669E-01  0.1241E+00  0.3639E-01
      2.188  0.9037E-01  0.1163E+00  0.3790E-01
      2.252  0.9295E-01  0.1209E+00  0.4070E-01
      2.317  0.9589E-01  0.1352E+00  0.4492E-01
      2.381  0.9980E-01  0.1502E+00  0.4949E-01
      2.446  0.1026E+00  0.1557E+00  0.5214E-01
      2.510  0.1023E+00  0.1466E+00  0.5142E-01
      2.575  0.1001E+00  0.1291E+00  0.4873E-01
      2.639  0.9895E-01  0.1163E+00  0.4733E-01
      2.703  0.1002E+00  0.1184E+00  0.4960E-01
      2.768  0.1034E+00  0.1360E+00  0.5569E-01
      2.832  0.1077E+00  0.1611E+00  0.6375E-01
      2.897  0.1111E+00  0.1814E+00  0.7044E-01
      2.961  0.1097E+00  0.1864E+00  0.7233E-01
      3.026  0.1014E+00  0.1740E+00  0.6834E-01
      3.090  0.8858E-01  0.1531E+00  0.6123E-01
      3.154  0.7697E-01  0.1396E+00  0.5661E-01
      3.219  0.7180E-01  0.1453E+00  0.5899E-01
      3.283  0.7324E-01  0.1668E+00  0.6739E-01
      3.348  0.7638E-01  0.1869E+00  0.7551E-01
      3.412  0.7638E-01  0.1899E+00  0.7757E-01
      3.477  0.7271E-01  0.1758E+00  0.7353E-01
      3.541  0.6807E-01  0.1573E+00  0.6794E-01
      3.605  0.6541E-01  0.1458E+00  0.6502E-01
      3.670  0.6697E-01  0.1441E+00  0.6599E-01
      3.734  0.7354E-01  0.1484E+00  0.6980E-01
      3.799  0.8280E-01  0.1544E+00  0.7471E-01
      3.863  0.9003E-01  0.1591E+00  0.7913E-01
      3.928  0.9273E-01  0.1617E+00  0.8219E-01
      3.992  0.9315E-01  0.1624E+00  0.8391E-01
      4.056  0.9416E-01  0.1615E+00  0.8460E-01
      4.121  0.9485E-01  0.1596E+00  0.8447E-01
      4.185  0.9318E-01  0.1580E+00  0.8418E-01
      4.250  0.9072E-01  0.1596E+00  0.8546E-01
      4.314  0.9055E-01  0.1658E+00  0.8940E-01
      4.378  0.9192E-01  0.1726E+00  0.9368E-01
      4.443  0.9112E-01  0.1717E+00  0.9365E-01
      4.507  0.8811E-01  0.1611E+00  0.8831E-01
      4.572  0.8782E-01  0.1505E+00  0.8332E-01
      4.636  0.9343E-01  0.1523E+00  0.8566E-01
      4.701  0.1008E+00  0.1678E+00  0.9561E-01
      4.765  0.1021E+00  0.1847E+00  0.1056E+00
      4.829  0.9361E-01  0.1886E+00  0.1071E+00
      4.894  0.8027E-01  0.1756E+00  0.9862E-01
      4.958  0.7227E-01  0.1576E+00  0.8778E-01
      5.023  0.7727E-01  0.1518E+00  0.8481E-01
      5.087  0.9298E-01  0.1647E+00  0.9258E-01
      5.152  0.1077E+00  0.1859E+00  0.1042E+00
      5.216  0.1100E+00  0.1989E+00  0.1100E+00
      5.280  0.9789E-01  0.1969E+00  0.1067E+00
      5.345  0.8093E-01  0.1864E+00  0.9838E-01
      5.409  0.7269E-01  0.1805E+00  0.9267E-01
      5.474  0.8008E-01  0.1877E+00  0.9371E-01
      5.538  0.9727E-01  0.2065E+00  0.9988E-01
      5.603  0.1110E+00  0.2284E+00  0.1071E+00
      5.667  0.1125E+00  0.2438E+00  0.1128E+00
      5.731  0.1034E+00  0.2467E+00  0.1155E+00
      5.796  0.9116E-01  0.2364E+00  0.1137E+00
      5.860  0.8191E-01  0.2188E+00  0.1071E+00
      5.925  0.7691E-01  0.2035E+00  0.9880E-01
      5.989  0.7447E-01  0.1972E+00  0.9369E-01
      6.054  0.7297E-01  0.1999E+00  0.9553E-01
      6.118  0.7238E-01  0.2080E+00  0.1047E+00
      6.182  0.7354E-01  0.2188E+00  0.1184E+00
      6.247  0.7660E-01  0.2299E+00  0.1311E+00
      6.311  0.8059E-01  0.2380E+00  0.1375E+00
      6.376  0.8480E-01  0.2393E+00  0.1353E+00
      6.440  0.8946E-01  0.2329E+00  0.1270E+00
      6.505  0.9340E-01  0.2208E+00  0.1182E+00
      6.569  0.9254E-01  0.2072E+00  0.1129E+00
      6.633  0.8420E-01  0.1985E+00  0.1131E+00
      6.698  0.7230E-01  0.2008E+00  0.1201E+00
      6.762  0.6421E-01  0.2119E+00  0.1316E+00
      6.827  0.6261E-01  0.2198E+00  0.1404E+00
      6.891  0.6405E-01  0.2153E+00  0.1403E+00
      6.956  0.6510E-01  0.2023E+00  0.1328E+00
      7.020  0.6590E-01  0.1922E+00  0.1256E+00
      7.084  0.6776E-01  0.1914E+00  0.1246E+00
      7.149  0.7062E-01  0.1982E+00  0.1311E+00
      7.213  0.7389E-01  0.2100E+00  0.1437E+00
      7.278  0.7732E-01  0.2241E+00  0.1580E+00
      7.342  0.7968E-01  0.2333E+00  0.1654E+00
      7.407  0.7868E-01  0.2286E+00  0.1587E+00
      7.471  0.7369E-01  0.2100E+00  0.1401E+00
      7.535  0.6772E-01  0.1889E+00  0.1210E+00
      7.600  0.6521E-01  0.1781E+00  0.1134E+00
      7.664  0.6761E-01  0.1828E+00  0.1224E+00
      7.729  0.7138E-01  0.1987E+00  0.1447E+00
      7.793  0.7076E-01  0.2144E+00  0.1688E+00
      7.858  0.6326E-01  0.2167E+00  0.1806E+00
      7.922  0.5241E-01  0.2014E+00  0.1730E+00
      7.986  0.4531E-01  0.1794E+00  0.1529E+00
      8.051  0.4730E-01  0.1690E+00  0.1360E+00
      8.115  0.5761E-01  0.1786E+00  0.1328E+00
      8.180  0.6959E-01  0.1981E+00  0.1405E+00
      8.244  0.7612E-01  0.2117E+00  0.1485E+00
      8.309  0.7533E-01  0.2143E+00  0.1508E+00
      8.373  0.7049E-01  0.2123E+00  0.1501E+00
      8.437  0.6519E-01  0.2107E+00  0.1514E+00
      8.502  0.6049E-01  0.2076E+00  0.1558E+00
      8.566  0.5657E-01  0.2019E+00  0.1611E+00
      8.631  0.5436E-01  0.1963E+00  0.1665E+00
      8.695  0.5463E-01  0.1945E+00  0.1717E+00
      8.760  0.5649E-01  0.1966E+00  0.1748E+00
      8.824  0.5761E-01  0.1992E+00  0.1712E+00
      8.888  0.5568E-01  0.1966E+00  0.1574E+00
      8.953  0.5037E-01  0.1857E+00  0.1365E+00
      9.017  0.4429E-01  0.1730E+00  0.1191E+00
      9.082  0.4128E-01  0.1712E+00  0.1156E+00
      9.146  0.4343E-01  0.1872E+00  0.1266E+00
      9.211  0.4965E-01  0.2150E+00  0.1435E+00
      9.275  0.5661E-01  0.2423E+00  0.1562E+00
      9.339  0.6088E-01  0.2593E+00  0.1607E+00
      9.404  0.6072E-01  0.2640E+00  0.1592E+00
      9.468  0.5646E-01  0.2597E+00  0.1550E+00
      9.533  0.4951E-01  0.2507E+00  0.1486E+00
      9.597  0.4146E-01  0.2427E+00  0.1395E+00
      9.661  0.3403E-01  0.2434E+00  0.1313E+00
      9.726  0.2880E-01  0.2563E+00  0.1297E+00
      9.790  0.2639E-01  0.2738E+00  0.1354E+00
      9.855  0.2606E-01  0.2809E+00  0.1420E+00
      9.919  0.2601E-01  0.2694E+00  0.1412E+00
      9.984  0.2440E-01  0.2441E+00  0.1293E+00
     10.048  0.2085E-01  0.2181E+00  0.1096E+00
     10.112  0.1689E-01  0.2061E+00  0.9103E-01
     10.177  0.1447E-01  0.2137E+00  0.8287E-01
     10.241  0.1391E-01  0.2304E+00  0.8748E-01
     10.306  0.1371E-01  0.2359E+00  0.9870E-01
     10.370  0.1235E-01  0.2189E+00  0.1081E+00
     10.435  0.9653E-02  0.1852E+00  0.1109E+00
     10.499  0.6627E-02  0.1485E+00  0.1057E+00
     10.563  0.4362E-02  0.1168E+00  0.9301E-01
     10.628  0.3207E-02  0.9032E-01  0.7510E-01
     10.692  0.2802E-02  0.6812E-01  0.5661E-01
     10.757  0.2625E-02  0.5285E-01  0.4312E-01
     10.821  0.2381E-02  0.4790E-01  0.3765E-01
     10.886  0.2009E-02  0.5147E-01  0.3890E-01
     10.950  0.1567E-02  0.5611E-01  0.4297E-01
     11.014  0.1150E-02  0.5444E-01  0.4598E-01
     11.079  0.8170E-03  0.4482E-01  0.4530E-01
     11.143  0.5703E-03  0.3191E-01  0.4012E-01
     11.208  0.4113E-03  0.2247E-01  0.3208E-01
     11.272  0.3625E-03  0.2047E-01  0.2483E-01
     11.337  0.4008E-03  0.2455E-01  0.2134E-01
     11.401  0.4274E-03  0.2916E-01  0.2133E-01
     11.465  0.3572E-03  0.2891E-01  0.2201E-01
     11.530  0.2081E-03  0.2305E-01  0.2149E-01
     11.594  0.6656E-04  0.1550E-01  0.2044E-01
     11.659 -0.6320E-05  0.1057E-01  0.2033E-01
     11.723 -0.1063E-04  0.9553E-02  0.2109E-01
     11.788  0.2139E-04  0.1098E-01  0.2111E-01
     11.852  0.5621E-04  0.1253E-01  0.1901E-01
     11.916  0.7082E-04  0.1234E-01  0.1489E-01
     11.981  0.5923E-04  0.9929E-02  0.1039E-01
     12.045  0.3319E-04  0.6565E-02  0.8007E-02
     12.110  0.1004E-04  0.4233E-02  0.9459E-02
     12.174 -0.1569E-05  0.3685E-02  0.1359E-01
     12.239 -0.3835E-05  0.3916E-02  0.1657E-01
     12.303 -0.2482E-05  0.3576E-02  0.1531E-01
     12.367 -0.1032E-05  0.2375E-02  0.1052E-01
     12.432 -0.3132E-06  0.9913E-03  0.5686E-02
     12.496 -0.7341E-07  0.9502E-04  0.3345E-02
     12.561 -0.1438E-07 -0.2088E-03  0.3106E-02
     12.625 -0.2843E-08 -0.1866E-03  0.3091E-02
     12.690 -0.7044E-09 -0.9423E-04  0.2275E-02
     12.754 -0.1993E-09 -0.3375E-04  0.1041E-02
     12.818 -0.5201E-10 -0.9145E-05  0.1373E-03
     12.883 -0.1192E-10 -0.1926E-05 -0.1987E-03
     12.947 -0.2660E-11 -0.3201E-06 -0.1888E-03
     13.012 -0.6585E-12 -0.4230E-07 -0.9646E-04
     13.076 -0.1731E-12 -0.4477E-08 -0.3443E-04
     13.141 -0.4154E-13 -0.3820E-09 -0.9219E-05
     13.205 -0.8288E-14 -0.2661E-10 -0.1908E-05
     13.269 -0.1331E-14 -0.1556E-11 -0.3103E-06
     13.334 -0.1709E-15 -0.8114E-13 -0.4000E-07
     13.398 -0.1755E-16 -0.4153E-14 -0.4113E-08
     13.463 -0.1444E-17 -0.2220E-15 -0.3388E-09
     13.527 -0.9556E-19 -0.1292E-16 -0.2241E-10
     13.592 -0.5089E-20 -0.5572E-18 -0.1194E-11
     13.656 -0.2185E-21 -0.2393E-19 -0.5127E-13
     13.720 -0.7580E-23 -0.8300E-21 -0.1778E-14
     13.785 -0.2133E-24 -0.2336E-22 -0.5004E-16
     13.849  0.0000E+00  0.0000E+00  0.0000E+00
     13.914  0.0000E+00  0.0000E+00  0.0000E+00
     13.978  0.0000E+00  0.0000E+00  0.0000E+00
     14.043  0.0000E+00  0.0000E+00  0.0000E+00
     14.107  0.0000E+00  0.0000E+00  0.0000E+00
     14.171  0.0000E+00  0.0000E+00  0.0000E+00
     14.236  0.0000E+00  0.0000E+00  0.0000E+00
     14.300  0.0000E+00  0.0000E+00  0.0000E+00
     14.365  0.0000E+00  0.0000E+00  0.0000E+00
     14.429  0.0000E+00  0.0000E+00  0.0000E+00
     14.494  0.0000E+00  0.0000E+00  0.0000E+00
     14.558  0.0000E+00  0.0000E+00  0.0000E+00
