    1    1    1    1
  0.3573669E+02  0.3594005E-09  0.3594005E-09  0.3594005E-09  0.5000000E-15
  1.000000000000000E-004
  CAR 
 bcc Na                                  
      1    250      4
 
  0.2500000E-01  0.2500000E-01  0.2500000E-01  0.1000000E-02
    1       -2.725093   1.000000
    2       11.743232   0.000000
    3       11.743232   0.000000
    4       11.876303   0.000000
 
  0.7500000E-01  0.2500000E-01  0.2500000E-01  0.3000000E-02
    1       -2.590159   1.000000
    2       10.477829   0.000000
    3       11.112499   0.000000
    4       11.363544   0.000000
 
  0.1250000E+00  0.2500000E-01  0.2500000E-01  0.3000000E-02
    1       -2.365819   1.000000
    2        9.173877   0.000000
    3       10.518281   0.000000
    4       10.890258   0.000000
 
  0.1750000E+00  0.2500000E-01  0.2500000E-01  0.3000000E-02
    1       -2.051925   1.000000
    2        7.913489   0.000000
    3        9.992996   0.000000
    4       10.469549   0.000000
 
  0.2250000E+00  0.2500000E-01  0.2500000E-01  0.3000000E-02
    1       -1.651194   1.000000
    2        6.705141   0.000000
    3        9.545721   0.000000
    4       10.109300   0.000000
 
  0.2750000E+00  0.2500000E-01  0.2500000E-01  0.3000000E-02
    1       -1.165625   1.000000
    2        5.556871  -0.000000
    3        9.174392   0.000000
    4        9.812246   0.000000
 
  0.3250000E+00  0.2500000E-01  0.2500000E-01  0.3000000E-02
    1       -0.597950   1.000000
    2        4.470765  -0.000000
    3        8.884288   0.000000
    4        9.580209   0.000000
 
  0.3750000E+00  0.2500000E-01  0.2500000E-01  0.3000000E-02
    1        0.050451   1.000608
    2        3.452154  -0.000000
    3        8.677787   0.000000
    4        9.412940   0.000000
 
  0.4250000E+00  0.2500000E-01  0.2500000E-01  0.3000000E-02
    1        0.769104  -0.019664
    2        2.513867  -0.000000
    3        8.553476   0.000000
    4        9.313402   0.000000
 
  0.4750000E+00  0.2500000E-01  0.2500000E-01  0.1500000E-02
    1        1.390580  -0.000000
    2        1.819961  -0.000000
    3        8.512713   0.000000
    4        9.282486   0.000000
 
 -0.2500000E-01  0.2500000E-01  0.2500000E-01  0.7500000E-03
    1       -2.770118   1.000000
    2       12.161837   0.000000
    3       12.161837   0.000000
    4       12.557928   0.000000
 
  0.7500000E-01  0.7500000E-01  0.2500000E-01  0.3000000E-02
    1       -2.410680   1.000000
    2        9.715509   0.000000
    3       10.042807   0.000000
    4       10.827838   0.000000
 
  0.1250000E+00  0.7500000E-01  0.2500000E-01  0.6000000E-02
    1       -2.142314   1.000000
    2        8.550374   0.000000
    3        9.396329   0.000000
    4       10.361656   0.000000
 
  0.1750000E+00  0.7500000E-01  0.2500000E-01  0.6000000E-02
    1       -1.784677   1.000000
    2        7.343064   0.000000
    3        8.909359   0.000000
    4        9.951460   0.000000
 
  0.2250000E+00  0.7500000E-01  0.2500000E-01  0.6000000E-02
    1       -1.342151   1.000000
    2        6.176646   0.000000
    3        8.504145   0.000000
    4        9.602177   0.000000
 
  0.2750000E+00  0.7500000E-01  0.2500000E-01  0.6000000E-02
    1       -0.815126   1.000000
    2        5.067025  -0.000000
    3        8.181959   0.000000
    4        9.320352   0.000000
 
  0.3250000E+00  0.7500000E-01  0.2500000E-01  0.6000000E-02
    1       -0.207237   1.000000
    2        4.019233  -0.000000
    3        7.938993   0.000000
    4        9.107932   0.000000
 
  0.3750000E+00  0.7500000E-01  0.2500000E-01  0.6000000E-02
    1        0.478323   0.870073
    2        3.043293  -0.000000
    3        7.777372   0.000000
    4        8.966149   0.000000
 
  0.4250000E+00  0.7500000E-01  0.2500000E-01  0.6000000E-02
    1        1.212328  -0.000035
    2        2.162039  -0.000000
    3        7.696200   0.000000
    4        8.894111   0.000000
 
 -0.7500000E-01  0.7500000E-01  0.2500000E-01  0.3000000E-02
    1       -2.680103   1.000000
    2       11.127761   0.000000
    3       11.561138   0.000000
    4       12.245646   0.000000
 
  0.1250000E+00  0.1250000E+00  0.2500000E-01  0.3000000E-02
    1       -1.829491   1.000000
    2        7.832311   0.000000
    3        8.389371   0.000000
    4        9.910716   0.000000
 
  0.1750000E+00  0.1250000E+00  0.2500000E-01  0.6000000E-02
    1       -1.431175   1.000000
    2        6.806799   0.000000
    3        7.794711   0.000000
    4        9.515565   0.000000
 
  0.2250000E+00  0.1250000E+00  0.2500000E-01  0.6000000E-02
    1       -0.946210   1.000000
    2        5.710352  -0.000000
    3        7.398616   0.000000
    4        9.188392   0.000000
 
  0.2750000E+00  0.1250000E+00  0.2500000E-01  0.6000000E-02
    1       -0.379465   1.000000
    2        4.650566  -0.000000
    3        7.105711   0.000000
    4        8.931200   0.000000
 
  0.3250000E+00  0.1250000E+00  0.2500000E-01  0.6000000E-02
    1        0.264719   1.024548
    2        3.646878  -0.000000
    3        6.898312   0.000000
    4        8.744488   0.000000
 
  0.3750000E+00  0.1250000E+00  0.2500000E-01  0.6000000E-02
    1        0.979507  -0.007842
    2        2.717292  -0.000000
    3        6.775519   0.000000
    4        8.631093   0.000000
 
  0.4250000E+00  0.1250000E+00  0.2500000E-01  0.3000000E-02
    1        1.588416  -0.000000
    2        2.035846  -0.000000
    3        6.734368   0.000000
    4        8.593455   0.000000
 
 -0.1250000E+00  0.1250000E+00  0.2500000E-01  0.3000000E-02
    1       -2.500332   1.000000
    2        9.823637   0.000000
    3       10.982900   0.000000
    4       11.720481   0.000000
 
 -0.7500000E-01  0.1250000E+00  0.2500000E-01  0.3000000E-02
    1       -2.545273   1.000000
    2       10.380431   0.000000
    3       10.635801   0.000000
    4       11.906448   0.000000
 
  0.1750000E+00  0.1750000E+00  0.2500000E-01  0.3000000E-02
    1       -0.989154   1.000000
    2        6.185432   0.000000
    3        6.871820   0.000000
    4        9.149513   0.000000
 
  0.2250000E+00  0.1750000E+00  0.2500000E-01  0.6000000E-02
    1       -0.466802   1.000000
    2        5.285317  -0.000000
    3        6.353137   0.000000
    4        8.845346   0.000000
 
  0.2750000E+00  0.1750000E+00  0.2500000E-01  0.6000000E-02
    1        0.136772   1.003862
    2        4.302646  -0.000000
    3        6.059577   0.000000
    4        8.616809   0.000000
 
  0.3250000E+00  0.1750000E+00  0.2500000E-01  0.6000000E-02
    1        0.815032  -0.035182
    2        3.354264  -0.000000
    3        5.878835  -0.000000
    4        8.463571   0.000000
 
  0.3750000E+00  0.1750000E+00  0.2500000E-01  0.6000000E-02
    1        1.539429  -0.000000
    2        2.491952  -0.000000
    3        5.792423  -0.000000
    4        8.386435   0.000000
 
 -0.1750000E+00  0.1750000E+00  0.2500000E-01  0.3000000E-02
    1       -2.231588   1.000000
    2        8.532900   0.000000
    3       10.457441   0.000000
    4       11.225819   0.000000
 
 -0.1250000E+00  0.1750000E+00  0.2500000E-01  0.6000000E-02
    1       -2.321097   1.000000
    2        9.181956   0.000000
    3        9.996388   0.000000
    4       11.419409   0.000000
 
  0.2250000E+00  0.2250000E+00  0.2500000E-01  0.3000000E-02
    1        0.093259   1.001606
    2        4.778046  -0.000000
    3        5.518534  -0.000000
    4        8.573578   0.000000
 
  0.2750000E+00  0.2250000E+00  0.2500000E-01  0.6000000E-02
    1        0.731050   0.019837
    2        4.000361  -0.000000
    3        5.099011  -0.000000
    4        8.378892   0.000000
 
  0.3250000E+00  0.2250000E+00  0.2500000E-01  0.6000000E-02
    1        1.435398  -0.000000
    2        3.136784  -0.000000
    3        4.922172  -0.000000
    4        8.262205   0.000000
 
  0.3750000E+00  0.2250000E+00  0.2500000E-01  0.3000000E-02
    1        2.026409  -0.000000
    2        2.486371  -0.000000
    3        4.870370  -0.000000
    4        8.223059   0.000000
 
 -0.2250000E+00  0.2250000E+00  0.2500000E-01  0.3000000E-02
    1       -1.873855   1.000000
    2        7.296354   0.000000
    3        9.995438   0.000000
    4       10.799102   0.000000
 
 -0.1750000E+00  0.2250000E+00  0.2500000E-01  0.6000000E-02
    1       -2.007466   1.000000
    2        7.936849   0.000000
    3        9.492102   0.000000
    4       10.971893   0.000000
 
 -0.1250000E+00  0.2250000E+00  0.2500000E-01  0.3000000E-02
    1       -2.052029   1.000000
    2        8.437441   0.000000
    3        8.971146   0.000000
    4       11.027476   0.000000
 
  0.2750000E+00  0.2750000E+00  0.2500000E-01  0.3000000E-02
    1        1.398324  -0.000000
    2        3.621971  -0.000000
    3        4.367722  -0.000000
    4        8.221348   0.000000
 
  0.3250000E+00  0.2750000E+00  0.2500000E-01  0.6000000E-02
    1        2.101614  -0.000000
    2        2.973711  -0.000000
    3        4.082477  -0.000000
    4        8.141909   0.000000
 
 -0.2750000E+00  0.2750000E+00  0.2500000E-01  0.3000000E-02
    1       -1.430572   1.000000
    2        6.116160   0.000000
    3        9.604307   0.000000
    4       10.446754   0.000000
 
 -0.2250000E+00  0.2750000E+00  0.2500000E-01  0.6000000E-02
    1       -1.607194   1.000000
    2        6.737447   0.000000
    3        9.062604   0.000000
    4       10.591962   0.000000
 
 -0.1750000E+00  0.2750000E+00  0.2500000E-01  0.6000000E-02
    1       -1.696209   1.000000
    2        7.369166   0.000000
    3        8.354807   0.000000
    4       10.635459   0.000000
 
  0.3250000E+00  0.3250000E+00  0.2500000E-01  0.1000000E-02
    1        2.701893  -0.000000
    2        2.701914  -0.000000
    3        3.640915  -0.000000
    4        8.101742   0.000000
 
 -0.3250000E+00  0.3250000E+00  0.2500000E-01  0.3000000E-02
    1       -0.902204   1.000000
    2        4.998172  -0.000000
    3        9.285386   0.000000
    4       10.168648   0.000000
 
 -0.2750000E+00  0.3250000E+00  0.2500000E-01  0.6000000E-02
    1       -1.121759   1.000000
    2        5.592938  -0.000000
    3        8.710279   0.000000
    4       10.282522   0.000000
 
 -0.2250000E+00  0.3250000E+00  0.2500000E-01  0.6000000E-02
    1       -1.253964   1.000000
    2        6.236135   0.000000
    3        7.928590   0.000000
    4       10.294288   0.000000
 
 -0.1750000E+00  0.3250000E+00  0.2500000E-01  0.3000000E-02
    1       -1.297296   1.000000
    2        6.709559   0.000000
    3        7.402689   0.000000
    4       10.284241   0.000000
 
 -0.3750000E+00  0.3750000E+00  0.2500000E-01  0.3000000E-02
    1       -0.294144   1.000000
    2        3.944367  -0.000000
    3        9.042549   0.000000
    4        9.961670   0.000000
 
 -0.3250000E+00  0.3750000E+00  0.2500000E-01  0.6000000E-02
    1       -0.553988   1.000000
    2        4.510190  -0.000000
    3        8.433577   0.000000
    4       10.040986   0.000000
 
 -0.2750000E+00  0.3750000E+00  0.2500000E-01  0.6000000E-02
    1       -0.728489   1.000000
    2        5.137651  -0.000000
    3        7.599515   0.000000
    4       10.015800   0.000000
 
 -0.2250000E+00  0.3750000E+00  0.2500000E-01  0.6000000E-02
    1       -0.814956   1.000000
    2        5.771110  -0.000000
    3        6.848300   0.000000
    4        9.976096   0.000000
 
 -0.4250000E+00  0.4250000E+00  0.2500000E-01  0.3000000E-02
    1        0.392178   1.016357
    2        2.965094  -0.000000
    3        8.881029   0.000000
    4        9.825319   0.000000
 
 -0.3750000E+00  0.4250000E+00  0.2500000E-01  0.6000000E-02
    1        0.092752   1.001589
    2        3.493365  -0.000000
    3        8.235723   0.000000
    4        9.868651   0.000000
 
 -0.3250000E+00  0.4250000E+00  0.2500000E-01  0.6000000E-02
    1       -0.121112   1.000004
    2        4.096781  -0.000000
    3        7.356799   0.000000
    4        9.805027   0.000000
 
 -0.2750000E+00  0.4250000E+00  0.2500000E-01  0.6000000E-02
    1       -0.250328   1.000000
    2        4.749108  -0.000000
    3        6.514806   0.000000
    4        9.728743   0.000000
 
 -0.2250000E+00  0.4250000E+00  0.2500000E-01  0.3000000E-02
    1       -0.293436   1.000000
    2        5.221336  -0.000000
    3        5.977540  -0.000000
    4        9.700642   0.000000
 
 -0.4750000E+00  0.4750000E+00  0.2500000E-01  0.3000000E-02
    1        1.128834  -0.000348
    2        2.076267  -0.000000
    3        8.797638   0.000000
    4        9.754300   0.000000
 
 -0.4250000E+00  0.4750000E+00  0.2500000E-01  0.6000000E-02
    1        0.812055  -0.034936
    2        2.555715  -0.000000
    3        8.118083   0.000000
    4        9.766227   0.000000
 
 -0.3750000E+00  0.4750000E+00  0.2500000E-01  0.6000000E-02
    1        0.562484   0.566751
    2        3.125202  -0.000000
    3        7.195282   0.000000
    4        9.664880   0.000000
 
 -0.3250000E+00  0.4750000E+00  0.2500000E-01  0.6000000E-02
    1        0.392822   1.015870
    2        3.760944  -0.000000
    3        6.295126   0.000000
    4        9.549205   0.000000
 
 -0.2750000E+00  0.4750000E+00  0.2500000E-01  0.6000000E-02
    1        0.307204   1.033265
    2        4.403036  -0.000000
    3        5.515454  -0.000000
    4        9.483416   0.000000
 
 -0.4750000E+00 -0.4750000E+00  0.2500000E-01  0.3000000E-02
    1        1.430612  -0.000000
    2        1.864031  -0.000000
    3        8.078400   0.000000
    4        9.732904   0.000000
 
 -0.4250000E+00 -0.4750000E+00  0.2500000E-01  0.6000000E-02
    1        1.294744  -0.000002
    2        2.246344  -0.000000
    3        7.114800   0.000000
    4        9.592878   0.000000
 
 -0.3750000E+00 -0.4750000E+00  0.2500000E-01  0.6000000E-02
    1        1.104386  -0.000634
    2        2.839670  -0.000000
    3        6.166638   0.000000
    4        9.440815   0.000000
 
 -0.3250000E+00 -0.4750000E+00  0.2500000E-01  0.6000000E-02
    1        0.983376  -0.007360
    2        3.498721  -0.000000
    3        5.294760  -0.000000
    4        9.338247   0.000000
 
 -0.2750000E+00 -0.4750000E+00  0.2500000E-01  0.3000000E-02
    1        0.940729  -0.013972
    2        3.976940  -0.000000
    3        4.741091  -0.000000
    4        9.302765   0.000000
 
 -0.4250000E+00 -0.4250000E+00  0.2500000E-01  0.3000000E-02
    1        1.708480  -0.000000
    2        2.164565  -0.000000
    3        6.124687   0.000000
    4        9.404035   0.000000
 
 -0.3750000E+00 -0.4250000E+00  0.2500000E-01  0.6000000E-02
    1        1.702872  -0.000000
    2        2.651698  -0.000000
    3        5.196539  -0.000000
    4        9.265217   0.000000
 
 -0.3250000E+00 -0.4250000E+00  0.2500000E-01  0.6000000E-02
    1        1.640423  -0.000000
    2        3.283565  -0.000000
    3        4.400487  -0.000000
    4        9.193692   0.000000
 
 -0.3750000E+00 -0.3750000E+00  0.2500000E-01  0.3000000E-02
    1        2.224174  -0.000000
    2        2.665002  -0.000000
    3        4.318736  -0.000000
    4        9.156721   0.000000
 
 -0.3250000E+00 -0.3750000E+00  0.2500000E-01  0.3000000E-02
    1        2.328104  -0.000000
    2        2.982495  -0.000000
    3        3.786749  -0.000000
    4        9.120187   0.000000
 
  0.7500000E-01  0.7500000E-01  0.7500000E-01  0.1000000E-02
    1       -2.187030   1.000000
    2        9.113862   0.000000
    3        9.113862   0.000000
    4       10.014944   0.000000
 
  0.1250000E+00  0.7500000E-01  0.7500000E-01  0.3000000E-02
    1       -1.873961   1.000000
    2        7.969398   0.000000
    3        8.589897   0.000000
    4        9.485912   0.000000
 
  0.1750000E+00  0.7500000E-01  0.7500000E-01  0.3000000E-02
    1       -1.474834   1.000000
    2        6.807315   0.000000
    3        8.146202   0.000000
    4        9.067498   0.000000
 
  0.2250000E+00  0.7500000E-01  0.7500000E-01  0.3000000E-02
    1       -0.989488   1.000000
    2        5.684925  -0.000000
    3        7.781693   0.000000
    4        8.730078   0.000000
 
  0.2750000E+00  0.7500000E-01  0.7500000E-01  0.3000000E-02
    1       -0.423601   1.000000
    2        4.615300  -0.000000
    3        7.497471   0.000000
    4        8.466793   0.000000
 
  0.3250000E+00  0.7500000E-01  0.7500000E-01  0.3000000E-02
    1        0.222822   1.015313
    2        3.609086  -0.000000
    3        7.296583   0.000000
    4        8.279324   0.000000
 
  0.3750000E+00  0.7500000E-01  0.7500000E-01  0.3000000E-02
    1        0.937762  -0.014538
    2        2.676799  -0.000000
    3        7.173091   0.000000
    4        8.165878   0.000000
 
  0.4250000E+00  0.7500000E-01  0.7500000E-01  0.1500000E-02
    1        1.548691  -0.000000
    2        1.992966  -0.000000
    3        7.132372   0.000000
    4        8.127857   0.000000
 
 -0.7500000E-01  0.7500000E-01  0.7500000E-01  0.7500000E-03
    1       -2.590240   1.000000
    2       10.905565   0.000000
    3       10.905575   0.000000
    4       11.495956   0.000000
 
  0.1250000E+00  0.1250000E+00  0.7500000E-01  0.3000000E-02
    1       -1.518089   1.000000
    2        7.310294   0.000000
    3        7.714107   0.000000
    4        8.905079   0.000000
 
  0.1750000E+00  0.1250000E+00  0.7500000E-01  0.6000000E-02
    1       -1.078160   1.000000
    2        6.315656   0.000000
    3        7.200690   0.000000
    4        8.482168   0.000000
 
  0.2250000E+00  0.1250000E+00  0.7500000E-01  0.6000000E-02
    1       -0.553739   1.000000
    2        5.258769  -0.000000
    3        6.857620   0.000000
    4        8.155456   0.000000
 
  0.2750000E+00  0.1250000E+00  0.7500000E-01  0.6000000E-02
    1        0.050961   1.000615
    2        4.239265  -0.000000
    3        6.608555   0.000000
    4        7.914417   0.000000
 
  0.3250000E+00  0.1250000E+00  0.7500000E-01  0.6000000E-02
    1        0.731351   0.019404
    2        3.279960  -0.000000
    3        6.444827   0.000000
    4        7.753956   0.000000
 
  0.3750000E+00  0.1250000E+00  0.7500000E-01  0.6000000E-02
    1        1.457342  -0.000000
    2        2.409527  -0.000000
    3        6.361268   0.000000
    4        7.672689   0.000000
 
 -0.1250000E+00  0.1250000E+00  0.7500000E-01  0.3000000E-02
    1       -2.410725   1.000000
    2        9.840031   0.000000
    3       10.311166   0.000000
    4       11.094787   0.000000
 
  0.1750000E+00  0.1750000E+00  0.7500000E-01  0.3000000E-02
    1       -0.597160   1.000000
    2        5.740824  -0.000000
    3        6.353270   0.000000
    4        8.073677   0.000000
 
  0.2250000E+00  0.1750000E+00  0.7500000E-01  0.6000000E-02
    1       -0.035550   1.000063
    2        4.877233  -0.000000
    3        5.895166  -0.000000
    4        7.772642   0.000000
 
  0.2750000E+00  0.1750000E+00  0.7500000E-01  0.6000000E-02
    1        0.604128   0.391774
    2        3.933551  -0.000000
    3        5.650083  -0.000000
    4        7.562529   0.000000
 
  0.3250000E+00  0.1750000E+00  0.7500000E-01  0.6000000E-02
    1        1.311301  -0.000001
    2        3.031086  -0.000000
    3        5.514862  -0.000000
    4        7.437632   0.000000
 
  0.3750000E+00  0.1750000E+00  0.7500000E-01  0.3000000E-02
    1        1.906419  -0.000000
    2        2.369642  -0.000000
    3        5.471463  -0.000000
    4        7.396143   0.000000
 
 -0.1750000E+00  0.1750000E+00  0.7500000E-01  0.3000000E-02
    1       -2.141847   1.000000
    2        8.584171   0.000000
    3        9.785026   0.000000
    4       10.730662   0.000000
 
 -0.1250000E+00  0.1750000E+00  0.7500000E-01  0.3000000E-02
    1       -2.187031   1.000000
    2        9.115550   0.000000
    3        9.468953   0.000000
    4       10.787964   0.000000
 
  0.2250000E+00  0.2250000E+00  0.7500000E-01  0.3000000E-02
    1        0.561288   0.571755
    2        4.415966  -0.000000
    3        5.112718  -0.000000
    4        7.504094   0.000000
 
  0.2750000E+00  0.2250000E+00  0.7500000E-01  0.6000000E-02
    1        1.231897  -0.000019
    2        3.677167  -0.000000
    3        4.746645  -0.000000
    4        7.331055   0.000000
 
  0.3250000E+00  0.2250000E+00  0.7500000E-01  0.6000000E-02
    1        1.943979  -0.000000
    2        2.871903  -0.000000
    3        4.621007  -0.000000
    4        7.245600   0.000000
 
 -0.2250000E+00  0.2250000E+00  0.7500000E-01  0.3000000E-02
    1       -1.784705   1.000000
    2        7.357674   0.000000
    3        9.332081   0.000000
    4       10.341933   0.000000
 
 -0.1750000E+00  0.2250000E+00  0.7500000E-01  0.6000000E-02
    1       -1.873046   1.000000
    2        8.001016   0.000000
    3        8.883238   0.000000
    4       10.549500   0.000000
 
  0.2750000E+00  0.2750000E+00  0.7500000E-01  0.3000000E-02
    1        1.919743  -0.000000
    2        3.340655  -0.000000
    3        4.072510  -0.000000
    4        7.197679   0.000000
 
  0.3250000E+00  0.2750000E+00  0.7500000E-01  0.3000000E-02
    1        2.503479  -0.000000
    2        2.846485  -0.000000
    3        3.873934  -0.000000
    4        7.153706   0.000000
 
 -0.2750000E+00  0.2750000E+00  0.7500000E-01  0.3000000E-02
    1       -1.342332   1.000000
    2        6.185679   0.000000
    3        8.950588   0.000000
    4        9.985829   0.000000
 
 -0.2250000E+00  0.2750000E+00  0.7500000E-01  0.6000000E-02
    1       -1.474237   1.000000
    2        6.831024   0.000000
    3        8.445333   0.000000
    4       10.232345   0.000000
 
 -0.1750000E+00  0.2750000E+00  0.7500000E-01  0.3000000E-02
    1       -1.518888   1.000000
    2        7.312548   0.000000
    3        7.937989   0.000000
    4       10.569468   0.000000
 
 -0.3250000E+00  0.3250000E+00  0.7500000E-01  0.3000000E-02
    1       -0.815162   1.000000
    2        5.074084  -0.000000
    3        8.645089   0.000000
    4        9.695256   0.000000
 
 -0.2750000E+00  0.3250000E+00  0.7500000E-01  0.6000000E-02
    1       -0.991135   1.000000
    2        5.698922  -0.000000
    3        8.091383   0.000000
    4        9.929475   0.000000
 
 -0.2250000E+00  0.3250000E+00  0.7500000E-01  0.6000000E-02
    1       -1.078461   1.000000
    2        6.333109   0.000000
    3        7.375716   0.000000
    4       10.424865   0.000000
 
 -0.3750000E+00  0.3750000E+00  0.7500000E-01  0.3000000E-02
    1       -0.207744   1.000000
    2        4.023987  -0.000000
    3        8.413846   0.000000
    4        9.470446   0.000000
 
 -0.3250000E+00  0.3750000E+00  0.7500000E-01  0.6000000E-02
    1       -0.424649   1.000000
    2        4.623649  -0.000000
    3        7.816336   0.000000
    4        9.683058   0.000000
 
 -0.2750000E+00  0.3750000E+00  0.7500000E-01  0.6000000E-02
    1       -0.554620   1.000000
    2        5.273226  -0.000000
    3        7.018464   0.000000
    4       10.198390   0.000000
 
 -0.2250000E+00  0.3750000E+00  0.7500000E-01  0.3000000E-02
    1       -0.597918   1.000000
    2        5.744403  -0.000000
    3        6.489190   0.000000
    4       10.606701   0.000000
 
 -0.4250000E+00  0.4250000E+00  0.7500000E-01  0.3000000E-02
    1        0.476564   0.874867
    2        3.045319  -0.000000
    3        8.260170   0.000000
    4        9.318767   0.000000
 
 -0.3750000E+00  0.4250000E+00  0.7500000E-01  0.6000000E-02
    1        0.221167   1.014986
    2        3.614750  -0.000000
    3        7.621839   0.000000
    4        9.502277   0.000000
 
 -0.3250000E+00  0.4250000E+00  0.7500000E-01  0.6000000E-02
    1        0.050328   1.000606
    2        4.248477  -0.000000
    3        6.764219   0.000000
    4       10.005360   0.000000
 
 -0.2750000E+00  0.4250000E+00  0.7500000E-01  0.6000000E-02
    1       -0.035428   1.000063
    2        4.887373  -0.000000
    3        5.995119  -0.000000
    4       10.476796   0.000000
 
 -0.4750000E+00  0.4750000E+00  0.7500000E-01  0.3000000E-02
    1        1.211729  -0.000036
    2        2.163286  -0.000000
    3        8.183589   0.000000
    4        9.245040   0.000000
 
 -0.4250000E+00  0.4750000E+00  0.7500000E-01  0.6000000E-02
    1        0.937228  -0.014641
    2        2.679874  -0.000000
    3        7.504378   0.000000
    4        9.390244   0.000000
 
 -0.3750000E+00  0.4750000E+00  0.7500000E-01  0.6000000E-02
    1        0.731245   0.019556
    2        3.285635  -0.000000
    3        6.597796   0.000000
    4        9.869633   0.000000
 
 -0.3250000E+00  0.4750000E+00  0.7500000E-01  0.6000000E-02
    1        0.604830   0.388889
    2        3.941981  -0.000000
    3        5.736845  -0.000000
    4       10.309559   0.000000
 
 -0.2750000E+00  0.4750000E+00  0.7500000E-01  0.3000000E-02
    1        0.562733   0.565708
    2        4.419251  -0.000000
    3        5.189483  -0.000000
    4       10.387279   0.000000
 
 -0.4750000E+00 -0.4750000E+00  0.7500000E-01  0.3000000E-02
    1        1.549576  -0.000000
    2        1.994291  -0.000000
    3        7.465570   0.000000
    4        9.355305   0.000000
 
 -0.4250000E+00 -0.4750000E+00  0.7500000E-01  0.6000000E-02
    1        1.458668  -0.000000
    2        2.414313  -0.000000
    3        6.515259   0.000000
    4        9.799870   0.000000
 
 -0.3750000E+00 -0.4750000E+00  0.7500000E-01  0.6000000E-02
    1        1.312217  -0.000001
    2        3.038178  -0.000000
    3        5.595970  -0.000000
    4       10.206804   0.000000
 
 -0.3250000E+00 -0.4750000E+00  0.7500000E-01  0.6000000E-02
    1        1.232830  -0.000019
    2        3.682063  -0.000000
    3        4.802797  -0.000000
    4       10.258285   0.000000
 
 -0.4250000E+00 -0.4250000E+00  0.7500000E-01  0.3000000E-02
    1        1.906569  -0.000000
    2        2.376599  -0.000000
    3        5.551325  -0.000000
    4       10.172562   0.000000
 
 -0.3750000E+00 -0.4250000E+00  0.7500000E-01  0.6000000E-02
    1        1.945546  -0.000000
    2        2.879330  -0.000000
    3        4.669740  -0.000000
    4       10.190883   0.000000
 
 -0.3250000E+00 -0.4250000E+00  0.7500000E-01  0.3000000E-02
    1        1.920839  -0.000000
    2        3.338895  -0.000000
    3        4.118192  -0.000000
    4       10.170007   0.000000
 
 -0.3750000E+00 -0.3750000E+00  0.7500000E-01  0.3000000E-02
    1        2.504185  -0.000000
    2        2.849553  -0.000000
    3        3.913134  -0.000000
    4       10.138056   0.000000
 
  0.1250000E+00  0.1250000E+00  0.1250000E+00  0.1000000E-02
    1       -1.122079   1.000000
    2        6.865163   0.000000
    3        6.865163   0.000000
    4        8.166063   0.000000
 
  0.1750000E+00  0.1250000E+00  0.1250000E+00  0.3000000E-02
    1       -0.641785   1.000000
    2        5.881935  -0.000000
    3        6.501217   0.000000
    4        7.677259   0.000000
 
  0.2250000E+00  0.1250000E+00  0.1250000E+00  0.3000000E-02
    1       -0.077344   1.000018
    2        4.878105  -0.000000
    3        6.221788   0.000000
    4        7.339527   0.000000
 
  0.2750000E+00  0.1250000E+00  0.1250000E+00  0.3000000E-02
    1        0.562234   0.567797
    2        3.905074  -0.000000
    3        6.019378  -0.000000
    4        7.111837   0.000000
 
  0.3250000E+00  0.1250000E+00  0.1250000E+00  0.3000000E-02
    1        1.269566  -0.000006
    2        2.994487  -0.000000
    3        5.898035  -0.000000
    4        6.977331   0.000000
 
  0.3750000E+00  0.1250000E+00  0.1250000E+00  0.1500000E-02
    1        1.865521  -0.000000
    2        2.327914  -0.000000
    3        5.856148  -0.000000
    4        6.933203   0.000000
 
 -0.1250000E+00  0.1250000E+00  0.1250000E+00  0.7500000E-03
    1       -2.231704   1.000000
    2        9.710843   0.000000
    3        9.710849   0.000000
    4       10.112998   0.000000
 
  0.1750000E+00  0.1750000E+00  0.1250000E+00  0.3000000E-02
    1       -0.121644   1.000004
    2        5.377888  -0.000000
    3        5.793851  -0.000000
    4        7.155804   0.000000
 
  0.2250000E+00  0.1750000E+00  0.1250000E+00  0.6000000E-02
    1        0.477035   0.873590
    2        4.545863  -0.000000
    3        5.438105  -0.000000
    4        6.826962   0.000000
 
  0.2750000E+00  0.1750000E+00  0.1250000E+00  0.6000000E-02
    1        1.149389  -0.000205
    2        3.644969  -0.000000
    3        5.255811  -0.000000
    4        6.627709   0.000000
 
  0.3250000E+00  0.1750000E+00  0.1250000E+00  0.6000000E-02
    1        1.863504  -0.000000
    2        2.806753  -0.000000
    3        5.169355  -0.000000
    4        6.531127   0.000000
 
 -0.1750000E+00  0.1750000E+00  0.1250000E+00  0.3000000E-02
    1       -1.962038   1.000000
    2        8.669271   0.000000
    3        9.185130   0.000000
    4        9.863774   0.000000
 
  0.2250000E+00  0.2250000E+00  0.1250000E+00  0.3000000E-02
    1        1.107887  -0.000583
    2        4.138364  -0.000000
    3        4.742700  -0.000000
    4        6.532870   0.000000
 
  0.2750000E+00  0.2250000E+00  0.1250000E+00  0.6000000E-02
    1        1.802715  -0.000000
    2        3.436901  -0.000000
    3        4.450573  -0.000000
    4        6.374748   0.000000
 
  0.3250000E+00  0.2250000E+00  0.1250000E+00  0.3000000E-02
    1        2.383444  -0.000000
    2        2.820948  -0.000000
    3        4.382652  -0.000000
    4        6.323732   0.000000
 
 -0.2250000E+00  0.2250000E+00  0.1250000E+00  0.3000000E-02
    1       -1.607275   1.000000
    2        7.478739   0.000000
    3        8.732038   0.000000
    4        9.628550   0.000000
 
 -0.1750000E+00  0.2250000E+00  0.1250000E+00  0.3000000E-02
    1       -1.651283   1.000000
    2        7.998122   0.000000
    3        8.424463   0.000000
    4        9.640478   0.000000
 
  0.2750000E+00  0.2750000E+00  0.1250000E+00  0.3000000E-02
    1        2.487436  -0.000000
    2        3.141381  -0.000000
    3        3.867440  -0.000000
    4        6.262428   0.000000
 
 -0.2750000E+00  0.2750000E+00  0.1250000E+00  0.3000000E-02
    1       -1.166210   1.000000
    2        6.325028   0.000000
    3        8.353936   0.000000