       N       E                     dE             d eps       ncg     rms          rms(c)
DAV:   1    -0.136586485741E+01   -0.13659E+01   -0.67255E+01  2280   0.184E+01
DAV:   2    -0.144451761978E+01   -0.78653E-01   -0.77564E-01  2608   0.421E+00
DAV:   3    -0.144478351998E+01   -0.26590E-03   -0.26596E-03  2376   0.223E-01
DAV:   4    -0.144478413672E+01   -0.61674E-06   -0.61674E-06  2476   0.821E-03
DAV:   5    -0.144478413926E+01   -0.25419E-08   -0.25600E-08  2260   0.407E-04    0.199E-01
DAV:   6    -0.144423669011E+01    0.54745E-03   -0.17881E-05  2256   0.191E-02    0.131E-01
DAV:   7    -0.144389067837E+01    0.34601E-03   -0.10695E-04  2080   0.490E-02    0.778E-03
DAV:   8    -0.144388276093E+01    0.79174E-05   -0.23657E-06  2112   0.789E-03    0.187E-03
DAV:   9    -0.144388274673E+01    0.14201E-07   -0.27006E-07  2340   0.278E-03
   1 F= -.14438827E+01 E0= -.14436994E+01  d E =-.550018E-03
