 vasp.5.4.4.18Apr17-6-g9f103f2a35 (build May 20 2018 16:52:39) complex          
  
 executed on             LinuxIFC date 2022.10.30  22:53:20
 running on    1 total cores
 distrk:  each k-point on    1 cores,    1 groups
 distr:  one band on NCORES_PER_BAND=   1 cores,    1 groups


--------------------------------------------------------------------------------------------------------


 INCAR:
 POTCAR:    PAW Na                                
 POTCAR:    PAW Na                                
   VRHFIN =Na: s1p0                                                             
   LEXCH  = CA                                                                  
   EATOM  =     5.1909 eV,     .3815 Ry                                         
                                                                                
   TITEL  = PAW Na                                                              
   LULTRA =        F    use ultrasoft PP ?                                      
   IUNSCR =        1    unscreen: 0-lin 1-nonlin 2-no                           
   RPACOR =    1.800    partial core radius                                     
   POMASS =   22.990; ZVAL   =    1.000    mass and valenz                      
   RCORE  =    2.200    outmost cutoff radius                                   
   RWIGS  =    3.320; RWIGS  =    1.757    wigner-seitz radius (au A)           
   ENMAX  =  101.956; ENMIN  =   76.467 eV                                      
   ICORE  =        2    local potential                                         
   LCOR   =        T    correct aug charges                                     
   LPAW   =        T    paw PP                                                  
   EAUG   =  250.695                                                            
   DEXC   =    -.180                                                            
   RMAX   =    4.566    core radius for proj-oper                               
   RAUG   =    1.300    factor for augmentation sphere                          
   RDEP   =    2.259    core radius for depl-charge                             
   QCUT   =   -2.737; QGAM   =    5.475    optimization parameters              
                                                                                
   Description                                                                  
     l     E      TYP  RCUT    TYP  RCUT                                        
     0   .000     23  2.200                                                     
     0  2.000     23  2.200                                                     
     1   .000     23  2.200                                                     
     2   .000     23  2.200                                                     
  local pseudopotential read in
  partial core-charges read in
  atomic valenz-charges read in
  non local Contribution for L=           0  read in
    real space projection operators read in
  non local Contribution for L=           0  read in
    real space projection operators read in
  non local Contribution for L=           1  read in
    real space projection operators read in
    PAW grid and wavefunctions read in
 
   number of l-projection  operators is LMAX  =           3
   number of lm-projection operators is LMMAX =           5
 
  PAW Na                                :
 energy of atom  1       EATOM=   -5.1909
 kinetic energy error for atom=    0.0029 (will be added to EATOM!!)
 
 
 POSCAR: Na                                      
  positions in direct lattice
  No initial velocities read in
 exchange correlation table for  LEXCH =        2
   RHO(1)=    0.500       N(1)  =     2000
   RHO(2)=  100.500       N(2)  =     4000
 


--------------------------------------------------------------------------------------------------------


 ion  position               nearest neighbor table
   1  0.000  0.000  0.000-
 
  LATTYP: Found a body centered cubic cell.
 ALAT       =     4.1500000000
  
  Lattice vectors:
  
 A1 = (  -2.0750000000,   2.0750000000,   2.0750000000)
 A2 = (   2.0750000000,  -2.0750000000,   2.0750000000)
 A3 = (   2.0750000000,   2.0750000000,  -2.0750000000)


Analysis of symmetry for initial positions (statically):
=====================================================================
 Subroutine PRICEL returns:
 Original cell was already a primitive cell.
 

 Routine SETGRP: Setting up the symmetry group for a 
 body centered cubic supercell.


 Subroutine GETGRP returns: Found 48 space group operations
 (whereof 48 operations were pure point group operations)
 out of a pool of 48 trial point group operations.


The static configuration has the point symmetry O_h .


Analysis of symmetry for dynamics (positions and initial velocities):
=====================================================================
 Subroutine PRICEL returns:
 Original cell was already a primitive cell.
 

 Routine SETGRP: Setting up the symmetry group for a 
 body centered cubic supercell.


 Subroutine GETGRP returns: Found 48 space group operations
 (whereof 48 operations were pure point group operations)
 out of a pool of 48 trial point group operations.


The dynamic configuration has the point symmetry O_h .


 Subroutine INISYM returns: Found 48 space group operations
 (whereof 48 operations are pure point group operations),
 and found     1 'primitive' translations

 
 
 KPOINTS: 20x20x20                                

Automatic generation of k-mesh.
Space group operators:
 irot       det(A)        alpha          n_x          n_y          n_z        tau_x        tau_y        tau_z
    1     1.000000     0.000000     1.000000     0.000000     0.000000     0.000000     0.000000     0.000000
    2    -1.000000     0.000000     1.000000     0.000000     0.000000     0.000000     0.000000     0.000000
    3     1.000000   120.000000    -0.577350    -0.577350    -0.577350     0.000000     0.000000     0.000000
    4    -1.000000   120.000000    -0.577350    -0.577350    -0.577350     0.000000     0.000000     0.000000
    5     1.000000   120.000000     0.577350     0.577350     0.577350     0.000000     0.000000     0.000000
    6    -1.000000   120.000000     0.577350     0.577350     0.577350     0.000000     0.000000     0.000000
    7     1.000000    90.000000     0.000000     0.000000    -1.000000     0.000000     0.000000     0.000000
    8    -1.000000    90.000000     0.000000     0.000000    -1.000000     0.000000     0.000000     0.000000
    9     1.000000   180.000000     0.000000     0.707107     0.707107     0.000000     0.000000     0.000000
   10    -1.000000   180.000000     0.000000     0.707107     0.707107     0.000000     0.000000     0.000000
   11     1.000000    90.000000     0.000000     1.000000     0.000000     0.000000     0.000000     0.000000
   12    -1.000000    90.000000     0.000000     1.000000     0.000000     0.000000     0.000000     0.000000
   13     1.000000   180.000000     0.000000     0.000000     1.000000     0.000000     0.000000     0.000000
   14    -1.000000   180.000000     0.000000     0.000000     1.000000     0.000000     0.000000     0.000000
   15     1.000000   120.000000    -0.577350     0.577350     0.577350     0.000000     0.000000     0.000000
   16    -1.000000   120.000000    -0.577350     0.577350     0.577350     0.000000     0.000000     0.000000
   17     1.000000   120.000000    -0.577350     0.577350    -0.577350     0.000000     0.000000     0.000000
   18    -1.000000   120.000000    -0.577350     0.577350    -0.577350     0.000000     0.000000     0.000000
   19     1.000000    90.000000     0.000000     0.000000     1.000000     0.000000     0.000000     0.000000
   20    -1.000000    90.000000     0.000000     0.000000     1.000000     0.000000     0.000000     0.000000
   21     1.000000    90.000000    -1.000000     0.000000     0.000000     0.000000     0.000000     0.000000
   22    -1.000000    90.000000    -1.000000     0.000000     0.000000     0.000000     0.000000     0.000000
   23     1.000000   180.000000     0.707107     0.000000     0.707107     0.000000     0.000000     0.000000
   24    -1.000000   180.000000     0.707107     0.000000     0.707107     0.000000     0.000000     0.000000
   25     1.000000   120.000000     0.577350    -0.577350     0.577350     0.000000     0.000000     0.000000
   26    -1.000000   120.000000     0.577350    -0.577350     0.577350     0.000000     0.000000     0.000000
   27     1.000000   120.000000    -0.577350    -0.577350     0.577350     0.000000     0.000000     0.000000
   28    -1.000000   120.000000    -0.577350    -0.577350     0.577350     0.000000     0.000000     0.000000
   29     1.000000   180.000000     1.000000     0.000000     0.000000     0.000000     0.000000     0.000000
   30    -1.000000   180.000000     1.000000     0.000000     0.000000     0.000000     0.000000     0.000000
   31     1.000000    90.000000     0.000000    -1.000000     0.000000     0.000000     0.000000     0.000000
   32    -1.000000    90.000000     0.000000    -1.000000     0.000000     0.000000     0.000000     0.000000
   33     1.000000   180.000000     0.707107     0.707107     0.000000     0.000000     0.000000     0.000000
   34    -1.000000   180.000000     0.707107     0.707107     0.000000     0.000000     0.000000     0.000000
   35     1.000000    90.000000     1.000000     0.000000     0.000000     0.000000     0.000000     0.000000
   36    -1.000000    90.000000     1.000000     0.000000     0.000000     0.000000     0.000000     0.000000
   37     1.000000   120.000000     0.577350    -0.577350    -0.577350     0.000000     0.000000     0.000000
   38    -1.000000   120.000000     0.577350    -0.577350    -0.577350     0.000000     0.000000     0.000000
   39     1.000000   180.000000     0.000000     1.000000     0.000000     0.000000     0.000000     0.000000
   40    -1.000000   180.000000     0.000000     1.000000     0.000000     0.000000     0.000000     0.000000
   41     1.000000   120.000000     0.577350     0.577350    -0.577350     0.000000     0.000000     0.000000
   42    -1.000000   120.000000     0.577350     0.577350    -0.577350     0.000000     0.000000     0.000000
   43     1.000000   180.000000     0.000000    -0.707107     0.707107     0.000000     0.000000     0.000000
   44    -1.000000   180.000000     0.000000    -0.707107     0.707107     0.000000     0.000000     0.000000
   45     1.000000   180.000000     0.707107    -0.707107     0.000000     0.000000     0.000000     0.000000
   46    -1.000000   180.000000     0.707107    -0.707107     0.000000     0.000000     0.000000     0.000000
   47     1.000000   180.000000     0.707107     0.000000    -0.707107     0.000000     0.000000     0.000000
   48    -1.000000   180.000000     0.707107     0.000000    -0.707107     0.000000     0.000000     0.000000
 
 Subroutine IBZKPT returns following result:
 ===========================================
 
 Found    250 irreducible k-points:
 
 Following reciprocal coordinates:
            Coordinates               Weight
  0.025000  0.025000  0.025000      8.000000
  0.075000  0.025000  0.025000     24.000000
  0.125000  0.025000  0.025000     24.000000
  0.175000  0.025000  0.025000     24.000000
  0.225000  0.025000  0.025000     24.000000
  0.275000  0.025000  0.025000     24.000000
  0.325000  0.025000  0.025000     24.000000
  0.375000  0.025000  0.025000     24.000000
  0.425000  0.025000  0.025000     24.000000
  0.475000  0.025000  0.025000     12.000000
 -0.025000  0.025000  0.025000      6.000000
  0.075000  0.075000  0.025000     24.000000
  0.125000  0.075000  0.025000     48.000000
  0.175000  0.075000  0.025000     48.000000
  0.225000  0.075000  0.025000     48.000000
  0.275000  0.075000  0.025000     48.000000
  0.325000  0.075000  0.025000     48.000000
  0.375000  0.075000  0.025000     48.000000
  0.425000  0.075000  0.025000     48.000000
 -0.075000  0.075000  0.025000     24.000000
  0.125000  0.125000  0.025000     24.000000
  0.175000  0.125000  0.025000     48.000000
  0.225000  0.125000  0.025000     48.000000
  0.275000  0.125000  0.025000     48.000000
  0.325000  0.125000  0.025000     48.000000
  0.375000  0.125000  0.025000     48.000000
  0.425000  0.125000  0.025000     24.000000
 -0.125000  0.125000  0.025000     24.000000
 -0.075000  0.125000  0.025000     24.000000
  0.175000  0.175000  0.025000     24.000000
  0.225000  0.175000  0.025000     48.000000
  0.275000  0.175000  0.025000     48.000000
  0.325000  0.175000  0.025000     48.000000
  0.375000  0.175000  0.025000     48.000000
 -0.175000  0.175000  0.025000     24.000000
 -0.125000  0.175000  0.025000     48.000000
  0.225000  0.225000  0.025000     24.000000
  0.275000  0.225000  0.025000     48.000000
  0.325000  0.225000  0.025000     48.000000
  0.375000  0.225000  0.025000     24.000000
 -0.225000  0.225000  0.025000     24.000000
 -0.175000  0.225000  0.025000     48.000000
 -0.125000  0.225000  0.025000     24.000000
  0.275000  0.275000  0.025000     24.000000
  0.325000  0.275000  0.025000     48.000000
 -0.275000  0.275000  0.025000     24.000000
 -0.225000  0.275000  0.025000     48.000000
 -0.175000  0.275000  0.025000     48.000000
  0.325000  0.325000  0.025000      8.000000
 -0.325000  0.325000  0.025000     24.000000
 -0.275000  0.325000  0.025000     48.000000
 -0.225000  0.325000  0.025000     48.000000
 -0.175000  0.325000  0.025000     24.000000
 -0.375000  0.375000  0.025000     24.000000
 -0.325000  0.375000  0.025000     48.000000
 -0.275000  0.375000  0.025000     48.000000
 -0.225000  0.375000  0.025000     48.000000
 -0.425000  0.425000  0.025000     24.000000
 -0.375000  0.425000  0.025000     48.000000
 -0.325000  0.425000  0.025000     48.000000
 -0.275000  0.425000  0.025000     48.000000
 -0.225000  0.425000  0.025000     24.000000
 -0.475000  0.475000  0.025000     24.000000
 -0.425000  0.475000  0.025000     48.000000
 -0.375000  0.475000  0.025000     48.000000
 -0.325000  0.475000  0.025000     48.000000
 -0.275000  0.475000  0.025000     48.000000
 -0.475000 -0.475000  0.025000     24.000000
 -0.425000 -0.475000  0.025000     48.000000
 -0.375000 -0.475000  0.025000     48.000000
 -0.325000 -0.475000  0.025000     48.000000
 -0.275000 -0.475000  0.025000     24.000000
 -0.425000 -0.425000  0.025000     24.000000
 -0.375000 -0.425000  0.025000     48.000000
 -0.325000 -0.425000  0.025000     48.000000
 -0.375000 -0.375000  0.025000     24.000000
 -0.325000 -0.375000  0.025000     24.000000
  0.075000  0.075000  0.075000      8.000000
  0.125000  0.075000  0.075000     24.000000
  0.175000  0.075000  0.075000     24.000000
  0.225000  0.075000  0.075000     24.000000
  0.275000  0.075000  0.075000     24.000000
  0.325000  0.075000  0.075000     24.000000
  0.375000  0.075000  0.075000     24.000000
  0.425000  0.075000  0.075000     12.000000
 -0.075000  0.075000  0.075000      6.000000
  0.125000  0.125000  0.075000     24.000000
  0.175000  0.125000  0.075000     48.000000
  0.225000  0.125000  0.075000     48.000000
  0.275000  0.125000  0.075000     48.000000
  0.325000  0.125000  0.075000     48.000000
  0.375000  0.125000  0.075000     48.000000
 -0.125000  0.125000  0.075000     24.000000
  0.175000  0.175000  0.075000     24.000000
  0.225000  0.175000  0.075000     48.000000
  0.275000  0.175000  0.075000     48.000000
  0.325000  0.175000  0.075000     48.000000
  0.375000  0.175000  0.075000     24.000000
 -0.175000  0.175000  0.075000     24.000000
 -0.125000  0.175000  0.075000     24.000000
  0.225000  0.225000  0.075000     24.000000
  0.275000  0.225000  0.075000     48.000000
  0.325000  0.225000  0.075000     48.000000
 -0.225000  0.225000  0.075000     24.000000
 -0.175000  0.225000  0.075000     48.000000
  0.275000  0.275000  0.075000     24.000000
  0.325000  0.275000  0.075000     24.000000
 -0.275000  0.275000  0.075000     24.000000
 -0.225000  0.275000  0.075000     48.000000
 -0.175000  0.275000  0.075000     24.000000
 -0.325000  0.325000  0.075000     24.000000
 -0.275000  0.325000  0.075000     48.000000
 -0.225000  0.325000  0.075000     48.000000
 -0.375000  0.375000  0.075000     24.000000
 -0.325000  0.375000  0.075000     48.000000
 -0.275000  0.375000  0.075000     48.000000
 -0.225000  0.375000  0.075000     24.000000
 -0.425000  0.425000  0.075000     24.000000
 -0.375000  0.425000  0.075000     48.000000
 -0.325000  0.425000  0.075000     48.000000
 -0.275000  0.425000  0.075000     48.000000
 -0.475000  0.475000  0.075000     24.000000
 -0.425000  0.475000  0.075000     48.000000
 -0.375000  0.475000  0.075000     48.000000
 -0.325000  0.475000  0.075000     48.000000
 -0.275000  0.475000  0.075000     24.000000
 -0.475000 -0.475000  0.075000     24.000000
 -0.425000 -0.475000  0.075000     48.000000
 -0.375000 -0.475000  0.075000     48.000000
 -0.325000 -0.475000  0.075000     48.000000
 -0.425000 -0.425000  0.075000     24.000000
 -0.375000 -0.425000  0.075000     48.000000
 -0.325000 -0.425000  0.075000     24.000000
 -0.375000 -0.375000  0.075000     24.000000
  0.125000  0.125000  0.125000      8.000000
  0.175000  0.125000  0.125000     24.000000
  0.225000  0.125000  0.125000     24.000000
  0.275000  0.125000  0.125000     24.000000
  0.325000  0.125000  0.125000     24.000000
  0.375000  0.125000  0.125000     12.000000
 -0.125000  0.125000  0.125000      6.000000
  0.175000  0.175000  0.125000     24.000000
  0.225000  0.175000  0.125000     48.000000
  0.275000  0.175000  0.125000     48.000000
  0.325000  0.175000  0.125000     48.000000
 -0.175000  0.175000  0.125000     24.000000
  0.225000  0.225000  0.125000     24.000000
  0.275000  0.225000  0.125000     48.000000
  0.325000  0.225000  0.125000     24.000000
 -0.225000  0.225000  0.125000     24.000000
 -0.175000  0.225000  0.125000     24.000000
  0.275000  0.275000  0.125000     24.000000
 -0.275000  0.275000  0.125000     24.000000
 -0.225000  0.275000  0.125000     48.000000
 -0.325000  0.325000  0.125000     24.000000
 -0.275000  0.325000  0.125000     48.000000
 -0.225000  0.325000  0.125000     24.000000
 -0.375000  0.375000  0.125000     24.000000
 -0.325000  0.375000  0.125000     48.000000
 -0.275000  0.375000  0.125000     48.000000
 -0.425000  0.425000  0.125000     24.000000
 -0.375000  0.425000  0.125000     48.000000
 -0.325000  0.425000  0.125000     48.000000
 -0.275000  0.425000  0.125000     24.000000
 -0.475000  0.475000  0.125000     24.000000
 -0.425000  0.475000  0.125000     48.000000
 -0.375000  0.475000  0.125000     48.000000
 -0.325000  0.475000  0.125000     48.000000
 -0.475000 -0.475000  0.125000     24.000000
 -0.425000 -0.475000  0.125000     48.000000
 -0.375000 -0.475000  0.125000     48.000000
 -0.325000 -0.475000  0.125000     24.000000
 -0.425000 -0.425000  0.125000     24.000000
 -0.375000 -0.425000  0.125000     48.000000
 -0.375000 -0.375000  0.125000      8.000000
  0.175000  0.175000  0.175000      8.000000
  0.225000  0.175000  0.175000     24.000000
  0.275000  0.175000  0.175000     24.000000
  0.325000  0.175000  0.175000     12.000000
 -0.175000  0.175000  0.175000      6.000000
  0.225000  0.225000  0.175000     24.000000
  0.275000  0.225000  0.175000     48.000000
 -0.225000  0.225000  0.175000     24.000000
  0.275000  0.275000  0.175000      8.000000
 -0.275000  0.275000  0.175000     24.000000
 -0.225000  0.275000  0.175000     24.000000
 -0.325000  0.325000  0.175000     24.000000
 -0.275000  0.325000  0.175000     48.000000
 -0.375000  0.375000  0.175000     24.000000
 -0.325000  0.375000  0.175000     48.000000
 -0.275000  0.375000  0.175000     24.000000
 -0.425000  0.425000  0.175000     24.000000
 -0.375000  0.425000  0.175000     48.000000
 -0.325000  0.425000  0.175000     48.000000
 -0.475000  0.475000  0.175000     24.000000
 -0.425000  0.475000  0.175000     48.000000
 -0.375000  0.475000  0.175000     48.000000
 -0.325000  0.475000  0.175000     24.000000
 -0.475000 -0.475000  0.175000     24.000000
 -0.425000 -0.475000  0.175000     48.000000
 -0.375000 -0.475000  0.175000     48.000000
 -0.425000 -0.425000  0.175000     24.000000
 -0.375000 -0.425000  0.175000     24.000000
  0.225000  0.225000  0.225000      8.000000
  0.275000  0.225000  0.225000     12.000000
 -0.225000  0.225000  0.225000      6.000000
 -0.275000  0.275000  0.225000     24.000000
 -0.325000  0.325000  0.225000     24.000000
 -0.275000  0.325000  0.225000     24.000000
 -0.375000  0.375000  0.225000     24.000000
 -0.325000  0.375000  0.225000     48.000000
 -0.425000  0.425000  0.225000     24.000000
 -0.375000  0.425000  0.225000     48.000000
 -0.325000  0.425000  0.225000     24.000000
 -0.475000  0.475000  0.225000     24.000000
 -0.425000  0.475000  0.225000     48.000000
 -0.375000  0.475000  0.225000     48.000000
 -0.475000 -0.475000  0.225000     24.000000
 -0.425000 -0.475000  0.225000     48.000000
 -0.375000 -0.475000  0.225000     24.000000
 -0.425000 -0.425000  0.225000     24.000000
 -0.275000  0.275000  0.275000      6.000000
 -0.325000  0.325000  0.275000     24.000000
 -0.375000  0.375000  0.275000     24.000000
 -0.325000  0.375000  0.275000     24.000000
 -0.425000  0.425000  0.275000     24.000000
 -0.375000  0.425000  0.275000     48.000000
 -0.475000  0.475000  0.275000     24.000000
 -0.425000  0.475000  0.275000     48.000000
 -0.375000  0.475000  0.275000     24.000000
 -0.475000 -0.475000  0.275000     24.000000
 -0.425000 -0.475000  0.275000     48.000000
 -0.425000 -0.425000  0.275000      8.000000
 -0.325000  0.325000  0.325000      6.000000
 -0.375000  0.375000  0.325000     24.000000
 -0.425000  0.425000  0.325000     24.000000
 -0.375000  0.425000  0.325000     24.000000
 -0.475000  0.475000  0.325000     24.000000
 -0.425000  0.475000  0.325000     48.000000
 -0.475000 -0.475000  0.325000     24.000000
 -0.425000 -0.475000  0.325000     24.000000
 -0.375000  0.375000  0.375000      6.000000
 -0.425000  0.425000  0.375000     24.000000
 -0.475000  0.475000  0.375000     24.000000
 -0.425000  0.475000  0.375000     24.000000
 -0.475000 -0.475000  0.375000     24.000000
 -0.425000  0.425000  0.425000      6.000000
 -0.475000  0.475000  0.425000     24.000000
 -0.475000 -0.475000  0.425000      8.000000
 -0.475000  0.475000  0.475000      6.000000
 
 Following cartesian coordinates:
            Coordinates               Weight
  0.050000  0.050000  0.050000      8.000000
  0.050000  0.100000  0.100000     24.000000
  0.050000  0.150000  0.150000     24.000000
  0.050000  0.200000  0.200000     24.000000
  0.050000  0.250000  0.250000     24.000000
  0.050000  0.300000  0.300000     24.000000
  0.050000  0.350000  0.350000     24.000000
  0.050000  0.400000  0.400000     24.000000
  0.050000  0.450000  0.450000     24.000000
  0.050000  0.500000  0.500000     12.000000
  0.050000  0.000000  0.000000      6.000000
  0.100000  0.100000  0.150000     24.000000
  0.100000  0.150000  0.200000     48.000000
  0.100000  0.200000  0.250000     48.000000
  0.100000  0.250000  0.300000     48.000000
  0.100000  0.300000  0.350000     48.000000
  0.100000  0.350000  0.400000     48.000000
  0.100000  0.400000  0.450000     48.000000
  0.100000  0.450000  0.500000     48.000000
  0.100000 -0.050000  0.000000     24.000000
  0.150000  0.150000  0.250000     24.000000
  0.150000  0.200000  0.300000     48.000000
  0.150000  0.250000  0.350000     48.000000
  0.150000  0.300000  0.400000     48.000000
  0.150000  0.350000  0.450000     48.000000
  0.150000  0.400000  0.500000     48.000000
  0.150000  0.450000  0.550000     24.000000
  0.150000 -0.100000  0.000000     24.000000
  0.150000 -0.050000  0.050000     24.000000
  0.200000  0.200000  0.350000     24.000000
  0.200000  0.250000  0.400000     48.000000
  0.200000  0.300000  0.450000     48.000000
  0.200000  0.350000  0.500000     48.000000
  0.200000  0.400000  0.550000     48.000000
  0.200000 -0.150000  0.000000     24.000000
  0.200000 -0.100000  0.050000     48.000000
  0.250000  0.250000  0.450000     24.000000
  0.250000  0.300000  0.500000     48.000000
  0.250000  0.350000  0.550000     48.000000
  0.250000  0.400000  0.600000     24.000000
  0.250000 -0.200000  0.000000     24.000000
  0.250000 -0.150000  0.050000     48.000000
  0.250000 -0.100000  0.100000     24.000000
  0.300000  0.300000  0.550000     24.000000
  0.300000  0.350000  0.600000     48.000000
  0.300000 -0.250000  0.000000     24.000000
  0.300000 -0.200000  0.050000     48.000000
  0.300000 -0.150000  0.100000     48.000000
  0.350000  0.350000  0.650000      8.000000
  0.350000 -0.300000  0.000000     24.000000
  0.350000 -0.250000  0.050000     48.000000
  0.350000 -0.200000  0.100000     48.000000
  0.350000 -0.150000  0.150000     24.000000
  0.400000 -0.350000  0.000000     24.000000
  0.400000 -0.300000  0.050000     48.000000
  0.400000 -0.250000  0.100000     48.000000
  0.400000 -0.200000  0.150000     48.000000
  0.450000 -0.400000  0.000000     24.000000
  0.450000 -0.350000  0.050000     48.000000
  0.450000 -0.300000  0.100000     48.000000
  0.450000 -0.250000  0.150000     48.000000
  0.450000 -0.200000  0.200000     24.000000
  0.500000 -0.450000  0.000000     24.000000
  0.500000 -0.400000  0.050000     48.000000
  0.500000 -0.350000  0.100000     48.000000
  0.500000 -0.300000  0.150000     48.000000
  0.500000 -0.250000  0.200000     48.000000
 -0.450000 -0.450000 -0.950000     24.000000
 -0.450000 -0.400000 -0.900000     48.000000
 -0.450000 -0.350000 -0.850000     48.000000
 -0.450000 -0.300000 -0.800000     48.000000
 -0.450000 -0.250000 -0.750000     24.000000
 -0.400000 -0.400000 -0.850000     24.000000
 -0.400000 -0.350000 -0.800000     48.000000
 -0.400000 -0.300000 -0.750000     48.000000
 -0.350000 -0.350000 -0.750000     24.000000
 -0.350000 -0.300000 -0.700000     24.000000
  0.150000  0.150000  0.150000      8.000000
  0.150000  0.200000  0.200000     24.000000
  0.150000  0.250000  0.250000     24.000000
  0.150000  0.300000  0.300000     24.000000
  0.150000  0.350000  0.350000     24.000000
  0.150000  0.400000  0.400000     24.000000
  0.150000  0.450000  0.450000     24.000000
  0.150000  0.500000  0.500000     12.000000
  0.150000  0.000000  0.000000      6.000000
  0.200000  0.200000  0.250000     24.000000
  0.200000  0.250000  0.300000     48.000000
  0.200000  0.300000  0.350000     48.000000
  0.200000  0.350000  0.400000     48.000000
  0.200000  0.400000  0.450000     48.000000
  0.200000  0.450000  0.500000     48.000000
  0.200000 -0.050000  0.000000     24.000000
  0.250000  0.250000  0.350000     24.000000
  0.250000  0.300000  0.400000     48.000000
  0.250000  0.350000  0.450000     48.000000
  0.250000  0.400000  0.500000     48.000000
  0.250000  0.450000  0.550000     24.000000
  0.250000 -0.100000  0.000000     24.000000
  0.250000 -0.050000  0.050000     24.000000
  0.300000  0.300000  0.450000     24.000000
  0.300000  0.350000  0.500000     48.000000
  0.300000  0.400000  0.550000     48.000000
  0.300000 -0.150000  0.000000     24.000000
  0.300000 -0.100000  0.050000     48.000000
  0.350000  0.350000  0.550000     24.000000
  0.350000  0.400000  0.600000     24.000000
  0.350000 -0.200000  0.000000     24.000000
  0.350000 -0.150000  0.050000     48.000000
  0.350000 -0.100000  0.100000     24.000000
  0.400000 -0.250000  0.000000     24.000000
  0.400000 -0.200000  0.050000     48.000000
  0.400000 -0.150000  0.100000     48.000000
  0.450000 -0.300000  0.000000     24.000000
  0.450000 -0.250000  0.050000     48.000000
  0.450000 -0.200000  0.100000     48.000000
  0.450000 -0.150000  0.150000     24.000000
  0.500000 -0.350000  0.000000     24.000000
  0.500000 -0.300000  0.050000     48.000000
  0.500000 -0.250000  0.100000     48.000000
  0.500000 -0.200000  0.150000     48.000000
  0.550000 -0.400000  0.000000     24.000000
  0.550000 -0.350000  0.050000     48.000000
  0.550000 -0.300000  0.100000     48.000000
  0.550000 -0.250000  0.150000     48.000000
  0.550000 -0.200000  0.200000     24.000000
 -0.400000 -0.400000 -0.950000     24.000000
 -0.400000 -0.350000 -0.900000     48.000000
 -0.400000 -0.300000 -0.850000     48.000000
 -0.400000 -0.250000 -0.800000     48.000000
 -0.350000 -0.350000 -0.850000     24.000000
 -0.350000 -0.300000 -0.800000     48.000000
 -0.350000 -0.250000 -0.750000     24.000000
 -0.300000 -0.300000 -0.750000     24.000000
  0.250000  0.250000  0.250000      8.000000
  0.250000  0.300000  0.300000     24.000000
  0.250000  0.350000  0.350000     24.000000
  0.250000  0.400000  0.400000     24.000000
  0.250000  0.450000  0.450000     24.000000
  0.250000  0.500000  0.500000     12.000000
  0.250000  0.000000  0.000000      6.000000
  0.300000  0.300000  0.350000     24.000000
  0.300000  0.350000  0.400000     48.000000
  0.300000  0.400000  0.450000     48.000000
  0.300000  0.450000  0.500000     48.000000
  0.300000 -0.050000  0.000000     24.000000
  0.350000  0.350000  0.450000     24.000000
  0.350000  0.400000  0.500000     48.000000
  0.350000  0.450000  0.550000     24.000000
  0.350000 -0.100000  0.000000     24.000000
  0.350000 -0.050000  0.050000     24.000000
  0.400000  0.400000  0.550000     24.000000
  0.400000 -0.150000  0.000000     24.000000
  0.400000 -0.100000  0.050000     48.000000
  0.450000 -0.200000  0.000000     24.000000
  0.450000 -0.150000  0.050000     48.000000
  0.450000 -0.100000  0.100000     24.000000
  0.500000 -0.250000  0.000000     24.000000
  0.500000 -0.200000  0.050000     48.000000
  0.500000 -0.150000  0.100000     48.000000
  0.550000 -0.300000  0.000000     24.000000
  0.550000 -0.250000  0.050000     48.000000
  0.550000 -0.200000  0.100000     48.000000
  0.550000 -0.150000  0.150000     24.000000
  0.600000 -0.350000  0.000000     24.000000
  0.600000 -0.300000  0.050000     48.000000
  0.600000 -0.250000  0.100000     48.000000
  0.600000 -0.200000  0.150000     48.000000
 -0.350000 -0.350000 -0.950000     24.000000
 -0.350000 -0.300000 -0.900000     48.000000
 -0.350000 -0.250000 -0.850000     48.000000
 -0.350000 -0.200000 -0.800000     24.000000
 -0.300000 -0.300000 -0.850000     24.000000
 -0.300000 -0.250000 -0.800000     48.000000
 -0.250000 -0.250000 -0.750000      8.000000
  0.350000  0.350000  0.350000      8.000000
  0.350000  0.400000  0.400000     24.000000
  0.350000  0.450000  0.450000     24.000000
  0.350000  0.500000  0.500000     12.000000
  0.350000  0.000000  0.000000      6.000000
  0.400000  0.400000  0.450000     24.000000
  0.400000  0.450000  0.500000     48.000000
  0.400000 -0.050000  0.000000     24.000000
  0.450000  0.450000  0.550000      8.000000
  0.450000 -0.100000  0.000000     24.000000
  0.450000 -0.050000  0.050000     24.000000
  0.500000 -0.150000  0.000000     24.000000
  0.500000 -0.100000  0.050000     48.000000
  0.550000 -0.200000  0.000000     24.000000
  0.550000 -0.150000  0.050000     48.000000
  0.550000 -0.100000  0.100000     24.000000
  0.600000 -0.250000  0.000000     24.000000
  0.600000 -0.200000  0.050000     48.000000
  0.600000 -0.150000  0.100000     48.000000
  0.650000 -0.300000  0.000000     24.000000
  0.650000 -0.250000  0.050000     48.000000
  0.650000 -0.200000  0.100000     48.000000
  0.650000 -0.150000  0.150000     24.000000
 -0.300000 -0.300000 -0.950000     24.000000
 -0.300000 -0.250000 -0.900000     48.000000
 -0.300000 -0.200000 -0.850000     48.000000
 -0.250000 -0.250000 -0.850000     24.000000
 -0.250000 -0.200000 -0.800000     24.000000
  0.450000  0.450000  0.450000      8.000000
  0.450000  0.500000  0.500000     12.000000
  0.450000  0.000000  0.000000      6.000000
  0.500000 -0.050000  0.000000     24.000000
  0.550000 -0.100000  0.000000     24.000000
  0.550000 -0.050000  0.050000     24.000000
  0.600000 -0.150000  0.000000     24.000000
  0.600000 -0.100000  0.050000     48.000000
  0.650000 -0.200000  0.000000     24.000000
  0.650000 -0.150000  0.050000     48.000000
  0.650000 -0.100000  0.100000     24.000000
  0.700000 -0.250000  0.000000     24.000000
  0.700000 -0.200000  0.050000     48.000000
  0.700000 -0.150000  0.100000     48.000000
 -0.250000 -0.250000 -0.950000     24.000000
 -0.250000 -0.200000 -0.900000     48.000000
 -0.250000 -0.150000 -0.850000     24.000000
 -0.200000 -0.200000 -0.850000     24.000000
  0.550000  0.000000  0.000000      6.000000
  0.600000 -0.050000  0.000000     24.000000
  0.650000 -0.100000  0.000000     24.000000
  0.650000 -0.050000  0.050000     24.000000
  0.700000 -0.150000  0.000000     24.000000
  0.700000 -0.100000  0.050000     48.000000
  0.750000 -0.200000  0.000000     24.000000
  0.750000 -0.150000  0.050000     48.000000
  0.750000 -0.100000  0.100000     24.000000
 -0.200000 -0.200000 -0.950000     24.000000
 -0.200000 -0.150000 -0.900000     48.000000
 -0.150000 -0.150000 -0.850000      8.000000
  0.650000  0.000000  0.000000      6.000000
  0.700000 -0.050000  0.000000     24.000000
  0.750000 -0.100000  0.000000     24.000000
  0.750000 -0.050000  0.050000     24.000000
  0.800000 -0.150000  0.000000     24.000000
  0.800000 -0.100000  0.050000     48.000000
 -0.150000 -0.150000 -0.950000     24.000000
 -0.150000 -0.100000 -0.900000     24.000000
  0.750000  0.000000  0.000000      6.000000
  0.800000 -0.050000  0.000000     24.000000
  0.850000 -0.100000  0.000000     24.000000
  0.850000 -0.050000  0.050000     24.000000
 -0.100000 -0.100000 -0.950000     24.000000
  0.850000  0.000000  0.000000      6.000000
  0.900000 -0.050000  0.000000     24.000000
 -0.050000 -0.050000 -0.950000      8.000000
  0.950000  0.000000  0.000000      6.000000
 


--------------------------------------------------------------------------------------------------------




 Dimension of arrays:
   k-points           NKPTS =    250   k-points in BZ     NKDIM =    250   number of bands    NBANDS=      4
   number of dos      NEDOS =    301   number of ions     NIONS =      1
   non local maximal  LDIM  =      3   non local SUM 2l+1 LMDIM =      5
   total plane-waves  NPLWV =   1000
   max r-space proj   IRMAX =      1   max aug-charges    IRDMAX=   1562
   dimension x,y,z NGX =    10 NGY =   10 NGZ =   10
   dimension x,y,z NGXF=    20 NGYF=   20 NGZF=   20
   support grid    NGXF=    20 NGYF=   20 NGZF=   20
   ions per type =               1
   NGX,Y,Z   is equivalent  to a cutoff of   4.63,  4.63,  4.63 a.u.
   NGXF,Y,Z  is equivalent  to a cutoff of   9.25,  9.25,  9.25 a.u.

 SYSTEM =  bcc Na                                  
 POSCAR =  Na                                      

 Startparameter for this run:
   NWRITE =      2    write-flag & timer
   PREC   = normal    normal or accurate (medium, high low for compatibility)
   ISTART =      0    job   : 0-new  1-cont  2-samecut
   ICHARG =      2    charge: 1-file 2-atom 10-const
   ISPIN  =      1    spin polarized calculation?
   LNONCOLLINEAR =      F non collinear calculations
   LSORBIT =      F    spin-orbit coupling
   INIWAV =      1    electr: 0-lowe 1-rand  2-diag
   LASPH  =      F    aspherical Exc in radial PAW
   METAGGA=      F    non-selfconsistent MetaGGA calc.

 Electronic Relaxation 1
   ENCUT  =  102.0 eV   7.49 Ry    2.74 a.u.   2.96  2.96  2.96*2*pi/ulx,y,z
   ENINI  =  102.0     initial cutoff
   ENAUG  =  250.7 eV  augmentation charge cutoff
   NELM   =     60;   NELMIN=  2; NELMDL= -5     # of ELM steps 
   EDIFF  = 0.1E-05   stopping-criterion for ELM
   LREAL  =      F    real-space projection
   NLSPLINE    = F    spline interpolate recip. space projectors
   LCOMPAT=      F    compatible to vasp.4.4
   GGA_COMPAT  = T    GGA compatible to vasp.4.4-vasp.4.6
   LMAXPAW     = -100 max onsite density
   LMAXMIX     =    2 max onsite mixed and CHGCAR
   VOSKOWN=      0    Vosko Wilk Nusair interpolation
   ROPT   =    0.00000
 Ionic relaxation
   EDIFFG = 0.1E-04   stopping-criterion for IOM
   NSW    =      0    number of steps for IOM
   NBLOCK =      1;   KBLOCK =      1    inner block; outer block 
   IBRION =     -1    ionic relax: 0-MD 1-quasi-New 2-CG
   NFREE  =      0    steps in history (QN), initial steepest desc. (CG)
   ISIF   =      2    stress and relaxation
   IWAVPR =     10    prediction:  0-non 1-charg 2-wave 3-comb
   ISYM   =      2    0-nonsym 1-usesym 2-fastsym
   LCORR  =      T    Harris-Foulkes like correction to forces

   POTIM  = 0.5000    time-step for ionic-motion
   TEIN   =    0.0    initial temperature
   TEBEG  =    0.0;   TEEND  =   0.0 temperature during run
   SMASS  =  -3.00    Nose mass-parameter (am)
   estimated Nose-frequenzy (Omega)   =  0.10E-29 period in steps =****** mass=  -0.295E-27a.u.
   SCALEE = 1.0000    scale energy and forces
   NPACO  =    256;   APACO  = 16.0  distance and # of slots for P.C.
   PSTRESS=    0.0 pullay stress

  Mass of Ions in am
   POMASS =  22.99
  Ionic Valenz
   ZVAL   =   1.00
  Atomic Wigner-Seitz radii
   RWIGS  =   1.76
  virtual crystal weights 
   VCA    =   1.00
   NELECT =       1.0000    total number of electrons
   NUPDOWN=      -1.0000    fix difference up-down

 DOS related values:
   EMIN   =  10.00;   EMAX   =-10.00  energy-range for DOS
   EFERMI =   0.00
   ISMEAR =     1;   SIGMA  =   0.20  broadening in eV -4-tet -1-fermi 0-gaus

 Electronic relaxation 2 (details)
   IALGO  =     38    algorithm
   LDIAG  =      T    sub-space diagonalisation (order eigenvalues)
   LSUBROT=      F    optimize rotation matrix (better conditioning)
   TURBO    =      0    0=normal 1=particle mesh
   IRESTART =      0    0=no restart 2=restart with 2 vectors
   NREBOOT  =      0    no. of reboots
   NMIN     =      0    reboot dimension
   EREF     =   0.00    reference energy to select bands
   IMIX   =      4    mixing-type and parameters
     AMIX     =   0.40;   BMIX     =  1.00
     AMIX_MAG =   1.60;   BMIX_MAG =  1.00
     AMIN     =   0.10
     WC   =   100.;   INIMIX=   1;  MIXPRE=   1;  MAXMIX= -45

 Intra band minimization:
   WEIMIN = 0.0000     energy-eigenvalue tresh-hold
   EBREAK =  0.62E-07  absolut break condition
   DEPER  =   0.30     relativ break condition  

   TIME   =   0.40     timestep for ELM

  volume/ion in A,a.u.               =      35.74       241.16
  Fermi-wavevector in a.u.,A,eV,Ry     =   0.497016  0.939223  3.360973  0.247025
  Thomas-Fermi vector in A             =   1.503277
 
 Write flags
   LWAVE        =      F    write WAVECAR
   LDOWNSAMPLE  =      F    k-point downsampling of WAVECAR
   LCHARG       =      T    write CHGCAR
   LVTOT        =      F    write LOCPOT, total local potential
   LVHAR        =      F    write LOCPOT, Hartree potential only
   LELF         =      F    write electronic localiz. function (ELF)
   LORBIT       =      0    0 simple, 1 ext, 2 COOP (PROOUT), +10 PAW based schemes


 Dipole corrections
   LMONO  =      F    monopole corrections only (constant potential shift)
   LDIPOL =      F    correct potential (dipole corrections)
   IDIPOL =      0    1-x, 2-y, 3-z, 4-all directions 
   EPSILON=  1.0000000 bulk dielectric constant

 Exchange correlation treatment:
   GGA     =    --    GGA type
   LEXCH   =     2    internal setting for exchange type
   VOSKOWN=      0    Vosko Wilk Nusair interpolation
   LHFCALC =     F    Hartree Fock is set to
   LHFONE  =     F    Hartree Fock one center treatment
   AEXX    =    0.0000 exact exchange contribution

 Linear response parameters
   LEPSILON=     F    determine dielectric tensor
   LRPA    =     F    only Hartree local field effects (RPA)
   LNABLA  =     F    use nabla operator in PAW spheres
   LVEL    =     F    velocity operator in full k-point grid
   LINTERFAST=   F  fast interpolation
   KINTER  =     0    interpolate to denser k-point grid
   CSHIFT  =0.1000    complex shift for real part using Kramers Kronig
   OMEGAMAX=  -1.0    maximum frequency
   DEG_THRESHOLD= 0.2000000E-02 threshold for treating states as degnerate
   RTIME   =   -0.100 relaxation time in fs
  (WPLASMAI=    0.000 imaginary part of plasma frequency in eV, 0.658/RTIME)
   DFIELD  = 0.0000000 0.0000000 0.0000000 field for delta impulse in time
 
 Orbital magnetization related:
   ORBITALMAG=     F  switch on orbital magnetization
   LCHIMAG   =     F  perturbation theory with respect to B field
   DQ        =  0.001000  dq finite difference perturbation B field
   LLRAUG    =     F  two centre corrections for induced B field



--------------------------------------------------------------------------------------------------------


 Static calculation
 charge density and potential will be updated during run
 non-spin polarized calculation
 Variant of blocked Davidson
 Davidson routine will perform the subspace rotation
 perform sub-space diagonalisation
    after iterative eigenvector-optimisation
 modified Broyden-mixing scheme, WC =      100.0
 initial mixing is a Kerker type mixing with AMIX =  0.4000 and BMIX =      1.0000
 Hartree-type preconditioning will be used
 using additional bands            3
 reciprocal scheme for non local part
 use partial core corrections
 calculate Harris-corrections to forces 
   (improved forces if not selfconsistent)
 use of overlap-Matrix (Vanderbilt PP)
 Methfessel and Paxton  Order N= 1 SIGMA  =   0.20


--------------------------------------------------------------------------------------------------------


  energy-cutoff  :      101.96
  volume of cell :       35.74
      direct lattice vectors                 reciprocal lattice vectors
    -2.075000000  2.075000000  2.075000000     0.000000000  0.240963855  0.240963855
     2.075000000 -2.075000000  2.075000000     0.240963855  0.000000000  0.240963855
     2.075000000  2.075000000 -2.075000000     0.240963855  0.240963855  0.000000000

  length of vectors
     3.594005426  3.594005426  3.594005426     0.340774352  0.340774352  0.340774352


 
 k-points in units of 2pi/SCALE and weight: 20x20x20                                
   0.05000000  0.05000000  0.05000000       0.001
   0.05000000  0.10000000  0.10000000       0.003
   0.05000000  0.15000000  0.15000000       0.003
   0.05000000  0.20000000  0.20000000       0.003
   0.05000000  0.25000000  0.25000000       0.003
   0.05000000  0.30000000  0.30000000       0.003
   0.05000000  0.35000000  0.35000000       0.003
   0.05000000  0.40000000  0.40000000       0.003
   0.05000000  0.45000000  0.45000000       0.003
   0.05000000  0.50000000  0.50000000       0.002
   0.05000000  0.00000000  0.00000000       0.001
   0.10000000  0.10000000  0.15000000       0.003
   0.10000000  0.15000000  0.20000000       0.006
   0.10000000  0.20000000  0.25000000       0.006
   0.10000000  0.25000000  0.30000000       0.006
   0.10000000  0.30000000  0.35000000       0.006
   0.10000000  0.35000000  0.40000000       0.006
   0.10000000  0.40000000  0.45000000       0.006
   0.10000000  0.45000000  0.50000000       0.006
   0.10000000 -0.05000000  0.00000000       0.003
   0.15000000  0.15000000  0.25000000       0.003
   0.15000000  0.20000000  0.30000000       0.006
   0.15000000  0.25000000  0.35000000       0.006
   0.15000000  0.30000000  0.40000000       0.006
   0.15000000  0.35000000  0.45000000       0.006
   0.15000000  0.40000000  0.50000000       0.006
   0.15000000  0.45000000  0.55000000       0.003
   0.15000000 -0.10000000  0.00000000       0.003
   0.15000000 -0.05000000  0.05000000       0.003
   0.20000000  0.20000000  0.35000000       0.003
   0.20000000  0.25000000  0.40000000       0.006
   0.20000000  0.30000000  0.45000000       0.006
   0.20000000  0.35000000  0.50000000       0.006
   0.20000000  0.40000000  0.55000000       0.006
   0.20000000 -0.15000000  0.00000000       0.003
   0.20000000 -0.10000000  0.05000000       0.006
   0.25000000  0.25000000  0.45000000       0.003
   0.25000000  0.30000000  0.50000000       0.006
   0.25000000  0.35000000  0.55000000       0.006
   0.25000000  0.40000000  0.60000000       0.003
   0.25000000 -0.20000000  0.00000000       0.003
   0.25000000 -0.15000000  0.05000000       0.006
   0.25000000 -0.10000000  0.10000000       0.003
   0.30000000  0.30000000  0.55000000       0.003
   0.30000000  0.35000000  0.60000000       0.006
   0.30000000 -0.25000000  0.00000000       0.003
   0.30000000 -0.20000000  0.05000000       0.006
   0.30000000 -0.15000000  0.10000000       0.006
   0.35000000  0.35000000  0.65000000       0.001
   0.35000000 -0.30000000  0.00000000       0.003
   0.35000000 -0.25000000  0.05000000       0.006
   0.35000000 -0.20000000  0.10000000       0.006
   0.35000000 -0.15000000  0.15000000       0.003
   0.40000000 -0.35000000  0.00000000       0.003
   0.40000000 -0.30000000  0.05000000       0.006
   0.40000000 -0.25000000  0.10000000       0.006
   0.40000000 -0.20000000  0.15000000       0.006
   0.45000000 -0.40000000  0.00000000       0.003
   0.45000000 -0.35000000  0.05000000       0.006
   0.45000000 -0.30000000  0.10000000       0.006
   0.45000000 -0.25000000  0.15000000       0.006
   0.45000000 -0.20000000  0.20000000       0.003
   0.50000000 -0.45000000  0.00000000       0.003
   0.50000000 -0.40000000  0.05000000       0.006
   0.50000000 -0.35000000  0.10000000       0.006
   0.50000000 -0.30000000  0.15000000       0.006
   0.50000000 -0.25000000  0.20000000       0.006
  -0.45000000 -0.45000000 -0.95000000       0.003
  -0.45000000 -0.40000000 -0.90000000       0.006
  -0.45000000 -0.35000000 -0.85000000       0.006
  -0.45000000 -0.30000000 -0.80000000       0.006
  -0.45000000 -0.25000000 -0.75000000       0.003
  -0.40000000 -0.40000000 -0.85000000       0.003
  -0.40000000 -0.35000000 -0.80000000       0.006
  -0.40000000 -0.30000000 -0.75000000       0.006
  -0.35000000 -0.35000000 -0.75000000       0.003
  -0.35000000 -0.30000000 -0.70000000       0.003
   0.15000000  0.15000000  0.15000000       0.001
   0.15000000  0.20000000  0.20000000       0.003
   0.15000000  0.25000000  0.25000000       0.003
   0.15000000  0.30000000  0.30000000       0.003
   0.15000000  0.35000000  0.35000000       0.003
   0.15000000  0.40000000  0.40000000       0.003
   0.15000000  0.45000000  0.45000000       0.003
   0.15000000  0.50000000  0.50000000       0.002
   0.15000000  0.00000000  0.00000000       0.001
   0.20000000  0.20000000  0.25000000       0.003
   0.20000000  0.25000000  0.30000000       0.006
   0.20000000  0.30000000  0.35000000       0.006
   0.20000000  0.35000000  0.40000000       0.006
   0.20000000  0.40000000  0.45000000       0.006
   0.20000000  0.45000000  0.50000000       0.006
   0.20000000 -0.05000000  0.00000000       0.003
   0.25000000  0.25000000  0.35000000       0.003
   0.25000000  0.30000000  0.40000000       0.006
   0.25000000  0.35000000  0.45000000       0.006
   0.25000000  0.40000000  0.50000000       0.006
   0.25000000  0.45000000  0.55000000       0.003
   0.25000000 -0.10000000  0.00000000       0.003
   0.25000000 -0.05000000  0.05000000       0.003
   0.30000000  0.30000000  0.45000000       0.003
   0.30000000  0.35000000  0.50000000       0.006
   0.30000000  0.40000000  0.55000000       0.006
   0.30000000 -0.15000000  0.00000000       0.003
   0.30000000 -0.10000000  0.05000000       0.006
   0.35000000  0.35000000  0.55000000       0.003
   0.35000000  0.40000000  0.60000000       0.003
   0.35000000 -0.20000000  0.00000000       0.003
   0.35000000 -0.15000000  0.05000000       0.006
   0.35000000 -0.10000000  0.10000000       0.003
   0.40000000 -0.25000000  0.00000000       0.003
   0.40000000 -0.20000000  0.05000000       0.006
   0.40000000 -0.15000000  0.10000000       0.006
   0.45000000 -0.30000000  0.00000000       0.003
   0.45000000 -0.25000000  0.05000000       0.006
   0.45000000 -0.20000000  0.10000000       0.006
   0.45000000 -0.15000000  0.15000000       0.003
   0.50000000 -0.35000000  0.00000000       0.003
   0.50000000 -0.30000000  0.05000000       0.006
   0.50000000 -0.25000000  0.10000000       0.006
   0.50000000 -0.20000000  0.15000000       0.006
   0.55000000 -0.40000000  0.00000000       0.003
   0.55000000 -0.35000000  0.05000000       0.006
   0.55000000 -0.30000000  0.10000000       0.006
   0.55000000 -0.25000000  0.15000000       0.006
   0.55000000 -0.20000000  0.20000000       0.003
  -0.40000000 -0.40000000 -0.95000000       0.003
  -0.40000000 -0.35000000 -0.90000000       0.006
  -0.40000000 -0.30000000 -0.85000000       0.006
  -0.40000000 -0.25000000 -0.80000000       0.006
  -0.35000000 -0.35000000 -0.85000000       0.003
  -0.35000000 -0.30000000 -0.80000000       0.006
  -0.35000000 -0.25000000 -0.75000000       0.003
  -0.30000000 -0.30000000 -0.75000000       0.003
   0.25000000  0.25000000  0.25000000       0.001
   0.25000000  0.30000000  0.30000000       0.003
   0.25000000  0.35000000  0.35000000       0.003
   0.25000000  0.40000000  0.40000000       0.003
   0.25000000  0.45000000  0.45000000       0.003
   0.25000000  0.50000000  0.50000000       0.002
   0.25000000  0.00000000  0.00000000       0.001
   0.30000000  0.30000000  0.35000000       0.003
   0.30000000  0.35000000  0.40000000       0.006
   0.30000000  0.40000000  0.45000000       0.006
   0.30000000  0.45000000  0.50000000       0.006
   0.30000000 -0.05000000  0.00000000       0.003
   0.35000000  0.35000000  0.45000000       0.003
   0.35000000  0.40000000  0.50000000       0.006
   0.35000000  0.45000000  0.55000000       0.003
   0.35000000 -0.10000000  0.00000000       0.003
   0.35000000 -0.05000000  0.05000000       0.003
   0.40000000  0.40000000  0.55000000       0.003
   0.40000000 -0.15000000  0.00000000       0.003
   0.40000000 -0.10000000  0.05000000       0.006
   0.45000000 -0.20000000  0.00000000       0.003
   0.45000000 -0.15000000  0.05000000       0.006
   0.45000000 -0.10000000  0.10000000       0.003
   0.50000000 -0.25000000  0.00000000       0.003
   0.50000000 -0.20000000  0.05000000       0.006
   0.50000000 -0.15000000  0.10000000       0.006
   0.55000000 -0.30000000  0.00000000       0.003
   0.55000000 -0.25000000  0.05000000       0.006
   0.55000000 -0.20000000  0.10000000       0.006
   0.55000000 -0.15000000  0.15000000       0.003
   0.60000000 -0.35000000  0.00000000       0.003
   0.60000000 -0.30000000  0.05000000       0.006
   0.60000000 -0.25000000  0.10000000       0.006
   0.60000000 -0.20000000  0.15000000       0.006
  -0.35000000 -0.35000000 -0.95000000       0.003
  -0.35000000 -0.30000000 -0.90000000       0.006
  -0.35000000 -0.25000000 -0.85000000       0.006
  -0.35000000 -0.20000000 -0.80000000       0.003
  -0.30000000 -0.30000000 -0.85000000       0.003
  -0.30000000 -0.25000000 -0.80000000       0.006
  -0.25000000 -0.25000000 -0.75000000       0.001
   0.35000000  0.35000000  0.35000000       0.001
   0.35000000  0.40000000  0.40000000       0.003
   0.35000000  0.45000000  0.45000000       0.003
   0.35000000  0.50000000  0.50000000       0.002
   0.35000000  0.00000000  0.00000000       0.001
   0.40000000  0.40000000  0.45000000       0.003
   0.40000000  0.45000000  0.50000000       0.006
   0.40000000 -0.05000000  0.00000000       0.003
   0.45000000  0.45000000  0.55000000       0.001
   0.45000000 -0.10000000  0.00000000       0.003
   0.45000000 -0.05000000  0.05000000       0.003
   0.50000000 -0.15000000  0.00000000       0.003
   0.50000000 -0.10000000  0.05000000       0.006
   0.55000000 -0.20000000  0.00000000       0.003
   0.55000000 -0.15000000  0.05000000       0.006
   0.55000000 -0.10000000  0.10000000       0.003
   0.60000000 -0.25000000  0.00000000       0.003
   0.60000000 -0.20000000  0.05000000       0.006
   0.60000000 -0.15000000  0.10000000       0.006
   0.65000000 -0.30000000  0.00000000       0.003
   0.65000000 -0.25000000  0.05000000       0.006
   0.65000000 -0.20000000  0.10000000       0.006
   0.65000000 -0.15000000  0.15000000       0.003
  -0.30000000 -0.30000000 -0.95000000       0.003
  -0.30000000 -0.25000000 -0.90000000       0.006
  -0.30000000 -0.20000000 -0.85000000       0.006
  -0.25000000 -0.25000000 -0.85000000       0.003
  -0.25000000 -0.20000000 -0.80000000       0.003
   0.45000000  0.45000000  0.45000000       0.001
   0.45000000  0.50000000  0.50000000       0.002
   0.45000000  0.00000000  0.00000000       0.001
   0.50000000 -0.05000000  0.00000000       0.003
   0.55000000 -0.10000000  0.00000000       0.003
   0.55000000 -0.05000000  0.05000000       0.003
   0.60000000 -0.15000000  0.00000000       0.003
   0.60000000 -0.10000000  0.05000000       0.006
   0.65000000 -0.20000000  0.00000000       0.003
   0.65000000 -0.15000000  0.05000000       0.006
   0.65000000 -0.10000000  0.10000000       0.003
   0.70000000 -0.25000000  0.00000000       0.003
   0.70000000 -0.20000000  0.05000000       0.006
   0.70000000 -0.15000000  0.10000000       0.006
  -0.25000000 -0.25000000 -0.95000000       0.003
  -0.25000000 -0.20000000 -0.90000000       0.006
  -0.25000000 -0.15000000 -0.85000000       0.003
  -0.20000000 -0.20000000 -0.85000000       0.003
   0.55000000  0.00000000  0.00000000       0.001
   0.60000000 -0.05000000  0.00000000       0.003
   0.65000000 -0.10000000  0.00000000       0.003
   0.65000000 -0.05000000  0.05000000       0.003
   0.70000000 -0.15000000  0.00000000       0.003
   0.70000000 -0.10000000  0.05000000       0.006
   0.75000000 -0.20000000  0.00000000       0.003
   0.75000000 -0.15000000  0.05000000       0.006
   0.75000000 -0.10000000  0.10000000       0.003
  -0.20000000 -0.20000000 -0.95000000       0.003
  -0.20000000 -0.15000000 -0.90000000       0.006
  -0.15000000 -0.15000000 -0.85000000       0.001
   0.65000000  0.00000000  0.00000000       0.001
   0.70000000 -0.05000000  0.00000000       0.003
   0.75000000 -0.10000000  0.00000000       0.003
   0.75000000 -0.05000000  0.05000000       0.003
   0.80000000 -0.15000000  0.00000000       0.003
   0.80000000 -0.10000000  0.05000000       0.006
  -0.15000000 -0.15000000 -0.95000000       0.003
  -0.15000000 -0.10000000 -0.90000000       0.003
   0.75000000  0.00000000  0.00000000       0.001
   0.80000000 -0.05000000  0.00000000       0.003
   0.85000000 -0.10000000  0.00000000       0.003
   0.85000000 -0.05000000  0.05000000       0.003
  -0.10000000 -0.10000000 -0.95000000       0.003
   0.85000000  0.00000000  0.00000000       0.001
   0.90000000 -0.05000000  0.00000000       0.003
  -0.05000000 -0.05000000 -0.95000000       0.001
   0.95000000  0.00000000  0.00000000       0.001
 
 k-points in reciprocal lattice and weights: 20x20x20                                
   0.02500000  0.02500000  0.02500000       0.001
   0.07500000  0.02500000  0.02500000       0.003
   0.12500000  0.02500000  0.02500000       0.003
   0.17500000  0.02500000  0.02500000       0.003
   0.22500000  0.02500000  0.02500000       0.003
   0.27500000  0.02500000  0.02500000       0.003
   0.32500000  0.02500000  0.02500000       0.003
   0.37500000  0.02500000  0.02500000       0.003
   0.42500000  0.02500000  0.02500000       0.003
   0.47500000  0.02500000  0.02500000       0.002
  -0.02500000  0.02500000  0.02500000       0.001
   0.07500000  0.07500000  0.02500000       0.003
   0.12500000  0.07500000  0.02500000       0.006
   0.17500000  0.07500000  0.02500000       0.006
   0.22500000  0.07500000  0.02500000       0.006
   0.27500000  0.07500000  0.02500000       0.006
   0.32500000  0.07500000  0.02500000       0.006
   0.37500000  0.07500000  0.02500000       0.006
   0.42500000  0.07500000  0.02500000       0.006
  -0.07500000  0.07500000  0.02500000       0.003
   0.12500000  0.12500000  0.02500000       0.003
   0.17500000  0.12500000  0.02500000       0.006
   0.22500000  0.12500000  0.02500000       0.006
   0.27500000  0.12500000  0.02500000       0.006
   0.32500000  0.12500000  0.02500000       0.006
   0.37500000  0.12500000  0.02500000       0.006
   0.42500000  0.12500000  0.02500000       0.003
  -0.12500000  0.12500000  0.02500000       0.003
  -0.07500000  0.12500000  0.02500000       0.003
   0.17500000  0.17500000  0.02500000       0.003
   0.22500000  0.17500000  0.02500000       0.006
   0.27500000  0.17500000  0.02500000       0.006
   0.32500000  0.17500000  0.02500000       0.006
   0.37500000  0.17500000  0.02500000       0.006
  -0.17500000  0.17500000  0.02500000       0.003
  -0.12500000  0.17500000  0.02500000       0.006
   0.22500000  0.22500000  0.02500000       0.003
   0.27500000  0.22500000  0.02500000       0.006
   0.32500000  0.22500000  0.02500000       0.006
   0.37500000  0.22500000  0.02500000       0.003
  -0.22500000  0.22500000  0.02500000       0.003
  -0.17500000  0.22500000  0.02500000       0.006
  -0.12500000  0.22500000  0.02500000       0.003
   0.27500000  0.27500000  0.02500000       0.003
   0.32500000  0.27500000  0.02500000       0.006
  -0.27500000  0.27500000  0.02500000       0.003
  -0.22500000  0.27500000  0.02500000       0.006
  -0.17500000  0.27500000  0.02500000       0.006
   0.32500000  0.32500000  0.02500000       0.001
  -0.32500000  0.32500000  0.02500000       0.003
  -0.27500000  0.32500000  0.02500000       0.006
  -0.22500000  0.32500000  0.02500000       0.006
  -0.17500000  0.32500000  0.02500000       0.003
  -0.37500000  0.37500000  0.02500000       0.003
  -0.32500000  0.37500000  0.02500000       0.006
  -0.27500000  0.37500000  0.02500000       0.006
  -0.22500000  0.37500000  0.02500000       0.006
  -0.42500000  0.42500000  0.02500000       0.003
  -0.37500000  0.42500000  0.02500000       0.006
  -0.32500000  0.42500000  0.02500000       0.006
  -0.27500000  0.42500000  0.02500000       0.006
  -0.22500000  0.42500000  0.02500000       0.003
  -0.47500000  0.47500000  0.02500000       0.003
  -0.42500000  0.47500000  0.02500000       0.006
  -0.37500000  0.47500000  0.02500000       0.006
  -0.32500000  0.47500000  0.02500000       0.006
  -0.27500000  0.47500000  0.02500000       0.006
  -0.47500000 -0.47500000  0.02500000       0.003
  -0.42500000 -0.47500000  0.02500000       0.006
  -0.37500000 -0.47500000  0.02500000       0.006
  -0.32500000 -0.47500000  0.02500000       0.006
  -0.27500000 -0.47500000  0.02500000       0.003
  -0.42500000 -0.42500000  0.02500000       0.003
  -0.37500000 -0.42500000  0.02500000       0.006
  -0.32500000 -0.42500000  0.02500000       0.006
  -0.37500000 -0.37500000  0.02500000       0.003
  -0.32500000 -0.37500000  0.02500000       0.003
   0.07500000  0.07500000  0.07500000       0.001
   0.12500000  0.07500000  0.07500000       0.003
   0.17500000  0.07500000  0.07500000       0.003
   0.22500000  0.07500000  0.07500000       0.003
   0.27500000  0.07500000  0.07500000       0.003
   0.32500000  0.07500000  0.07500000       0.003
   0.37500000  0.07500000  0.07500000       0.003
   0.42500000  0.07500000  0.07500000       0.002
  -0.07500000  0.07500000  0.07500000       0.001
   0.12500000  0.12500000  0.07500000       0.003
   0.17500000  0.12500000  0.07500000       0.006
   0.22500000  0.12500000  0.07500000       0.006
   0.27500000  0.12500000  0.07500000       0.006
   0.32500000  0.12500000  0.07500000       0.006
   0.37500000  0.12500000  0.07500000       0.006
  -0.12500000  0.12500000  0.07500000       0.003
   0.17500000  0.17500000  0.07500000       0.003
   0.22500000  0.17500000  0.07500000       0.006
   0.27500000  0.17500000  0.07500000       0.006
   0.32500000  0.17500000  0.07500000       0.006
   0.37500000  0.17500000  0.07500000       0.003
  -0.17500000  0.17500000  0.07500000       0.003
  -0.12500000  0.17500000  0.07500000       0.003
   0.22500000  0.22500000  0.07500000       0.003
   0.27500000  0.22500000  0.07500000       0.006
   0.32500000  0.22500000  0.07500000       0.006
  -0.22500000  0.22500000  0.07500000       0.003
  -0.17500000  0.22500000  0.07500000       0.006
   0.27500000  0.27500000  0.07500000       0.003
   0.32500000  0.27500000  0.07500000       0.003
  -0.27500000  0.27500000  0.07500000       0.003
  -0.22500000  0.27500000  0.07500000       0.006
  -0.17500000  0.27500000  0.07500000       0.003
  -0.32500000  0.32500000  0.07500000       0.003
  -0.27500000  0.32500000  0.07500000       0.006
  -0.22500000  0.32500000  0.07500000       0.006
  -0.37500000  0.37500000  0.07500000       0.003
  -0.32500000  0.37500000  0.07500000       0.006
  -0.27500000  0.37500000  0.07500000       0.006
  -0.22500000  0.37500000  0.07500000       0.003
  -0.42500000  0.42500000  0.07500000       0.003
  -0.37500000  0.42500000  0.07500000       0.006
  -0.32500000  0.42500000  0.07500000       0.006
  -0.27500000  0.42500000  0.07500000       0.006
  -0.47500000  0.47500000  0.07500000       0.003
  -0.42500000  0.47500000  0.07500000       0.006
  -0.37500000  0.47500000  0.07500000       0.006
  -0.32500000  0.47500000  0.07500000       0.006
  -0.27500000  0.47500000  0.07500000       0.003
  -0.47500000 -0.47500000  0.07500000       0.003
  -0.42500000 -0.47500000  0.07500000       0.006
  -0.37500000 -0.47500000  0.07500000       0.006
  -0.32500000 -0.47500000  0.07500000       0.006
  -0.42500000 -0.42500000  0.07500000       0.003
  -0.37500000 -0.42500000  0.07500000       0.006
  -0.32500000 -0.42500000  0.07500000       0.003
  -0.37500000 -0.37500000  0.07500000       0.003
   0.12500000  0.12500000  0.12500000       0.001
   0.17500000  0.12500000  0.12500000       0.003
   0.22500000  0.12500000  0.12500000       0.003
   0.27500000  0.12500000  0.12500000       0.003
   0.32500000  0.12500000  0.12500000       0.003
   0.37500000  0.12500000  0.12500000       0.002
  -0.12500000  0.12500000  0.12500000       0.001
   0.17500000  0.17500000  0.12500000       0.003
   0.22500000  0.17500000  0.12500000       0.006
   0.27500000  0.17500000  0.12500000       0.006
   0.32500000  0.17500000  0.12500000       0.006
  -0.17500000  0.17500000  0.12500000       0.003
   0.22500000  0.22500000  0.12500000       0.003
   0.27500000  0.22500000  0.12500000       0.006
   0.32500000  0.22500000  0.12500000       0.003
  -0.22500000  0.22500000  0.12500000       0.003
  -0.17500000  0.22500000  0.12500000       0.003
   0.27500000  0.27500000  0.12500000       0.003
  -0.27500000  0.27500000  0.12500000       0.003
  -0.22500000  0.27500000  0.12500000       0.006
  -0.32500000  0.32500000  0.12500000       0.003
  -0.27500000  0.32500000  0.12500000       0.006
  -0.22500000  0.32500000  0.12500000       0.003
  -0.37500000  0.37500000  0.12500000       0.003
  -0.32500000  0.37500000  0.12500000       0.006
  -0.27500000  0.37500000  0.12500000       0.006
  -0.42500000  0.42500000  0.12500000       0.003
  -0.37500000  0.42500000  0.12500000       0.006
  -0.32500000  0.42500000  0.12500000       0.006
  -0.27500000  0.42500000  0.12500000       0.003
  -0.47500000  0.47500000  0.12500000       0.003
  -0.42500000  0.47500000  0.12500000       0.006
  -0.37500000  0.47500000  0.12500000       0.006
  -0.32500000  0.47500000  0.12500000       0.006
  -0.47500000 -0.47500000  0.12500000       0.003
  -0.42500000 -0.47500000  0.12500000       0.006
  -0.37500000 -0.47500000  0.12500000       0.006
  -0.32500000 -0.47500000  0.12500000       0.003
  -0.42500000 -0.42500000  0.12500000       0.003
  -0.37500000 -0.42500000  0.12500000       0.006
  -0.37500000 -0.37500000  0.12500000       0.001
   0.17500000  0.17500000  0.17500000       0.001
   0.22500000  0.17500000  0.17500000       0.003
   0.27500000  0.17500000  0.17500000       0.003
   0.32500000  0.17500000  0.17500000       0.002
  -0.17500000  0.17500000  0.17500000       0.001
   0.22500000  0.22500000  0.17500000       0.003
   0.27500000  0.22500000  0.17500000       0.006
  -0.22500000  0.22500000  0.17500000       0.003
   0.27500000  0.27500000  0.17500000       0.001
  -0.27500000  0.27500000  0.17500000       0.003
  -0.22500000  0.27500000  0.17500000       0.003
  -0.32500000  0.32500000  0.17500000       0.003
  -0.27500000  0.32500000  0.17500000       0.006
  -0.37500000  0.37500000  0.17500000       0.003
  -0.32500000  0.37500000  0.17500000       0.006
  -0.27500000  0.37500000  0.17500000       0.003
  -0.42500000  0.42500000  0.17500000       0.003
  -0.37500000  0.42500000  0.17500000       0.006
  -0.32500000  0.42500000  0.17500000       0.006
  -0.47500000  0.47500000  0.17500000       0.003
  -0.42500000  0.47500000  0.17500000       0.006
  -0.37500000  0.47500000  0.17500000       0.006
  -0.32500000  0.47500000  0.17500000       0.003
  -0.47500000 -0.47500000  0.17500000       0.003
  -0.42500000 -0.47500000  0.17500000       0.006
  -0.37500000 -0.47500000  0.17500000       0.006
  -0.42500000 -0.42500000  0.17500000       0.003
  -0.37500000 -0.42500000  0.17500000       0.003
   0.22500000  0.22500000  0.22500000       0.001
   0.27500000  0.22500000  0.22500000       0.002
  -0.22500000  0.22500000  0.22500000       0.001
  -0.27500000  0.27500000  0.22500000       0.003
  -0.32500000  0.32500000  0.22500000       0.003
  -0.27500000  0.32500000  0.22500000       0.003
  -0.37500000  0.37500000  0.22500000       0.003
  -0.32500000  0.37500000  0.22500000       0.006
  -0.42500000  0.42500000  0.22500000       0.003
  -0.37500000  0.42500000  0.22500000       0.006
  -0.32500000  0.42500000  0.22500000       0.003
  -0.47500000  0.47500000  0.22500000       0.003
  -0.42500000  0.47500000  0.22500000       0.006
  -0.37500000  0.47500000  0.22500000       0.006
  -0.47500000 -0.47500000  0.22500000       0.003
  -0.42500000 -0.47500000  0.22500000       0.006
  -0.37500000 -0.47500000  0.22500000       0.003
  -0.42500000 -0.42500000  0.22500000       0.003
  -0.27500000  0.27500000  0.27500000       0.001
  -0.32500000  0.32500000  0.27500000       0.003
  -0.37500000  0.37500000  0.27500000       0.003
  -0.32500000  0.37500000  0.27500000       0.003
  -0.42500000  0.42500000  0.27500000       0.003
  -0.37500000  0.42500000  0.27500000       0.006
  -0.47500000  0.47500000  0.27500000       0.003
  -0.42500000  0.47500000  0.27500000       0.006
  -0.37500000  0.47500000  0.27500000       0.003
  -0.47500000 -0.47500000  0.27500000       0.003
  -0.42500000 -0.47500000  0.27500000       0.006
  -0.42500000 -0.42500000  0.27500000       0.001
  -0.32500000  0.32500000  0.32500000       0.001
  -0.37500000  0.37500000  0.32500000       0.003
  -0.42500000  0.42500000  0.32500000       0.003
  -0.37500000  0.42500000  0.32500000       0.003
  -0.47500000  0.47500000  0.32500000       0.003
  -0.42500000  0.47500000  0.32500000       0.006
  -0.47500000 -0.47500000  0.32500000       0.003
  -0.42500000 -0.47500000  0.32500000       0.003
  -0.37500000  0.37500000  0.37500000       0.001
  -0.42500000  0.42500000  0.37500000       0.003
  -0.47500000  0.47500000  0.37500000       0.003
  -0.42500000  0.47500000  0.37500000       0.003
  -0.47500000 -0.47500000  0.37500000       0.003
  -0.42500000  0.42500000  0.42500000       0.001
  -0.47500000  0.47500000  0.42500000       0.003
  -0.47500000 -0.47500000  0.42500000       0.001
  -0.47500000  0.47500000  0.47500000       0.001
 
 position of ions in fractional coordinates (direct lattice) 
   0.00000000  0.00000000  0.00000000
 
 position of ions in cartesian coordinates  (Angst):
   0.00000000  0.00000000  0.00000000
 


--------------------------------------------------------------------------------------------------------


 k-point  1 :   0.0250 0.0250 0.0250  plane waves:      80
 k-point  2 :   0.0750 0.0250 0.0250  plane waves:      81
 k-point  3 :   0.1250 0.0250 0.0250  plane waves:      81
 k-point  4 :   0.1750 0.0250 0.0250  plane waves:      79
 k-point  5 :   0.2250 0.0250 0.0250  plane waves:      79
 k-point  6 :   0.2750 0.0250 0.0250  plane waves:      81
 k-point  7 :   0.3250 0.0250 0.0250  plane waves:      83
 k-point  8 :   0.3750 0.0250 0.0250  plane waves:      83
 k-point  9 :   0.4250 0.0250 0.0250  plane waves:      82
 k-point 10 :   0.4750 0.0250 0.0250  plane waves:      80
 k-point 11 :  -0.0250 0.0250 0.0250  plane waves:      79
 k-point 12 :   0.0750 0.0750 0.0250  plane waves:      82
 k-point 13 :   0.1250 0.0750 0.0250  plane waves:      82
 k-point 14 :   0.1750 0.0750 0.0250  plane waves:      80
 k-point 15 :   0.2250 0.0750 0.0250  plane waves:      83
 k-point 16 :   0.2750 0.0750 0.0250  plane waves:      82
 k-point 17 :   0.3250 0.0750 0.0250  plane waves:      82
 k-point 18 :   0.3750 0.0750 0.0250  plane waves:      80
 k-point 19 :   0.4250 0.0750 0.0250  plane waves:      80
 k-point 20 :  -0.0750 0.0750 0.0250  plane waves:      81
 k-point 21 :   0.1250 0.1250 0.0250  plane waves:      80
 k-point 22 :   0.1750 0.1250 0.0250  plane waves:      83
 k-point 23 :   0.2250 0.1250 0.0250  plane waves:      83
 k-point 24 :   0.2750 0.1250 0.0250  plane waves:      81
 k-point 25 :   0.3250 0.1250 0.0250  plane waves:      82
 k-point 26 :   0.3750 0.1250 0.0250  plane waves:      82
 k-point 27 :   0.4250 0.1250 0.0250  plane waves:      82
 k-point 28 :  -0.1250 0.1250 0.0250  plane waves:      81
 k-point 29 :  -0.0750 0.1250 0.0250  plane waves:      82
 k-point 30 :   0.1750 0.1750 0.0250  plane waves:      80
 k-point 31 :   0.2250 0.1750 0.0250  plane waves:      83
 k-point 32 :   0.2750 0.1750 0.0250  plane waves:      82
 k-point 33 :   0.3250 0.1750 0.0250  plane waves:      82
 k-point 34 :   0.3750 0.1750 0.0250  plane waves:      81
 k-point 35 :  -0.1750 0.1750 0.0250  plane waves:      81
 k-point 36 :  -0.1250 0.1750 0.0250  plane waves:      82
 k-point 37 :   0.2250 0.2250 0.0250  plane waves:      84
 k-point 38 :   0.2750 0.2250 0.0250  plane waves:      83
 k-point 39 :   0.3250 0.2250 0.0250  plane waves:      82
 k-point 40 :   0.3750 0.2250 0.0250  plane waves:      81
 k-point 41 :  -0.2250 0.2250 0.0250  plane waves:      79
 k-point 42 :  -0.1750 0.2250 0.0250  plane waves:      80
 k-point 43 :  -0.1250 0.2250 0.0250  plane waves:      80
 k-point 44 :   0.2750 0.2750 0.0250  plane waves:      80
 k-point 45 :   0.3250 0.2750 0.0250  plane waves:      82
 k-point 46 :  -0.2750 0.2750 0.0250  plane waves:      81
 k-point 47 :  -0.2250 0.2750 0.0250  plane waves:      81
 k-point 48 :  -0.1750 0.2750 0.0250  plane waves:      81
 k-point 49 :   0.3250 0.3250 0.0250  plane waves:      83
 k-point 50 :  -0.3250 0.3250 0.0250  plane waves:      80
 k-point 51 :  -0.2750 0.3250 0.0250  plane waves:      81
 k-point 52 :  -0.2250 0.3250 0.0250  plane waves:      81
 k-point 53 :  -0.1750 0.3250 0.0250  plane waves:      80
 k-point 54 :  -0.3750 0.3750 0.0250  plane waves:      82
 k-point 55 :  -0.3250 0.3750 0.0250  plane waves:      82
 k-point 56 :  -0.2750 0.3750 0.0250  plane waves:      83
 k-point 57 :  -0.2250 0.3750 0.0250  plane waves:      82
 k-point 58 :  -0.4250 0.4250 0.0250  plane waves:      80
 k-point 59 :  -0.3750 0.4250 0.0250  plane waves:      83
 k-point 60 :  -0.3250 0.4250 0.0250  plane waves:      83
 k-point 61 :  -0.2750 0.4250 0.0250  plane waves:      83
 k-point 62 :  -0.2250 0.4250 0.0250  plane waves:      82
 k-point 63 :  -0.4750 0.4750 0.0250  plane waves:      84
 k-point 64 :  -0.4250 0.4750 0.0250  plane waves:      81
 k-point 65 :  -0.3750 0.4750 0.0250  plane waves:      81
 k-point 66 :  -0.3250 0.4750 0.0250  plane waves:      83
 k-point 67 :  -0.2750 0.4750 0.0250  plane waves:      85
 k-point 68 :  -0.4750-0.4750 0.0250  plane waves:      80
 k-point 69 :  -0.4250-0.4750 0.0250  plane waves:      82
 k-point 70 :  -0.3750-0.4750 0.0250  plane waves:      82
 k-point 71 :  -0.3250-0.4750 0.0250  plane waves:      83
 k-point 72 :  -0.2750-0.4750 0.0250  plane waves:      86
 k-point 73 :  -0.4250-0.4250 0.0250  plane waves:      82
 k-point 74 :  -0.3750-0.4250 0.0250  plane waves:      82
 k-point 75 :  -0.3250-0.4250 0.0250  plane waves:      83
 k-point 76 :  -0.3750-0.3750 0.0250  plane waves:      84
 k-point 77 :  -0.3250-0.3750 0.0250  plane waves:      83
 k-point 78 :   0.0750 0.0750 0.0750  plane waves:      83
 k-point 79 :   0.1250 0.0750 0.0750  plane waves:      81
 k-point 80 :   0.1750 0.0750 0.0750  plane waves:      83
 k-point 81 :   0.2250 0.0750 0.0750  plane waves:      83
 k-point 82 :   0.2750 0.0750 0.0750  plane waves:      83
 k-point 83 :   0.3250 0.0750 0.0750  plane waves:      79
 k-point 84 :   0.3750 0.0750 0.0750  plane waves:      80
 k-point 85 :   0.4250 0.0750 0.0750  plane waves:      80
 k-point 86 :  -0.0750 0.0750 0.0750  plane waves:      83
 k-point 87 :   0.1250 0.1250 0.0750  plane waves:      83
 k-point 88 :   0.1750 0.1250 0.0750  plane waves:      83
 k-point 89 :   0.2250 0.1250 0.0750  plane waves:      83
 k-point 90 :   0.2750 0.1250 0.0750  plane waves:      81
 k-point 91 :   0.3250 0.1250 0.0750  plane waves:      79
 k-point 92 :   0.3750 0.1250 0.0750  plane waves:      82
 k-point 93 :  -0.1250 0.1250 0.0750  plane waves:      83
 k-point 94 :   0.1750 0.1750 0.0750  plane waves:      83
 k-point 95 :   0.2250 0.1750 0.0750  plane waves:      83
 k-point 96 :   0.2750 0.1750 0.0750  plane waves:      82
 k-point 97 :   0.3250 0.1750 0.0750  plane waves:      81
 k-point 98 :   0.3750 0.1750 0.0750  plane waves:      80
 k-point 99 :  -0.1750 0.1750 0.0750  plane waves:      82
 k-point ** :  -0.1250 0.1750 0.0750  plane waves:      83
 k-point ** :   0.2250 0.2250 0.0750  plane waves:      84
 k-point ** :   0.2750 0.2250 0.0750  plane waves:      82
 k-point ** :   0.3250 0.2250 0.0750  plane waves:      81
 k-point ** :  -0.2250 0.2250 0.0750  plane waves:      80
 k-point ** :  -0.1750 0.2250 0.0750  plane waves:      79
 k-point ** :   0.2750 0.2750 0.0750  plane waves:      80
 k-point ** :   0.3250 0.2750 0.0750  plane waves:      80
 k-point ** :  -0.2750 0.2750 0.0750  plane waves:      84
 k-point ** :  -0.2250 0.2750 0.0750  plane waves:      81
 k-point ** :  -0.1750 0.2750 0.0750  plane waves:      81
 k-point ** :  -0.3250 0.3250 0.0750  plane waves:      82
 k-point ** :  -0.2750 0.3250 0.0750  plane waves:      84
 k-point ** :  -0.2250 0.3250 0.0750  plane waves:      82
 k-point ** :  -0.3750 0.3750 0.0750  plane waves:      82
 k-point ** :  -0.3250 0.3750 0.0750  plane waves:      85
 k-point ** :  -0.2750 0.3750 0.0750  plane waves:      85
 k-point ** :  -0.2250 0.3750 0.0750  plane waves:      83
 k-point ** :  -0.4250 0.4250 0.0750  plane waves:      83
 k-point ** :  -0.3750 0.4250 0.0750  plane waves:      83
 k-point ** :  -0.3250 0.4250 0.0750  plane waves:      84
 k-point ** :  -0.2750 0.4250 0.0750  plane waves:      85
 k-point ** :  -0.4750 0.4750 0.0750  plane waves:      82
 k-point ** :  -0.4250 0.4750 0.0750  plane waves:      84
 k-point ** :  -0.3750 0.4750 0.0750  plane waves:      83
 k-point ** :  -0.3250 0.4750 0.0750  plane waves:      84
 k-point ** :  -0.2750 0.4750 0.0750  plane waves:      86
 k-point ** :  -0.4750-0.4750 0.0750  plane waves:      84
 k-point ** :  -0.4250-0.4750 0.0750  plane waves:      83
 k-point ** :  -0.3750-0.4750 0.0750  plane waves:      83
 k-point ** :  -0.3250-0.4750 0.0750  plane waves:      86
 k-point ** :  -0.4250-0.4250 0.0750  plane waves:      82
 k-point ** :  -0.3750-0.4250 0.0750  plane waves:      84
 k-point ** :  -0.3250-0.4250 0.0750  plane waves:      85
 k-point ** :  -0.3750-0.3750 0.0750  plane waves:      84
 k-point ** :   0.1250 0.1250 0.1250  plane waves:      83
 k-point ** :   0.1750 0.1250 0.1250  plane waves:      83
 k-point ** :   0.2250 0.1250 0.1250  plane waves:      81
 k-point ** :   0.2750 0.1250 0.1250  plane waves:      81
 k-point ** :   0.3250 0.1250 0.1250  plane waves:      82
 k-point ** :   0.3750 0.1250 0.1250  plane waves:      84
 k-point ** :  -0.1250 0.1250 0.1250  plane waves:      83
 k-point ** :   0.1750 0.1750 0.1250  plane waves:      83
 k-point ** :   0.2250 0.1750 0.1250  plane waves:      84
 k-point ** :   0.2750 0.1750 0.1250  plane waves:      82
 k-point ** :   0.3250 0.1750 0.1250  plane waves:      82
 k-point ** :  -0.1750 0.1750 0.1250  plane waves:      79
 k-point ** :   0.2250 0.2250 0.1250  plane waves:      83
 k-point ** :   0.2750 0.2250 0.1250  plane waves:      80
 k-point ** :   0.3250 0.2250 0.1250  plane waves:      80
 k-point ** :  -0.2250 0.2250 0.1250  plane waves:      81
 k-point ** :  -0.1750 0.2250 0.1250  plane waves:      79
 k-point ** :   0.2750 0.2750 0.1250  plane waves:      78
 k-point ** :  -0.2750 0.2750 0.1250  plane waves:      82
 k-point ** :  -0.2250 0.2750 0.1250  plane waves:      82
 k-point ** :  -0.3250 0.3250 0.1250  plane waves:      84
 k-point ** :  -0.2750 0.3250 0.1250  plane waves:      85
 k-point ** :  -0.2250 0.3250 0.1250  plane waves:      83
 k-point ** :  -0.3750 0.3750 0.1250  plane waves:      82
 k-point ** :  -0.3250 0.3750 0.1250  plane waves:      86
 k-point ** :  -0.2750 0.3750 0.1250  plane waves:      85
 k-point ** :  -0.4250 0.4250 0.1250  plane waves:      85
 k-point ** :  -0.3750 0.4250 0.1250  plane waves:      84
 k-point ** :  -0.3250 0.4250 0.1250  plane waves:      86
 k-point ** :  -0.2750 0.4250 0.1250  plane waves:      87
 k-point ** :  -0.4750 0.4750 0.1250  plane waves:      85
 k-point ** :  -0.4250 0.4750 0.1250  plane waves:      86
 k-point ** :  -0.3750 0.4750 0.1250  plane waves:      86
 k-point ** :  -0.3250 0.4750 0.1250  plane waves:      88
 k-point ** :  -0.4750-0.4750 0.1250  plane waves:      88
 k-point ** :  -0.4250-0.4750 0.1250  plane waves:      86
 k-point ** :  -0.3750-0.4750 0.1250  plane waves:      85
 k-point ** :  -0.3250-0.4750 0.1250  plane waves:      86
 k-point ** :  -0.4250-0.4250 0.1250  plane waves:      86
 k-point ** :  -0.3750-0.4250 0.1250  plane waves:      85
 k-point ** :  -0.3750-0.3750 0.1250  plane waves:      83
 k-point ** :   0.1750 0.1750 0.1750  plane waves:      83
 k-point ** :   0.2250 0.1750 0.1750  plane waves:      83
 k-point ** :   0.2750 0.1750 0.1750  plane waves:      80
 k-point ** :   0.3250 0.1750 0.1750  plane waves:      80
 k-point ** :  -0.1750 0.1750 0.1750  plane waves:      79
 k-point ** :   0.2250 0.2250 0.1750  plane waves:      80
 k-point ** :   0.2750 0.2250 0.1750  plane waves:      80
 k-point ** :  -0.2250 0.2250 0.1750  plane waves:      83
 k-point ** :   0.2750 0.2750 0.1750  plane waves:      80
 k-point ** :  -0.2750 0.2750 0.1750  plane waves:      82
 k-point ** :  -0.2250 0.2750 0.1750  plane waves:      85
 k-point ** :  -0.3250 0.3250 0.1750  plane waves:      86
 k-point ** :  -0.2750 0.3250 0.1750  plane waves:      86
 k-point ** :  -0.3750 0.3750 0.1750  plane waves:      86
 k-point ** :  -0.3250 0.3750 0.1750  plane waves:      87
 k-point ** :  -0.2750 0.3750 0.1750  plane waves:      87
 k-point ** :  -0.4250 0.4250 0.1750  plane waves:      86
 k-point ** :  -0.3750 0.4250 0.1750  plane waves:      87
 k-point ** :  -0.3250 0.4250 0.1750  plane waves:      89
 k-point ** :  -0.4750 0.4750 0.1750  plane waves:      86
 k-point ** :  -0.4250 0.4750 0.1750  plane waves:      86
 k-point ** :  -0.3750 0.4750 0.1750  plane waves:      89
 k-point ** :  -0.3250 0.4750 0.1750  plane waves:      92
 k-point ** :  -0.4750-0.4750 0.1750  plane waves:      87
 k-point ** :  -0.4250-0.4750 0.1750  plane waves:      88
 k-point ** :  -0.3750-0.4750 0.1750  plane waves:      88
 k-point ** :  -0.4250-0.4250 0.1750  plane waves:      87
 k-point ** :  -0.3750-0.4250 0.1750  plane waves:      88
 k-point ** :   0.2250 0.2250 0.2250  plane waves:      80
 k-point ** :   0.2750 0.2250 0.2250  plane waves:      80
 k-point ** :  -0.2250 0.2250 0.2250  plane waves:      87
 k-point ** :  -0.2750 0.2750 0.2250  plane waves:      87
 k-point ** :  -0.3250 0.3250 0.2250  plane waves:      88
 k-point ** :  -0.2750 0.3250 0.2250  plane waves:      85
 k-point ** :  -0.3750 0.3750 0.2250  plane waves:      89
 k-point ** :  -0.3250 0.3750 0.2250  plane waves:      89
 k-point ** :  -0.4250 0.4250 0.2250  plane waves:      88
 k-point ** :  -0.3750 0.4250 0.2250  plane waves:      89
 k-point ** :  -0.3250 0.4250 0.2250  plane waves:      90
[...]
      1       0.6464      0.45940
      2       4.7256     -0.00000
      3       5.8163     -0.00000
      4       8.8236      0.00000

 k-point   195 :      -0.4750    0.4750    0.1750
  band No.  band energies     occupation 
      1       1.6226     -0.00000
      2       2.5842     -0.00000
      3       7.0830      0.00000
      4       8.0234      0.00000

 k-point   196 :      -0.4250    0.4750    0.1750
  band No.  band energies     occupation 
      1       1.4375     -0.00000
      2       3.1722     -0.00000
      3       6.4406      0.00000
      4       8.2433      0.00000

 k-point   197 :      -0.3750    0.4750    0.1750
  band No.  band energies     occupation 
      1       1.3177     -0.00000
      2       3.8249     -0.00000
      3       5.6059     -0.00000
      4       8.7781      0.00000

 k-point   198 :      -0.3250    0.4750    0.1750
  band No.  band energies     occupation 
      1       1.2756     -0.00001
      2       4.2992     -0.00000
      3       5.0602     -0.00000
      4       9.1439      0.00000

 k-point   199 :      -0.4750   -0.4750    0.1750
  band No.  band energies     occupation 
      1       2.0267     -0.00000
      2       2.5114     -0.00000
      3       6.4015      0.00000
      4       8.2099      0.00000

 k-point   200 :      -0.4250   -0.4750    0.1750
  band No.  band energies     occupation 
      1       2.0299     -0.00000
      2       2.9873     -0.00000
      3       5.5112     -0.00000
      4       8.7376      0.00000

 k-point   201 :      -0.3750   -0.4750    0.1750
  band No.  band energies     occupation 
      1       1.9706     -0.00000
      2       3.6085     -0.00000
      3       4.7291     -0.00000
      4       9.2877      0.00000

 k-point   202 :      -0.4250   -0.4250    0.1750
  band No.  band energies     occupation 
      1       2.5457     -0.00000
      2       3.0027     -0.00000
      3       4.6509     -0.00000
      4       9.3111      0.00000

 k-point   203 :      -0.3750   -0.4250    0.1750
  band No.  band energies     occupation 
      1       2.6521     -0.00000
      2       3.3003     -0.00000
      3       4.1318     -0.00000
      4       9.7540      0.00000

 k-point   204 :       0.2250    0.2250    0.2250
  band No.  band energies     occupation 
      1       2.3977     -0.00000
      2       3.8190     -0.00000
      3       3.8190     -0.00000
      4       5.2518     -0.00000

 k-point   205 :       0.2750    0.2250    0.2250
  band No.  band energies     occupation 
      1       2.9803     -0.00000
      2       3.2674     -0.00000
      3       3.7787     -0.00000
      4       5.1050     -0.00000

 k-point   206 :      -0.2250    0.2250    0.2250
  band No.  band energies     occupation 
      1      -0.9918      2.00000
      2       7.7561      0.00000
      3       7.7561      0.00000
      4       7.8552      0.00000

 k-point   207 :      -0.2750    0.2750    0.2250
  band No.  band energies     occupation 
      1      -0.5557      2.00000
      2       6.7613      0.00000
      3       7.3821      0.00000
      4       7.8821      0.00000

 k-point   208 :      -0.3250    0.3250    0.2250
  band No.  band energies     occupation 
      1      -0.0363      2.00012
      2       5.7221     -0.00000
      3       7.0833      0.00000
      4       7.8129      0.00000

 k-point   209 :      -0.2750    0.3250    0.2250
  band No.  band energies     occupation 
      1      -0.0785      2.00003
      2       6.2332      0.00000
      3       6.7597      0.00000
      4       7.8488      0.00000

 k-point   210 :      -0.3750    0.3750    0.2250
  band No.  band energies     occupation 
      1       0.5610      1.14553
      2       4.7162     -0.00000
      3       6.8601      0.00000
      4       7.6736      0.00000

 k-point   211 :      -0.3250    0.3750    0.2250
  band No.  band energies     occupation 
      1       0.4771      1.74678
      2       5.3619     -0.00000
      3       6.3642      0.00000
      4       7.8773      0.00000

 k-point   212 :      -0.4250    0.4250    0.2250
  band No.  band energies     occupation 
      1       1.2350     -0.00004
      2       3.7678     -0.00000
      3       6.7159      0.00000
      4       7.5511      0.00000

 k-point   213 :      -0.3750    0.4250    0.2250
  band No.  band energies     occupation 
      1       1.1100     -0.00111
      2       4.4216     -0.00000
      3       6.1438      0.00000
      4       7.8165      0.00000

 k-point   214 :      -0.3250    0.4250    0.2250
  band No.  band energies     occupation 
      1       1.0686     -0.00287
      2       4.9026     -0.00000
      3       5.6186     -0.00000
      4       8.1315      0.00000

 k-point   215 :      -0.4750    0.4750    0.2250
  band No.  band energies     occupation 
      1       1.9499     -0.00000
      2       2.9157     -0.00000
      3       6.6390      0.00000
      4       7.4846      0.00000

 k-point   216 :      -0.4250    0.4750    0.2250
  band No.  band energies     occupation 
      1       1.8090     -0.00000
      2       3.5289     -0.00000
      3       6.0185     -0.00000
      4       7.7498      0.00000

 k-point   217 :      -0.3750    0.4750    0.2250
  band No.  band energies     occupation 
      1       1.7328     -0.00000
      2       4.1664     -0.00000
      3       5.2658     -0.00000
      4       8.2523      0.00000

 k-point   218 :      -0.4750   -0.4750    0.2250
  band No.  band energies     occupation 
      1       2.3868     -0.00000
      2       2.8877     -0.00000
      3       5.9787     -0.00000
      4       7.7257      0.00000

 k-point   219 :      -0.4250   -0.4750    0.2250
  band No.  band energies     occupation 
      1       2.4336     -0.00000
      2       3.3736     -0.00000
      3       5.1397     -0.00000
      4       8.2699      0.00000

 k-point   220 :      -0.3750   -0.4750    0.2250
  band No.  band energies     occupation 
      1       2.4138     -0.00000
      2       3.8218     -0.00000
      3       4.6033     -0.00000
      4       8.6601      0.00000

 k-point   221 :      -0.4250   -0.4250    0.2250
  band No.  band energies     occupation 
      1       2.9812     -0.00000
      2       3.3390     -0.00000
      3       4.4055     -0.00000
      4       8.8297      0.00000

 k-point   222 :      -0.2750    0.2750    0.2750
  band No.  band energies     occupation 
      1      -0.1230      2.00001
      2       6.9863      0.00000
      3       7.0095      0.00000
      4       7.0095      0.00000

 k-point   223 :      -0.3250    0.3250    0.2750
  band No.  band energies     occupation 
      1       0.3914      2.03387
      2       6.0418      0.00000
      3       6.7120      0.00000
      4       7.1403      0.00000

 k-point   224 :      -0.3750    0.3750    0.2750
  band No.  band energies     occupation 
      1       0.9860     -0.01410
      2       5.0776     -0.00000
      3       6.4942      0.00000
      4       7.1368      0.00000

 k-point   225 :      -0.3250    0.3750    0.2750
  band No.  band energies     occupation 
      1       0.9434     -0.02696
      2       5.5868     -0.00000
      3       6.1476      0.00000
      4       7.2014      0.00000

 k-point   226 :      -0.4250    0.4250    0.2750
  band No.  band energies     occupation 
      1       1.6517     -0.00000
      2       4.1549     -0.00000
      3       6.3457      0.00000
      4       7.0663      0.00000

 k-point   227 :      -0.3750    0.4250    0.2750
  band No.  band energies     occupation 
      1       1.5706     -0.00000
      2       4.8006     -0.00000
      3       5.8226     -0.00000
      4       7.3048      0.00000

 k-point   228 :      -0.4750    0.4750    0.2750
  band No.  band energies     occupation 
      1       2.3567     -0.00000
      2       3.3223     -0.00000
      3       6.2721      0.00000
      4       7.0162      0.00000

 k-point   229 :      -0.4250    0.4750    0.2750
  band No.  band energies     occupation 
      1       2.2607     -0.00000
      2       3.9486     -0.00000
      3       5.6805     -0.00000
      4       7.3109      0.00000

 k-point   230 :      -0.3750    0.4750    0.2750
  band No.  band energies     occupation 
      1       2.2245     -0.00000
      2       4.4219     -0.00000
      3       5.1530     -0.00000
      4       7.6484      0.00000

 k-point   231 :      -0.4750   -0.4750    0.2750
  band No.  band energies     occupation 
      1       2.8272     -0.00000
      2       3.3287     -0.00000
      3       5.6381     -0.00000
      4       7.3025      0.00000

 k-point   232 :      -0.4250   -0.4750    0.2750
  band No.  band energies     occupation 
      1       2.9137     -0.00000
      2       3.7869     -0.00000
      3       4.8929     -0.00000
      4       7.8286      0.00000

 k-point   233 :      -0.4250   -0.4250    0.2750
  band No.  band energies     occupation 
      1       3.5017     -0.00000
      2       3.5018     -0.00000
      3       4.4786     -0.00000
      4       8.3378      0.00000

 k-point   234 :      -0.3250    0.3250    0.3250
  band No.  band energies     occupation 
      1       0.9032     -0.04388
      2       6.2936      0.00000
      3       6.4215      0.00000
      4       6.4215      0.00000

 k-point   235 :      -0.3750    0.3750    0.3250
  band No.  band energies     occupation 
      1       1.4890     -0.00000
      2       5.4760     -0.00000
      3       6.1981      0.00000
      4       6.5666      0.00000

 k-point   236 :      -0.4250    0.4250    0.3250
  band No.  band energies     occupation 
      1       2.1467     -0.00000
      2       4.5989     -0.00000
      3       6.0501      0.00000
      4       6.6201      0.00000

 k-point   237 :      -0.3750    0.4250    0.3250
  band No.  band energies     occupation 
      1       2.1097     -0.00000
      2       5.1033     -0.00000
      3       5.6935     -0.00000
      4       6.7255      0.00000

 k-point   238 :      -0.4750    0.4750    0.3250
  band No.  band energies     occupation 
      1       2.8398     -0.00000
      2       3.7894     -0.00000
      3       5.9794     -0.00000
      4       6.6099      0.00000

 k-point   239 :      -0.4250    0.4750    0.3250
  band No.  band energies     occupation 
      1       2.7868     -0.00000
      2       4.4035     -0.00000
      3       5.4404     -0.00000
      4       6.8918      0.00000

 k-point   240 :      -0.4750   -0.4750    0.3250
  band No.  band energies     occupation 
      1       3.3424     -0.00000
      2       3.8129     -0.00000
      3       5.3817     -0.00000
      4       6.9316      0.00000

 k-point   241 :      -0.4250   -0.4750    0.3250
  band No.  band energies     occupation 
      1       3.4548     -0.00000
      2       4.1013     -0.00000
      3       4.8968     -0.00000
      4       7.3323      0.00000

 k-point   242 :      -0.3750    0.3750    0.3750
  band No.  band energies     occupation 
      1       2.0687     -0.00000
      2       5.7644     -0.00000
      3       5.9750     -0.00000
      4       5.9751     -0.00000

 k-point   243 :      -0.4250    0.4250    0.3750
  band No.  band energies     occupation 
      1       2.7181     -0.00000
      2       5.0738     -0.00000
      3       5.8306     -0.00000
      4       6.1571      0.00000

 k-point   244 :      -0.4750    0.4750    0.3750
  band No.  band energies     occupation 
      1       3.3999     -0.00000
      2       4.3081     -0.00000
      3       5.7565     -0.00000
      4       6.2561      0.00000

 k-point   245 :      -0.4250    0.4750    0.3750
  band No.  band energies     occupation 
      1       3.3834     -0.00000
      2       4.7755     -0.00000
      3       5.3971     -0.00000
      4       6.4079      0.00000

 k-point   246 :      -0.4750   -0.4750    0.3750
  band No.  band energies     occupation 
      1       3.9378     -0.00000
      2       4.2924     -0.00000
      3       5.2483     -0.00000
      4       6.5924      0.00000

 k-point   247 :      -0.4250    0.4250    0.4250
  band No.  band energies     occupation 
      1       3.3541     -0.00000
      2       5.4168     -0.00000
      3       5.6822     -0.00000
      4       5.6823     -0.00000

 k-point   248 :      -0.4750    0.4750    0.4250
  band No.  band energies     occupation 
      1       4.0222     -0.00000
      2       4.8389     -0.00000
      3       5.6080     -0.00000
      4       5.8983     -0.00000

 k-point   249 :      -0.4750   -0.4750    0.4250
  band No.  band energies     occupation 
      1       4.6105     -0.00000
      2       4.6105     -0.00000
      3       5.3309     -0.00000
      4       6.2481      0.00000

 k-point   250 :      -0.4750    0.4750    0.4750
  band No.  band energies     occupation 
      1       4.6868     -0.00000
      2       5.2428     -0.00000
      3       5.5337     -0.00000
      4       5.5337     -0.00000


--------------------------------------------------------------------------------------------------------


 soft charge-density along one line, spin component           1
         0         1         2         3         4         5         6         7         8         9
 total charge-density along one line
 
 pseudopotential strength for first ion, spin component:           1
  1.492   0.000  -0.010   0.000   0.000   0.000   0.000   0.000   0.000   0.000
 -0.010   0.000  -0.030   0.000   0.000   0.000   0.000   0.000   0.000   0.000
  0.000   0.000   0.000   0.000   4.721   0.000   0.000   0.000   0.000   0.000
  0.000   0.000   0.000   0.000   0.000   0.000   4.721   0.000   0.000   0.000
  0.000   0.000   0.000   0.000   0.000   0.000   0.000   0.000   4.721   0.000
 total augmentation occupancy for first ion, spin component:           1
  0.912   0.043   0.000   0.000   0.000
  0.043   0.003   0.000   0.000   0.000
  0.000   0.000   0.017   0.000   0.000
  0.000   0.000   0.000   0.017   0.000
  0.000   0.000   0.000  -0.000   0.017


------------------------ aborting loop because EDIFF is reached ----------------------------------------


    CHARGE:  cpu time    0.0078: real time    0.0078
    FORLOC:  cpu time    0.0003: real time    0.0003
    FORNL :  cpu time    0.0049: real time    0.0179
    STRESS:  cpu time    0.0437: real time    0.0828
    FORCOR:  cpu time    0.0016: real time    0.0017
    FORHAR:  cpu time    0.0012: real time    0.0012
    MIXING:  cpu time    0.0003: real time    0.0003
    OFIELD:  cpu time    0.0000: real time    0.0000

  FORCE on cell =-STRESS in cart. coord.  units (eV):
  Direction    XX          YY          ZZ          XY          YZ          ZX
  --------------------------------------------------------------------------------------
  Alpha Z    -0.57329    -0.57329    -0.57329
  Ewald      -2.10459    -2.10459    -2.10459    -0.00000    -0.00000    -0.00000
  Hartree     0.00452     0.00452     0.00452    -0.00000    -0.00000    -0.00000
  E(xc)      -2.16763    -2.16763    -2.16763    -0.00000    -0.00000    -0.00000
  Local       0.43655     0.43655     0.43655     0.00001     0.00001     0.00001
  n-local     2.56534     2.56131     2.56054    -0.01343     0.00858     0.00947
  augment     0.11897     0.11897     0.11897    -0.00000    -0.00000    -0.00000
  Kinetic     2.48511     1.20288     1.05893    -0.59557     0.42956     0.63302
  Fock        0.00000     0.00000     0.00000     0.00000     0.00000     0.00000
  -------------------------------------------------------------------------------------
  Total      -0.14076    -0.14076    -0.14076    -0.00000    -0.00000     0.00000
  in kB      -6.31083    -6.31083    -6.31083    -0.00000    -0.00000     0.00000
  external pressure =       -6.31 kB  Pullay stress =        0.00 kB


 VOLUME and BASIS-vectors are now :
 -----------------------------------------------------------------------------
  energy-cutoff  :      101.96
  volume of cell :       35.74
      direct lattice vectors                 reciprocal lattice vectors
    -2.075000000  2.075000000  2.075000000     0.000000000  0.240963855  0.240963855
     2.075000000 -2.075000000  2.075000000     0.240963855  0.000000000  0.240963855
     2.075000000  2.075000000 -2.075000000     0.240963855  0.240963855  0.000000000

  length of vectors
     3.594005426  3.594005426  3.594005426     0.340774352  0.340774352  0.340774352


 FORCES acting on ions
    electron-ion (+dipol)            ewald-force                    non-local-force                 convergence-correction
 -----------------------------------------------------------------------------------------------
   0.434E-14 0.676E-14 0.627E-14   0.309E-17 0.153E-16 0.164E-16   -.569E-24 0.465E-24 0.155E-24   -.541E-17 -.565E-17 -.547E-17
 -----------------------------------------------------------------------------------------------
   0.434E-14 0.676E-14 0.627E-14   0.309E-17 0.153E-16 0.164E-16   -.569E-24 0.465E-24 0.155E-24   -.541E-17 -.565E-17 -.547E-17
 
 
 POSITION                                       TOTAL-FORCE (eV/Angst)
 -----------------------------------------------------------------------------------
      0.00000      0.00000      0.00000         0.000000      0.000000      0.000000
 -----------------------------------------------------------------------------------
    total drift:                                0.000000      0.000000      0.000000


--------------------------------------------------------------------------------------------------------



  FREE ENERGIE OF THE ION-ELECTRON SYSTEM (eV)
  ---------------------------------------------------
  free  energy   TOTEN  =        -1.44388275 eV

  energy  without entropy=       -1.44333273  energy(sigma->0) =       -1.44369941
 


--------------------------------------------------------------------------------------------------------


    POTLOK:  cpu time    0.0029: real time    0.0029


--------------------------------------------------------------------------------------------------------


     LOOP+:  cpu time    1.0291: real time    2.2938
    4ORBIT:  cpu time    0.0000: real time    0.0000

volume of typ            1:    63.6 %
 
total charge     
 
# of ion       s       p       d       tot
------------------------------------------
    1        0.338   0.146   0.014   0.497
 
orbital moment (x)
 
# of ion     s             p             d             tot
-----------------------------------------------------------------
    1     0.000000E+00 -0.301934E-09 -0.228701E-09 -0.530635E-09
 
orbital moment (y)
 
# of ion     s             p             d             tot
-----------------------------------------------------------------
    1     0.000000E+00 -0.222732E-09 -0.373930E-09 -0.596663E-09
 
orbital moment (z)
 
# of ion     s             p             d             tot
-----------------------------------------------------------------
    1     0.000000E+00  0.107379E-08  0.194131E-09  0.126792E-08
 

 total amount of memory used by VASP MPI-rank0    33690. kBytes
=======================================================================

   base      :      30000. kBytes
   nonl-proj :        921. kBytes
   fftplans  :        544. kBytes
   grid      :        672. kBytes
   one-center:          1. kBytes
   wavefun   :       1552. kBytes
 
  
  
 General timing and accounting informations for this job:
 ========================================================
  
                  Total CPU time used (sec):        1.529
                            User time (sec):        1.249
                          System time (sec):        0.279
                         Elapsed time (sec):        3.588
  
                   Maximum memory used (kb):       55428.
                   Average memory used (kb):           0.
  
                          Minor page faults:         6025
                          Major page faults:            0
                 Voluntary context switches:          213
