<?xml version="1.0" encoding="ISO-8859-1"?>
<modeling>
 <generator>
  <i name="program" type="string">vasp </i>
  <i name="version" type="string">5.4.4.18Apr17-6-g9f103f2a35  </i>
  <i name="subversion" type="string">(build May 20 2018 16:52:39) complex            parallel </i>
  <i name="platform" type="string">LinuxIFC </i>
  <i name="date" type="string">2022 10 30 </i>
  <i name="time" type="string">22:53:20 </i>
 </generator>
 <incar>
  <i type="string" name="SYSTEM"> bcc Na</i>
  <i type="string" name="PREC">normal</i>
  <i name="EDIFF">      0.00000100</i>
  <v name="RWIGS">      1.75700000</v>
  <i type="logical" name="LWAVE"> F  </i>
  <v type="int" name="KPOINT_BSE">    -1     0     0     0</v>
 </incar>
 <structure name="primitive_cell" >
  <crystal>
   <varray name="basis" >
    <v>      -2.07500000       2.07500000       2.07500000 </v>
    <v>       2.07500000      -2.07500000       2.07500000 </v>
    <v>       2.07500000       2.07500000      -2.07500000 </v>
   </varray>
   <i name="volume">     35.73668750 </i>
   <varray name="rec_basis" >
    <v>       0.00000000       0.24096386       0.24096386 </v>
    <v>       0.24096386       0.00000000       0.24096386 </v>
    <v>       0.24096386       0.24096386       0.00000000 </v>
   </varray>
  </crystal>
  <varray name="positions" >
   <v>       0.00000000       0.00000000       0.00000000 </v>
  </varray>
 </structure>
 <varray name="primitive_index" >
  <v type="int" >        1 </v>
 </varray>
 <kpoints>
  <generation param="Monkhorst-Pack">
   <v type="int" name="divisions">      20       20       20 </v>
   <v name="usershift">      0.00000000       0.00000000       0.00000000 </v>
   <v name="genvec1">      0.05000000       0.00000000       0.00000000 </v>
   <v name="genvec2">      0.00000000       0.05000000       0.00000000 </v>
   <v name="genvec3">      0.00000000       0.00000000       0.05000000 </v>
   <v name="shift">      0.50000000       0.50000000       0.50000000 </v>
  </generation>
  <varray name="kpointlist" >
   <v>       0.02500000       0.02500000       0.02500000 </v>
   <v>       0.07500000       0.02500000       0.02500000 </v>
   <v>       0.12500000       0.02500000       0.02500000 </v>
   <v>       0.17500000       0.02500000       0.02500000 </v>
   <v>       0.22500000       0.02500000       0.02500000 </v>
   <v>       0.27500000       0.02500000       0.02500000 </v>
   <v>       0.32500000       0.02500000       0.02500000 </v>
   <v>       0.37500000       0.02500000       0.02500000 </v>
   <v>       0.42500000       0.02500000       0.02500000 </v>
   <v>       0.47500000       0.02500000       0.02500000 </v>
   <v>      -0.02500000       0.02500000       0.02500000 </v>
   <v>       0.07500000       0.07500000       0.02500000 </v>
   <v>       0.12500000       0.07500000       0.02500000 </v>
   <v>       0.17500000       0.07500000       0.02500000 </v>
   <v>       0.22500000       0.07500000       0.02500000 </v>
   <v>       0.27500000       0.07500000       0.02500000 </v>
   <v>       0.32500000       0.07500000       0.02500000 </v>
   <v>       0.37500000       0.07500000       0.02500000 </v>
   <v>       0.42500000       0.07500000       0.02500000 </v>
   <v>      -0.07500000       0.07500000       0.02500000 </v>
   <v>       0.12500000       0.12500000       0.02500000 </v>
   <v>       0.17500000       0.12500000       0.02500000 </v>
   <v>       0.22500000       0.12500000       0.02500000 </v>
   <v>       0.27500000       0.12500000       0.02500000 </v>
   <v>       0.32500000       0.12500000       0.02500000 </v>
   <v>       0.37500000       0.12500000       0.02500000 </v>
   <v>       0.42500000       0.12500000       0.02500000 </v>
   <v>      -0.12500000       0.12500000       0.02500000 </v>
   <v>      -0.07500000       0.12500000       0.02500000 </v>
   <v>       0.17500000       0.17500000       0.02500000 </v>
   <v>       0.22500000       0.17500000       0.02500000 </v>
   <v>       0.27500000       0.17500000       0.02500000 </v>
   <v>       0.32500000       0.17500000       0.02500000 </v>
   <v>       0.37500000       0.17500000       0.02500000 </v>
   <v>      -0.17500000       0.17500000       0.02500000 </v>
   <v>      -0.12500000       0.17500000       0.02500000 </v>
   <v>       0.22500000       0.22500000       0.02500000 </v>
   <v>       0.27500000       0.22500000       0.02500000 </v>
   <v>       0.32500000       0.22500000       0.02500000 </v>
   <v>       0.37500000       0.22500000       0.02500000 </v>
   <v>      -0.22500000       0.22500000       0.02500000 </v>
   <v>      -0.17500000       0.22500000       0.02500000 </v>
   <v>      -0.12500000       0.22500000       0.02500000 </v>
   <v>       0.27500000       0.27500000       0.02500000 </v>
   <v>       0.32500000       0.27500000       0.02500000 </v>
   <v>      -0.27500000       0.27500000       0.02500000 </v>
   <v>      -0.22500000       0.27500000       0.02500000 </v>
   <v>      -0.17500000       0.27500000       0.02500000 </v>
   <v>       0.32500000       0.32500000       0.02500000 </v>
   <v>      -0.32500000       0.32500000       0.02500000 </v>
   <v>      -0.27500000       0.32500000       0.02500000 </v>
   <v>      -0.22500000       0.32500000       0.02500000 </v>
   <v>      -0.17500000       0.32500000       0.02500000 </v>
   <v>      -0.37500000       0.37500000       0.02500000 </v>
   <v>      -0.32500000       0.37500000       0.02500000 </v>
   <v>      -0.27500000       0.37500000       0.02500000 </v>
   <v>      -0.22500000       0.37500000       0.02500000 </v>
   <v>      -0.42500000       0.42500000       0.02500000 </v>
   <v>      -0.37500000       0.42500000       0.02500000 </v>
   <v>      -0.32500000       0.42500000       0.02500000 </v>
   <v>      -0.27500000       0.42500000       0.02500000 </v>
   <v>      -0.22500000       0.42500000       0.02500000 </v>
   <v>      -0.47500000       0.47500000       0.02500000 </v>
   <v>      -0.42500000       0.47500000       0.02500000 </v>
   <v>      -0.37500000       0.47500000       0.02500000 </v>
   <v>      -0.32500000       0.47500000       0.02500000 </v>
   <v>      -0.27500000       0.47500000       0.02500000 </v>
   <v>      -0.47500000      -0.47500000       0.02500000 </v>
   <v>      -0.42500000      -0.47500000       0.02500000 </v>
   <v>      -0.37500000      -0.47500000       0.02500000 </v>
   <v>      -0.32500000      -0.47500000       0.02500000 </v>
   <v>      -0.27500000      -0.47500000       0.02500000 </v>
   <v>      -0.42500000      -0.42500000       0.02500000 </v>
   <v>      -0.37500000      -0.42500000       0.02500000 </v>
   <v>      -0.32500000      -0.42500000       0.02500000 </v>
   <v>      -0.37500000      -0.37500000       0.02500000 </v>
   <v>      -0.32500000      -0.37500000       0.02500000 </v>
   <v>       0.07500000       0.07500000       0.07500000 </v>
   <v>       0.12500000       0.07500000       0.07500000 </v>
   <v>       0.17500000       0.07500000       0.07500000 </v>
   <v>       0.22500000       0.07500000       0.07500000 </v>
   <v>       0.27500000       0.07500000       0.07500000 </v>
   <v>       0.32500000       0.07500000       0.07500000 </v>
   <v>       0.37500000       0.07500000       0.07500000 </v>
   <v>       0.42500000       0.07500000       0.07500000 </v>
   <v>      -0.07500000       0.07500000       0.07500000 </v>
   <v>       0.12500000       0.12500000       0.07500000 </v>
   <v>       0.17500000       0.12500000       0.07500000 </v>
   <v>       0.22500000       0.12500000       0.07500000 </v>
   <v>       0.27500000       0.12500000       0.07500000 </v>
   <v>       0.32500000       0.12500000       0.07500000 </v>
   <v>       0.37500000       0.12500000       0.07500000 </v>
   <v>      -0.12500000       0.12500000       0.07500000 </v>
   <v>       0.17500000       0.17500000       0.07500000 </v>
   <v>       0.22500000       0.17500000       0.07500000 </v>
   <v>       0.27500000       0.17500000       0.07500000 </v>
   <v>       0.32500000       0.17500000       0.07500000 </v>
   <v>       0.37500000       0.17500000       0.07500000 </v>
   <v>      -0.17500000       0.17500000       0.07500000 </v>
   <v>      -0.12500000       0.17500000       0.07500000 </v>
   <v>       0.22500000       0.22500000       0.07500000 </v>
   <v>       0.27500000       0.22500000       0.07500000 </v>
   <v>       0.32500000       0.22500000       0.07500000 </v>
   <v>      -0.22500000       0.22500000       0.07500000 </v>
   <v>      -0.17500000       0.22500000       0.07500000 </v>
   <v>       0.27500000       0.27500000       0.07500000 </v>
   <v>       0.32500000       0.27500000       0.07500000 </v>
   <v>      -0.27500000       0.27500000       0.07500000 </v>
   <v>      -0.22500000       0.27500000       0.07500000 </v>
   <v>      -0.17500000       0.27500000       0.07500000 </v>
   <v>      -0.32500000       0.32500000       0.07500000 </v>
   <v>      -0.27500000       0.32500000       0.07500000 </v>
   <v>      -0.22500000       0.32500000       0.07500000 </v>
   <v>      -0.37500000       0.37500000       0.07500000 </v>
   <v>      -0.32500000       0.37500000       0.07500000 </v>
   <v>      -0.27500000       0.37500000       0.07500000 </v>
   <v>      -0.22500000       0.37500000       0.07500000 </v>
   <v>      -0.42500000       0.42500000       0.07500000 </v>
   <v>      -0.37500000       0.42500000       0.07500000 </v>
   <v>      -0.32500000       0.42500000       0.07500000 </v>
   <v>      -0.27500000       0.42500000       0.07500000 </v>
   <v>      -0.47500000       0.47500000       0.07500000 </v>
   <v>      -0.42500000       0.47500000       0.07500000 </v>
   <v>      -0.37500000       0.47500000       0.07500000 </v>
   <v>      -0.32500000       0.47500000       0.07500000 </v>
   <v>      -0.27500000       0.47500000       0.07500000 </v>
   <v>      -0.47500000      -0.47500000       0.07500000 </v>
   <v>      -0.42500000      -0.47500000       0.07500000 </v>
   <v>      -0.37500000      -0.47500000       0.07500000 </v>
   <v>      -0.32500000      -0.47500000       0.07500000 </v>
   <v>      -0.42500000      -0.42500000       0.07500000 </v>
   <v>      -0.37500000      -0.42500000       0.07500000 </v>
   <v>      -0.32500000      -0.42500000       0.07500000 </v>
   <v>      -0.37500000      -0.37500000       0.07500000 </v>
   <v>       0.12500000       0.12500000       0.12500000 </v>
   <v>       0.17500000       0.12500000       0.12500000 </v>
   <v>       0.22500000       0.12500000       0.12500000 </v>
   <v>       0.27500000       0.12500000       0.12500000 </v>
   <v>       0.32500000       0.12500000       0.12500000 </v>
   <v>       0.37500000       0.12500000       0.12500000 </v>
   <v>      -0.12500000       0.12500000       0.12500000 </v>
   <v>       0.17500000       0.17500000       0.12500000 </v>
   <v>       0.22500000       0.17500000       0.12500000 </v>
   <v>       0.27500000       0.17500000       0.12500000 </v>
   <v>       0.32500000       0.17500000       0.12500000 </v>
   <v>      -0.17500000       0.17500000       0.12500000 </v>
   <v>       0.22500000       0.22500000       0.12500000 </v>
   <v>       0.27500000       0.22500000       0.12500000 </v>
   <v>       0.32500000       0.22500000       0.12500000 </v>
   <v>      -0.22500000       0.22500000       0.12500000 </v>
   <v>      -0.17500000       0.22500000       0.12500000 </v>
   <v>       0.27500000       0.27500000       0.12500000 </v>
   <v>      -0.27500000       0.27500000       0.12500000 </v>
   <v>      -0.22500000       0.27500000       0.12500000 </v>
   <v>      -0.32500000       0.32500000       0.12500000 </v>
   <v>      -0.27500000       0.32500000       0.12500000 </v>
   <v>      -0.22500000       0.32500000       0.12500000 </v>
   <v>      -0.37500000       0.37500000       0.12500000 </v>
   <v>      -0.32500000       0.37500000       0.12500000 </v>
   <v>      -0.27500000       0.37500000       0.12500000 </v>
   <v>      -0.42500000       0.42500000       0.12500000 </v>
   <v>      -0.37500000       0.42500000       0.12500000 </v>
   <v>      -0.32500000       0.42500000       0.12500000 </v>
   <v>      -0.27500000       0.42500000       0.12500000 </v>
   <v>      -0.47500000       0.47500000       0.12500000 </v>
   <v>      -0.42500000       0.47500000       0.12500000 </v>
   <v>      -0.37500000       0.47500000       0.12500000 </v>
   <v>      -0.32500000       0.47500000       0.12500000 </v>
   <v>      -0.47500000      -0.47500000       0.12500000 </v>
   <v>      -0.42500000      -0.47500000       0.12500000 </v>
   <v>      -0.37500000      -0.47500000       0.12500000 </v>
   <v>      -0.32500000      -0.47500000       0.12500000 </v>
   <v>      -0.42500000      -0.42500000       0.12500000 </v>
   <v>      -0.37500000      -0.42500000       0.12500000 </v>
   <v>      -0.37500000      -0.37500000       0.12500000 </v>
   <v>       0.17500000       0.17500000       0.17500000 </v>
   <v>       0.22500000       0.17500000       0.17500000 </v>
   <v>       0.27500000       0.17500000       0.17500000 </v>
   <v>       0.32500000       0.17500000       0.17500000 </v>
   <v>      -0.17500000       0.17500000       0.17500000 </v>
   <v>       0.22500000       0.22500000       0.17500000 </v>
   <v>       0.27500000       0.22500000       0.17500000 </v>
   <v>      -0.22500000       0.22500000       0.17500000 </v>
   <v>       0.27500000       0.27500000       0.17500000 </v>
   <v>      -0.27500000       0.27500000       0.17500000 </v>
   <v>      -0.22500000       0.27500000       0.17500000 </v>
   <v>      -0.32500000       0.32500000       0.17500000 </v>
   <v>      -0.27500000       0.32500000       0.17500000 </v>
   <v>      -0.37500000       0.37500000       0.17500000 </v>
   <v>      -0.32500000       0.37500000       0.17500000 </v>
   <v>      -0.27500000       0.37500000       0.17500000 </v>
   <v>      -0.42500000       0.42500000       0.17500000 </v>
   <v>      -0.37500000       0.42500000       0.17500000 </v>
   <v>      -0.32500000       0.42500000       0.17500000 </v>
   <v>      -0.47500000       0.47500000       0.17500000 </v>
   <v>      -0.42500000       0.47500000       0.17500000 </v>
   <v>      -0.37500000       0.47500000       0.17500000 </v>
   <v>      -0.32500000       0.47500000       0.17500000 </v>
   <v>      -0.47500000      -0.47500000       0.17500000 </v>
   <v>      -0.42500000      -0.47500000       0.17500000 </v>
   <v>      -0.37500000      -0.47500000       0.17500000 </v>
   <v>      -0.42500000      -0.42500000       0.17500000 </v>
   <v>      -0.37500000      -0.42500000       0.17500000 </v>
   <v>       0.22500000       0.22500000       0.22500000 </v>
   <v>       0.27500000       0.22500000       0.22500000 </v>
   <v>      -0.22500000       0.22500000       0.22500000 </v>
   <v>      -0.27500000       0.27500000       0.22500000 </v>
   <v>      -0.32500000       0.32500000       0.22500000 </v>
   <v>      -0.27500000       0.32500000       0.22500000 </v>
   <v>      -0.37500000       0.37500000       0.22500000 </v>
   <v>      -0.32500000       0.37500000       0.22500000 </v>
   <v>      -0.42500000       0.42500000       0.22500000 </v>
   <v>      -0.37500000       0.42500000       0.22500000 </v>
   <v>      -0.32500000       0.42500000       0.22500000 </v>
   <v>      -0.47500000       0.47500000       0.22500000 </v>
   <v>      -0.42500000       0.47500000       0.22500000 </v>
   <v>      -0.37500000       0.47500000       0.22500000 </v>
   <v>      -0.47500000      -0.47500000       0.22500000 </v>
   <v>      -0.42500000      -0.47500000       0.22500000 </v>
   <v>      -0.37500000      -0.47500000       0.22500000 </v>
   <v>      -0.42500000      -0.42500000       0.22500000 </v>
   <v>      -0.27500000       0.27500000       0.27500000 </v>
   <v>      -0.32500000       0.32500000       0.27500000 </v>
   <v>      -0.37500000       0.37500000       0.27500000 </v>
   <v>      -0.32500000       0.37500000       0.27500000 </v>
   <v>      -0.42500000       0.42500000       0.27500000 </v>
   <v>      -0.37500000       0.42500000       0.27500000 </v>
   <v>      -0.47500000       0.47500000       0.27500000 </v>
   <v>      -0.42500000       0.47500000       0.27500000 </v>
   <v>      -0.37500000       0.47500000       0.27500000 </v>
   <v>      -0.47500000      -0.47500000       0.27500000 </v>
   <v>      -0.42500000      -0.47500000       0.27500000 </v>
   <v>      -0.42500000      -0.42500000       0.27500000 </v>
   <v>      -0.32500000       0.32500000       0.32500000 </v>
   <v>      -0.37500000       0.37500000       0.32500000 </v>
   <v>      -0.42500000       0.42500000       0.32500000 </v>
   <v>      -0.37500000       0.42500000       0.32500000 </v>
   <v>      -0.47500000       0.47500000       0.32500000 </v>
   <v>      -0.42500000       0.47500000       0.32500000 </v>
   <v>      -0.47500000      -0.47500000       0.32500000 </v>
   <v>      -0.42500000      -0.47500000       0.32500000 </v>
   <v>      -0.37500000       0.37500000       0.37500000 </v>
   <v>      -0.42500000       0.42500000       0.37500000 </v>
   <v>      -0.47500000       0.47500000       0.37500000 </v>
   <v>      -0.42500000       0.47500000       0.37500000 </v>
   <v>      -0.47500000      -0.47500000       0.37500000 </v>
   <v>      -0.42500000       0.42500000       0.42500000 </v>
   <v>      -0.47500000       0.47500000       0.42500000 </v>
   <v>      -0.47500000      -0.47500000       0.42500000 </v>
   <v>      -0.47500000       0.47500000       0.47500000 </v>
  </varray>
  <varray name="weights" >
   <v>       0.00100000 </v>
   <v>       0.00300000 </v>
   <v>       0.00300000 </v>
   <v>       0.00300000 </v>
   <v>       0.00300000 </v>
   <v>       0.00300000 </v>
   <v>       0.00300000 </v>
   <v>       0.00300000 </v>
   <v>       0.00300000 </v>
   <v>       0.00150000 </v>
   <v>       0.00075000 </v>
   <v>       0.00300000 </v>
   <v>       0.00600000 </v>
   <v>       0.00600000 </v>
   <v>       0.00600000 </v>
   <v>       0.00600000 </v>
   <v>       0.00600000 </v>
   <v>       0.00600000 </v>
   <v>       0.00600000 </v>
   <v>       0.00300000 </v>
   <v>       0.00300000 </v>
   <v>       0.00600000 </v>
   <v>       0.00600000 </v>
   <v>       0.00600000 </v>
   <v>       0.00600000 </v>
   <v>       0.00600000 </v>
   <v>       0.00300000 </v>
   <v>       0.00300000 </v>
   <v>       0.00300000 </v>
   <v>       0.00300000 </v>
   <v>       0.00600000 </v>
   <v>       0.00600000 </v>
   <v>       0.00600000 </v>
   <v>       0.00600000 </v>
   <v>       0.00300000 </v>
   <v>       0.00600000 </v>
   <v>       0.00300000 </v>
   <v>       0.00600000 </v>
   <v>       0.00600000 </v>
   <v>       0.00300000 </v>
   <v>       0.00300000 </v>
   <v>       0.00600000 </v>
   <v>       0.00300000 </v>
   <v>       0.00300000 </v>
   <v>       0.00600000 </v>
   <v>       0.00300000 </v>
   <v>       0.00600000 </v>
   <v>       0.00600000 </v>
   <v>       0.00100000 </v>
   <v>       0.00300000 </v>
   <v>       0.00600000 </v>
   <v>       0.00600000 </v>
   <v>       0.00300000 </v>
   <v>       0.00300000 </v>
   <v>       0.00600000 </v>
   <v>       0.00600000 </v>
   <v>       0.00600000 </v>
   <v>       0.00300000 </v>
   <v>       0.00600000 </v>
   <v>       0.00600000 </v>
   <v>       0.00600000 </v>
   <v>       0.00300000 </v>
   <v>       0.00300000 </v>
   <v>       0.00600000 </v>
   <v>       0.00600000 </v>
   <v>       0.00600000 </v>
   <v>       0.00600000 </v>
   <v>       0.00300000 </v>
   <v>       0.00600000 </v>
   <v>       0.00600000 </v>
   <v>       0.00600000 </v>
   <v>       0.00300000 </v>
   <v>       0.00300000 </v>
   <v>       0.00600000 </v>
   <v>       0.00600000 </v>
   <v>       0.00300000 </v>
   <v>       0.00300000 </v>
   <v>       0.00100000 </v>
   <v>       0.00300000 </v>
   <v>       0.00300000 </v>
   <v>       0.00300000 </v>
   <v>       0.00300000 </v>
   <v>       0.00300000 </v>
   <v>       0.00300000 </v>
   <v>       0.00150000 </v>
   <v>       0.00075000 </v>
   <v>       0.00300000 </v>
   <v>       0.00600000 </v>
   <v>       0.00600000 </v>
   <v>       0.00600000 </v>
   <v>       0.00600000 </v>
   <v>       0.00600000 </v>
   <v>       0.00300000 </v>
   <v>       0.00300000 </v>
   <v>       0.00600000 </v>
   <v>       0.00600000 </v>
   <v>       0.00600000 </v>
   <v>       0.00300000 </v>
   <v>       0.00300000 </v>
   <v>       0.00300000 </v>
   <v>       0.00300000 </v>
   <v>       0.00600000 </v>
   <v>       0.00600000 </v>
   <v>       0.00300000 </v>
   <v>       0.00600000 </v>
   <v>       0.00300000 </v>
   <v>       0.00300000 </v>
   <v>       0.00300000 </v>
   <v>       0.00600000 </v>
   <v>       0.00300000 </v>
   <v>       0.00300000 </v>
   <v>       0.00600000 </v>
   <v>       0.00600000 </v>
   <v>       0.00300000 </v>
   <v>       0.00600000 </v>
   <v>       0.00600000 </v>
   <v>       0.00300000 </v>
   <v>       0.00300000 </v>
   <v>       0.00600000 </v>
   <v>       0.00600000 </v>
   <v>       0.00600000 </v>
   <v>       0.00300000 </v>
   <v>       0.00600000 </v>
   <v>       0.00600000 </v>
   <v>       0.00600000 </v>
   <v>       0.00300000 </v>
   <v>       0.00300000 </v>
   <v>       0.00600000 </v>
   <v>       0.00600000 </v>
   <v>       0.00600000 </v>
   <v>       0.00300000 </v>
   <v>       0.00600000 </v>
   <v>       0.00300000 </v>
   <v>       0.00300000 </v>
   <v>       0.00100000 </v>
   <v>       0.00300000 </v>
   <v>       0.00300000 </v>
   <v>       0.00300000 </v>
   <v>       0.00300000 </v>
   <v>       0.00150000 </v>
   <v>       0.00075000 </v>
   <v>       0.00300000 </v>
   <v>       0.00600000 </v>
   <v>       0.00600000 </v>
   <v>       0.00600000 </v>
   <v>       0.00300000 </v>
   <v>       0.00300000 </v>
   <v>       0.00600000 </v>
   <v>       0.00300000 </v>
   <v>       0.00300000 </v>
   <v>       0.00300000 </v>
   <v>       0.00300000 </v>
   <v>       0.00300000 </v>
   <v>       0.00600000 </v>
   <v>       0.00300000 </v>
   <v>       0.00600000 </v>
   <v>       0.00300000 </v>
   <v>       0.00300000 </v>
   <v>       0.00600000 </v>
   <v>       0.00600000 </v>
   <v>       0.00300000 </v>
   <v>       0.00600000 </v>
   <v>       0.00600000 </v>
   <v>       0.00300000 </v>
   <v>       0.00300000 </v>
   <v>       0.00600000 </v>
   <v>       0.00600000 </v>
   <v>       0.00600000 </v>
   <v>       0.00300000 </v>
   <v>       0.00600000 </v>
   <v>       0.00600000 </v>
   <v>       0.00300000 </v>
   <v>       0.00300000 </v>
   <v>       0.00600000 </v>
   <v>       0.00100000 </v>
   <v>       0.00100000 </v>
   <v>       0.00300000 </v>
   <v>       0.00300000 </v>
   <v>       0.00150000 </v>
   <v>       0.00075000 </v>
   <v>       0.00300000 </v>
   <v>       0.00600000 </v>
   <v>       0.00300000 </v>
   <v>       0.00100000 </v>
   <v>       0.00300000 </v>
   <v>       0.00300000 </v>
   <v>       0.00300000 </v>
   <v>       0.00600000 </v>
   <v>       0.00300000 </v>
   <v>       0.00600000 </v>
   <v>       0.00300000 </v>
   <v>       0.00300000 </v>
   <v>       0.00600000 </v>
   <v>       0.00600000 </v>
   <v>       0.00300000 </v>
   <v>       0.00600000 </v>
   <v>       0.00600000 </v>
   <v>       0.00300000 </v>
   <v>       0.00300000 </v>
   <v>       0.00600000 </v>
   <v>       0.00600000 </v>
   <v>       0.00300000 </v>
   <v>       0.00300000 </v>
   <v>       0.00100000 </v>
   <v>       0.00150000 </v>
   <v>       0.00075000 </v>
   <v>       0.00300000 </v>
   <v>       0.00300000 </v>
   <v>       0.00300000 </v>
   <v>       0.00300000 </v>
   <v>       0.00600000 </v>
   <v>       0.00300000 </v>
   <v>       0.00600000 </v>
   <v>       0.00300000 </v>
   <v>       0.00300000 </v>
   <v>       0.00600000 </v>
   <v>       0.00600000 </v>
   <v>       0.00300000 </v>
   <v>       0.00600000 </v>
   <v>       0.00300000 </v>
   <v>       0.00300000 </v>
   <v>       0.00075000 </v>
   <v>       0.00300000 </v>
   <v>       0.00300000 </v>
   <v>       0.00300000 </v>
   <v>       0.00300000 </v>
   <v>       0.00600000 </v>
   <v>       0.00300000 </v>
   <v>       0.00600000 </v>
   <v>       0.00300000 </v>
   <v>       0.00300000 </v>
   <v>       0.00600000 </v>
   <v>       0.00100000 </v>
   <v>       0.00075000 </v>
   <v>       0.00300000 </v>
   <v>       0.00300000 </v>
   <v>       0.00300000 </v>
   <v>       0.00300000 </v>
   <v>       0.00600000 </v>
   <v>       0.00300000 </v>
   <v>       0.00300000 </v>
   <v>       0.00075000 </v>
   <v>       0.00300000 </v>
   <v>       0.00300000 </v>
   <v>       0.00300000 </v>
   <v>       0.00300000 </v>
   <v>       0.00075000 </v>
   <v>       0.00300000 </v>
   <v>       0.00100000 </v>
   <v>       0.00075000 </v>
  </varray>
 </kpoints>
 <parameters>
  <separator name="general" >
   <i type="string" name="SYSTEM">bcc Na</i>
   <i type="logical" name="LCOMPAT"> F  </i>
  </separator>
  <separator name="electronic" >
   <i type="string" name="PREC">normal</i>
   <i name="ENMAX">    101.95600000</i>
   <i name="ENAUG">    250.69500000</i>
   <i name="EDIFF">      0.00000100</i>
   <i type="int" name="IALGO">    38</i>
   <i type="int" name="IWAVPR">    10</i>
   <i type="int" name="NBANDS">     4</i>
   <i name="NELECT">      1.00000000</i>
   <i type="int" name="TURBO">     0</i>
   <i type="int" name="IRESTART">     0</i>
   <i type="int" name="NREBOOT">     0</i>
   <i type="int" name="NMIN">     0</i>
   <i name="EREF">      0.00000000</i>
   <separator name="electronic smearing" >
    <i type="int" name="ISMEAR">     1</i>
    <i name="SIGMA">      0.20000000</i>
    <i name="KSPACING">      0.50000000</i>
    <i type="logical" name="KGAMMA"> T  </i>
   </separator>
   <separator name="electronic projectors" >
    <i type="logical" name="LREAL"> F  </i>
    <v name="ROPT">      0.00000000</v>
    <i type="int" name="LMAXPAW">  -100</i>
    <i type="int" name="LMAXMIX">     2</i>
    <i type="logical" name="NLSPLINE"> F  </i>
   </separator>
   <separator name="electronic startup" >
    <i type="int" name="ISTART">     0</i>
    <i type="int" name="ICHARG">     2</i>
    <i type="int" name="INIWAV">     1</i>
   </separator>
   <separator name="electronic spin" >
    <i type="int" name="ISPIN">     1</i>
    <i type="logical" name="LNONCOLLINEAR"> F  </i>
    <v name="MAGMOM">      1.00000000</v>
    <i name="NUPDOWN">     -1.00000000</i>
    <i type="logical" name="LSORBIT"> F  </i>
    <v name="SAXIS">      0.00000000      0.00000000      1.00000000</v>
    <i type="logical" name="LSPIRAL"> F  </i>
    <v name="QSPIRAL">      0.00000000      0.00000000      0.00000000</v>
    <i type="logical" name="LZEROZ"> F  </i>
   </separator>
   <separator name="electronic exchange-correlation" >
    <i type="logical" name="LASPH"> F  </i>
    <i type="logical" name="LMETAGGA"> F  </i>
   </separator>
   <separator name="electronic convergence" >
    <i type="int" name="NELM">    60</i>
    <i type="int" name="NELMDL">    -5</i>
    <i type="int" name="NELMIN">     2</i>
    <i name="ENINI">    101.95600000</i>
    <separator name="electronic convergence detail" >
     <i type="logical" name="LDIAG"> T  </i>
     <i type="logical" name="LSUBROT"> F  </i>
     <i name="WEIMIN">      0.00000000</i>
     <i name="EBREAK">      0.00000006</i>
     <i name="DEPER">      0.30000000</i>
     <i type="int" name="NRMM">     4</i>
     <i name="TIME">      0.40000000</i>
    </separator>
   </separator>
   <separator name="electronic mixer" >
    <i name="AMIX">      0.40000000</i>
    <i name="BMIX">      1.00000000</i>
    <i name="AMIN">      0.10000000</i>
    <i name="AMIX_MAG">      1.60000000</i>
    <i name="BMIX_MAG">      1.00000000</i>
    <separator name="electronic mixer details" >
     <i type="int" name="IMIX">     4</i>
     <i type="logical" name="MIXFIRST"> F  </i>
     <i type="int" name="MAXMIX">   -45</i>
     <i name="WC">    100.00000000</i>
     <i type="int" name="INIMIX">     1</i>
     <i type="int" name="MIXPRE">     1</i>
     <i type="int" name="MREMOVE">     5</i>
    </separator>
   </separator>
   <separator name="electronic dipolcorrection" >
    <i type="logical" name="LDIPOL"> F  </i>
    <i type="logical" name="LMONO"> F  </i>
    <i type="int" name="IDIPOL">     0</i>
    <i name="EPSILON">      1.00000000</i>
    <v name="DIPOL">   -100.00000000   -100.00000000   -100.00000000</v>
    <i name="EFIELD">      0.00000000</i>
   </separator>
  </separator>
  <separator name="grids" >
   <i type="int" name="NGX">    10</i>
   <i type="int" name="NGY">    10</i>
   <i type="int" name="NGZ">    10</i>
   <i type="int" name="NGXF">    20</i>
   <i type="int" name="NGYF">    20</i>
   <i type="int" name="NGZF">    20</i>
   <i type="logical" name="ADDGRID"> F  </i>
  </separator>
  <separator name="ionic" >
   <i type="int" name="NSW">     0</i>
   <i type="int" name="IBRION">    -1</i>
   <i type="int" name="MDALGO">     0</i>
   <i type="int" name="ISIF">     2</i>
   <i name="PSTRESS">      0.00000000</i>
   <i name="EDIFFG">      0.00001000</i>
   <i type="int" name="NFREE">     0</i>
   <i name="POTIM">      0.50000000</i>
   <i name="SMASS">     -3.00000000</i>
   <i name="SCALEE">      1.00000000</i>
  </separator>
  <separator name="ionic md" >
   <i name="TEBEG">      0.00010000</i>
   <i name="TEEND">      0.00010000</i>
   <i type="int" name="NBLOCK">     1</i>
   <i type="int" name="KBLOCK">     1</i>
   <i type="int" name="NPACO">   256</i>
   <i name="APACO">     16.00000000</i>
  </separator>
  <separator name="symmetry" >
   <i type="int" name="ISYM">     2</i>
   <i name="SYMPREC">      0.00001000</i>
  </separator>
  <separator name="dos" >
   <i type="int" name="LORBIT">     0</i>
   <v name="RWIGS">      1.75700000</v>
   <i type="int" name="NEDOS">   301</i>
   <i name="EMIN">     10.00000000</i>
   <i name="EMAX">    -10.00000000</i>
   <i name="EFERMI">      0.00000000</i>
  </separator>
  <separator name="writing" >
   <i type="int" name="NWRITE">     2</i>
   <i type="logical" name="LWAVE"> F  </i>
   <i type="logical" name="LDOWNSAMPLE"> F  </i>
   <i type="logical" name="LCHARG"> T  </i>
   <i type="logical" name="LPARD"> F  </i>
   <i type="logical" name="LVTOT"> F  </i>
   <i type="logical" name="LVHAR"> F  </i>
   <i type="logical" name="LELF"> F  </i>
   <i type="logical" name="LOPTICS"> F  </i>
   <v name="STM">      0.00000000      0.00000000      0.00000000      0.00000000      0.00000000      0.00000000      0.00000000</v>
  </separator>
  <separator name="performance" >
   <i type="int" name="NPAR">     1</i>
   <i type="int" name="NSIM">     4</i>
   <i type="int" name="NBLK">    -1</i>
   <i type="logical" name="LPLANE"> T  </i>
   <i type="logical" name="LSCALAPACK"> T  </i>
   <i type="logical" name="LSCAAWARE"> F  </i>
   <i type="logical" name="LSCALU"> F  </i>
   <i type="logical" name="LASYNC"> F  </i>
   <i type="logical" name="LORBITALREAL"> F  </i>
  </separator>
  <separator name="miscellaneous" >
   <i type="int" name="IDIOT">     3</i>
   <i type="int" name="ISPECIAL">     0</i>
   <i type="logical" name="LMUSIC"> F  </i>
   <v name="POMASS">     22.99000000</v>
   <v name="DARWINR">      0.00000000</v>
   <v name="DARWINV">      1.00000000</v>
   <i type="logical" name="LCORR"> T  </i>
  </separator>
  <i type="logical" name="GGA_COMPAT"> T  </i>
  <i type="logical" name="LBERRY"> F  </i>
  <i type="int" name="ICORELEVEL">     0</i>
  <i type="logical" name="LDAU"> F  </i>
  <i type="int" name="I_CONSTRAINED_M">     0</i>
  <separator name="electronic exchange-correlation" >
   <i type="string" name="GGA">--</i>
   <i type="int" name="VOSKOWN">     0</i>
   <i type="logical" name="LHFCALC"> F  </i>
   <i type="string" name="PRECFOCK"></i>
   <i type="logical" name="LSYMGRAD"> F  </i>
   <i type="logical" name="LHFONE"> F  </i>
   <i type="logical" name="LRHFCALC"> F  </i>
   <i type="logical" name="LTHOMAS"> F  </i>
   <i type="logical" name="LMODELHF"> F  </i>
   <i name="ENCUT4O">     -1.00000000</i>
   <i type="int" name="EXXOEP">     0</i>
   <i type="int" name="FOURORBIT">     0</i>
   <i name="AEXX">      0.00000000</i>
   <i name="HFALPHA">      0.00000000</i>
   <i name="MCALPHA">      0.00000000</i>
   <i name="ALDAX">      1.00000000</i>
   <i name="AGGAX">      1.00000000</i>
   <i name="ALDAC">      1.00000000</i>
   <i name="AGGAC">      1.00000000</i>
   <i type="int" name="NKREDX">     1</i>
   <i type="int" name="NKREDY">     1</i>
   <i type="int" name="NKREDZ">     1</i>
   <i type="logical" name="SHIFTRED"> F  </i>
   <i type="logical" name="ODDONLY"> F  </i>
   <i type="logical" name="EVENONLY"> F  </i>
   <i type="int" name="LMAXFOCK">     0</i>
   <i type="int" name="NMAXFOCKAE">     0</i>
   <i type="logical" name="LFOCKAEDFT"> F  </i>
   <i name="HFSCREEN">      0.00000000</i>
   <i name="HFSCREENC">      0.00000000</i>
   <i type="int" name="NBANDSGWLOW">     0</i>
  </separator>
  <separator name="vdW DFT" >
   <i type="logical" name="LUSE_VDW"> F  </i>
   <i name="Zab_VDW">     -0.84910000</i>
   <i name="PARAM1">      0.12340000</i>
   <i name="PARAM2">      1.00000000</i>
   <i name="PARAM3">      0.00000000</i>
  </separator>
  <separator name="model GW" >
   <i type="int" name="MODEL_GW">     0</i>
   <i name="MODEL_EPS0">     21.44201250</i>
   <i name="MODEL_ALPHA">      1.00000000</i>
  </separator>
  <separator name="linear response parameters" >
   <i type="logical" name="LEPSILON"> F  </i>
   <i type="logical" name="LRPA"> F  </i>
   <i type="logical" name="LNABLA"> F  </i>
   <i type="logical" name="LVEL"> F  </i>
   <i type="int" name="KINTER">     0</i>
   <i name="CSHIFT">      0.10000000</i>
   <i name="OMEGAMAX">     -1.00000000</i>
   <i name="DEG_THRESHOLD">      0.00200000</i>
   <i name="RTIME">     -0.10000000</i>
   <i name="WPLASMAI">      0.00000000</i>
   <v name="DFIELD">      0.00000000      0.00000000      0.00000000</v>
   <v name="WPLASMA">      0.00000000      0.00000000      0.00000000      0.00000000      0.00000000      0.00000000      0.00000000      0.00000000      0.00000000</v>
  </separator>
  <separator name="orbital magnetization" >
   <i type="logical" name="NUCIND"> F  </i>
   <v name="MAGPOS">      0.00000000      0.00000000      0.00000000</v>
   <i type="logical" name="LNICSALL"> T  </i>
   <i type="logical" name="ORBITALMAG"> F  </i>
   <i type="logical" name="LMAGBLOCH"> F  </i>
   <i type="logical" name="LCHIMAG"> F  </i>
   <i type="logical" name="LGAUGE"> T  </i>
   <i type="int" name="MAGATOM">     0</i>
   <v name="MAGDIPOL">      0.00000000      0.00000000      0.00000000</v>
   <v name="AVECCONST">      0.00000000      0.00000000      0.00000000</v>
  </separator>
  <separator name="response functions" >
   <i type="logical" name="LADDER"> F  </i>
   <i type="logical" name="LRPAFORCE"> F  </i>
   <i type="logical" name="LFXC"> F  </i>
   <i type="logical" name="LHARTREE"> T  </i>
   <i type="int" name="IBSE">     0</i>
   <v type="int" name="KPOINT">    -1     0     0     0</v>
   <i type="logical" name="LTCTE"> F  </i>
   <i type="logical" name="LTETE"> F  </i>
   <i type="logical" name="LTRIPLET"> F  </i>
   <i type="logical" name="LFXCEPS"> F  </i>
   <i type="logical" name="LFXHEG"> F  </i>
   <i type="int" name="NATURALO">     2</i>
   <i type="logical" name="L2ORDER"> F  </i>
   <i type="logical" name="LMP2LT"> F  </i>
   <i type="logical" name="LUSEW"> F  </i>
   <i name="ENCUTGW">     -2.00000000</i>
   <i name="ENCUTGWSOFT">     -2.00000000</i>
   <i name="ENCUTLF">     -1.00000000</i>
   <i type="int" name="LMAXMP2">    -1</i>
   <i name="SCISSOR">      0.00000000</i>
   <i type="int" name="NOMEGA">     0</i>
   <i type="int" name="NOMEGAR">     0</i>
   <i type="int" name="NBANDSGW">    -1</i>
   <i type="int" name="NBANDSO">    -1</i>
   <i type="int" name="NBANDSV">    -1</i>
   <i type="int" name="NELM">     1</i>
   <i type="int" name="NELMHF">     1</i>
   <i type="int" name="DIM">     3</i>
   <i type="int" name="ANTIRES">     0</i>
   <i name="OMEGAMAX">    -30.00000000</i>
   <i name="OMEGAMIN">    -30.00000000</i>
   <i name="OMEGATL">   -200.00000000</i>
   <i type="int" name="OMEGAGRID">   140</i>
   <i name="CSHIFT">     -0.10000000</i>
   <i type="logical" name="SELFENERGY"> F  </i>
   <i type="logical" name="LSPECTRAL"> F  </i>
   <i type="logical" name="LSPECTRALGW"> F  </i>
   <i type="logical" name="LSINGLES"> F  </i>
   <i type="logical" name="LFERMIGW"> F  </i>
   <i type="logical" name="ODDONLYGW"> F  </i>
   <i type="logical" name="EVENONLYGW"> F  </i>
   <i type="int" name="NKREDLFX">     1</i>
   <i type="int" name="NKREDLFY">     1</i>
   <i type="int" name="NKREDLFZ">     1</i>
   <i type="int" name="MAXMEM">  2800</i>
   <i type="int" name="TELESCOPE">     0</i>
   <i type="int" name="TAUPAR">     1</i>
   <i type="int" name="OMEGAPAR">    -1</i>
   <i name="LAMBDA">      1.00000000</i>
  </separator>
  <separator name="External order field" >
   <i name="OFIELD_KAPPA">      0.00000000</i>
   <v name="OFIELD_K">      0.00000000      0.00000000      0.00000000</v>
   <i name="OFIELD_Q6_NEAR">      0.00000000</i>
   <i name="OFIELD_Q6_FAR">      0.00000000</i>
   <i name="OFIELD_A">      0.00000000</i>
  </separator>
 </parameters>
 <atominfo>
  <atoms>       1 </atoms>
  <types>       1 </types>
  <array name="atoms" >
   <dimension dim="1">ion</dimension>
   <field type="string">element</field>
   <field type="int">atomtype</field>
   <set>
    <rc><c>Na</c><c>   1</c></rc>
   </set>
  </array>
  <array name="atomtypes" >
   <dimension dim="1">type</dimension>
   <field type="int">atomspertype</field>
   <field type="string">element</field>
   <field>mass</field>
   <field>valence</field>
   <field type="string">pseudopotential</field>
   <set>
    <rc><c>   1</c><c>Na</c><c>     22.99000000</c><c>      1.00000000</c><c>  PAW Na                                </c></rc>
   </set>
  </array>
 </atominfo>
 <structure name="initialpos" >
  <crystal>
   <varray name="basis" >
    <v>      -2.07500000       2.07500000       2.07500000 </v>
    <v>       2.07500000      -2.07500000       2.07500000 </v>
    <v>       2.07500000       2.07500000      -2.07500000 </v>
   </varray>
   <i name="volume">     35.73668750 </i>
   <varray name="rec_basis" >
    <v>       0.00000000       0.24096386       0.24096386 </v>
    <v>       0.24096386       0.00000000       0.24096386 </v>
    <v>       0.24096386       0.24096386       0.00000000 </v>
   </varray>
  </crystal>
  <varray name="positions" >
   <v>       0.00000000       0.00000000       0.00000000 </v>
  </varray>
 </structure>
 <calculation>
  <scstep>
   <time name="dav">    0.09    0.28</time>
   <time name="total">    0.10    0.29</time>
   <energy>
    <i name="alphaZ">     -0.57328679 </i>
    <i name="ewald">     -6.31375748 </i>
    <i name="hartreedc">     -0.00325739 </i>
    <i name="XCdc">    -35.75513363 </i>
    <i name="pawpsdc">     36.61933760 </i>
    <i name="pawaedc">      0.11055659 </i>
    <i name="eentropy">      0.00118338 </i>
    <i name="bandstr">     -0.63945777 </i>
    <i name="atom">      5.18795064 </i>
    <i name="e_fr_energy">     -1.36586486 </i>
    <i name="e_wo_entrp">     -1.36704823 </i>
    <i name="e_0_energy">     -1.36625932 </i>
   </energy>
  </scstep>
  <scstep>
   <time name="dav">    0.11    0.26</time>
   <time name="total">    0.11    0.28</time>
   <energy>
    <i name="e_fr_energy">     -1.44451762 </i>
    <i name="e_wo_entrp">     -1.44396466 </i>
    <i name="e_0_energy">     -1.44433330 </i>
   </energy>
  </scstep>
  <scstep>
   <time name="dav">    0.10    0.20</time>
   <time name="total">    0.10    0.22</time>
   <energy>
    <i name="e_fr_energy">     -1.44478352 </i>
    <i name="e_wo_entrp">     -1.44423346 </i>
    <i name="e_0_energy">     -1.44460017 </i>
   </energy>
  </scstep>
  <scstep>
   <time name="dav">    0.10    0.17</time>
   <time name="total">    0.10    0.19</time>
   <energy>
    <i name="e_fr_energy">     -1.44478414 </i>
    <i name="e_wo_entrp">     -1.44423411 </i>
    <i name="e_0_energy">     -1.44460080 </i>
   </energy>
  </scstep>
  <scstep>
   <time name="dav">    0.09    0.15</time>
   <time name="total">    0.10    0.16</time>
   <energy>
    <i name="e_fr_energy">     -1.44478414 </i>
    <i name="e_wo_entrp">     -1.44423412 </i>
    <i name="e_0_energy">     -1.44460080 </i>
   </energy>
  </scstep>
  <scstep>
   <time name="dav">    0.09    0.25</time>
   <time name="total">    0.11    0.31</time>
   <energy>
    <i name="e_fr_energy">     -1.44423669 </i>
    <i name="e_wo_entrp">     -1.44368667 </i>
    <i name="e_0_energy">     -1.44405335 </i>
   </energy>
  </scstep>
  <scstep>
   <time name="dav">    0.08    0.19</time>
   <time name="total">    0.10    0.23</time>
   <energy>
    <i name="e_fr_energy">     -1.44389068 </i>
    <i name="e_wo_entrp">     -1.44334070 </i>
    <i name="e_0_energy">     -1.44370735 </i>
   </energy>
  </scstep>
  <scstep>
   <time name="dav">    0.08    0.16</time>
   <time name="total">    0.10    0.20</time>
   <energy>
    <i name="e_fr_energy">     -1.44388276 </i>
    <i name="e_wo_entrp">     -1.44333275 </i>
    <i name="e_0_energy">     -1.44369942 </i>
   </energy>
  </scstep>
  <scstep>
   <time name="dav">    0.09    0.18</time>
   <time name="total">    0.10    0.19</time>
   <energy>
    <i name="alphaZ">     -0.57328679 </i>
    <i name="ewald">     -6.31375748 </i>
    <i name="hartreedc">     -0.01356705 </i>
    <i name="XCdc">    -35.70811289 </i>
    <i name="pawpsdc">     36.64253983 </i>
    <i name="pawaedc">      0.08357091 </i>
    <i name="eentropy">     -0.00055002 </i>
    <i name="bandstr">     -0.74866988 </i>
    <i name="atom">      5.18795064 </i>
    <i name="e_fr_energy">     -1.44388275 </i>
    <i name="e_wo_entrp">     -1.44333273 </i>
    <i name="e_0_energy">     -1.44369941 </i>
   </energy>
  </scstep>
  <structure>
   <crystal>
    <varray name="basis" >
     <v>      -2.07500000       2.07500000       2.07500000 </v>
     <v>       2.07500000      -2.07500000       2.07500000 </v>
     <v>       2.07500000       2.07500000      -2.07500000 </v>
    </varray>
    <i name="volume">     35.73668750 </i>
    <varray name="rec_basis" >
     <v>       0.00000000       0.24096386       0.24096386 </v>
     <v>       0.24096386       0.00000000       0.24096386 </v>
     <v>       0.24096386       0.24096386       0.00000000 </v>
    </varray>
   </crystal>
   <varray name="positions" >
    <v>       0.00000000       0.00000000       0.00000000 </v>
   </varray>
  </structure>
  <varray name="forces" >
   <v>       0.00000000       0.00000000       0.00000000 </v>
  </varray>
  <varray name="stress" >
   <v>      -6.31082792      -0.00000000       0.00000000 </v>
   <v>      -0.00000000      -6.31082792       0.00000000 </v>
   <v>       0.00000000      -0.00000000      -6.31082792 </v>
  </varray>
  <energy>
   <i name="e_fr_energy">     -1.44388275 </i>
   <i name="e_wo_entrp">     -1.44369941 </i>
   <i name="e_0_energy">     -0.00055002 </i>
  </energy>
  <time name="totalsc">    1.03    2.29</time>
  <eigenvalues>
   <array>
    <dimension dim="1">band</dimension>
    <dimension dim="2">kpoint</dimension>
    <dimension dim="3">spin</dimension>
    <field>eigene</field>
    <field>occ</field>
    <set>
     <set comment="spin 1">
      <set comment="kpoint 1">
       <r>   -2.7251    1.0000 </r>
       <r>   11.7432    0.0000 </r>
       <r>   11.7432    0.0000 </r>
       <r>   11.8763    0.0000 </r>
      </set>
      <set comment="kpoint 2">
       <r>   -2.5902    1.0000 </r>
       <r>   10.4778    0.0000 </r>
       <r>   11.1125    0.0000 </r>
       <r>   11.3635    0.0000 </r>
      </set>
      <set comment="kpoint 3">
       <r>   -2.3658    1.0000 </r>
       <r>    9.1739    0.0000 </r>
       <r>   10.5183    0.0000 </r>
       <r>   10.8903    0.0000 </r>
      </set>
      <set comment="kpoint 4">
       <r>   -2.0519    1.0000 </r>
       <r>    7.9135    0.0000 </r>
       <r>    9.9930    0.0000 </r>
       <r>   10.4695    0.0000 </r>
      </set>
      <set comment="kpoint 5">
       <r>   -1.6512    1.0000 </r>
       <r>    6.7051    0.0000 </r>
       <r>    9.5457    0.0000 </r>
       <r>   10.1093    0.0000 </r>
      </set>
      <set comment="kpoint 6">
       <r>   -1.1656    1.0000 </r>
       <r>    5.5569   -0.0000 </r>
       <r>    9.1744    0.0000 </r>
       <r>    9.8122    0.0000 </r>
      </set>
      <set comment="kpoint 7">
       <r>   -0.5980    1.0000 </r>
       <r>    4.4708   -0.0000 </r>
       <r>    8.8843    0.0000 </r>
       <r>    9.5802    0.0000 </r>
      </set>
      <set comment="kpoint 8">
       <r>    0.0505    1.0006 </r>
       <r>    3.4522   -0.0000 </r>
       <r>    8.6778    0.0000 </r>
       <r>    9.4129    0.0000 </r>
      </set>
      <set comment="kpoint 9">
       <r>    0.7691   -0.0197 </r>
       <r>    2.5139   -0.0000 </r>
       <r>    8.5535    0.0000 </r>
       <r>    9.3134    0.0000 </r>
      </set>
      <set comment="kpoint 10">
       <r>    1.3906   -0.0000 </r>
       <r>    1.8200   -0.0000 </r>
       <r>    8.5127    0.0000 </r>
       <r>    9.2825    0.0000 </r>
      </set>
      <set comment="kpoint 11">
       <r>   -2.7701    1.0000 </r>
       <r>   12.1618    0.0000 </r>
       <r>   12.1618    0.0000 </r>
       <r>   12.5579    0.0000 </r>
      </set>
      <set comment="kpoint 12">
       <r>   -2.4107    1.0000 </r>
       <r>    9.7155    0.0000 </r>
       <r>   10.0428    0.0000 </r>
       <r>   10.8278    0.0000 </r>
      </set>
      <set comment="kpoint 13">
       <r>   -2.1423    1.0000 </r>
       <r>    8.5504    0.0000 </r>
       <r>    9.3963    0.0000 </r>
       <r>   10.3617    0.0000 </r>
      </set>
      <set comment="kpoint 14">
       <r>   -1.7847    1.0000 </r>
       <r>    7.3431    0.0000 </r>
       <r>    8.9094    0.0000 </r>
       <r>    9.9515    0.0000 </r>
      </set>
      <set comment="kpoint 15">
       <r>   -1.3422    1.0000 </r>
       <r>    6.1766    0.0000 </r>
       <r>    8.5041    0.0000 </r>
       <r>    9.6022    0.0000 </r>
      </set>
      <set comment="kpoint 16">
       <r>   -0.8151    1.0000 </r>
       <r>    5.0670   -0.0000 </r>
       <r>    8.1820    0.0000 </r>
       <r>    9.3204    0.0000 </r>
      </set>
      <set comment="kpoint 17">
       <r>   -0.2072    1.0000 </r>
       <r>    4.0192   -0.0000 </r>
       <r>    7.9390    0.0000 </r>
       <r>    9.1079    0.0000 </r>
      </set>
      <set comment="kpoint 18">
       <r>    0.4783    0.8701 </r>
       <r>    3.0433   -0.0000 </r>
       <r>    7.7774    0.0000 </r>
       <r>    8.9661    0.0000 </r>
      </set>
      <set comment="kpoint 19">
       <r>    1.2123   -0.0000 </r>
       <r>    2.1620   -0.0000 </r>
       <r>    7.6962    0.0000 </r>
       <r>    8.8941    0.0000 </r>
      </set>
      <set comment="kpoint 20">
       <r>   -2.6801    1.0000 </r>
       <r>   11.1278    0.0000 </r>
       <r>   11.5611    0.0000 </r>
       <r>   12.2456    0.0000 </r>
      </set>
      <set comment="kpoint 21">
       <r>   -1.8295    1.0000 </r>
       <r>    7.8323    0.0000 </r>
       <r>    8.3894    0.0000 </r>
       <r>    9.9107    0.0000 </r>
      </set>
      <set comment="kpoint 22">
       <r>   -1.4312    1.0000 </r>
       <r>    6.8068    0.0000 </r>
       <r>    7.7947    0.0000 </r>
       <r>    9.5156    0.0000 </r>
      </set>
      <set comment="kpoint 23">
       <r>   -0.9462    1.0000 </r>
       <r>    5.7104   -0.0000 </r>
       <r>    7.3986    0.0000 </r>
       <r>    9.1884    0.0000 </r>
      </set>
      <set comment="kpoint 24">
       <r>   -0.3795    1.0000 </r>
       <r>    4.6506   -0.0000 </r>
       <r>    7.1057    0.0000 </r>
       <r>    8.9312    0.0000 </r>
      </set>
      <set comment="kpoint 25">
       <r>    0.2647    1.0245 </r>
       <r>    3.6469   -0.0000 </r>
       <r>    6.8983    0.0000 </r>
       <r>    8.7445    0.0000 </r>
      </set>
      <set comment="kpoint 26">
       <r>    0.9795   -0.0078 </r>
       <r>    2.7173   -0.0000 </r>
       <r>    6.7755    0.0000 </r>
       <r>    8.6311    0.0000 </r>
      </set>
      <set comment="kpoint 27">
       <r>    1.5884   -0.0000 </r>
       <r>    2.0358   -0.0000 </r>
       <r>    6.7344    0.0000 </r>
       <r>    8.5935    0.0000 </r>
      </set>
      <set comment="kpoint 28">
       <r>   -2.5003    1.0000 </r>
       <r>    9.8236    0.0000 </r>
       <r>   10.9829    0.0000 </r>
       <r>   11.7205    0.0000 </r>
      </set>
      <set comment="kpoint 29">
       <r>   -2.5453    1.0000 </r>
       <r>   10.3804    0.0000 </r>
       <r>   10.6358    0.0000 </r>
       <r>   11.9064    0.0000 </r>
      </set>
      <set comment="kpoint 30">
       <r>   -0.9892    1.0000 </r>
       <r>    6.1854    0.0000 </r>
       <r>    6.8718    0.0000 </r>
       <r>    9.1495    0.0000 </r>
      </set>
      <set comment="kpoint 31">
       <r>   -0.4668    1.0000 </r>
       <r>    5.2853   -0.0000 </r>
       <r>    6.3531    0.0000 </r>
       <r>    8.8453    0.0000 </r>
      </set>
      <set comment="kpoint 32">
       <r>    0.1368    1.0039 </r>
       <r>    4.3026   -0.0000 </r>
       <r>    6.0596    0.0000 </r>
       <r>    8.6168    0.0000 </r>
      </set>
      <set comment="kpoint 33">
       <r>    0.8150   -0.0352 </r>
       <r>    3.3543   -0.0000 </r>
       <r>    5.8788   -0.0000 </r>
       <r>    8.4636    0.0000 </r>
      </set>
      <set comment="kpoint 34">
       <r>    1.5394   -0.0000 </r>
       <r>    2.4920   -0.0000 </r>
       <r>    5.7924   -0.0000 </r>
       <r>    8.3864    0.0000 </r>
      </set>
      <set comment="kpoint 35">
       <r>   -2.2316    1.0000 </r>
       <r>    8.5329    0.0000 </r>
       <r>   10.4574    0.0000 </r>
       <r>   11.2258    0.0000 </r>
      </set>
      <set comment="kpoint 36">
       <r>   -2.3211    1.0000 </r>
       <r>    9.1820    0.0000 </r>
       <r>    9.9964    0.0000 </r>
       <r>   11.4194    0.0000 </r>
      </set>
      <set comment="kpoint 37">
       <r>    0.0933    1.0016 </r>
       <r>    4.7780   -0.0000 </r>
       <r>    5.5185   -0.0000 </r>
       <r>    8.5736    0.0000 </r>
      </set>
      <set comment="kpoint 38">
       <r>    0.7310    0.0198 </r>
       <r>    4.0004   -0.0000 </r>
       <r>    5.0990   -0.0000 </r>
       <r>    8.3789    0.0000 </r>
      </set>
      <set comment="kpoint 39">
       <r>    1.4354   -0.0000 </r>
       <r>    3.1368   -0.0000 </r>
       <r>    4.9222   -0.0000 </r>
       <r>    8.2622    0.0000 </r>
      </set>
      <set comment="kpoint 40">
       <r>    2.0264   -0.0000 </r>
       <r>    2.4864   -0.0000 </r>
       <r>    4.8704   -0.0000 </r>
       <r>    8.2231    0.0000 </r>
      </set>
      <set comment="kpoint 41">
       <r>   -1.8739    1.0000 </r>
       <r>    7.2964    0.0000 </r>
       <r>    9.9954    0.0000 </r>
       <r>   10.7991    0.0000 </r>
      </set>
      <set comment="kpoint 42">
       <r>   -2.0075    1.0000 </r>
       <r>    7.9368    0.0000 </r>
       <r>    9.4921    0.0000 </r>
       <r>   10.9719    0.0000 </r>
      </set>
      <set comment="kpoint 43">
       <r>   -2.0520    1.0000 </r>
       <r>    8.4374    0.0000 </r>
       <r>    8.9711    0.0000 </r>
       <r>   11.0275    0.0000 </r>
      </set>
      <set comment="kpoint 44">
       <r>    1.3983   -0.0000 </r>
       <r>    3.6220   -0.0000 </r>
       <r>    4.3677   -0.0000 </r>
       <r>    8.2213    0.0000 </r>
      </set>
      <set comment="kpoint 45">
       <r>    2.1016   -0.0000 </r>
       <r>    2.9737   -0.0000 </r>
       <r>    4.0825   -0.0000 </r>
       <r>    8.1419    0.0000 </r>
      </set>
      <set comment="kpoint 46">
       <r>   -1.4306    1.0000 </r>
       <r>    6.1162    0.0000 </r>
       <r>    9.6043    0.0000 </r>
       <r>   10.4468    0.0000 </r>
      </set>
      <set comment="kpoint 47">
       <r>   -1.6072    1.0000 </r>
       <r>    6.7374    0.0000 </r>
       <r>    9.0626    0.0000 </r>
       <r>   10.5920    0.0000 </r>
      </set>
      <set comment="kpoint 48">
       <r>   -1.6962    1.0000 </r>
       <r>    7.3692    0.0000 </r>
       <r>    8.3548    0.0000 </r>
       <r>   10.6355    0.0000 </r>
      </set>
      <set comment="kpoint 49">
       <r>    2.7019   -0.0000 </r>
       <r>    2.7019   -0.0000 </r>
       <r>    3.6409   -0.0000 </r>
       <r>    8.1017    0.0000 </r>
      </set>
      <set comment="kpoint 50">
       <r>   -0.9022    1.0000 </r>
       <r>    4.9982   -0.0000 </r>
       <r>    9.2854    0.0000 </r>
       <r>   10.1686    0.0000 </r>
      </set>
      <set comment="kpoint 51">
       <r>   -1.1218    1.0000 </r>
       <r>    5.5929   -0.0000 </r>
       <r>    8.7103    0.0000 </r>
       <r>   10.2825    0.0000 </r>
      </set>
      <set comment="kpoint 52">
       <r>   -1.2540    1.0000 </r>
       <r>    6.2361    0.0000 </r>
       <r>    7.9286    0.0000 </r>
       <r>   10.2943    0.0000 </r>
      </set>
      <set comment="kpoint 53">
       <r>   -1.2973    1.0000 </r>
       <r>    6.7096    0.0000 </r>
       <r>    7.4027    0.0000 </r>
       <r>   10.2842    0.0000 </r>
      </set>
      <set comment="kpoint 54">
       <r>   -0.2941    1.0000 </r>
       <r>    3.9444   -0.0000 </r>
       <r>    9.0425    0.0000 </r>
       <r>    9.9617    0.0000 </r>
      </set>
      <set comment="kpoint 55">
       <r>   -0.5540    1.0000 </r>
       <r>    4.5102   -0.0000 </r>
       <r>    8.4336    0.0000 </r>
       <r>   10.0410    0.0000 </r>
      </set>
      <set comment="kpoint 56">
       <r>   -0.7285    1.0000 </r>
       <r>    5.1377   -0.0000 </r>
       <r>    7.5995    0.0000 </r>
       <r>   10.0158    0.0000 </r>
      </set>
      <set comment="kpoint 57">
       <r>   -0.8150    1.0000 </r>
       <r>    5.7711   -0.0000 </r>
       <r>    6.8483    0.0000 </r>
       <r>    9.9761    0.0000 </r>
      </set>
      <set comment="kpoint 58">
       <r>    0.3922    1.0164 </r>
       <r>    2.9651   -0.0000 </r>
       <r>    8.8810    0.0000 </r>
       <r>    9.8253    0.0000 </r>
      </set>
      <set comment="kpoint 59">
       <r>    0.0928    1.0016 </r>
       <r>    3.4934   -0.0000 </r>
       <r>    8.2357    0.0000 </r>
       <r>    9.8687    0.0000 </r>
      </set>
      <set comment="kpoint 60">
       <r>   -0.1211    1.0000 </r>
       <r>    4.0968   -0.0000 </r>
       <r>    7.3568    0.0000 </r>
       <r>    9.8050    0.0000 </r>
      </set>
      <set comment="kpoint 61">
       <r>   -0.2503    1.0000 </r>
       <r>    4.7491   -0.0000 </r>
       <r>    6.5148    0.0000 </r>
       <r>    9.7287    0.0000 </r>
      </set>
      <set comment="kpoint 62">
       <r>   -0.2934    1.0000 </r>
       <r>    5.2213   -0.0000 </r>
       <r>    5.9775   -0.0000 </r>
       <r>    9.7006    0.0000 </r>
      </set>
      <set comment="kpoint 63">
       <r>    1.1288   -0.0003 </r>
       <r>    2.0763   -0.0000 </r>
       <r>    8.7976    0.0000 </r>
       <r>    9.7543    0.0000 </r>
      </set>
      <set comment="kpoint 64">
       <r>    0.8121   -0.0349 </r>
       <r>    2.5557   -0.0000 </r>
       <r>    8.1181    0.0000 </r>
       <r>    9.7662    0.0000 </r>
      </set>
      <set comment="kpoint 65">
       <r>    0.5625    0.5668 </r>
       <r>    3.1252   -0.0000 </r>
       <r>    7.1953    0.0000 </r>
       <r>    9.6649    0.0000 </r>
      </set>
      <set comment="kpoint 66">
       <r>    0.3928    1.0159 </r>
       <r>    3.7609   -0.0000 </r>
       <r>    6.2951    0.0000 </r>
       <r>    9.5492    0.0000 </r>
      </set>
      <set comment="kpoint 67">
       <r>    0.3072    1.0333 </r>
       <r>    4.4030   -0.0000 </r>
       <r>    5.5155   -0.0000 </r>
       <r>    9.4834    0.0000 </r>
      </set>
      <set comment="kpoint 68">
       <r>    1.4306   -0.0000 </r>
       <r>    1.8640   -0.0000 </r>
       <r>    8.0784    0.0000 </r>
       <r>    9.7329    0.0000 </r>
      </set>
      <set comment="kpoint 69">
       <r>    1.2947   -0.0000 </r>
       <r>    2.2463   -0.0000 </r>
       <r>    7.1148    0.0000 </r>
       <r>    9.5929    0.0000 </r>
      </set>
      <set comment="kpoint 70">
       <r>    1.1044   -0.0006 </r>
       <r>    2.8397   -0.0000 </r>
       <r>    6.1666    0.0000 </r>
       <r>    9.4408    0.0000 </r>
      </set>
      <set comment="kpoint 71">
       <r>    0.9834   -0.0074 </r>
       <r>    3.4987   -0.0000 </r>
       <r>    5.2948   -0.0000 </r>
       <r>    9.3382    0.0000 </r>
      </set>
      <set comment="kpoint 72">
       <r>    0.9407   -0.0140 </r>
       <r>    3.9769   -0.0000 </r>
       <r>    4.7411   -0.0000 </r>
       <r>    9.3028    0.0000 </r>
      </set>
      <set comment="kpoint 73">
       <r>    1.7085   -0.0000 </r>
       <r>    2.1646   -0.0000 </r>
       <r>    6.1247    0.0000 </r>
       <r>    9.4040    0.0000 </r>
      </set>
      <set comment="kpoint 74">
       <r>    1.7029   -0.0000 </r>
       <r>    2.6517   -0.0000 </r>
       <r>    5.1965   -0.0000 </r>
       <r>    9.2652    0.0000 </r>
      </set>
      <set comment="kpoint 75">
       <r>    1.6404   -0.0000 </r>
       <r>    3.2836   -0.0000 </r>
       <r>    4.4005   -0.0000 </r>
       <r>    9.1937    0.0000 </r>
      </set>
      <set comment="kpoint 76">
       <r>    2.2242   -0.0000 </r>
       <r>    2.6650   -0.0000 </r>
       <r>    4.3187   -0.0000 </r>
       <r>    9.1567    0.0000 </r>
      </set>
      <set comment="kpoint 77">
       <r>    2.3281   -0.0000 </r>
       <r>    2.9825   -0.0000 </r>
       <r>    3.7867   -0.0000 </r>
       <r>    9.1202    0.0000 </r>
      </set>
      <set comment="kpoint 78">
       <r>   -2.1870    1.0000 </r>
       <r>    9.1139    0.0000 </r>
       <r>    9.1139    0.0000 </r>
       <r>   10.0149    0.0000 </r>
      </set>
      <set comment="kpoint 79">
       <r>   -1.8740    1.0000 </r>
       <r>    7.9694    0.0000 </r>
       <r>    8.5899    0.0000 </r>
       <r>    9.4859    0.0000 </r>
      </set>
      <set comment="kpoint 80">
       <r>   -1.4748    1.0000 </r>
       <r>    6.8073    0.0000 </r>
       <r>    8.1462    0.0000 </r>
       <r>    9.0675    0.0000 </r>
      </set>
      <set comment="kpoint 81">
       <r>   -0.9895    1.0000 </r>
       <r>    5.6849   -0.0000 </r>
       <r>    7.7817    0.0000 </r>
       <r>    8.7301    0.0000 </r>
      </set>
      <set comment="kpoint 82">
       <r>   -0.4236    1.0000 </r>
       <r>    4.6153   -0.0000 </r>
       <r>    7.4975    0.0000 </r>
       <r>    8.4668    0.0000 </r>
      </set>
      <set comment="kpoint 83">
       <r>    0.2228    1.0153 </r>
       <r>    3.6091   -0.0000 </r>
       <r>    7.2966    0.0000 </r>
       <r>    8.2793    0.0000 </r>
      </set>
      <set comment="kpoint 84">
       <r>    0.9378   -0.0145 </r>
       <r>    2.6768   -0.0000 </r>
       <r>    7.1731    0.0000 </r>
       <r>    8.1659    0.0000 </r>
      </set>
      <set comment="kpoint 85">
       <r>    1.5487   -0.0000 </r>
       <r>    1.9930   -0.0000 </r>
       <r>    7.1324    0.0000 </r>
       <r>    8.1279    0.0000 </r>
      </set>
      <set comment="kpoint 86">
       <r>   -2.5902    1.0000 </r>
       <r>   10.9056    0.0000 </r>
       <r>   10.9056    0.0000 </r>
       <r>   11.4960    0.0000 </r>
      </set>
      <set comment="kpoint 87">
       <r>   -1.5181    1.0000 </r>
       <r>    7.3103    0.0000 </r>
       <r>    7.7141    0.0000 </r>
       <r>    8.9051    0.0000 </r>
      </set>
      <set comment="kpoint 88">
       <r>   -1.0782    1.0000 </r>
       <r>    6.3157    0.0000 </r>
       <r>    7.2007    0.0000 </r>
       <r>    8.4822    0.0000 </r>
      </set>
      <set comment="kpoint 89">
       <r>   -0.5537    1.0000 </r>
       <r>    5.2588   -0.0000 </r>
       <r>    6.8576    0.0000 </r>
       <r>    8.1555    0.0000 </r>
      </set>
      <set comment="kpoint 90">
       <r>    0.0510    1.0006 </r>
       <r>    4.2393   -0.0000 </r>
       <r>    6.6086    0.0000 </r>
       <r>    7.9144    0.0000 </r>
      </set>
      <set comment="kpoint 91">
       <r>    0.7314    0.0194 </r>
       <r>    3.2800   -0.0000 </r>
       <r>    6.4448    0.0000 </r>
       <r>    7.7540    0.0000 </r>
      </set>
      <set comment="kpoint 92">
       <r>    1.4573   -0.0000 </r>
       <r>    2.4095   -0.0000 </r>
       <r>    6.3613    0.0000 </r>
       <r>    7.6727    0.0000 </r>
      </set>
      <set comment="kpoint 93">
       <r>   -2.4107    1.0000 </r>
       <r>    9.8400    0.0000 </r>
       <r>   10.3112    0.0000 </r>
       <r>   11.0948    0.0000 </r>
      </set>
      <set comment="kpoint 94">
       <r>   -0.5972    1.0000 </r>
       <r>    5.7408   -0.0000 </r>
       <r>    6.3533    0.0000 </r>
       <r>    8.0737    0.0000 </r>
      </set>
      <set comment="kpoint 95">
       <r>   -0.0356    1.0001 </r>
       <r>    4.8772   -0.0000 </r>
       <r>    5.8952   -0.0000 </r>
       <r>    7.7726    0.0000 </r>
      </set>
      <set comment="kpoint 96">
       <r>    0.6041    0.3918 </r>
       <r>    3.9336   -0.0000 </r>
       <r>    5.6501   -0.0000 </r>
       <r>    7.5625    0.0000 </r>
      </set>
      <set comment="kpoint 97">
       <r>    1.3113   -0.0000 </r>
       <r>    3.0311   -0.0000 </r>
       <r>    5.5149   -0.0000 </r>
       <r>    7.4376    0.0000 </r>
      </set>
      <set comment="kpoint 98">
       <r>    1.9064   -0.0000 </r>
       <r>    2.3696   -0.0000 </r>
       <r>    5.4715   -0.0000 </r>
       <r>    7.3961    0.0000 </r>
      </set>
      <set comment="kpoint 99">
       <r>   -2.1418    1.0000 </r>
       <r>    8.5842    0.0000 </r>
       <r>    9.7850    0.0000 </r>
       <r>   10.7307    0.0000 </r>
      </set>
      <set comment="kpoint 100">
       <r>   -2.1870    1.0000 </r>
       <r>    9.1155    0.0000 </r>
       <r>    9.4690    0.0000 </r>
       <r>   10.7880    0.0000 </r>
      </set>
      <set comment="kpoint 101">
       <r>    0.5613    0.5718 </r>
       <r>    4.4160   -0.0000 </r>
       <r>    5.1127   -0.0000 </r>
       <r>    7.5041    0.0000 </r>
      </set>
      <set comment="kpoint 102">
       <r>    1.2319   -0.0000 </r>
       <r>    3.6772   -0.0000 </r>
       <r>    4.7466   -0.0000 </r>
       <r>    7.3311    0.0000 </r>
      </set>
      <set comment="kpoint 103">
       <r>    1.9440   -0.0000 </r>
       <r>    2.8719   -0.0000 </r>
       <r>    4.6210   -0.0000 </r>
       <r>    7.2456    0.0000 </r>
      </set>
      <set comment="kpoint 104">
       <r>   -1.7847    1.0000 </r>
       <r>    7.3577    0.0000 </r>
       <r>    9.3321    0.0000 </r>
       <r>   10.3419    0.0000 </r>
      </set>
      <set comment="kpoint 105">
       <r>   -1.8730    1.0000 </r>
       <r>    8.0010    0.0000 </r>
       <r>    8.8832    0.0000 </r>
       <r>   10.5495    0.0000 </r>
      </set>
      <set comment="kpoint 106">
       <r>    1.9197   -0.0000 </r>
       <r>    3.3407   -0.0000 </r>
       <r>    4.0725   -0.0000 </r>
       <r>    7.1977    0.0000 </r>
      </set>
      <set comment="kpoint 107">
       <r>    2.5035   -0.0000 </r>
       <r>    2.8465   -0.0000 </r>
       <r>    3.8739   -0.0000 </r>
       <r>    7.1537    0.0000 </r>
      </set>
      <set comment="kpoint 108">
       <r>   -1.3423    1.0000 </r>
       <r>    6.1857    0.0000 </r>
       <r>    8.9506    0.0000 </r>
       <r>    9.9858    0.0000 </r>
      </set>
      <set comment="kpoint 109">
       <r>   -1.4742    1.0000 </r>
       <r>    6.8310    0.0000 </r>
       <r>    8.4453    0.0000 </r>
       <r>   10.2323    0.0000 </r>
      </set>
      <set comment="kpoint 110">
       <r>   -1.5189    1.0000 </r>
       <r>    7.3125    0.0000 </r>
       <r>    7.9380    0.0000 </r>
       <r>   10.5695    0.0000 </r>
      </set>
      <set comment="kpoint 111">
       <r>   -0.8152    1.0000 </r>
       <r>    5.0741   -0.0000 </r>
       <r>    8.6451    0.0000 </r>
       <r>    9.6953    0.0000 </r>
      </set>
      <set comment="kpoint 112">
       <r>   -0.9911    1.0000 </r>
       <r>    5.6989   -0.0000 </r>
       <r>    8.0914    0.0000 </r>
       <r>    9.9295    0.0000 </r>
      </set>
      <set comment="kpoint 113">
       <r>   -1.0785    1.0000 </r>
       <r>    6.3331    0.0000 </r>
       <r>    7.3757    0.0000 </r>
       <r>   10.4249    0.0000 </r>
      </set>
      <set comment="kpoint 114">
       <r>   -0.2077    1.0000 </r>
       <r>    4.0240   -0.0000 </r>
       <r>    8.4138    0.0000 </r>
       <r>    9.4704    0.0000 </r>
      </set>
      <set comment="kpoint 115">
       <r>   -0.4246    1.0000 </r>
       <r>    4.6236   -0.0000 </r>
       <r>    7.8163    0.0000 </r>
       <r>    9.6831    0.0000 </r>
      </set>
      <set comment="kpoint 116">
       <r>   -0.5546    1.0000 </r>
       <r>    5.2732   -0.0000 </r>
       <r>    7.0185    0.0000 </r>
       <r>   10.1984    0.0000 </r>
      </set>
      <set comment="kpoint 117">
       <r>   -0.5979    1.0000 </r>
       <r>    5.7444   -0.0000 </r>
       <r>    6.4892    0.0000 </r>
       <r>   10.6067    0.0000 </r>
      </set>
      <set comment="kpoint 118">
       <r>    0.4766    0.8749 </r>
       <r>    3.0453   -0.0000 </r>
       <r>    8.2602    0.0000 </r>
       <r>    9.3188    0.0000 </r>
      </set>
      <set comment="kpoint 119">
       <r>    0.2212    1.0150 </r>
       <r>    3.6147   -0.0000 </r>
       <r>    7.6218    0.0000 </r>
       <r>    9.5023    0.0000 </r>
      </set>
      <set comment="kpoint 120">
       <r>    0.0503    1.0006 </r>
       <r>    4.2485   -0.0000 </r>
       <r>    6.7642    0.0000 </r>
       <r>   10.0054    0.0000 </r>
      </set>
      <set comment="kpoint 121">
       <r>   -0.0354    1.0001 </r>
       <r>    4.8874   -0.0000 </r>
       <r>    5.9951   -0.0000 </r>
       <r>   10.4768    0.0000 </r>
      </set>
      <set comment="kpoint 122">
       <r>    1.2117   -0.0000 </r>
       <r>    2.1633   -0.0000 </r>
       <r>    8.1836    0.0000 </r>
       <r>    9.2450    0.0000 </r>
      </set>
      <set comment="kpoint 123">
       <r>    0.9372   -0.0146 </r>
       <r>    2.6799   -0.0000 </r>
       <r>    7.5044    0.0000 </r>
       <r>    9.3902    0.0000 </r>
      </set>
      <set comment="kpoint 124">
       <r>    0.7312    0.0196 </r>
       <r>    3.2856   -0.0000 </r>
       <r>    6.5978    0.0000 </r>
       <r>    9.8696    0.0000 </r>
      </set>
      <set comment="kpoint 125">
       <r>    0.6048    0.3889 </r>
       <r>    3.9420   -0.0000 </r>
       <r>    5.7368   -0.0000 </r>
       <r>   10.3096    0.0000 </r>
      </set>
      <set comment="kpoint 126">
       <r>    0.5627    0.5657 </r>
       <r>    4.4193   -0.0000 </r>
       <r>    5.1895   -0.0000 </r>
       <r>   10.3873    0.0000 </r>
      </set>
      <set comment="kpoint 127">
       <r>    1.5496   -0.0000 </r>
       <r>    1.9943   -0.0000 </r>
       <r>    7.4656    0.0000 </r>
       <r>    9.3553    0.0000 </r>
      </set>
      <set comment="kpoint 128">
       <r>    1.4587   -0.0000 </r>
       <r>    2.4143   -0.0000 </r>
       <r>    6.5153    0.0000 </r>
       <r>    9.7999    0.0000 </r>
      </set>
      <set comment="kpoint 129">
       <r>    1.3122   -0.0000 </r>
       <r>    3.0382   -0.0000 </r>
       <r>    5.5960   -0.0000 </r>
       <r>   10.2068    0.0000 </r>
      </set>
      <set comment="kpoint 130">
       <r>    1.2328   -0.0000 </r>
       <r>    3.6821   -0.0000 </r>
       <r>    4.8028   -0.0000 </r>
       <r>   10.2583    0.0000 </r>
      </set>
      <set comment="kpoint 131">
       <r>    1.9066   -0.0000 </r>
       <r>    2.3766   -0.0000 </r>
       <r>    5.5513   -0.0000 </r>
       <r>   10.1726    0.0000 </r>
      </set>
      <set comment="kpoint 132">
       <r>    1.9455   -0.0000 </r>
       <r>    2.8793   -0.0000 </r>
       <r>    4.6697   -0.0000 </r>
       <r>   10.1909    0.0000 </r>
      </set>
      <set comment="kpoint 133">
       <r>    1.9208   -0.0000 </r>
       <r>    3.3389   -0.0000 </r>
       <r>    4.1182   -0.0000 </r>
       <r>   10.1700    0.0000 </r>
      </set>
      <set comment="kpoint 134">
       <r>    2.5042   -0.0000 </r>
       <r>    2.8496   -0.0000 </r>
       <r>    3.9131   -0.0000 </r>
       <r>   10.1381    0.0000 </r>
      </set>
      <set comment="kpoint 135">
       <r>   -1.1221    1.0000 </r>
       <r>    6.8652    0.0000 </r>
       <r>    6.8652    0.0000 </r>
       <r>    8.1661    0.0000 </r>
      </set>
      <set comment="kpoint 136">
       <r>   -0.6418    1.0000 </r>
       <r>    5.8819   -0.0000 </r>
       <r>    6.5012    0.0000 </r>
       <r>    7.6773    0.0000 </r>
      </set>
      <set comment="kpoint 137">
       <r>   -0.0773    1.0000 </r>
       <r>    4.8781   -0.0000 </r>
       <r>    6.2218    0.0000 </r>
       <r>    7.3395    0.0000 </r>
      </set>
      <set comment="kpoint 138">
       <r>    0.5622    0.5678 </r>
       <r>    3.9051   -0.0000 </r>
       <r>    6.0194   -0.0000 </r>
       <r>    7.1118    0.0000 </r>
      </set>
      <set comment="kpoint 139">
       <r>    1.2696   -0.0000 </r>
       <r>    2.9945   -0.0000 </r>
       <r>    5.8980   -0.0000 </r>
       <r>    6.9773    0.0000 </r>
      </set>
      <set comment="kpoint 140">
       <r>    1.8655   -0.0000 </r>
       <r>    2.3279   -0.0000 </r>
       <r>    5.8561   -0.0000 </r>
       <r>    6.9332    0.0000 </r>
      </set>
      <set comment="kpoint 141">
       <r>   -2.2317    1.0000 </r>
       <r>    9.7108    0.0000 </r>
       <r>    9.7108    0.0000 </r>
       <r>   10.1130    0.0000 </r>
      </set>
      <set comment="kpoint 142">
       <r>   -0.1216    1.0000 </r>
       <r>    5.3779   -0.0000 </r>
       <r>    5.7939   -0.0000 </r>
       <r>    7.1558    0.0000 </r>
      </set>
      <set comment="kpoint 143">
       <r>    0.4770    0.8736 </r>
       <r>    4.5459   -0.0000 </r>
       <r>    5.4381   -0.0000 </r>
       <r>    6.8270    0.0000 </r>
      </set>
      <set comment="kpoint 144">
       <r>    1.1494   -0.0002 </r>
       <r>    3.6450   -0.0000 </r>
       <r>    5.2558   -0.0000 </r>
       <r>    6.6277    0.0000 </r>
      </set>
      <set comment="kpoint 145">
       <r>    1.8635   -0.0000 </r>
       <r>    2.8068   -0.0000 </r>
       <r>    5.1694   -0.0000 </r>
       <r>    6.5311    0.0000 </r>
      </set>
      <set comment="kpoint 146">
       <r>   -1.9620    1.0000 </r>
       <r>    8.6693    0.0000 </r>
       <r>    9.1851    0.0000 </r>
       <r>    9.8638    0.0000 </r>
      </set>
      <set comment="kpoint 147">
       <r>    1.1079   -0.0006 </r>
       <r>    4.1384   -0.0000 </r>
       <r>    4.7427   -0.0000 </r>
       <r>    6.5329    0.0000 </r>
      </set>
      <set comment="kpoint 148">
       <r>    1.8027   -0.0000 </r>
       <r>    3.4369   -0.0000 </r>
       <r>    4.4506   -0.0000 </r>
       <r>    6.3747    0.0000 </r>
      </set>
      <set comment="kpoint 149">
       <r>    2.3834   -0.0000 </r>
       <r>    2.8209   -0.0000 </r>
       <r>    4.3827   -0.0000 </r>
       <r>    6.3237    0.0000 </r>
      </set>
      <set comment="kpoint 150">
       <r>   -1.6073    1.0000 </r>
       <r>    7.4787    0.0000 </r>
       <r>    8.7320    0.0000 </r>
       <r>    9.6286    0.0000 </r>
      </set>
      <set comment="kpoint 151">
       <r>   -1.6513    1.0000 </r>
       <r>    7.9981    0.0000 </r>
       <r>    8.4245    0.0000 </r>
       <r>    9.6405    0.0000 </r>
      </set>
      <set comment="kpoint 152">
       <r>    2.4874   -0.0000 </r>
       <r>    3.1414   -0.0000 </r>
       <r>    3.8674   -0.0000 </r>
       <r>    6.2624    0.0000 </r>
      </set>
      <set comment="kpoint 153">
       <r>   -1.1662    1.0000 </r>
       <r>    6.3250    0.0000 </r>
       <r>    8.3539    0.0000 </r>
       <r>    9.3373    0.0000 </r>
      </set>
      <set comment="kpoint 154">
       <r>   -1.2546    1.0000 </r>
       <r>    6.9647    0.0000 </r>
       <r>    7.8991    0.0000 </r>
       <r>    9.5070    0.0000 </r>
      </set>
      <set comment="kpoint 155">
       <r>   -0.6421    1.0000 </r>
       <r>    5.2223   -0.0000 </r>
       <r>    8.0516    0.0000 </r>
       <r>    9.0620    0.0000 </r>
      </set>
      <set comment="kpoint 156">
       <r>   -0.7727    1.0000 </r>
       <r>    5.8706   -0.0000 </r>
       <r>    7.5312    0.0000 </r>
       <r>    9.2889    0.0000 </r>
      </set>
      <set comment="kpoint 157">
       <r>   -0.8155    1.0000 </r>
       <r>    6.3505    0.0000 </r>
       <r>    7.0252    0.0000 </r>
       <r>    9.5926    0.0000 </r>
      </set>
      <set comment="kpoint 158">
       <r>   -0.0355    1.0001 </r>
       <r>    4.1834   -0.0000 </r>
       <r>    7.8253    0.0000 </r>
       <r>    8.8462    0.0000 </r>
      </set>
      <set comment="kpoint 159">
       <r>   -0.2090    1.0000 </r>
       <r>    4.8115   -0.0000 </r>
       <r>    7.2534    0.0000 </r>
       <r>    9.0717    0.0000 </r>
      </set>
      <set comment="kpoint 160">
       <r>   -0.2945    1.0000 </r>
       <r>    5.4498   -0.0000 </r>
       <r>    6.5261    0.0000 </r>
       <r>    9.5529    0.0000 </r>
      </set>
      <set comment="kpoint 161">
       <r>    0.6460    0.2308 </r>
       <r>    3.2087   -0.0000 </r>
       <r>    7.6717    0.0000 </r>
       <r>    8.6953    0.0000 </r>
      </set>
      <set comment="kpoint 162">
       <r>    0.4353    0.9650 </r>
       <r>    3.8134   -0.0000 </r>
       <r>    7.0576    0.0000 </r>
       <r>    8.9031    0.0000 </r>
      </set>
      <set comment="kpoint 163">
       <r>    0.3073    1.0333 </r>
       <r>    4.4677   -0.0000 </r>
       <r>    6.2379    0.0000 </r>
       <r>    9.4284    0.0000 </r>
      </set>
      <set comment="kpoint 164">
       <r>    0.2639    1.0244 </r>
       <r>    4.9411   -0.0000 </r>
       <r>    5.7029   -0.0000 </r>
       <r>    9.7930    0.0000 </r>
      </set>
      <set comment="kpoint 165">
       <r>    1.3770   -0.0000 </r>
       <r>    2.3322   -0.0000 </r>
       <r>    7.6005    0.0000 </r>
       <r>    8.6181    0.0000 </r>
      </set>
      <set comment="kpoint 166">
       <r>    1.1458   -0.0002 </r>
       <r>    2.8862   -0.0000 </r>
       <r>    6.9381    0.0000 </r>
       <r>    8.7938    0.0000 </r>
      </set>
      <set comment="kpoint 167">
       <r>    0.9835   -0.0074 </r>
       <r>    3.5221   -0.0000 </r>
       <r>    6.0601    0.0000 </r>
       <r>    9.3153    0.0000 </r>
      </set>
      <set comment="kpoint 168">
       <r>    0.9000   -0.0227 </r>
       <r>    4.1643   -0.0000 </r>
       <r>    5.2803   -0.0000 </r>
       <r>    9.8581    0.0000 </r>
      </set>
      <set comment="kpoint 169">
       <r>    1.7465   -0.0000 </r>
       <r>    2.2111   -0.0000 </r>
       <r>    6.8968    0.0000 </r>
       <r>    8.7569    0.0000 </r>
      </set>
      <set comment="kpoint 170">
       <r>    1.7036   -0.0000 </r>
       <r>    2.6632   -0.0000 </r>
       <r>    5.9745   -0.0000 </r>
       <r>    9.2533    0.0000 </r>
      </set>
      <set comment="kpoint 171">
       <r>    1.6027   -0.0000 </r>
       <r>    3.3057   -0.0000 </r>
       <r>    5.1047   -0.0000 </r>
       <r>    9.8292    0.0000 </r>
      </set>
      <set comment="kpoint 172">
       <r>    1.5644   -0.0000 </r>
       <r>    3.7804   -0.0000 </r>
       <r>    4.5529   -0.0000 </r>
       <r>   10.2401    0.0000 </r>
      </set>
      <set comment="kpoint 173">
       <r>    2.1859   -0.0000 </r>
       <r>    2.6615   -0.0000 </r>
       <r>    5.0515   -0.0000 </r>
       <r>    9.8110    0.0000 </r>
      </set>
      <set comment="kpoint 174">
       <r>    2.2661   -0.0000 </r>
       <r>    3.1408   -0.0000 </r>
       <r>    4.2671   -0.0000 </r>
       <r>   10.3873    0.0000 </r>
      </set>
      <set comment="kpoint 175">
       <r>    2.8647   -0.0000 </r>
       <r>    2.8647   -0.0000 </r>
       <r>    3.8353   -0.0000 </r>
       <r>   10.9310    0.0000 </r>
      </set>
      <set comment="kpoint 176">
       <r>    0.4367    0.9626 </r>
       <r>    5.1002   -0.0000 </r>
       <r>    5.1002   -0.0000 </r>
       <r>    6.5019    0.0000 </r>
      </set>
      <set comment="kpoint 177">
       <r>    1.0678   -0.0015 </r>
       <r>    4.2774   -0.0000 </r>
       <r>    4.8984   -0.0000 </r>
       <r>    6.1251    0.0000 </r>
      </set>
      <set comment="kpoint 178">
       <r>    1.7644   -0.0000 </r>
       <r>    3.4350   -0.0000 </r>
       <r>    4.7791   -0.0000 </r>
       <r>    5.9323   -0.0000 </r>
      </set>
      <set comment="kpoint 179">
       <r>    2.3433   -0.0000 </r>
       <r>    2.8015   -0.0000 </r>
       <r>    4.7388   -0.0000 </r>
       <r>    5.8721   -0.0000 </r>
      </set>
      <set comment="kpoint 180">
       <r>   -1.6956    1.0000 </r>
       <r>    8.6581    0.0000 </r>
       <r>    8.6581    0.0000 </r>
       <r>    8.8990    0.0000 </r>
      </set>
      <set comment="kpoint 181">
       <r>    1.7273   -0.0000 </r>
       <r>    3.9399   -0.0000 </r>
       <r>    4.3503   -0.0000 </r>
       <r>    5.7376   -0.0000 </r>
      </set>
      <set comment="kpoint 182">
       <r>    2.4217   -0.0000 </r>
       <r>    3.2814   -0.0000 </r>
       <r>    4.1631   -0.0000 </r>
       <r>    5.5777   -0.0000 </r>
      </set>
      <set comment="kpoint 183">
       <r>   -1.3426    1.0000 </r>
       <r>    7.6396    0.0000 </r>
       <r>    8.2062    0.0000 </r>
       <r>    8.7900    0.0000 </r>
      </set>
      <set comment="kpoint 184">
       <r>    3.0205   -0.0000 </r>
       <r>    3.0205   -0.0000 </r>
       <r>    3.7675   -0.0000 </r>
       <r>    5.4795   -0.0000 </r>
      </set>
      <set comment="kpoint 185">
       <r>   -0.9033    1.0000 </r>
       <r>    6.5245    0.0000 </r>
       <r>    7.8304    0.0000 </r>
       <r>    8.6500    0.0000 </r>
      </set>
      <set comment="kpoint 186">
       <r>   -0.9479    1.0000 </r>
       <r>    7.0342    0.0000 </r>
       <r>    7.5175    0.0000 </r>
       <r>    8.6597    0.0000 </r>
      </set>
      <set comment="kpoint 187">
       <r>   -0.3817    1.0000 </r>
       <r>    5.4415   -0.0000 </r>
       <r>    7.5299    0.0000 </r>
       <r>    8.4373    0.0000 </r>
      </set>
      <set comment="kpoint 188">
       <r>   -0.4682    1.0000 </r>
       <r>    6.0852    0.0000 </r>
       <r>    7.0566    0.0000 </r>
       <r>    8.6127    0.0000 </r>
      </set>
      <set comment="kpoint 189">
       <r>    0.2205    1.0149 </r>
       <r>    4.4133   -0.0000 </r>
       <r>    7.3054    0.0000 </r>
       <r>    8.2411    0.0000 </r>
      </set>
      <set comment="kpoint 190">
       <r>    0.0931    1.0016 </r>
       <r>    5.0656   -0.0000 </r>
       <r>    6.7642    0.0000 </r>
       <r>    8.4780    0.0000 </r>
      </set>
      <set comment="kpoint 191">
       <r>    0.0502    1.0006 </r>
       <r>    5.5459   -0.0000 </r>
       <r>    6.2469    0.0000 </r>
       <r>    8.7802    0.0000 </r>
      </set>
      <set comment="kpoint 192">
[...]
        <r>  0.1294  0.2935  0.0609 </r>
       </set>
       <set comment="band 2">
        <r>  0.0707  0.2902  0.1181 </r>
       </set>
       <set comment="band 3">
        <r>  0.2695  0.2118  0.0897 </r>
       </set>
       <set comment="band 4">
        <r>  0.0231  0.1899  0.2415 </r>
       </set>
      </set>
      <set comment="kpoint 202">
       <set comment="band 1">
        <r>  0.0000  0.3822  0.0717 </r>
       </set>
       <set comment="band 2">
        <r>  0.2153  0.2030  0.0990 </r>
       </set>
       <set comment="band 3">
        <r>  0.2564  0.2121  0.0945 </r>
       </set>
       <set comment="band 4">
        <r>  0.0390  0.1947  0.2309 </r>
       </set>
      </set>
      <set comment="kpoint 203">
       <set comment="band 1">
        <r>  0.0505  0.3367  0.0810 </r>
       </set>
       <set comment="band 2">
        <r>  0.0000  0.3462  0.1099 </r>
       </set>
       <set comment="band 3">
        <r>  0.4248  0.1131  0.0717 </r>
       </set>
       <set comment="band 4">
        <r>  0.0000  0.1771  0.2619 </r>
       </set>
      </set>
      <set comment="kpoint 204">
       <set comment="band 1">
        <r>  0.0854  0.3172  0.0751 </r>
       </set>
       <set comment="band 2">
        <r>  0.0000  0.3251  0.1359 </r>
       </set>
       <set comment="band 3">
        <r>  0.0000  0.3251  0.1359 </r>
       </set>
       <set comment="band 4">
        <r>  0.6449  0.0687  0.0030 </r>
       </set>
      </set>
      <set comment="kpoint 205">
       <set comment="band 1">
        <r>  0.0000  0.3628  0.0958 </r>
       </set>
       <set comment="band 2">
        <r>  0.0584  0.3073  0.1106 </r>
       </set>
       <set comment="band 3">
        <r>  0.0000  0.3268  0.1343 </r>
       </set>
       <set comment="band 4">
        <r>  0.6759  0.0393  0.0054 </r>
       </set>
      </set>
      <set comment="kpoint 206">
       <set comment="band 1">
        <r>  0.3552  0.1331  0.0099 </r>
       </set>
       <set comment="band 2">
        <r>  0.0000  0.3970  0.1870 </r>
       </set>
       <set comment="band 3">
        <r>  0.0000  0.3970  0.1870 </r>
       </set>
       <set comment="band 4">
        <r>  0.0000  0.0000  0.2999 </r>
       </set>
      </set>
      <set comment="kpoint 207">
       <set comment="band 1">
        <r>  0.3235  0.1596  0.0151 </r>
       </set>
       <set comment="band 2">
        <r>  0.0153  0.2470  0.2076 </r>
       </set>
       <set comment="band 3">
        <r>  0.0000  0.4191  0.1623 </r>
       </set>
       <set comment="band 4">
        <r>  0.0252  0.1510  0.2457 </r>
       </set>
      </set>
      <set comment="kpoint 208">
       <set comment="band 1">
        <r>  0.2866  0.1885  0.0224 </r>
       </set>
       <set comment="band 2">
        <r>  0.0470  0.2600  0.1746 </r>
       </set>
       <set comment="band 3">
        <r>  0.0000  0.4369  0.1419 </r>
       </set>
       <set comment="band 4">
        <r>  0.0978  0.1032  0.2274 </r>
       </set>
      </set>
      <set comment="kpoint 209">
       <set comment="band 1">
        <r>  0.2899  0.1858  0.0219 </r>
       </set>
       <set comment="band 2">
        <r>  0.0000  0.2394  0.2109 </r>
       </set>
       <set comment="band 3">
        <r>  0.0682  0.3893  0.1219 </r>
       </set>
       <set comment="band 4">
        <r>  0.0000  0.2049  0.2400 </r>
       </set>
      </set>
      <set comment="kpoint 210">
       <set comment="band 1">
        <r>  0.2439  0.2200  0.0322 </r>
       </set>
       <set comment="band 2">
        <r>  0.0876  0.2617  0.1429 </r>
       </set>
       <set comment="band 3">
        <r>  0.0000  0.4503  0.1262 </r>
       </set>
       <set comment="band 4">
        <r>  0.1616  0.0600  0.2161 </r>
       </set>
      </set>
      <set comment="kpoint 211">
       <set comment="band 1">
        <r>  0.2509  0.2146  0.0310 </r>
       </set>
       <set comment="band 2">
        <r>  0.0350  0.2640  0.1728 </r>
       </set>
       <set comment="band 3">
        <r>  0.0886  0.3588  0.1157 </r>
       </set>
       <set comment="band 4">
        <r>  0.0351  0.1868  0.2294 </r>
       </set>
      </set>
      <set comment="kpoint 212">
       <set comment="band 1">
        <r>  0.1918  0.2557  0.0442 </r>
       </set>
       <set comment="band 2">
        <r>  0.1388  0.2475  0.1158 </r>
       </set>
       <set comment="band 3">
        <r>  0.0000  0.4592  0.1157 </r>
       </set>
       <set comment="band 4">
        <r>  0.1984  0.0321  0.2133 </r>
       </set>
      </set>
      <set comment="kpoint 213">
       <set comment="band 1">
        <r>  0.2054  0.2454  0.0429 </r>
       </set>
       <set comment="band 2">
        <r>  0.0866  0.2659  0.1367 </r>
       </set>
       <set comment="band 3">
        <r>  0.0921  0.3469  0.1141 </r>
       </set>
       <set comment="band 4">
        <r>  0.0893  0.1591  0.2149 </r>
       </set>
      </set>
      <set comment="kpoint 214">
       <set comment="band 1">
        <r>  0.2097  0.2422  0.0424 </r>
       </set>
       <set comment="band 2">
        <r>  0.0000  0.2791  0.1742 </r>
       </set>
       <set comment="band 3">
        <r>  0.1913  0.3075  0.0817 </r>
       </set>
       <set comment="band 4">
        <r>  0.0000  0.2085  0.2392 </r>
       </set>
      </set>
      <set comment="kpoint 215">
       <set comment="band 1">
        <r>  0.0978  0.3233  0.0545 </r>
       </set>
       <set comment="band 2">
        <r>  0.2325  0.1908  0.0980 </r>
       </set>
       <set comment="band 3">
        <r>  0.0000  0.4638  0.1102 </r>
       </set>
       <set comment="band 4">
        <r>  0.2144  0.0185  0.2136 </r>
       </set>
      </set>
      <set comment="kpoint 216">
       <set comment="band 1">
        <r>  0.1441  0.2851  0.0568 </r>
       </set>
       <set comment="band 2">
        <r>  0.1509  0.2431  0.1094 </r>
       </set>
       <set comment="band 3">
        <r>  0.0945  0.3426  0.1121 </r>
       </set>
       <set comment="band 4">
        <r>  0.1201  0.1429  0.2079 </r>
       </set>
      </set>
      <set comment="kpoint 217">
       <set comment="band 1">
        <r>  0.1597  0.2724  0.0568 </r>
       </set>
       <set comment="band 2">
        <r>  0.0550  0.2834  0.1370 </r>
       </set>
       <set comment="band 3">
        <r>  0.1990  0.2764  0.0892 </r>
       </set>
       <set comment="band 4">
        <r>  0.0298  0.1982  0.2297 </r>
       </set>
      </set>
      <set comment="kpoint 218">
       <set comment="band 1">
        <r>  0.0000  0.3897  0.0630 </r>
       </set>
       <set comment="band 2">
        <r>  0.2960  0.1438  0.0989 </r>
       </set>
       <set comment="band 3">
        <r>  0.0954  0.3409  0.1114 </r>
       </set>
       <set comment="band 4">
        <r>  0.1291  0.1382  0.2060 </r>
       </set>
      </set>
      <set comment="kpoint 219">
       <set comment="band 1">
        <r>  0.0766  0.3234  0.0734 </r>
       </set>
       <set comment="band 2">
        <r>  0.1536  0.2434  0.1058 </r>
       </set>
       <set comment="band 3">
        <r>  0.1890  0.2691  0.0960 </r>
       </set>
       <set comment="band 4">
        <r>  0.0613  0.1894  0.2186 </r>
       </set>
      </set>
      <set comment="kpoint 220">
       <set comment="band 1">
        <r>  0.1007  0.3040  0.0750 </r>
       </set>
       <set comment="band 2">
        <r>  0.0000  0.3215  0.1339 </r>
       </set>
       <set comment="band 3">
        <r>  0.3251  0.2029  0.0659 </r>
       </set>
       <set comment="band 4">
        <r>  0.0000  0.2007  0.2454 </r>
       </set>
      </set>
      <set comment="kpoint 221">
       <set comment="band 1">
        <r>  0.0000  0.3598  0.0950 </r>
       </set>
       <set comment="band 2">
        <r>  0.0869  0.2870  0.1081 </r>
       </set>
       <set comment="band 3">
        <r>  0.3425  0.1813  0.0686 </r>
       </set>
       <set comment="band 4">
        <r>  0.0161  0.1969  0.2403 </r>
       </set>
      </set>
      <set comment="kpoint 222">
       <set comment="band 1">
        <r>  0.2930  0.1834  0.0213 </r>
       </set>
       <set comment="band 2">
        <r>  0.0000  0.0000  0.3173 </r>
       </set>
       <set comment="band 3">
        <r>  0.0000  0.4440  0.1345 </r>
       </set>
       <set comment="band 4">
        <r>  0.0000  0.4440  0.1345 </r>
       </set>
      </set>
      <set comment="kpoint 223">
       <set comment="band 1">
        <r>  0.2575  0.2096  0.0298 </r>
       </set>
       <set comment="band 2">
        <r>  0.0175  0.2486  0.1957 </r>
       </set>
       <set comment="band 3">
        <r>  0.0000  0.4640  0.1115 </r>
       </set>
       <set comment="band 4">
        <r>  0.0345  0.1774  0.2297 </r>
       </set>
      </set>
      <set comment="kpoint 224">
       <set comment="band 1">
        <r>  0.2167  0.2370  0.0411 </r>
       </set>
       <set comment="band 2">
        <r>  0.0557  0.2667  0.1579 </r>
       </set>
       <set comment="band 3">
        <r>  0.0000  0.4792  0.0939 </r>
       </set>
       <set comment="band 4">
        <r>  0.1197  0.0895  0.2316 </r>
       </set>
      </set>
      <set comment="kpoint 225">
       <set comment="band 1">
        <r>  0.2204  0.2343  0.0404 </r>
       </set>
       <set comment="band 2">
        <r>  0.0000  0.2465  0.1997 </r>
       </set>
       <set comment="band 3">
        <r>  0.0849  0.4071  0.0840 </r>
       </set>
       <set comment="band 4">
        <r>  0.0000  0.2400  0.2177 </r>
       </set>
      </set>
      <set comment="kpoint 226">
       <set comment="band 1">
        <r>  0.1673  0.2676  0.0551 </r>
       </set>
       <set comment="band 2">
        <r>  0.1057  0.2617  0.1265 </r>
       </set>
       <set comment="band 3">
        <r>  0.0000  0.4894  0.0818 </r>
       </set>
       <set comment="band 4">
        <r>  0.1845  0.0301  0.2323 </r>
       </set>
      </set>
      <set comment="kpoint 227">
       <set comment="band 1">
        <r>  0.1773  0.2602  0.0541 </r>
       </set>
       <set comment="band 2">
        <r>  0.0408  0.2718  0.1581 </r>
       </set>
       <set comment="band 3">
        <r>  0.1077  0.3652  0.0875 </r>
       </set>
       <set comment="band 4">
        <r>  0.0396  0.2038  0.2169 </r>
       </set>
      </set>
      <set comment="kpoint 228">
       <set comment="band 1">
        <r>  0.0818  0.3218  0.0706 </r>
       </set>
       <set comment="band 2">
        <r>  0.1920  0.2192  0.1026 </r>
       </set>
       <set comment="band 3">
        <r>  0.0000  0.4945  0.0757 </r>
       </set>
       <set comment="band 4">
        <r>  0.2131  0.0034  0.2341 </r>
       </set>
      </set>
      <set comment="kpoint 229">
       <set comment="band 1">
        <r>  0.1204  0.2919  0.0711 </r>
       </set>
       <set comment="band 2">
        <r>  0.1064  0.2639  0.1219 </r>
       </set>
       <set comment="band 3">
        <r>  0.1097  0.3499  0.0913 </r>
       </set>
       <set comment="band 4">
        <r>  0.0923  0.1655  0.2118 </r>
       </set>
      </set>
      <set comment="kpoint 230">
       <set comment="band 1">
        <r>  0.1300  0.2847  0.0709 </r>
       </set>
       <set comment="band 2">
        <r>  0.0000  0.2923  0.1601 </r>
       </set>
       <set comment="band 3">
        <r>  0.2235  0.2979  0.0608 </r>
       </set>
       <set comment="band 4">
        <r>  0.0000  0.2288  0.2251 </r>
       </set>
      </set>
      <set comment="kpoint 231">
       <set comment="band 1">
        <r>  0.0000  0.3661  0.0875 </r>
       </set>
       <set comment="band 2">
        <r>  0.2295  0.1958  0.1001 </r>
       </set>
       <set comment="band 3">
        <r>  0.1102  0.3464  0.0919 </r>
       </set>
       <set comment="band 4">
        <r>  0.1101  0.1529  0.2101 </r>
       </set>
      </set>
      <set comment="kpoint 232">
       <set comment="band 1">
        <r>  0.0587  0.3190  0.0931 </r>
       </set>
       <set comment="band 2">
        <r>  0.0698  0.2847  0.1236 </r>
       </set>
       <set comment="band 3">
        <r>  0.2353  0.2674  0.0695 </r>
       </set>
       <set comment="band 4">
        <r>  0.0285  0.2107  0.2221 </r>
       </set>
      </set>
      <set comment="kpoint 233">
       <set comment="band 1">
        <r>  0.0000  0.3333  0.1211 </r>
       </set>
       <set comment="band 2">
        <r>  0.0000  0.3333  0.1211 </r>
       </set>
       <set comment="band 3">
        <r>  0.3705  0.1989  0.0429 </r>
       </set>
       <set comment="band 4">
        <r>  0.0000  0.2122  0.2375 </r>
       </set>
      </set>
      <set comment="kpoint 234">
       <set comment="band 1">
        <r>  0.2238  0.2316  0.0398 </r>
       </set>
       <set comment="band 2">
        <r>  0.0000  0.0000  0.3329 </r>
       </set>
       <set comment="band 3">
        <r>  0.0000  0.4855  0.0865 </r>
       </set>
       <set comment="band 4">
        <r>  0.0000  0.4855  0.0865 </r>
       </set>
      </set>
      <set comment="kpoint 235">
       <set comment="band 1">
        <r>  0.1855  0.2546  0.0528 </r>
       </set>
       <set comment="band 2">
        <r>  0.0195  0.2482  0.1887 </r>
       </set>
       <set comment="band 3">
        <r>  0.0000  0.5024  0.0670 </r>
       </set>
       <set comment="band 4">
        <r>  0.0444  0.1984  0.2129 </r>
       </set>
      </set>
      <set comment="kpoint 236">
       <set comment="band 1">
        <r>  0.1397  0.2786  0.0693 </r>
       </set>
       <set comment="band 2">
        <r>  0.0649  0.2700  0.1452 </r>
       </set>
       <set comment="band 3">
        <r>  0.0000  0.5136  0.0537 </r>
       </set>
       <set comment="band 4">
        <r>  0.1375  0.0777  0.2354 </r>
       </set>
      </set>
      <set comment="kpoint 237">
       <set comment="band 1">
        <r>  0.1452  0.2744  0.0687 </r>
       </set>
       <set comment="band 2">
        <r>  0.0000  0.2508  0.1929 </r>
       </set>
       <set comment="band 3">
        <r>  0.1004  0.4179  0.0541 </r>
       </set>
       <set comment="band 4">
        <r>  0.0000  0.2695  0.1966 </r>
       </set>
      </set>
      <set comment="kpoint 238">
       <set comment="band 1">
        <r>  0.0649  0.3166  0.0903 </r>
       </set>
       <set comment="band 2">
        <r>  0.1412  0.2486  0.1128 </r>
       </set>
       <set comment="band 3">
        <r>  0.0000  0.5191  0.0470 </r>
       </set>
       <set comment="band 4">
        <r>  0.1914  0.0187  0.2438 </r>
       </set>
      </set>
      <set comment="kpoint 239">
       <set comment="band 1">
        <r>  0.0946  0.2962  0.0892 </r>
       </set>
       <set comment="band 2">
        <r>  0.0476  0.2763  0.1471 </r>
       </set>
       <set comment="band 3">
        <r>  0.1249  0.3686  0.0657 </r>
       </set>
       <set comment="band 4">
        <r>  0.0415  0.2200  0.2052 </r>
       </set>
      </set>
      <set comment="kpoint 240">
       <set comment="band 1">
        <r>  0.0000  0.3390  0.1146 </r>
       </set>
       <set comment="band 2">
        <r>  0.1479  0.2457  0.1114 </r>
       </set>
       <set comment="band 3">
        <r>  0.1255  0.3569  0.0711 </r>
       </set>
       <set comment="band 4">
        <r>  0.0751  0.1893  0.2067 </r>
       </set>
      </set>
      <set comment="kpoint 241">
       <set comment="band 1">
        <r>  0.0349  0.3127  0.1170 </r>
       </set>
       <set comment="band 2">
        <r>  0.0000  0.3010  0.1504 </r>
       </set>
       <set comment="band 3">
        <r>  0.2552  0.2988  0.0376 </r>
       </set>
       <set comment="band 4">
        <r>  0.0000  0.2438  0.2144 </r>
       </set>
      </set>
      <set comment="kpoint 242">
       <set comment="band 1">
        <r>  0.1502  0.2714  0.0679 </r>
       </set>
       <set comment="band 2">
        <r>  0.0000  0.0000  0.3441 </r>
       </set>
       <set comment="band 3">
        <r>  0.0000  0.5205  0.0462 </r>
       </set>
       <set comment="band 4">
        <r>  0.0000  0.5205  0.0462 </r>
       </set>
      </set>
      <set comment="kpoint 243">
       <set comment="band 1">
        <r>  0.1090  0.2868  0.0873 </r>
       </set>
       <set comment="band 2">
        <r>  0.0213  0.2455  0.1858 </r>
       </set>
       <set comment="band 3">
        <r>  0.0000  0.5322  0.0321 </r>
       </set>
       <set comment="band 4">
        <r>  0.0536  0.2141  0.1978 </r>
       </set>
      </set>
      <set comment="kpoint 244">
       <set comment="band 1">
        <r>  0.0484  0.3060  0.1140 </r>
       </set>
       <set comment="band 2">
        <r>  0.0815  0.2674  0.1348 </r>
       </set>
       <set comment="band 3">
        <r>  0.0000  0.5382  0.0248 </r>
       </set>
       <set comment="band 4">
        <r>  0.1406  0.0822  0.2350 </r>
       </set>
      </set>
      <set comment="kpoint 245">
       <set comment="band 1">
        <r>  0.0656  0.2960  0.1120 </r>
       </set>
       <set comment="band 2">
        <r>  0.0000  0.2538  0.1885 </r>
       </set>
       <set comment="band 3">
        <r>  0.1115  0.4286  0.0311 </r>
       </set>
       <set comment="band 4">
        <r>  0.0000  0.2909  0.1801 </r>
       </set>
      </set>
      <set comment="kpoint 246">
       <set comment="band 1">
        <r>  0.0000  0.3061  0.1453 </r>
       </set>
       <set comment="band 2">
        <r>  0.0532  0.2735  0.1445 </r>
       </set>
       <set comment="band 3">
        <r>  0.1375  0.3907  0.0393 </r>
       </set>
       <set comment="band 4">
        <r>  0.0289  0.2471  0.1934 </r>
       </set>
      </set>
      <set comment="kpoint 247">
       <set comment="band 1">
        <r>  0.0749  0.2910  0.1103 </r>
       </set>
       <set comment="band 2">
        <r>  0.0000  0.0000  0.3526 </r>
       </set>
       <set comment="band 3">
        <r>  0.0000  0.5447  0.0172 </r>
       </set>
       <set comment="band 4">
        <r>  0.0000  0.5447  0.0172 </r>
       </set>
      </set>
      <set comment="kpoint 248">
       <set comment="band 1">
        <r>  0.0310  0.2882  0.1427 </r>
       </set>
       <set comment="band 2">
        <r>  0.0239  0.2436  0.1841 </r>
       </set>
       <set comment="band 3">
        <r>  0.0000  0.5509  0.0096 </r>
       </set>
       <set comment="band 4">
        <r>  0.0584  0.2277  0.1857 </r>
       </set>
      </set>
      <set comment="kpoint 249">
       <set comment="band 1">
        <r>  0.0000  0.2553  0.1865 </r>
       </set>
       <set comment="band 2">
        <r>  0.0000  0.2553  0.1865 </r>
       </set>
       <set comment="band 3">
        <r>  0.0933  0.4737  0.0071 </r>
       </set>
       <set comment="band 4">
        <r>  0.0000  0.3021  0.1709 </r>
       </set>
      </set>
      <set comment="kpoint 250">
       <set comment="band 1">
        <r>  0.0109  0.2459  0.1881 </r>
       </set>
       <set comment="band 2">
        <r>  0.0000  0.0000  0.3569 </r>
       </set>
       <set comment="band 3">
        <r>  0.0000  0.5574  0.0019 </r>
       </set>
       <set comment="band 4">
        <r>  0.0000  0.5574  0.0019 </r>
       </set>
      </set>
     </set>
    </set>
   </array>
  </projected>
 </calculation>
 <structure name="finalpos" >
  <crystal>
   <varray name="basis" >
    <v>      -2.07500000       2.07500000       2.07500000 </v>
    <v>       2.07500000      -2.07500000       2.07500000 </v>
    <v>       2.07500000       2.07500000      -2.07500000 </v>
   </varray>
   <i name="volume">     35.73668750 </i>
   <varray name="rec_basis" >
    <v>       0.00000000       0.24096386       0.24096386 </v>
    <v>       0.24096386       0.00000000       0.24096386 </v>
    <v>       0.24096386       0.24096386       0.00000000 </v>
   </varray>
  </crystal>
  <varray name="positions" >
   <v>       0.00000000       0.00000000       0.00000000 </v>
  </varray>
 </structure>
</modeling>
