a= 3.95
 running on    1 total cores
 distrk:  each k-point on    1 cores,    1 groups
 distr:  one band on    1 cores,    1 groups
 using from now: INCAR     
 vasp.5.4.4.18Apr17-6-g9f103f2a35 (build May 20 2018 16:52:39) complex          
  
 POSCAR found type information on POSCAR  Na
 POSCAR found :  1 types and       1 ions
 scaLAPACK will be used
 LDA part: xc-table for Ceperly-Alder, standard interpolation
 POSCAR, INCAR and KPOINTS ok, starting setup
 FFT: planning ...
 WAVECAR not read
 entering main loop
       N       E                     dE             d eps       ncg     rms          rms(c)
DAV:   1    -0.134045446716E+01   -0.13405E+01   -0.71267E+01  2360   0.186E+01
DAV:   2    -0.144100768219E+01   -0.10055E+00   -0.98382E-01  2564   0.475E+00
DAV:   3    -0.144135532678E+01   -0.34764E-03   -0.34713E-03  2364   0.256E-01
DAV:   4    -0.144135607650E+01   -0.74973E-06   -0.74956E-06  2460   0.907E-03
DAV:   5    -0.144135607915E+01   -0.26457E-08   -0.26928E-08  2248   0.408E-04    0.213E-01
DAV:   6    -0.144013122653E+01    0.12249E-02   -0.26349E-05  2216   0.239E-02    0.140E-01
DAV:   7    -0.143939903845E+01    0.73219E-03   -0.11245E-04  2240   0.489E-02    0.816E-03
DAV:   8    -0.143937752642E+01    0.21512E-04   -0.54913E-06  2100   0.125E-02    0.179E-03
DAV:   9    -0.143937728156E+01    0.24486E-06   -0.36702E-07  2340   0.341E-03
   1 F= -.14393773E+01 E0= -.14392156E+01  d E =-.485115E-03
a= 3.97
 running on    1 total cores
 distrk:  each k-point on    1 cores,    1 groups
 distr:  one band on    1 cores,    1 groups
 using from now: INCAR     
 vasp.5.4.4.18Apr17-6-g9f103f2a35 (build May 20 2018 16:52:39) complex          
  
 POSCAR found type information on POSCAR  Na
 POSCAR found :  1 types and       1 ions
 scaLAPACK will be used
 LDA part: xc-table for Ceperly-Alder, standard interpolation
 POSCAR, INCAR and KPOINTS ok, starting setup
 FFT: planning ...
 WAVECAR not read
 entering main loop
       N       E                     dE             d eps       ncg     rms          rms(c)
DAV:   1    -0.133924628754E+01   -0.13392E+01   -0.74886E+01  2328   0.190E+01
DAV:   2    -0.144352581984E+01   -0.10428E+00   -0.10163E+00  2608   0.481E+00
DAV:   3    -0.144385279686E+01   -0.32698E-03   -0.32680E-03  2376   0.260E-01
DAV:   4    -0.144385348203E+01   -0.68517E-06   -0.68527E-06  2468   0.907E-03
DAV:   5    -0.144385348446E+01   -0.24272E-08   -0.23353E-08  2224   0.402E-04    0.211E-01
DAV:   6    -0.144271691958E+01    0.11366E-02   -0.24312E-05  2244   0.227E-02    0.138E-01
DAV:   7    -0.144203420917E+01    0.68271E-03   -0.10832E-04  2288   0.475E-02    0.808E-03
DAV:   8    -0.144201448120E+01    0.19728E-04   -0.51924E-06  2084   0.122E-02    0.180E-03
DAV:   9    -0.144201427080E+01    0.21040E-06   -0.35554E-07  2368   0.334E-03
   1 F= -.14420143E+01 E0= -.14418476E+01  d E =-.499916E-03
a= 3.99
 running on    1 total cores
 distrk:  each k-point on    1 cores,    1 groups
 distr:  one band on    1 cores,    1 groups
 using from now: INCAR     
 vasp.5.4.4.18Apr17-6-g9f103f2a35 (build May 20 2018 16:52:39) complex          
  
 POSCAR found type information on POSCAR  Na
 POSCAR found :  1 types and       1 ions
 scaLAPACK will be used
 LDA part: xc-table for Ceperly-Alder, standard interpolation
 POSCAR, INCAR and KPOINTS ok, starting setup
 FFT: planning ...
 WAVECAR not read
 entering main loop
       N       E                     dE             d eps       ncg     rms          rms(c)
DAV:   1    -0.134030462900E+01   -0.13403E+01   -0.68253E+01  2340   0.186E+01
DAV:   2    -0.144511776869E+01   -0.10481E+00   -0.10248E+00  2584   0.476E+00
DAV:   3    -0.144544290232E+01   -0.32513E-03   -0.32509E-03  2340   0.261E-01
DAV:   4    -0.144544369931E+01   -0.79700E-06   -0.79714E-06  2484   0.974E-03
DAV:   5    -0.144544370161E+01   -0.23001E-08   -0.22158E-08  2196   0.403E-04    0.209E-01
DAV:   6    -0.144439256741E+01    0.10511E-02   -0.22946E-05  2220   0.218E-02    0.137E-01
DAV:   7    -0.144375912712E+01    0.63344E-03   -0.10415E-04  2260   0.465E-02    0.801E-03
DAV:   8    -0.144374105349E+01    0.18074E-04   -0.47901E-06  2100   0.116E-02    0.180E-03
DAV:   9    -0.144374082238E+01    0.23111E-06   -0.33883E-07  2360   0.325E-03
   1 F= -.14437408E+01 E0= -.14435705E+01  d E =-.510883E-03
a= 4.01
 running on    1 total cores
 distrk:  each k-point on    1 cores,    1 groups
 distr:  one band on    1 cores,    1 groups
 using from now: INCAR     
 vasp.5.4.4.18Apr17-6-g9f103f2a35 (build May 20 2018 16:52:39) complex          
  
 POSCAR found type information on POSCAR  Na
 POSCAR found :  1 types and       1 ions
 scaLAPACK will be used
 LDA part: xc-table for Ceperly-Alder, standard interpolation
 POSCAR, INCAR and KPOINTS ok, starting setup
 FFT: planning ...
 WAVECAR not read
 entering main loop
       N       E                     dE             d eps       ncg     rms          rms(c)
DAV:   1    -0.135664109262E+01   -0.13566E+01   -0.64968E+01  2376   0.181E+01
DAV:   2    -0.144662417743E+01   -0.89983E-01   -0.87489E-01  2584   0.449E+00
DAV:   3    -0.144693648672E+01   -0.31231E-03   -0.31238E-03  2332   0.247E-01
DAV:   4    -0.144693714761E+01   -0.66088E-06   -0.66088E-06  2508   0.893E-03
DAV:   5    -0.144693714891E+01   -0.13028E-08   -0.12964E-08  2228   0.319E-04    0.208E-01
DAV:   6    -0.144596312385E+01    0.97403E-03   -0.21545E-05  2256   0.209E-02    0.136E-01
DAV:   7    -0.144537332660E+01    0.58980E-03   -0.10188E-04  2192   0.458E-02    0.794E-03
DAV:   8    -0.144535683904E+01    0.16488E-04   -0.44517E-06  2128   0.111E-02    0.181E-03
DAV:   9    -0.144535664099E+01    0.19804E-06   -0.32810E-07  2364   0.318E-03
   1 F= -.14453566E+01 E0= -.14451865E+01  d E =-.510544E-03
a= 4.03
 running on    1 total cores
 distrk:  each k-point on    1 cores,    1 groups
 distr:  one band on    1 cores,    1 groups
 using from now: INCAR     
 vasp.5.4.4.18Apr17-6-g9f103f2a35 (build May 20 2018 16:52:39) complex          
  
 POSCAR found type information on POSCAR  Na
 POSCAR found :  1 types and       1 ions
 scaLAPACK will be used
 LDA part: xc-table for Ceperly-Alder, standard interpolation
 POSCAR, INCAR and KPOINTS ok, starting setup
 FFT: planning ...
 WAVECAR not read
 entering main loop
       N       E                     dE             d eps       ncg     rms          rms(c)
DAV:   1    -0.133618336869E+01   -0.13362E+01   -0.70118E+01  2328   0.186E+01
DAV:   2    -0.144757488484E+01   -0.11139E+00   -0.10733E+00  2568   0.471E+00
DAV:   3    -0.144798689629E+01   -0.41201E-03   -0.41197E-03  2400   0.277E-01
DAV:   4    -0.144798755655E+01   -0.66025E-06   -0.66022E-06  2500   0.873E-03
DAV:   5    -0.144798755740E+01   -0.85592E-09   -0.96441E-09  2272   0.277E-04    0.206E-01
DAV:   6    -0.144708562508E+01    0.90193E-03   -0.20351E-05  2252   0.201E-02    0.135E-01
DAV:   7    -0.144653690706E+01    0.54872E-03   -0.10031E-04  2212   0.454E-02    0.788E-03
DAV:   8    -0.144652186453E+01    0.15043E-04   -0.41720E-06  2100   0.106E-02    0.182E-03
DAV:   9    -0.144652168320E+01    0.18133E-06   -0.31896E-07  2412   0.312E-03
   1 F= -.14465217E+01 E0= -.14463459E+01  d E =-.527425E-03
a= 4.05
 running on    1 total cores
 distrk:  each k-point on    1 cores,    1 groups
 distr:  one band on    1 cores,    1 groups
 using from now: INCAR     
 vasp.5.4.4.18Apr17-6-g9f103f2a35 (build May 20 2018 16:52:39) complex          
  
 POSCAR found type information on POSCAR  Na
 POSCAR found :  1 types and       1 ions
 scaLAPACK will be used
 LDA part: xc-table for Ceperly-Alder, standard interpolation
 POSCAR, INCAR and KPOINTS ok, starting setup
 FFT: planning ...
 WAVECAR not read
 entering main loop
       N       E                     dE             d eps       ncg     rms          rms(c)
DAV:   1    -0.135592992685E+01   -0.13559E+01   -0.71962E+01  2356   0.185E+01
DAV:   2    -0.144814299913E+01   -0.92213E-01   -0.85277E-01  2544   0.441E+00
DAV:   3    -0.144847954342E+01   -0.33654E-03   -0.33645E-03  2364   0.250E-01
DAV:   4    -0.144848032337E+01   -0.77994E-06   -0.77998E-06  2520   0.985E-03
DAV:   5    -0.144848032610E+01   -0.27363E-08   -0.26238E-08  2228   0.443E-04    0.205E-01
DAV:   6    -0.144764689636E+01    0.83343E-03   -0.19417E-05  2236   0.196E-02    0.134E-01
DAV:   7    -0.144713683203E+01    0.51006E-03   -0.99477E-05  2192   0.453E-02    0.784E-03
DAV:   8    -0.144712319085E+01    0.13641E-04   -0.38860E-06  2084   0.101E-02    0.183E-03
DAV:   9    -0.144712303832E+01    0.15253E-06   -0.30944E-07  2428   0.305E-03
   1 F= -.14471230E+01 E0= -.14469453E+01  d E =-.533087E-03
a= 4.07
 running on    1 total cores
 distrk:  each k-point on    1 cores,    1 groups
 distr:  one band on    1 cores,    1 groups
 using from now: INCAR     
 vasp.5.4.4.18Apr17-6-g9f103f2a35 (build May 20 2018 16:52:39) complex          
  
 POSCAR found type information on POSCAR  Na
 POSCAR found :  1 types and       1 ions
 scaLAPACK will be used
 LDA part: xc-table for Ceperly-Alder, standard interpolation
 POSCAR, INCAR and KPOINTS ok, starting setup
 FFT: planning ...
 WAVECAR not read
 entering main loop
       N       E                     dE             d eps       ncg     rms          rms(c)
DAV:   1    -0.135586278397E+01   -0.13559E+01   -0.68928E+01  2292   0.185E+01
DAV:   2    -0.144826467556E+01   -0.92402E-01   -0.90547E-01  2504   0.449E+00
DAV:   3    -0.144858704356E+01   -0.32237E-03   -0.32132E-03  2412   0.248E-01
DAV:   4    -0.144858777956E+01   -0.73600E-06   -0.73589E-06  2444   0.879E-03
DAV:   5    -0.144858778178E+01   -0.22249E-08   -0.22891E-08  2240   0.388E-04    0.203E-01
DAV:   6    -0.144781833726E+01    0.76944E-03   -0.18712E-05  2224   0.192E-02    0.134E-01
DAV:   7    -0.144734464795E+01    0.47369E-03   -0.99492E-05  2180   0.455E-02    0.780E-03
DAV:   8    -0.144733230845E+01    0.12340E-04   -0.36077E-06  2060   0.967E-03    0.184E-03
DAV:   9    -0.144733218243E+01    0.12602E-06   -0.30157E-07  2388   0.300E-03
   1 F= -.14473322E+01 E0= -.14471547E+01  d E =-.532371E-03
a= 4.09
 running on    1 total cores
 distrk:  each k-point on    1 cores,    1 groups
 distr:  one band on    1 cores,    1 groups
 using from now: INCAR     
 vasp.5.4.4.18Apr17-6-g9f103f2a35 (build May 20 2018 16:52:39) complex          
  
 POSCAR found type information on POSCAR  Na
 POSCAR found :  1 types and       1 ions
 scaLAPACK will be used
 LDA part: xc-table for Ceperly-Alder, standard interpolation
 POSCAR, INCAR and KPOINTS ok, starting setup
 FFT: planning ...
 WAVECAR not read
 entering main loop
       N       E                     dE             d eps       ncg     rms          rms(c)
DAV:   1    -0.136112989485E+01   -0.13611E+01   -0.66770E+01  2288   0.184E+01
DAV:   2    -0.144802892810E+01   -0.86899E-01   -0.85590E-01  2700   0.447E+00
DAV:   3    -0.144825419526E+01   -0.22527E-03   -0.22524E-03  2304   0.217E-01
DAV:   4    -0.144825468407E+01   -0.48881E-06   -0.48880E-06  2528   0.819E-03
DAV:   5    -0.144825468547E+01   -0.13979E-08   -0.14973E-08  2188   0.316E-04    0.202E-01
DAV:   6    -0.144754555778E+01    0.70913E-03   -0.18248E-05  2260   0.189E-02    0.133E-01
DAV:   7    -0.144710642044E+01    0.43914E-03   -0.10026E-04  2124   0.460E-02    0.778E-03
DAV:   8    -0.144709530933E+01    0.11111E-04   -0.32336E-06  2072   0.903E-03    0.184E-03
DAV:   9    -0.144709521239E+01    0.96935E-07   -0.29251E-07  2400   0.294E-03
   1 F= -.14470952E+01 E0= -.14469168E+01  d E =-.535230E-03
a= 4.11
 running on    1 total cores
 distrk:  each k-point on    1 cores,    1 groups
 distr:  one band on    1 cores,    1 groups
 using from now: INCAR     
 vasp.5.4.4.18Apr17-6-g9f103f2a35 (build May 20 2018 16:52:39) complex          
  
 POSCAR found type information on POSCAR  Na
 POSCAR found :  1 types and       1 ions
 scaLAPACK will be used
 LDA part: xc-table for Ceperly-Alder, standard interpolation
 POSCAR, INCAR and KPOINTS ok, starting setup
 FFT: planning ...
 WAVECAR not read
 entering main loop
       N       E                     dE             d eps       ncg     rms          rms(c)
DAV:   1    -0.136057283336E+01   -0.13606E+01   -0.68013E+01  2296   0.184E+01
DAV:   2    -0.144714723039E+01   -0.86574E-01   -0.85125E-01  2600   0.437E+00
DAV:   3    -0.144748492545E+01   -0.33770E-03   -0.33714E-03  2356   0.247E-01
DAV:   4    -0.144748574270E+01   -0.81725E-06   -0.81717E-06  2500   0.922E-03
DAV:   5    -0.144748574507E+01   -0.23663E-08   -0.23226E-08  2224   0.369E-04    0.201E-01
DAV:   6    -0.144683364828E+01    0.65210E-03   -0.17950E-05  2240   0.188E-02    0.132E-01
DAV:   7    -0.144642722473E+01    0.40642E-03   -0.10184E-04  2108   0.468E-02    0.777E-03
DAV:   8    -0.144641725301E+01    0.99717E-05   -0.29433E-06  2068   0.863E-03    0.185E-03
DAV:   9    -0.144641718545E+01    0.67554E-07   -0.28519E-07  2412   0.289E-03
   1 F= -.14464172E+01 E0= -.14462394E+01  d E =-.533464E-03
a= 4.13
 running on    1 total cores
 distrk:  each k-point on    1 cores,    1 groups
 distr:  one band on    1 cores,    1 groups
 using from now: INCAR     
 vasp.5.4.4.18Apr17-6-g9f103f2a35 (build May 20 2018 16:52:39) complex          
  
 POSCAR found type information on POSCAR  Na
 POSCAR found :  1 types and       1 ions
 scaLAPACK will be used
 LDA part: xc-table for Ceperly-Alder, standard interpolation
 POSCAR, INCAR and KPOINTS ok, starting setup
 FFT: planning ...
 WAVECAR not read
 entering main loop
       N       E                     dE             d eps       ncg     rms          rms(c)
DAV:   1    -0.136333183244E+01   -0.13633E+01   -0.68333E+01  2356   0.183E+01
DAV:   2    -0.144598071035E+01   -0.82649E-01   -0.78040E-01  2564   0.417E+00
DAV:   3    -0.144628754809E+01   -0.30684E-03   -0.30644E-03  2376   0.231E-01
DAV:   4    -0.144628819078E+01   -0.64269E-06   -0.64275E-06  2460   0.857E-03
DAV:   5    -0.144628819295E+01   -0.21669E-08   -0.20807E-08  2232   0.399E-04    0.200E-01
DAV:   6    -0.144569006764E+01    0.59813E-03   -0.17822E-05  2256   0.189E-02    0.132E-01
DAV:   7    -0.144531468340E+01    0.37538E-03   -0.10401E-04  2084   0.477E-02    0.777E-03
DAV:   8    -0.144530577759E+01    0.89058E-05   -0.26066E-06  2096   0.815E-03    0.186E-03
DAV:   9    -0.144530573543E+01    0.42162E-07   -0.27670E-07  2360   0.283E-03
   1 F= -.14453057E+01 E0= -.14451243E+01  d E =-.544454E-03
a= 4.15
 running on    1 total cores
 distrk:  each k-point on    1 cores,    1 groups
 distr:  one band on    1 cores,    1 groups
 using from now: INCAR     
 vasp.5.4.4.18Apr17-6-g9f103f2a35 (build May 20 2018 16:52:39) complex          
  
 POSCAR found type information on POSCAR  Na
 POSCAR found :  1 types and       1 ions
 scaLAPACK will be used
 LDA part: xc-table for Ceperly-Alder, standard interpolation
 POSCAR, INCAR and KPOINTS ok, starting setup
 FFT: planning ...
 WAVECAR not read
 entering main loop
       N       E                     dE             d eps       ncg     rms          rms(c)
DAV:   1    -0.136586485741E+01   -0.13659E+01   -0.67255E+01  2280   0.184E+01
DAV:   2    -0.144451761978E+01   -0.78653E-01   -0.77564E-01  2608   0.421E+00
DAV:   3    -0.144478351998E+01   -0.26590E-03   -0.26596E-03  2376   0.223E-01
DAV:   4    -0.144478413672E+01   -0.61674E-06   -0.61674E-06  2476   0.821E-03
DAV:   5    -0.144478413926E+01   -0.25419E-08   -0.25600E-08  2260   0.407E-04    0.199E-01
DAV:   6    -0.144423669011E+01    0.54745E-03   -0.17881E-05  2256   0.191E-02    0.131E-01
DAV:   7    -0.144389067837E+01    0.34601E-03   -0.10695E-04  2080   0.490E-02    0.778E-03
DAV:   8    -0.144388276093E+01    0.79174E-05   -0.23657E-06  2112   0.789E-03    0.187E-03
DAV:   9    -0.144388274673E+01    0.14201E-07   -0.27006E-07  2340   0.278E-03
   1 F= -.14438827E+01 E0= -.14436994E+01  d E =-.550018E-03
