bcc Na                                  
           1
    -2.075000    2.075000    2.075000
     2.075000   -2.075000    2.075000
     2.075000    2.075000   -2.075000
   Na
   1
Direct configuration=     1
   0.00000000  0.00000000  0.00000000
