bcc Na                                  
   4.04000000000000     
    -0.500191    0.500191    0.500191
     0.500191   -0.500191    0.500191
     0.500191    0.500191   -0.500191
   Na
     1
Direct
  0.000000  0.000000  0.000000
 
   20   20   20
 0.57344     0.53794     0.46537     0.43053     0.49062     0.64243     0.82717     0.97508      1.0603      1.0967    
  1.1056      1.0967      1.0603     0.97508     0.82717     0.64243     0.49062     0.43053     0.46537     0.53794    
 0.53794     0.52744     0.47105     0.43048     0.46870     0.60045     0.78165     0.94277      1.0438      1.0910    
  1.1059      1.1033      1.0800      1.0170     0.89520     0.72027     0.54805     0.44512     0.43783     0.49179    
 0.46537     0.47105     0.44643     0.42946     0.47181     0.59406     0.76617     0.92764      1.0349      1.0880    
  1.1064      1.1085      1.0973      1.0585     0.97103     0.82545     0.64997     0.50542     0.43597     0.43783    
 0.43053     0.43048     0.42946     0.44303     0.50251     0.62286     0.78248     0.93291      1.0359      1.0884    
  1.1067      1.1103      1.1074      1.0898      1.0381     0.93582     0.78583     0.62623     0.50542     0.44512    
 0.49062     0.46870     0.47181     0.50251     0.57312     0.68790     0.82822     0.95694      1.0459      1.0913    
  1.1058      1.1077      1.1084      1.1054      1.0838      1.0256     0.92265     0.78583     0.64997     0.54805    
 0.64243     0.60045     0.59406     0.62286     0.68790     0.78464     0.89545     0.99368      1.0614      1.0948    
  1.1031      1.1014      1.1016      1.1057      1.1040      1.0814      1.0256     0.93582     0.82545     0.72027    
 0.82717     0.78165     0.76617     0.78248     0.82822     0.89545     0.96940      1.0340      1.0775      1.0969    
  1.0983      1.0930      1.0912      1.0966      1.1045      1.1040      1.0838      1.0381     0.97103     0.89520    
 0.97508     0.94277     0.92764     0.93291     0.95694     0.99368      1.0340      1.0682      1.0894      1.0961    
  1.0921      1.0850      1.0820      1.0865      1.0966      1.1057      1.1054      1.0898      1.0585      1.0170    
  1.0603      1.0438      1.0349      1.0359      1.0459      1.0614      1.0775      1.0894      1.0943      1.0921    
  1.0858      1.0797      1.0778      1.0820      1.0912      1.1016      1.1084      1.1074      1.0973      1.0800    
  1.0967      1.0910      1.0880      1.0884      1.0913      1.0948      1.0969      1.0961      1.0921      1.0864    
  1.0811      1.0784      1.0797      1.0850      1.0930      1.1014      1.1077      1.1103      1.1085      1.1033    
  1.1056      1.1059      1.1064      1.1067      1.1058      1.1031      1.0983      1.0921      1.0858      1.0811    
  1.0793      1.0811      1.0858      1.0921      1.0983      1.1031      1.1058      1.1067      1.1064      1.1059    
  1.0967      1.1033      1.1085      1.1103      1.1077      1.1014      1.0930      1.0850      1.0797      1.0784    
  1.0811      1.0864      1.0921      1.0961      1.0969      1.0948      1.0913      1.0884      1.0880      1.0910    
  1.0603      1.0800      1.0973      1.1074      1.1084      1.1016      1.0912      1.0820      1.0778      1.0797    
  1.0858      1.0921      1.0943      1.0894      1.0775      1.0614      1.0459      1.0359      1.0349      1.0438    
 0.97508      1.0170      1.0585      1.0898      1.1054      1.1057      1.0966      1.0865      1.0820      1.0850    
  1.0921      1.0961      1.0894      1.0682      1.0340     0.99368     0.95694     0.93291     0.92764     0.94277    
 0.82717     0.89520     0.97103      1.0381      1.0838      1.1040      1.1045      1.0966      1.0912      1.0930    
  1.0983      1.0969      1.0775      1.0340     0.96940     0.89545     0.82822     0.78248     0.76617     0.78165    
 0.64243     0.72027     0.82545     0.93582      1.0256      1.0814      1.1040      1.1057      1.1016      1.1014    
  1.1031      1.0948      1.0614     0.99368     0.89545     0.78464     0.68790     0.62286     0.59406     0.60045    
 0.49062     0.54805     0.64997     0.78583     0.92265      1.0256      1.0838      1.1054      1.1084      1.1077    
  1.1058      1.0913      1.0459     0.95694     0.82822     0.68790     0.57312     0.50251     0.47181     0.46870    
 0.43053     0.44512     0.50542     0.62623     0.78583     0.93582      1.0381      1.0898      1.1074      1.1103    
  1.1067      1.0884      1.0359     0.93291     0.78248     0.62286     0.50251     0.44303     0.42946     0.43048    
 0.46537     0.43783     0.43597     0.50542     0.64997     0.82545     0.97103      1.0585      1.0973      1.1085    
  1.1064      1.0880      1.0349     0.92764     0.76617     0.59406     0.47181     0.42946     0.44643     0.47105    
 0.53794     0.49179     0.43783     0.44512     0.54805     0.72027     0.89520      1.0170      1.0800      1.1033    
  1.1059      1.0910      1.0438     0.94277     0.78165     0.60045     0.46870     0.43048     0.47105     0.52744    
 0.53794     0.52744     0.47105     0.43048     0.46870     0.60045     0.78165     0.94277      1.0438      1.0910    
  1.1059      1.1033      1.0800      1.0170     0.89520     0.72027     0.54805     0.44512     0.43783     0.49179    
 0.52744     0.53798     0.49184     0.43789     0.44516     0.54807     0.72027     0.89520      1.0170      1.0800    
  1.1033      1.1059      1.0910      1.0438     0.94277     0.78164     0.60043     0.46866     0.43044     0.47102    
 0.47105     0.49184     0.47109     0.43538     0.44212     0.53124     0.69140     0.86691     0.99900      1.0722    
  1.1017      1.1084      1.1017      1.0722     0.99901     0.86691     0.69140     0.53121     0.44207     0.43533    
 0.43048     0.43789     0.43538     0.42947     0.45606     0.54678     0.69711     0.86371     0.99415      1.0697    
  1.1013      1.1097      1.1086      1.0949      1.0511     0.95785     0.81127     0.64391     0.51006     0.44209    
 0.46870     0.44516     0.44212     0.45606     0.50248     0.59794     0.73694     0.88594      1.0033      1.0729    
  1.1018      1.1088      1.1095      1.1067      1.0880      1.0344     0.93322     0.79117     0.64391     0.53124    
 0.60045     0.54807     0.53124     0.54678     0.59794     0.68788     0.80702     0.92866      1.0237      1.0800    
  1.1021      1.1052      1.1046      1.1066      1.1049      1.0838      1.0281     0.93322     0.81128     0.69141    
 0.78165     0.72027     0.69140     0.69711     0.73694     0.80702     0.89545     0.98211      1.0493      1.0881    
  1.1010      1.0992      1.0957      1.0982      1.1045      1.1042      1.0838      1.0344     0.95785     0.86692    
 0.94277     0.89520     0.86691     0.86371     0.88594     0.92866     0.98211      1.0340      1.0732      1.0939    
  1.0976      1.0919      1.0863      1.0873      1.0954      1.1045      1.1049      1.0880      1.0511     0.99901    
  1.0438      1.0170     0.99900     0.99415      1.0033      1.0237      1.0493      1.0732      1.0894      1.0953    
  1.0922      1.0850      1.0795      1.0800      1.0873      1.0982      1.1066      1.1067      1.0949      1.0722    
  1.0910      1.0800      1.0722      1.0697      1.0729      1.0800      1.0881      1.0939      1.0953      1.0921    
  1.0861      1.0802      1.0774      1.0795      1.0863      1.0957      1.1046      1.1095      1.1086      1.1017    
  1.1059      1.1033      1.1017      1.1013      1.1018      1.1021      1.1010      1.0976      1.0922      1.0861    
  1.0811      1.0788      1.0802      1.0850      1.0919      1.0992      1.1052      1.1088      1.1097      1.1084    
  1.1033      1.1059      1.1084      1.1097      1.1088      1.1052      1.0992      1.0919      1.0850      1.0802    
  1.0788      1.0811      1.0861      1.0922      1.0976      1.1010      1.1021      1.1018      1.1013      1.1017    
  1.0800      1.0910      1.1017      1.1086      1.1095      1.1046      1.0957      1.0863      1.0795      1.0774    
  1.0802      1.0861      1.0921      1.0953      1.0939      1.0881      1.0800      1.0729      1.0697      1.0722    
  1.0170      1.0438      1.0722      1.0949      1.1067      1.1066      1.0982      1.0873      1.0800      1.0795    
  1.0850      1.0922      1.0953      1.0894      1.0732      1.0493      1.0237      1.0033     0.99416     0.99901    
 0.89520     0.94277     0.99901      1.0511      1.0880      1.1049      1.1045      1.0954      1.0873      1.0863    
  1.0919      1.0976      1.0939      1.0732      1.0340     0.98211     0.92867     0.88595     0.86372     0.86692    
 0.72027     0.78164     0.86691     0.95785      1.0344      1.0838      1.1042      1.1045      1.0982      1.0957    
  1.0992      1.1010      1.0881      1.0493     0.98211     0.89546     0.80705     0.73697     0.69713     0.69141    
 0.54805     0.60043     0.69140     0.81127     0.93322      1.0281      1.0838      1.1049      1.1066      1.1046    
  1.1052      1.1021      1.0800      1.0237     0.92867     0.80705     0.68791     0.59798     0.54680     0.53124    
 0.44512     0.46866     0.53121     0.64391     0.79117     0.93322      1.0344      1.0880      1.1067      1.1095    
  1.1088      1.1018      1.0729      1.0033     0.88595     0.73697     0.59798     0.50251     0.45606     0.44209    
 0.43783     0.43044     0.44207     0.51006     0.64391     0.81128     0.95785      1.0511      1.0949      1.1086    
  1.1097      1.1013      1.0697     0.99416     0.86372     0.69713     0.54680     0.45606     0.42944     0.43533    
 0.49179     0.47102     0.43533     0.44209     0.53124     0.69141     0.86692     0.99901      1.0722      1.1017    
  1.1084      1.1017      1.0722     0.99901     0.86692     0.69141     0.53124     0.44209     0.43533     0.47102    
 0.46537     0.47105     0.44643     0.42946     0.47181     0.59406     0.76617     0.92764      1.0349      1.0880    
  1.1064      1.1085      1.0973      1.0585     0.97103     0.82545     0.64997     0.50542     0.43597     0.43783    
 0.47105     0.49184     0.47109     0.43538     0.44212     0.53124     0.69140     0.86691     0.99900      1.0722    
  1.1017      1.1084      1.1017      1.0722     0.99901     0.86691     0.69140     0.53121     0.44207     0.43533    
 0.44643     0.47109     0.46543     0.43789     0.43601     0.50543     0.64996     0.82544     0.97102      1.0585    
  1.0973      1.1085      1.1064      1.0880      1.0349     0.92764     0.76616     0.59404     0.47178     0.42944    
 0.42946     0.43538     0.43789     0.43048     0.44209     0.51005     0.64389     0.81125     0.95784      1.0511    
  1.0949      1.1086      1.1097      1.1013      1.0697     0.99416     0.86372     0.69712     0.54679     0.45606    
 0.47181     0.44212     0.43601     0.44209     0.47176     0.54675     0.67315     0.82647     0.96245      1.0519    
  1.0950      1.1082      1.1099      1.1082      1.0950      1.0519     0.96246     0.82649     0.67319     0.54680    
 0.59406     0.53124     0.50543     0.51005     0.54675     0.62282     0.73694     0.86842     0.98337      1.0601    
  1.0970      1.1067      1.1065      1.1071      1.1062      1.0898      1.0408     0.95051     0.82650     0.69713    
 0.76617     0.69140     0.64996     0.64389     0.67315     0.73694     0.82822     0.92867      1.0151      1.0727    
  1.0991      1.1034      1.0999      1.0996      1.1042      1.1050      1.0878      1.0408     0.96246     0.86372    
 0.92764     0.86691     0.82544     0.81125     0.82647     0.86842     0.92867     0.99369      1.0493      1.0854    
  1.0997      1.0983      1.0917      1.0893      1.0945      1.1030      1.1050      1.0898      1.0519     0.99416    
  1.0349     0.99900     0.97102     0.95784     0.96245     0.98337      1.0151      1.0493      1.0775      1.0939    
  1.0973      1.0917      1.0840      1.0806      1.0846      1.0945      1.1042      1.1062      1.0950      1.0697    
  1.0880      1.0722      1.0585      1.0511      1.0519      1.0601      1.0727      1.0854      1.0939      1.0961    
  1.0922      1.0851      1.0788      1.0768      1.0806      1.0893      1.0996      1.1071      1.1082      1.1013    
  1.1064      1.1017      1.0973      1.0949      1.0950      1.0970      1.0991      1.0997      1.0973      1.0922    
  1.0858      1.0802      1.0775      1.0788      1.0840      1.0917      1.0999      1.1065      1.1099      1.1097    
  1.1085      1.1084      1.1085      1.1086      1.1082      1.1067      1.1034      1.0983      1.0917      1.0851    
  1.0802      1.0784      1.0802      1.0851      1.0917      1.0983      1.1034      1.1067      1.1082      1.1086    
  1.0973      1.1017      1.1064      1.1097      1.1099      1.1065      1.0999      1.0917      1.0840      1.0788    
  1.0775      1.0802      1.0858      1.0922      1.0973      1.0997      1.0991      1.0970      1.0950      1.0949    
  1.0585      1.0722      1.0880      1.1013      1.1082      1.1071      1.0996      1.0893      1.0806      1.0768    
  1.0788      1.0851      1.0922      1.0961      1.0939      1.0853      1.0727      1.0601      1.0519      1.0511    
 0.97103     0.99901      1.0349      1.0697      1.0950      1.1062      1.1042      1.0945      1.0846      1.0806    
  1.0840      1.0917      1.0973      1.0939      1.0775      1.0493      1.0151     0.98337     0.96246     0.95785    
 0.82545     0.86691     0.92764     0.99416      1.0519      1.0898      1.1050      1.1030      1.0945      1.0893    
  1.0917      1.0983      1.0997      1.0853      1.0493     0.99368     0.92867     0.86843     0.82650     0.81128    
 0.64997     0.69140     0.76616     0.86372     0.96246      1.0408      1.0878      1.1050      1.1042      1.0996    
  1.0999      1.1034      1.0991      1.0727      1.0151     0.92867     0.82824     0.73697     0.67319     0.64391    
 0.50542     0.53121     0.59404     0.69712     0.82649     0.95051      1.0408      1.0898      1.1062      1.1071    
  1.1065      1.1067      1.0970      1.0601     0.98337     0.86843     0.73697     0.62286     0.54679     0.51006    
 0.43597     0.44207     0.47178     0.54679     0.67319     0.82650     0.96246      1.0519      1.0950      1.1082    
  1.1099      1.1082      1.0950      1.0519     0.96246     0.82650     0.67319     0.54679     0.47178     0.44207    
 0.43783     0.43533     0.42944     0.45606     0.54680     0.69713     0.86372     0.99416      1.0697      1.1013    
  1.1097      1.1086      1.0949      1.0511     0.95785     0.81128     0.64391     0.51006     0.44207     0.43044    
 0.43053     0.43048     0.42946     0.44303     0.50251     0.62286     0.78248     0.93291      1.0359      1.0884    
  1.1067      1.1103      1.1074      1.0898      1.0381     0.93582     0.78583     0.62623     0.50542     0.44512    
 0.43048     0.43789     0.43538     0.42947     0.45606     0.54678     0.69711     0.86371     0.99415      1.0697    
  1.1013      1.1097      1.1086      1.0949      1.0511     0.95785     0.81127     0.64391     0.51006     0.44209    
 0.42946     0.43538     0.43789     0.43048     0.44209     0.51005     0.64389     0.81125     0.95784      1.0511    
  1.0949      1.1086      1.1097      1.1013      1.0697     0.99416     0.86372     0.69712     0.54679     0.45606    
 0.44303     0.42947     0.43048     0.43053     0.44510     0.50540     0.62621     0.78581     0.93581      1.0381    
  1.0898      1.1074      1.1103      1.1067      1.0884      1.0359     0.93292     0.78248     0.62286     0.50251    
 0.50251     0.45606     0.44209     0.44510     0.46864     0.53118     0.64388     0.79116     0.93322      1.0344    
  1.0880      1.1067      1.1095      1.1088      1.1018      1.0729      1.0033     0.88595     0.73697     0.59798    
 0.62286     0.54678     0.51005     0.50540     0.53118     0.59401     0.69710     0.82649     0.95052      1.0409    
  1.0898      1.1062      1.1071      1.1065      1.1067      1.0970      1.0601     0.98337     0.86843     0.73697    
 0.78248     0.69711     0.64389     0.62621     0.64388     0.69710     0.78248     0.88596     0.98339      1.0552    
  1.0939      1.1052      1.1028      1.1001      1.1028      1.1052      1.0939      1.0552     0.98337     0.88595    
 0.93291     0.86371     0.81125     0.78581     0.79116     0.82649     0.88596     0.95697      1.0237      1.0727    
  1.0980      1.1027      1.0968      1.0915      1.0933      1.1006      1.1047      1.0939      1.0601      1.0033    
  1.0359     0.99415     0.95784     0.93581     0.93322     0.95052     0.98339      1.0237      1.0614      1.0881    
  1.0997      1.0981      1.0899      1.0832      1.0833      1.0907      1.1006      1.1052      1.0970      1.0729    
  1.0884      1.0697      1.0511      1.0381      1.0344      1.0409      1.0552      1.0727      1.0881      1.0969    
  1.0976      1.0917      1.0834      1.0774      1.0771      1.0833      1.0933      1.1028      1.1067      1.1018    
  1.1067      1.1013      1.0949      1.0898      1.0880      1.0898      1.0939      1.0980      1.0997      1.0976    
  1.0921      1.0850      1.0788      1.0759      1.0774      1.0832      1.0915      1.1001      1.1065      1.1088    
  1.1103      1.1097      1.1086      1.1074      1.1067      1.1062      1.1052      1.1027      1.0981      1.0917    
  1.0850      1.0797      1.0774      1.0788      1.0834      1.0899      1.0968      1.1028      1.1071      1.1095    
  1.1074      1.1086      1.1097      1.1103      1.1095      1.1071      1.1028      1.0968      1.0899      1.0834    
  1.0788      1.0774      1.0797      1.0850      1.0917      1.0981      1.1027      1.1052      1.1062      1.1067    
  1.0898      1.0949      1.1013      1.1067      1.1088      1.1065      1.1001      1.0915      1.0832      1.0774    
  1.0759      1.0788      1.0850      1.0921      1.0976      1.0997      1.0980      1.0939      1.0898      1.0880    
  1.0381      1.0511      1.0697      1.0884      1.1018      1.1067      1.1028      1.0933      1.0833      1.0771    
  1.0774      1.0834      1.0917      1.0976      1.0969      1.0881      1.0727      1.0552      1.0408      1.0344    
 0.93582     0.95785     0.99416      1.0359      1.0729      1.0970      1.1052      1.1006      1.0907      1.0833    
  1.0832      1.0899      1.0981      1.0997      1.0881      1.0614      1.0237     0.98337     0.95051     0.93322    
 0.78583     0.81127     0.86372     0.93292      1.0033      1.0601      1.0939      1.1047      1.1006      1.0933    
  1.0915      1.0968      1.1027      1.0980      1.0727      1.0237     0.95695     0.88595     0.82649     0.79117    
 0.62623     0.64391     0.69712     0.78248     0.88595     0.98337      1.0552      1.0939      1.1052      1.1028    
  1.1001      1.1028      1.1052      1.0939      1.0552     0.98337     0.88595     0.78248     0.69712     0.64391    
 0.50542     0.51006     0.54679     0.62286     0.73697     0.86843     0.98337      1.0601      1.0970      1.1067    
  1.1065      1.1071      1.1062      1.0898      1.0408     0.95051     0.82649     0.69712     0.59404     0.53121    
 0.44512     0.44209     0.45606     0.50251     0.59798     0.73697     0.88595      1.0033      1.0729      1.1018    
  1.1088      1.1095      1.1067      1.0880      1.0344     0.93322     0.79117     0.64391     0.53121     0.46866    
 0.49062     0.46870     0.47181     0.50251     0.57312     0.68790     0.82822     0.95694      1.0459      1.0913    
  1.1058      1.1077      1.1084      1.1054      1.0838      1.0256     0.92265     0.78583     0.64997     0.54805    
 0.46870     0.44516     0.44212     0.45606     0.50248     0.59794     0.73694     0.88594      1.0033      1.0729    
  1.1018      1.1088      1.1095      1.1067      1.0880      1.0344     0.93322     0.79117     0.64391     0.53124    
 0.47181     0.44212     0.43601     0.44209     0.47176     0.54675     0.67315     0.82647     0.96245      1.0519    
  1.0950      1.1082      1.1099      1.1082      1.0950      1.0519     0.96246     0.82649     0.67319     0.54680    
 0.50251     0.45606     0.44209     0.44510     0.46864     0.53118     0.64388     0.79116     0.93322      1.0344    
  1.0880      1.1067      1.1095      1.1088      1.1018      1.0729      1.0033     0.88595     0.73697     0.59798    
 0.57312     0.50248     0.47176     0.46864     0.49056     0.54801     0.64995     0.78583     0.92266      1.0256    
  1.0838      1.1054      1.1084      1.1077      1.1058      1.0913      1.0459     0.95695     0.82824     0.68791    
 0.68790     0.59794     0.54675     0.53118     0.54801     0.60041     0.69140     0.81129     0.93324      1.0281    
  1.0838      1.1049      1.1066      1.1046      1.1052      1.1021      1.0800      1.0237     0.92867     0.80705    
 0.82822     0.73694     0.67315     0.64388     0.64995     0.69140     0.76618     0.86375     0.96249      1.0409    
  1.0878      1.1050      1.1042      1.0996      1.0999      1.1034      1.0991      1.0727      1.0151     0.92867    
 0.95694     0.88594     0.82647     0.79116     0.78583     0.81129     0.86375     0.93295      1.0034      1.0601    
  1.0939      1.1047      1.1006      1.0933      1.0915      1.0968      1.1027      1.0980      1.0727      1.0237    
  1.0459      1.0033     0.96245     0.93322     0.92266     0.93324     0.96249      1.0034      1.0459      1.0800    
  1.0991      1.1027      1.0958      1.0868      1.0828      1.0868      1.0958      1.1027      1.0991      1.0800    
  1.0913      1.0729      1.0519      1.0344      1.0256      1.0281      1.0409      1.0601      1.0800      1.0948    
  1.1010      1.0982      1.0899      1.0811      1.0765      1.0787      1.0868      1.0968      1.1034      1.1021    
  1.1058      1.1018      1.0950      1.0880      1.0838      1.0838      1.0878      1.0939      1.0991      1.1010    
  1.0983      1.0919      1.0840      1.0774      1.0746      1.0765      1.0828      1.0915      1.0999      1.1052    
  1.1077      1.1088      1.1082      1.1067      1.1054      1.1049      1.1050      1.1047      1.1027      1.0982    
  1.0919      1.0850      1.0795      1.0768      1.0774      1.0811      1.0868      1.0933      1.0996      1.1046    
  1.1084      1.1095      1.1099      1.1095      1.1084      1.1066      1.1042      1.1006      1.0958      1.0899    
  1.0840      1.0795      1.0778      1.0795      1.0840      1.0899      1.0958      1.1006      1.1042      1.1066    
  1.1054      1.1067      1.1082      1.1088      1.1077      1.1046      1.0996      1.0933      1.0868      1.0811    
  1.0774      1.0768      1.0795      1.0850      1.0919      1.0983      1.1027      1.1047      1.1050      1.1049    
  1.0838      1.0880      1.0950      1.1018      1.1058      1.1052      1.0999      1.0915      1.0828      1.0765    
  1.0746      1.0774      1.0840      1.0919      1.0983      1.1010      1.0991      1.0939      1.0878      1.0838    
  1.0256      1.0344      1.0519      1.0729      1.0913      1.1021      1.1034      1.0968      1.0868      1.0787    
  1.0765      1.0811      1.0899      1.0983      1.1010      1.0948      1.0800      1.0601      1.0408      1.0281    
 0.92265     0.93322     0.96246      1.0033      1.0459      1.0800      1.0991      1.1027      1.0958      1.0868    
  1.0828      1.0868      1.0958      1.1027      1.0991      1.0800      1.0459      1.0033     0.96246     0.93322    
 0.78583     0.79117     0.82649     0.88595     0.95695      1.0237      1.0727      1.0980      1.1027      1.0968    
  1.0915      1.0933      1.1006      1.1047      1.0939      1.0601      1.0033     0.93292     0.86372     0.81127    
 0.64997     0.64391     0.67319     0.73697     0.82824     0.92867      1.0151      1.0727      1.0991      1.1034    
  1.0999      1.0996      1.1042      1.1050      1.0878      1.0408     0.96246     0.86372     0.76616     0.69140    
 0.54805     0.53124     0.54680     0.59798     0.68791     0.80705     0.92867      1.0237      1.0800      1.1021    
  1.1052      1.1046      1.1066      1.1049      1.0838      1.0281     0.93322     0.81127     0.69140     0.60043    
 0.64243     0.60045     0.59406     0.62286     0.68790     0.78464     0.89545     0.99368      1.0614      1.0948    
  1.1031      1.1014      1.1016      1.1057      1.1040      1.0814      1.0256     0.93582     0.82545     0.72027    
 0.60045     0.54807     0.53124     0.54678     0.59794     0.68788     0.80702     0.92866      1.0237      1.0800    
  1.1021      1.1052      1.1046      1.1066      1.1049      1.0838      1.0281     0.93322     0.81128     0.69141    
 0.59406     0.53124     0.50543     0.51005     0.54675     0.62282     0.73694     0.86842     0.98337      1.0601    
  1.0970      1.1067      1.1065      1.1071      1.1062      1.0898      1.0408     0.95051     0.82650     0.69713    
 0.62286     0.54678     0.51005     0.50540     0.53118     0.59401     0.69710     0.82649     0.95052      1.0409    
  1.0898      1.1062      1.1071      1.1065      1.1067      1.0970      1.0601     0.98337     0.86843     0.73697    
 0.68790     0.59794     0.54675     0.53118     0.54801     0.60041     0.69140     0.81129     0.93324      1.0281    
  1.0838      1.1049      1.1066      1.1046      1.1052      1.1021      1.0800      1.0237     0.92867     0.80705    
 0.78464     0.68788     0.62282     0.59401     0.60041     0.64242     0.72028     0.82549     0.93585      1.0257    
  1.0815      1.1040      1.1057      1.1016      1.1014      1.1031      1.0948      1.0614     0.99368     0.89546    
 0.89545     0.80702     0.73694     0.69710     0.69140     0.72028     0.78168     0.86696     0.95788      1.0344    
  1.0838      1.1042      1.1045      1.0982      1.0957      1.0992      1.1010      1.0881      1.0493     0.98211    
 0.99368     0.92866     0.86842     0.82649     0.81129     0.82549     0.86696     0.92768     0.99418      1.0519    
  1.0898      1.1050      1.1030      1.0945      1.0893      1.0917      1.0983      1.0997      1.0853      1.0493    
  1.0614      1.0237     0.98337     0.95052     0.93324     0.93585     0.95788     0.99418      1.0359      1.0728    
  1.0969      1.1052      1.1006      1.0907      1.0833      1.0832      1.0899      1.0981      1.0997      1.0881    
  1.0948      1.0800      1.0601      1.0409      1.0281      1.0257      1.0344      1.0519      1.0728      1.0913    
  1.1021      1.1034      1.0968      1.0868      1.0787      1.0765      1.0811      1.0899      1.0983      1.1010    
  1.1031      1.1021      1.0970      1.0898      1.0838      1.0815      1.0838      1.0898      1.0969      1.1021    
  1.1031      1.0992      1.0917      1.0832      1.0765      1.0741      1.0765      1.0832      1.0917      1.0992    
  1.1014      1.1052      1.1067      1.1062      1.1049      1.1040      1.1042      1.1050      1.1052      1.1034    
  1.0992      1.0930      1.0863      1.0806      1.0771      1.0765      1.0787      1.0833      1.0893      1.0957    
  1.1016      1.1046      1.1065      1.1071      1.1066      1.1057      1.1045      1.1030      1.1006      1.0968    
  1.0917      1.0863      1.0820      1.0800      1.0806      1.0832      1.0868      1.0907      1.0945      1.0982    
  1.1057      1.1066      1.1071      1.1065      1.1046      1.1016      1.0982      1.0945      1.0907      1.0868    
  1.0832      1.0806      1.0800      1.0820      1.0863      1.0917      1.0968      1.1006      1.1030      1.1045    
  1.1040      1.1049      1.1062      1.1067      1.1052      1.1014      1.0957      1.0893      1.0833      1.0787    
  1.0765      1.0771      1.0806      1.0863      1.0930      1.0992      1.1034      1.1052      1.1050      1.1042    
  1.0814      1.0838      1.0898      1.0970      1.1021      1.1031      1.0992      1.0917      1.0832      1.0765    
  1.0741      1.0765      1.0832      1.0917      1.0992      1.1031      1.1021      1.0970      1.0898      1.0838    
  1.0256      1.0281      1.0408      1.0601      1.0800      1.0948      1.1010      1.0983      1.0899      1.0811    
  1.0765      1.0787      1.0868      1.0968      1.1034      1.1021      1.0913      1.0729      1.0519      1.0344    
 0.93582     0.93322     0.95051     0.98337      1.0237      1.0614      1.0881      1.0997      1.0981      1.0899    
  1.0832      1.0833      1.0907      1.1006      1.1052      1.0970      1.0729      1.0359     0.99416     0.95785    
 0.82545     0.81128     0.82650     0.86843     0.92867     0.99368      1.0493      1.0853      1.0997      1.0983    
  1.0917      1.0893      1.0945      1.1030      1.1050      1.0898      1.0519     0.99416     0.92764     0.86691    
 0.72027     0.69141     0.69713     0.73697     0.80705     0.89546     0.98211      1.0493      1.0881      1.1010    
  1.0992      1.0957      1.0982      1.1045      1.1042      1.0838      1.0344     0.95785     0.86691     0.78164    
 0.82717     0.78165     0.76617     0.78248     0.82822     0.89545     0.96940      1.0340      1.0775      1.0969    
  1.0983      1.0930      1.0912      1.0966      1.1045      1.1040      1.0838      1.0381     0.97103     0.89520    
 0.78165     0.72027     0.69140     0.69711     0.73694     0.80702     0.89545     0.98211      1.0493      1.0881    
  1.1010      1.0992      1.0957      1.0982      1.1045      1.1042      1.0838      1.0344     0.95785     0.86692    
 0.76617     0.69140     0.64996     0.64389     0.67315     0.73694     0.82822     0.92867      1.0151      1.0727    