bcc Na                                  
   4.04000000000000     
    -0.500658    0.500658    0.500658
     0.500658   -0.500658    0.500658
     0.500658    0.500658   -0.500658
   Na
     1
Direct
  0.000000 -0.000000  0.000000
 
   20   20   20
 0.57247409191E+00 0.53705897437E+00 0.46480574601E+00 0.43060989770E+00 0.49152453044E+00
 0.64398895665E+00 0.82882118465E+00 0.97624823188E+00 0.10608387078E+01 0.10966740331E+01
 0.11053595170E+01 0.10966740331E+01 0.10608387078E+01 0.97624823188E+00 0.82882118465E+00
 0.64398895665E+00 0.49152453044E+00 0.43060989770E+00 0.46480574601E+00 0.53705897437E+00
 0.53705897437E+00 0.52658265667E+00 0.47044623288E+00 0.43042054487E+00 0.46942214982E+00
 0.60188075963E+00 0.78333439175E+00 0.94409173266E+00 0.10444454983E+01 0.10910981256E+01
 0.11056184253E+01 0.11031184040E+01 0.10802900786E+01 0.10179405774E+01 0.89669945726E+00
 0.72193379166E+00 0.54928716432E+00 0.44557308271E+00 0.43755738708E+00 0.49107073706E+00
 0.46480574601E+00 0.47044623288E+00 0.44602278852E+00 0.42952161961E+00 0.47254975302E+00
 0.59545102380E+00 0.76782816577E+00 0.92901413308E+00 0.10356596155E+01 0.10881747138E+01
 0.11061647189E+01 0.11081310129E+01 0.10972444462E+01 0.10590445126E+01 0.97222118120E+00
 0.82709549650E+00 0.65152499451E+00 0.50642027036E+00 0.43626277368E+00 0.43755738708E+00
 0.43060989770E+00 0.43042054487E+00 0.42952161961E+00 0.44344872644E+00 0.50345043598E+00
 0.62429067698E+00 0.78408799409E+00 0.93422461514E+00 0.10366154646E+01 0.10885085060E+01
 0.11063668798E+01 0.11097451668E+01 0.11070700725E+01 0.10899608849E+01 0.10388528828E+01
 0.93717745753E+00 0.78749987938E+00 0.62772639688E+00 0.50642027036E+00 0.44557308271E+00
 0.49152453044E+00 0.46942214982E+00 0.47254975302E+00 0.50345043598E+00 0.57438370615E+00
 0.68941715340E+00 0.82973721404E+00 0.95810052359E+00 0.10464802359E+01 0.10913037601E+01
 0.11053887043E+01 0.11070585934E+01 0.11077940793E+01 0.11051127710E+01 0.10840401390E+01
 0.10265183639E+01 0.92406160993E+00 0.78749987938E+00 0.65152499451E+00 0.54928716432E+00
 0.64398895665E+00 0.60188075963E+00 0.59545102380E+00 0.62429067698E+00 0.68941715340E+00
 0.78616205941E+00 0.89676765637E+00 0.99458659724E+00 0.10617977264E+01 0.10947016655E+01
 0.11025277756E+01 0.11005834374E+01 0.11008207844E+01 0.11050365704E+01 0.11038308851E+01
 0.10817701095E+01 0.10265183639E+01 0.93717745753E+00 0.82709549650E+00 0.72193379166E+00
 0.82882118465E+00 0.78333439175E+00 0.76782816577E+00 0.78408799409E+00 0.82973721404E+00
 0.89676765637E+00 0.97039270072E+00 0.10345630977E+01 0.10776288942E+01 0.10965789213E+01
 0.10976099877E+01 0.10920904905E+01 0.10902247967E+01 0.10957298412E+01 0.11038968113E+01
 0.11038308851E+01 0.10840401390E+01 0.10388528828E+01 0.97222118120E+00 0.89669945726E+00
 0.97624823188E+00 0.94409173266E+00 0.92901413308E+00 0.93422461514E+00 0.95810052359E+00
 0.99458659724E+00 0.10345630977E+01 0.10684019918E+01 0.10892324210E+01 0.10954902370E+01
 0.10912548398E+01 0.10840122793E+01 0.10809417832E+01 0.10854966691E+01 0.10957298412E+01
 0.11050365704E+01 0.11051127710E+01 0.10899608849E+01 0.10590445126E+01 0.10179405774E+01
 0.10608387078E+01 0.10444454983E+01 0.10356596155E+01 0.10366154646E+01 0.10464802359E+01
 0.10617977264E+01 0.10776288942E+01 0.10892324210E+01 0.10937685191E+01 0.10913354330E+01
 0.10848266074E+01 0.10786261496E+01 0.10767095094E+01 0.10809417832E+01 0.10902247967E+01
 0.11008207844E+01 0.11077940793E+01 0.11070700725E+01 0.10972444462E+01 0.10802900786E+01
 0.10966740331E+01 0.10910981256E+01 0.10881747138E+01 0.10885085060E+01 0.10913037601E+01
 0.10947016655E+01 0.10965789213E+01 0.10954902370E+01 0.10913354330E+01 0.10854403008E+01
 0.10800216718E+01 0.10772966570E+01 0.10786261496E+01 0.10840122793E+01 0.10920904905E+01
 0.11005834374E+01 0.11070585934E+01 0.11097451668E+01 0.11081310129E+01 0.11031184040E+01
 0.11053595170E+01 0.11056184253E+01 0.11061647189E+01 0.11063668798E+01 0.11053887043E+01
 0.11025277756E+01 0.10976099877E+01 0.10912548398E+01 0.10848266074E+01 0.10800216718E+01
 0.10782396310E+01 0.10800216718E+01 0.10848266074E+01 0.10912548398E+01 0.10976099877E+01
 0.11025277756E+01 0.11053887043E+01 0.11063668798E+01 0.11061647189E+01 0.11056184253E+01
 0.10966740331E+01 0.11031184040E+01 0.11081310129E+01 0.11097451668E+01 0.11070585934E+01
 0.11005834374E+01 0.10920904905E+01 0.10840122793E+01 0.10786261496E+01 0.10772966570E+01
 0.10800216718E+01 0.10854403008E+01 0.10913354330E+01 0.10954902370E+01 0.10965789213E+01
 0.10947016655E+01 0.10913037601E+01 0.10885085060E+01 0.10881747138E+01 0.10910981256E+01
 0.10608387078E+01 0.10802900786E+01 0.10972444462E+01 0.11070700725E+01 0.11077940793E+01
 0.11008207844E+01 0.10902247967E+01 0.10809417832E+01 0.10767095094E+01 0.10786261496E+01
 0.10848266074E+01 0.10913354330E+01 0.10937685191E+01 0.10892324210E+01 0.10776288942E+01
 0.10617977264E+01 0.10464802359E+01 0.10366154646E+01 0.10356596155E+01 0.10444454983E+01
 0.97624823188E+00 0.10179405774E+01 0.10590445126E+01 0.10899608849E+01 0.11051127710E+01
 0.11050365704E+01 0.10957298412E+01 0.10854966691E+01 0.10809417832E+01 0.10840122793E+01
 0.10912548398E+01 0.10954902370E+01 0.10892324210E+01 0.10684019918E+01 0.10345630977E+01
 0.99458659724E+00 0.95810052359E+00 0.93422461514E+00 0.92901413308E+00 0.94409173266E+00
 0.82882118465E+00 0.89669945726E+00 0.97222118120E+00 0.10388528828E+01 0.10840401390E+01
 0.11038308851E+01 0.11038968113E+01 0.10957298412E+01 0.10902247967E+01 0.10920904905E+01
 0.10976099877E+01 0.10965789213E+01 0.10776288942E+01 0.10345630977E+01 0.97039270072E+00
 0.89676765637E+00 0.82973721404E+00 0.78408799409E+00 0.76782816577E+00 0.78333439175E+00
 0.64398895665E+00 0.72193379166E+00 0.82709549650E+00 0.93717745753E+00 0.10265183639E+01
 0.10817701095E+01 0.11038308851E+01 0.11050365704E+01 0.11008207844E+01 0.11005834374E+01
 0.11025277756E+01 0.10947016655E+01 0.10617977264E+01 0.99458659724E+00 0.89676765637E+00
 0.78616205941E+00 0.68941715340E+00 0.62429067698E+00 0.59545102380E+00 0.60188075963E+00
 0.49152453044E+00 0.54928716432E+00 0.65152499451E+00 0.78749987938E+00 0.92406160993E+00
 0.10265183639E+01 0.10840401390E+01 0.11051127710E+01 0.11077940793E+01 0.11070585934E+01
 0.11053887043E+01 0.10913037601E+01 0.10464802359E+01 0.95810052359E+00 0.82973721404E+00
 0.68941715340E+00 0.57438370615E+00 0.50345043598E+00 0.47254975302E+00 0.46942214982E+00
 0.43060989770E+00 0.44557308271E+00 0.50642027036E+00 0.62772639688E+00 0.78749987938E+00
 0.93717745753E+00 0.10388528828E+01 0.10899608849E+01 0.11070700725E+01 0.11097451668E+01
 0.11063668798E+01 0.10885085060E+01 0.10366154646E+01 0.93422461514E+00 0.78408799409E+00
 0.62429067698E+00 0.50345043598E+00 0.44344872644E+00 0.42952161961E+00 0.43042054487E+00
 0.46480574601E+00 0.43755738708E+00 0.43626277368E+00 0.50642027036E+00 0.65152499451E+00
 0.82709549650E+00 0.97222118120E+00 0.10590445126E+01 0.10972444462E+01 0.11081310129E+01
 0.11061647189E+01 0.10881747138E+01 0.10356596155E+01 0.92901413308E+00 0.76782816577E+00
 0.59545102380E+00 0.47254975302E+00 0.42952161961E+00 0.44602278852E+00 0.47044623288E+00
 0.53705897437E+00 0.49107073706E+00 0.43755738708E+00 0.44557308271E+00 0.54928716432E+00
 0.72193379166E+00 0.89669945726E+00 0.10179405774E+01 0.10802900786E+01 0.11031184040E+01
 0.11056184253E+01 0.10910981256E+01 0.10444454983E+01 0.94409173266E+00 0.78333439175E+00
 0.60188075963E+00 0.46942214982E+00 0.43042054487E+00 0.47044623288E+00 0.52658265667E+00
 0.53705897437E+00 0.52658265667E+00 0.47044623288E+00 0.43042054487E+00 0.46942214982E+00
 0.60188075963E+00 0.78333439175E+00 0.94409173266E+00 0.10444454983E+01 0.10910981256E+01
 0.11056184253E+01 0.11031184040E+01 0.10802900786E+01 0.10179405774E+01 0.89669945726E+00
 0.72193379166E+00 0.54928716432E+00 0.44557308271E+00 0.43755738708E+00 0.49107073706E+00
 0.52658265667E+00 0.53709056564E+00 0.49112161877E+00 0.43760711360E+00 0.44560663584E+00
 0.54930258243E+00 0.72193902021E+00 0.89670338922E+00 0.10179466543E+01 0.10802962101E+01
 0.11031208418E+01 0.11056154010E+01 0.10910909887E+01 0.10444371590E+01 0.94408337535E+00
 0.78332284607E+00 0.60185984791E+00 0.46938892959E+00 0.43038193552E+00 0.47041872563E+00
 0.47044623288E+00 0.49112161877E+00 0.47047540760E+00 0.43514138338E+00 0.44251820009E+00
 0.53237685490E+00 0.69302969947E+00 0.86847942679E+00 0.10000353454E+01 0.10725446580E+01
 0.11015246661E+01 0.11080637516E+01 0.11015167629E+01 0.10725331847E+01 0.10000257211E+01
 0.86847303252E+00 0.69302080671E+00 0.53235607257E+00 0.44248185369E+00 0.43509893381E+00
 0.43042054487E+00 0.43760711360E+00 0.43514138338E+00 0.42951950187E+00 0.45663586059E+00
 0.54797054431E+00 0.69871294435E+00 0.86525797150E+00 0.99519951407E+00 0.10700812164E+01
 0.11011770676E+01 0.11092786398E+01 0.11081693366E+01 0.10948748679E+01 0.10517071890E+01
 0.95910187111E+00 0.81291376793E+00 0.64543477658E+00 0.51108160880E+00 0.44249971329E+00
 0.46942214982E+00 0.44560663584E+00 0.44251820009E+00 0.45663586059E+00 0.50342648083E+00
 0.59929887610E+00 0.73853386980E+00 0.88738269233E+00 0.10042905329E+01 0.10732014275E+01
 0.11016395290E+01 0.11082550691E+01 0.11089398488E+01 0.11063468085E+01 0.10882062389E+01
 0.10352036268E+01 0.93458412435E+00 0.79282799943E+00 0.64544292024E+00 0.53237762751E+00
 0.60188075963E+00 0.54930258243E+00 0.53237685490E+00 0.54797054431E+00 0.59929887610E+00
 0.68939883546E+00 0.80854937815E+00 0.92990799078E+00 0.10244171946E+01 0.10802067953E+01
 0.11018312265E+01 0.11045288393E+01 0.11038065817E+01 0.11060086196E+01 0.11046437291E+01
 0.10840653661E+01 0.10289206975E+01 0.93458637531E+00 0.81292200463E+00 0.69303721098E+00
 0.78333439175E+00 0.72193902021E+00 0.69302969947E+00 0.69871294435E+00 0.73853386980E+00
 0.80854937815E+00 0.89676471836E+00 0.98306242458E+00 0.10497731119E+01 0.10880715541E+01
 0.11005171313E+01 0.10984095350E+01 0.10948177850E+01 0.10972978052E+01 0.11038780184E+01
 0.11039978995E+01 0.10840656494E+01 0.10352056097E+01 0.95910779441E+00 0.86848355412E+00
 0.94409173266E+00 0.89670338922E+00 0.86847942679E+00 0.86525797150E+00 0.88738269233E+00
 0.92990799078E+00 0.98306242458E+00 0.10345660239E+01 0.10733473179E+01 0.10936154602E+01
 0.10969594566E+01 0.10910081362E+01 0.10852655412E+01 0.10862981678E+01 0.10945184242E+01
 0.11038781594E+01 0.11046443397E+01 0.10882083510E+01 0.10517121659E+01 0.10000337086E+01
 0.10444454983E+01 0.10179466543E+01 0.10000353454E+01 0.99519951407E+00 0.10042905329E+01
 0.10244171946E+01 0.10497731119E+01 0.10733473179E+01 0.10892333051E+01 0.10947568512E+01
 0.10914074315E+01 0.10840023888E+01 0.10784189909E+01 0.10789338704E+01 0.10862984141E+01
 0.10972984898E+01 0.11060101503E+01 0.11063498603E+01 0.10948802195E+01 0.10725408586E+01
 0.10910981256E+01 0.10802962101E+01 0.10725446580E+01 0.10700812164E+01 0.10732014275E+01
 0.10802067953E+01 0.10880715541E+01 0.10936154602E+01 0.10947568512E+01 0.10913350008E+01
 0.10851423149E+01 0.10791587088E+01 0.10763341001E+01 0.10784193732E+01 0.10852663372E+01
 0.10948192627E+01 0.11038089987E+01 0.11089434582E+01 0.11081744283E+01 0.11015233099E+01
 0.11056184253E+01 0.11031208418E+01 0.11015246661E+01 0.11011770676E+01 0.11016395290E+01
 0.11018312265E+01 0.11005171313E+01 0.10969594566E+01 0.10914074315E+01 0.10851423149E+01
 0.10800219514E+01 0.10777404297E+01 0.10791593860E+01 0.10840035044E+01 0.10910096321E+01
 0.10984114784E+01 0.11045312300E+01 0.11082578008E+01 0.11092816106E+01 0.11080668727E+01
 0.11031184040E+01 0.11056154010E+01 0.11080637516E+01 0.11092786398E+01 0.11082550691E+01
 0.11045288393E+01 0.10984095350E+01 0.10910081362E+01 0.10840023888E+01 0.10791587088E+01
 0.10777404297E+01 0.10800228079E+01 0.10851438682E+01 0.10914092315E+01 0.10969611130E+01
 0.11005185414E+01 0.11018324018E+01 0.11016402647E+01 0.11011769193E+01 0.11015233099E+01
 0.10802900786E+01 0.10910909887E+01 0.11015167629E+01 0.11081693366E+01 0.11089398488E+01
 0.11038065817E+01 0.10948177850E+01 0.10852655412E+01 0.10784189909E+01 0.10763341001E+01
 0.10791593860E+01 0.10851438682E+01 0.10913370197E+01 0.10947584655E+01 0.10936161412E+01
 0.10880716076E+01 0.10802068193E+01 0.10732012869E+01 0.10700798027E+01 0.10725408586E+01
 0.10179405774E+01 0.10444371590E+01 0.10725331847E+01 0.10948748679E+01 0.11063468085E+01
 0.11060086196E+01 0.10972978052E+01 0.10862981678E+01 0.10789338704E+01 0.10784193732E+01
 0.10840035044E+01 0.10914092315E+01 0.10947584655E+01 0.10892337060E+01 0.10733466381E+01
 0.10497729604E+01 0.10244191226E+01 0.10042940332E+01 0.99520185048E+00 0.10000337086E+01
 0.89669945726E+00 0.94408337535E+00 0.10000257211E+01 0.10517071890E+01 0.10882062389E+01
 0.11046437291E+01 0.11038780184E+01 0.10945184242E+01 0.10862984141E+01 0.10852663372E+01
 0.10910096321E+01 0.10969611130E+01 0.10936161412E+01 0.10733466381E+01 0.10345658075E+01
 0.98306611065E+00 0.92991760023E+00 0.88739603703E+00 0.86526931334E+00 0.86848355412E+00
 0.72193379166E+00 0.78332284607E+00 0.86847303252E+00 0.95910187111E+00 0.10352036268E+01
 0.10840653661E+01 0.11039978995E+01 0.11038781594E+01 0.10972984898E+01 0.10948192627E+01
 0.10984114784E+01 0.11005185414E+01 0.10880716076E+01 0.10497729604E+01 0.98306611065E+00
 0.89677702372E+00 0.80857129632E+00 0.73855981733E+00 0.69873328119E+00 0.69303721098E+00
 0.54928716432E+00 0.60185984791E+00 0.69302080671E+00 0.81291376793E+00 0.93458412435E+00
 0.10289206975E+01 0.10840656494E+01 0.11046443397E+01 0.11060101503E+01 0.11038089987E+01
 0.11045312300E+01 0.11018324018E+01 0.10802068193E+01 0.10244191226E+01 0.92991760023E+00
 0.80857129632E+00 0.68943118988E+00 0.59933168277E+00 0.54799090514E+00 0.53237762751E+00
 0.44557308271E+00 0.46938892959E+00 0.53235607257E+00 0.64543477658E+00 0.79282799943E+00
 0.93458637531E+00 0.10352056097E+01 0.10882083510E+01 0.11063498603E+01 0.11089434582E+01
 0.11082578008E+01 0.11016402647E+01 0.10732012869E+01 0.10042940332E+01 0.88739603703E+00
 0.73855981733E+00 0.59933168277E+00 0.50345250523E+00 0.45664152110E+00 0.44249971329E+00
 0.43755738708E+00 0.43038193552E+00 0.44248185369E+00 0.51108160880E+00 0.64544292024E+00
 0.81292200463E+00 0.95910779441E+00 0.10517121659E+01 0.10948802195E+01 0.11081744283E+01
 0.11092816106E+01 0.11011769193E+01 0.10700798027E+01 0.99520185048E+00 0.86526931334E+00
 0.69873328119E+00 0.54799090514E+00 0.45664152110E+00 0.42949984130E+00 0.43509893381E+00
 0.49107073706E+00 0.47041872563E+00 0.43509893381E+00 0.44249971329E+00 0.53237762751E+00
 0.69303721098E+00 0.86848355412E+00 0.10000337086E+01 0.10725408586E+01 0.11015233099E+01
 0.11080668727E+01 0.11015233099E+01 0.10725408586E+01 0.10000337086E+01 0.86848355412E+00
 0.69303721098E+00 0.53237762751E+00 0.44249971329E+00 0.43509893381E+00 0.47041872563E+00
 0.46480574601E+00 0.47044623288E+00 0.44602278852E+00 0.42952161961E+00 0.47254975302E+00
 0.59545102380E+00 0.76782816577E+00 0.92901413308E+00 0.10356596155E+01 0.10881747138E+01
 0.11061647189E+01 0.11081310129E+01 0.10972444462E+01 0.10590445126E+01 0.97222118120E+00
 0.82709549650E+00 0.65152499451E+00 0.50642027036E+00 0.43626277368E+00 0.43755738708E+00
 0.47044623288E+00 0.49112161877E+00 0.47047540760E+00 0.43514138338E+00 0.44251820009E+00
 0.53237685490E+00 0.69302969947E+00 0.86847942679E+00 0.10000353454E+01 0.10725446580E+01
 0.11015246661E+01 0.11080637516E+01 0.11015167629E+01 0.10725331847E+01 0.10000257211E+01
 0.86847303252E+00 0.69302080671E+00 0.53235607257E+00 0.44248185369E+00 0.43509893381E+00
 0.44602278852E+00 0.47047540760E+00 0.46485464547E+00 0.43760505244E+00 0.43629155908E+00
 0.50642719277E+00 0.65152047512E+00 0.82709252007E+00 0.97222549688E+00 0.10590530409E+01
 0.10972503802E+01 0.11081296561E+01 0.11061561109E+01 0.10881626793E+01 0.10356483689E+01
 0.92900428384E+00 0.76781537728E+00 0.59543013745E+00 0.47252239022E+00 0.42949984130E+00
 0.42952161961E+00 0.43514138338E+00 0.43760505244E+00 0.43041413858E+00 0.44248722696E+00
 0.51106538647E+00 0.64542108944E+00 0.81290856934E+00 0.95910638594E+00 0.10517172147E+01
 0.10948838233E+01 0.11081720966E+01 0.11092737147E+01 0.11011668346E+01 0.10700707410E+01
 0.99519411696E+00 0.86526016880E+00 0.69872079256E+00 0.54797923110E+00 0.45664152110E+00
 0.47254975302E+00 0.44251820009E+00 0.43629155908E+00 0.44248722696E+00 0.47250109958E+00
 0.54794316570E+00 0.67471402265E+00 0.82807666303E+00 0.96366718429E+00 0.10524744586E+01
 0.10949907686E+01 0.11077349481E+01 0.11093457899E+01 0.11077308268E+01 0.10949836749E+01
 0.10524677327E+01 0.96366708295E+00 0.82809082472E+00 0.67474694193E+00 0.54799090514E+00
 0.59545102380E+00 0.53237685490E+00 0.50642719277E+00 0.51106538647E+00 0.54794316570E+00
 0.62425332242E+00 0.73853020523E+00 0.86989600236E+00 0.98443896375E+00 0.10606044483E+01
 0.10968930630E+01 0.11061560935E+01 0.11057618155E+01 0.11064252225E+01 0.11058284332E+01
 0.10899577262E+01 0.10415833830E+01 0.95177546555E+00 0.82809486646E+00 0.69873328119E+00
 0.76782816577E+00 0.69302969947E+00 0.65152047512E+00 0.64542108944E+00 0.67471402265E+00
 0.73853020523E+00 0.82973436929E+00 0.92991799153E+00 0.10158848597E+01 0.10730253816E+01
 0.10989412114E+01 0.11028198032E+01 0.10990538008E+01 0.10987196496E+01 0.11034914010E+01
 0.11047152282E+01 0.10880303655E+01 0.10415840426E+01 0.96367084868E+00 0.86526931334E+00
 0.92901413308E+00 0.86847942679E+00 0.82709252007E+00 0.81290856934E+00 0.82807666303E+00
 0.86989600236E+00 0.92991799153E+00 0.99459812316E+00 0.10497797802E+01 0.10853812487E+01
 0.10992699049E+01 0.10975385562E+01 0.10907613468E+01 0.10883046763E+01 0.10935901177E+01
 0.11023717837E+01 0.11047152033E+01 0.10899586476E+01 0.10524714581E+01 0.99520185048E+00
 0.10356596155E+01 0.10000353454E+01 0.97222549688E+00 0.95910638594E+00 0.96366718429E+00
 0.98443896375E+00 0.10158848597E+01 0.10497797802E+01 0.10776339099E+01 0.10936159474E+01
 0.10967101550E+01 0.10908762798E+01 0.10829866229E+01 0.10795337978E+01 0.10836382890E+01
 0.10935901180E+01 0.11034919610E+01 0.11058306821E+01 0.10949890091E+01 0.10700798027E+01
 0.10881747138E+01 0.10725446580E+01 0.10590530409E+01 0.10517172147E+01 0.10524744586E+01
 0.10606044483E+01 0.10730253816E+01 0.10853812487E+01 0.10936159474E+01 0.10954895012E+01
 0.10914072110E+01 0.10841728599E+01 0.10777672237E+01 0.10756898684E+01 0.10795339977E+01
 0.10883053323E+01 0.10987215287E+01 0.11064292278E+01 0.11077377751E+01 0.11011769193E+01
 0.11061647189E+01 0.11015246661E+01 0.10972503802E+01 0.10948838233E+01 0.10949907686E+01
 0.10968930630E+01 0.10989412114E+01 0.10992699049E+01 0.10967101550E+01 0.10914072110E+01
 0.10848270252E+01 0.10791600108E+01 0.10764368580E+01 0.10777680170E+01 0.10829879425E+01
 0.10907634053E+01 0.10990569866E+01 0.11057664746E+01 0.11093521405E+01 0.11092816106E+01
 0.11081310129E+01 0.11080637516E+01 0.11081296561E+01 0.11081720966E+01 0.11077349481E+01
 0.11061560935E+01 0.11028198032E+01 0.10975385562E+01 0.10908762798E+01 0.10841728599E+01
 0.10791600108E+01 0.10772991844E+01 0.10791614521E+01 0.10841754146E+01 0.10908794366E+01
 0.10975418493E+01 0.11028229890E+01 0.11061591294E+01 0.11077377751E+01 0.11081744283E+01
 0.10972444462E+01 0.11015167629E+01 0.11061561109E+01 0.11092737147E+01 0.11093457899E+01
 0.11057618155E+01 0.10990538008E+01 0.10907613468E+01 0.10829866229E+01 0.10777672237E+01
 0.10764368580E+01 0.10791614521E+01 0.10848302499E+01 0.10914116009E+01 0.10967143175E+01
 0.10992726311E+01 0.10989422002E+01 0.10968926380E+01 0.10949890091E+01 0.10948802195E+01
 0.10590445126E+01 0.10725331847E+01 0.10881626793E+01 0.11011668346E+01 0.11077308268E+01
 0.11064252225E+01 0.10987196496E+01 0.10883046763E+01 0.10795337978E+01 0.10756898684E+01
 0.10777680170E+01 0.10841754146E+01 0.10914116009E+01 0.10954941823E+01 0.10936187210E+01
 0.10853811364E+01 0.10730233211E+01 0.10606018986E+01 0.10524714581E+01 0.10517121659E+01
 0.97222118120E+00 0.10000257211E+01 0.10356483689E+01 0.10700707410E+01 0.10949836749E+01
 0.11058284332E+01 0.11034914010E+01 0.10935901177E+01 0.10836382890E+01 0.10795339977E+01
 0.10829879425E+01 0.10908794366E+01 0.10967143175E+01 0.10936187210E+01 0.10776334278E+01
 0.10497769723E+01 0.10158830423E+01 0.98444055880E+00 0.96367084868E+00 0.95910779441E+00
 0.82709549650E+00 0.86847303252E+00 0.92900428384E+00 0.99519411696E+00 0.10524677327E+01
 0.10899577262E+01 0.11047152282E+01 0.11023717837E+01 0.10935901180E+01 0.10883053323E+01
 0.10907634053E+01 0.10975418493E+01 0.10992726311E+01 0.10853811364E+01 0.10497769723E+01
 0.99459675798E+00 0.92992364356E+00 0.86991040405E+00 0.82809486646E+00 0.81292200463E+00
 0.65152499451E+00 0.69302080671E+00 0.76781537728E+00 0.86526016880E+00 0.96366708295E+00
 0.10415833830E+01 0.10880303655E+01 0.11047152033E+01 0.11034919610E+01 0.10987215287E+01
 0.10990569866E+01 0.11028229890E+01 0.10989422002E+01 0.10730233211E+01 0.10158830423E+01
 0.92992364356E+00 0.82975356608E+00 0.73856143818E+00 0.67474694193E+00 0.64544292024E+00
 0.50642027036E+00 0.53235607257E+00 0.59543013745E+00 0.69872079256E+00 0.82809082472E+00
 0.95177546555E+00 0.10415840426E+01 0.10899586476E+01 0.11058306821E+01 0.11064292278E+01
 0.11057664746E+01 0.11061591294E+01 0.10968926380E+01 0.10606018986E+01 0.98444055880E+00
 0.86991040405E+00 0.73856143818E+00 0.62429474191E+00 0.54797923110E+00 0.51108160880E+00
 0.43626277368E+00 0.44248185369E+00 0.47252239022E+00 0.54797923110E+00 0.67474694193E+00
 0.82809486646E+00 0.96367084868E+00 0.10524714581E+01 0.10949890091E+01 0.11077377751E+01
 0.11093521405E+01 0.11077377751E+01 0.10949890091E+01 0.10524714581E+01 0.96367084868E+00
 0.82809486646E+00 0.67474694193E+00 0.54797923110E+00 0.47252239022E+00 0.44248185369E+00
 0.43755738708E+00 0.43509893381E+00 0.42949984130E+00 0.45664152110E+00 0.54799090514E+00
 0.69873328119E+00 0.86526931334E+00 0.99520185048E+00 0.10700798027E+01 0.11011769193E+01
 0.11092816106E+01 0.11081744283E+01 0.10948802195E+01 0.10517121659E+01 0.95910779441E+00
 0.81292200463E+00 0.64544292024E+00 0.51108160880E+00 0.44248185369E+00 0.43038193552E+00
 0.43060989770E+00 0.43042054487E+00 0.42952161961E+00 0.44344872644E+00 0.50345043598E+00
 0.62429067698E+00 0.78408799409E+00 0.93422461514E+00 0.10366154646E+01 0.10885085060E+01
 0.11063668798E+01 0.11097451668E+01 0.11070700725E+01 0.10899608849E+01 0.10388528828E+01
 0.93717745753E+00 0.78749987938E+00 0.62772639688E+00 0.50642027036E+00 0.44557308271E+00
 0.43042054487E+00 0.43760711360E+00 0.43514138338E+00 0.42951950187E+00 0.45663586059E+00
 0.54797054431E+00 0.69871294435E+00 0.86525797150E+00 0.99519951407E+00 0.10700812164E+01
 0.11011770676E+01 0.11092786398E+01 0.11081693366E+01 0.10948748679E+01 0.10517071890E+01
 0.95910187111E+00 0.81291376793E+00 0.64543477658E+00 0.51108160880E+00 0.44249971329E+00
 0.42952161961E+00 0.43514138338E+00 0.43760505244E+00 0.43041413858E+00 0.44248722696E+00
 0.51106538647E+00 0.64542108944E+00 0.81290856934E+00 0.95910638594E+00 0.10517172147E+01
 0.10948838233E+01 0.11081720966E+01 0.11092737147E+01 0.11011668346E+01 0.10700707410E+01
 0.99519411696E+00 0.86526016880E+00 0.69872079256E+00 0.54797923110E+00 0.45664152110E+00
 0.44344872644E+00 0.42951950187E+00 0.43041413858E+00 0.43059598872E+00 0.44555136797E+00
 0.50639593808E+00 0.62770785705E+00 0.78749309836E+00 0.93718191084E+00 0.10388624440E+01
 0.10899682461E+01 0.11070707767E+01 0.11097389325E+01 0.11063567095E+01 0.10884988933E+01
 0.10366102485E+01 0.93422497824E+00 0.78409192060E+00 0.62429474191E+00 0.50345250523E+00
 0.50345043598E+00 0.45663586059E+00 0.44248722696E+00 0.44555136797E+00 0.46936026123E+00
 0.53232818892E+00 0.64541667108E+00 0.79282388618E+00 0.93459309213E+00 0.10352154405E+01
 0.10882143126E+01 0.11063490978E+01 0.11089371871E+01 0.11082493523E+01 0.11016331407E+01
 0.10731977441E+01 0.10042941917E+01 0.88739806558E+00 0.73856143818E+00 0.59933168277E+00
 0.62429067698E+00 0.54797054431E+00 0.51106538647E+00 0.50639593808E+00 0.53232818892E+00
 0.59540726309E+00 0.69871025311E+00 0.82809360564E+00 0.95178579342E+00 0.10415938407E+01
 0.10899627208E+01 0.11058286138E+01 0.11064237176E+01 0.11057607020E+01 0.11061552211E+01
 0.10968912816E+01 0.10606024326E+01 0.98444149743E+00 0.86991040405E+00 0.73855981733E+00
 0.78408799409E+00 0.69871294435E+00 0.64542108944E+00 0.62770785705E+00 0.64541667108E+00
 0.69871025311E+00 0.78409289098E+00 0.88740810301E+00 0.98445351800E+00 0.10557327118E+01
 0.10939462251E+01 0.11047457824E+01 0.11020302419E+01 0.10992995593E+01 0.11020337032E+01
 0.11047497258E+01 0.10939460424E+01 0.10557252905E+01 0.98444055880E+00 0.88739603703E+00
 0.93422461514E+00 0.86525797150E+00 0.81290856934E+00 0.78749309836E+00 0.79282388618E+00
 0.82809360564E+00 0.88740810301E+00 0.95812434776E+00 0.10244340553E+01 0.10730273884E+01
 0.10978317163E+01 0.11021168756E+01 0.10959808878E+01 0.10906080001E+01 0.10924275507E+01
 0.10999117657E+01 0.11042929292E+01 0.10939455202E+01 0.10606018986E+01 0.10042940332E+01
 0.10366154646E+01 0.99519951407E+00 0.95910638594E+00 0.93718191084E+00 0.93459309213E+00
 0.95178579342E+00 0.98445351800E+00 0.10244340553E+01 0.10618072505E+01 0.10880716481E+01
 0.10992669611E+01 0.10973704080E+01 0.10890225951E+01 0.10821636650E+01 0.10822544628E+01
 0.10897657711E+01 0.10999112445E+01 0.11047495599E+01 0.10968926380E+01 0.10732012869E+01
 0.10885085060E+01 0.10700812164E+01 0.10517172147E+01 0.10388624440E+01 0.10352154405E+01
 0.10415938407E+01 0.10557327118E+01 0.10730273884E+01 0.10880716481E+01 0.10965757674E+01
 0.10969565786E+01 0.10908758738E+01 0.10824339821E+01 0.10763756967E+01 0.10760989072E+01
 0.10822540020E+01 0.10924272708E+01 0.11020348953E+01 0.11061591294E+01 0.11016402647E+01
 0.11063668798E+01 0.11011770676E+01 0.10948838233E+01 0.10899682461E+01 0.10882143126E+01
 0.10899627208E+01 0.10939462251E+01 0.10978317163E+01 0.10992669611E+01 0.10969565786E+01
 0.10912536628E+01 0.10840040642E+01 0.10777690691E+01 0.10748276050E+01 0.10763758469E+01
 0.10821640377E+01 0.10906093174E+01 0.10993027355E+01 0.11057664746E+01 0.11082578008E+01
 0.11097451668E+01 0.11092786398E+01 0.11081720966E+01 0.11070707767E+01 0.11063490978E+01
 0.11058286138E+01 0.11047457824E+01 0.11021168756E+01 0.10973704080E+01 0.10908758738E+01
 0.10840040642E+01 0.10786297565E+01 0.10763380036E+01 0.10777701526E+01 0.10824360733E+01
 0.10890256765E+01 0.10959847981E+01 0.11020348953E+01 0.11064292278E+01 0.11089434582E+01
 0.11070700725E+01 0.11081693366E+01 0.11092737147E+01 0.11097389325E+01 0.11089371871E+01
 0.11064237176E+01 0.11020302419E+01 0.10959808878E+01 0.10890225951E+01 0.10824339821E+01
 0.10777690691E+01 0.10763380036E+01 0.10786312992E+01 0.10840077306E+01 0.10908815497E+01
 0.10973768725E+01 0.11021224719E+01 0.11047495599E+01 0.11058306821E+01 0.11063498603E+01
 0.10899608849E+01 0.10948748679E+01 0.11011668346E+01 0.11063567095E+01 0.11082493523E+01
 0.11057607020E+01 0.10992995593E+01 0.10906080001E+01 0.10821636650E+01 0.10763756967E+01
 0.10748276050E+01 0.10777701526E+01 0.10840077306E+01 0.10912605890E+01 0.10969654042E+01
 0.10992746700E+01 0.10978355755E+01 0.10939455202E+01 0.10899586476E+01 0.10882083510E+01
 0.10388528828E+01 0.10517071890E+01 0.10700707410E+01 0.10884988933E+01 0.11016331407E+01
 0.11061552211E+01 0.11020337032E+01 0.10924275507E+01 0.10822544628E+01 0.10760989072E+01
 0.10763758469E+01 0.10824360733E+01 0.10908815497E+01 0.10969654042E+01 0.10965845531E+01
 0.10880761906E+01 0.10730254070E+01 0.10557252905E+01 0.10415840426E+01 0.10352056097E+01
 0.93717745753E+00 0.95910187111E+00 0.99519411696E+00 0.10366102485E+01 0.10731977441E+01
 0.10968912816E+01 0.11047497258E+01 0.10999117657E+01 0.10897657711E+01 0.10822540020E+01
 0.10821640377E+01 0.10890256765E+01 0.10973768725E+01 0.10992746700E+01 0.10880761906E+01
 0.10618049370E+01 0.10244249432E+01 0.98444149743E+00 0.95177546555E+00 0.93458637531E+00
 0.78749987938E+00 0.81291376793E+00 0.86526016880E+00 0.93422497824E+00 0.10042941917E+01
 0.10606024326E+01 0.10939460424E+01 0.11042929292E+01 0.10999112445E+01 0.10924272708E+01
 0.10906093174E+01 0.10959847981E+01 0.11021224719E+01 0.10978355755E+01 0.10730254070E+01
 0.10244249432E+01 0.95811160762E+00 0.88739806558E+00 0.82809082472E+00 0.79282799943E+00
 0.62772639688E+00 0.64543477658E+00 0.69872079256E+00 0.78409192060E+00 0.88739806558E+00
 0.98444149743E+00 0.10557252905E+01 0.10939455202E+01 0.11047495599E+01 0.11020348953E+01
 0.10993027355E+01 0.11020348953E+01 0.11047495599E+01 0.10939455202E+01 0.10557252905E+01
 0.98444149743E+00 0.88739806558E+00 0.78409192060E+00 0.69872079256E+00 0.64543477658E+00
 0.50642027036E+00 0.51108160880E+00 0.54797923110E+00 0.62429474191E+00 0.73856143818E+00
 0.86991040405E+00 0.98444055880E+00 0.10606018986E+01 0.10968926380E+01 0.11061591294E+01
 0.11057664746E+01 0.11064292278E+01 0.11058306821E+01 0.10899586476E+01 0.10415840426E+01
 0.95177546555E+00 0.82809082472E+00 0.69872079256E+00 0.59543013745E+00 0.53235607257E+00
 0.44557308271E+00 0.44249971329E+00 0.45664152110E+00 0.50345250523E+00 0.59933168277E+00
 0.73855981733E+00 0.88739603703E+00 0.10042940332E+01 0.10732012869E+01 0.11016402647E+01
 0.11082578008E+01 0.11089434582E+01 0.11063498603E+01 0.10882083510E+01 0.10352056097E+01
 0.93458637531E+00 0.79282799943E+00 0.64543477658E+00 0.53235607257E+00 0.46938892959E+00
 0.49152453044E+00 0.46942214982E+00 0.47254975302E+00 0.50345043598E+00 0.57438370615E+00
 0.68941715340E+00 0.82973721404E+00 0.95810052359E+00 0.10464802359E+01 0.10913037601E+01
 0.11053887043E+01 0.11070585934E+01 0.11077940793E+01 0.11051127710E+01 0.10840401390E+01
 0.10265183639E+01 0.92406160993E+00 0.78749987938E+00 0.65152499451E+00 0.54928716432E+00
 0.46942214982E+00 0.44560663584E+00 0.44251820009E+00 0.45663586059E+00 0.50342648083E+00
 0.59929887610E+00 0.73853386980E+00 0.88738269233E+00 0.10042905329E+01 0.10732014275E+01