   1   1   0   0
  0.3296963E+02  0.3498743E-09  0.3498743E-09  0.3498743E-09  0.5000000E-15
  1.000000000000000E-004
  CAR 
 bcc Na                                  
     15.31806533     -4.68247516  301      0.83698263      1.00000000
     -4.682  0.0000E+00  0.0000E+00
     -4.616  0.0000E+00  0.0000E+00
     -4.549  0.0000E+00  0.0000E+00
     -4.482  0.0000E+00  0.0000E+00
     -4.416  0.0000E+00  0.0000E+00
     -4.349 -0.7335E-33 -0.4890E-34
     -4.282 -0.1670E-30 -0.1118E-31
     -4.216 -0.2984E-28 -0.2001E-29
     -4.149 -0.4258E-26 -0.2859E-27
     -4.082 -0.4860E-24 -0.3269E-25
     -4.016 -0.4436E-22 -0.2990E-23
     -3.949 -0.3238E-20 -0.2189E-21
     -3.882 -0.1891E-18 -0.1282E-19
     -3.816 -0.8543E-17 -0.5824E-18
     -3.749 -0.3182E-15 -0.2180E-16
     -3.682 -0.9458E-14 -0.6523E-15
     -3.616 -0.2246E-12 -0.1562E-13
     -3.549 -0.4259E-11 -0.2995E-12
     -3.482 -0.6448E-10 -0.4598E-11
     -3.416 -0.7788E-09 -0.5652E-10
     -3.349 -0.7498E-08 -0.5564E-09
     -3.282 -0.5743E-07 -0.4385E-08
     -3.216 -0.3489E-06 -0.2764E-07
     -3.149 -0.1672E-05 -0.1391E-06
     -3.082 -0.6266E-05 -0.5569E-06
     -3.016 -0.1802E-04 -0.1758E-05
     -2.949 -0.3811E-04 -0.4299E-05
     -2.882 -0.5215E-04 -0.7776E-05
     -2.816 -0.1594E-04 -0.8838E-05
     -2.749  0.1361E-03  0.2319E-06
     -2.682  0.4467E-03  0.3001E-04
     -2.616  0.8895E-03  0.8931E-04
     -2.549  0.1374E-02  0.1809E-03
     -2.482  0.1807E-02  0.3014E-03
     -2.416  0.2159E-02  0.4453E-03
     -2.349  0.2455E-02  0.6090E-03
     -2.282  0.2707E-02  0.7895E-03
     -2.216  0.2904E-02  0.9831E-03
     -2.149  0.3083E-02  0.1189E-02
     -2.082  0.3310E-02  0.1409E-02
     -2.016  0.3560E-02  0.1647E-02
     -1.949  0.3726E-02  0.1895E-02
     -1.882  0.3803E-02  0.2149E-02
     -1.816  0.3926E-02  0.2410E-02
     -1.749  0.4177E-02  0.2689E-02
     -1.682  0.4451E-02  0.2985E-02
     -1.616  0.4597E-02  0.3292E-02
     -1.549  0.4620E-02  0.3600E-02
     -1.482  0.4643E-02  0.3909E-02
     -1.416  0.4772E-02  0.4228E-02
     -1.349  0.5030E-02  0.4563E-02
     -1.282  0.5339E-02  0.4919E-02
     -1.216  0.5551E-02  0.5289E-02
     -1.149  0.5565E-02  0.5660E-02
     -1.082  0.5436E-02  0.6022E-02
     -1.016  0.5374E-02  0.6381E-02
     -0.949  0.5567E-02  0.6752E-02
     -0.882  0.5987E-02  0.7151E-02
     -0.816  0.6408E-02  0.7578E-02
     -0.749  0.6631E-02  0.8020E-02
     -0.682  0.6596E-02  0.8460E-02
     -0.616  0.6323E-02  0.8881E-02
     -0.549  0.5975E-02  0.9280E-02
     -0.482  0.5943E-02  0.9676E-02
     -0.416  0.6517E-02  0.1011E-01
     -0.349  0.7395E-02  0.1060E-01
     -0.282  0.7884E-02  0.1113E-01
     -0.216  0.7672E-02  0.1164E-01
     -0.149  0.7107E-02  0.1211E-01
     -0.082  0.6703E-02  0.1256E-01
     -0.016  0.6650E-02  0.1300E-01
      0.051  0.6889E-02  0.1346E-01
      0.118  0.7406E-02  0.1396E-01
      0.184  0.8165E-02  0.1450E-01
      0.251  0.8843E-02  0.1509E-01
      0.318  0.8960E-02  0.1569E-01
      0.384  0.8402E-02  0.1625E-01
      0.451  0.7606E-02  0.1676E-01
      0.518  0.7142E-02  0.1723E-01
      0.584  0.7279E-02  0.1772E-01
      0.651  0.7954E-02  0.1825E-01
      0.718  0.8874E-02  0.1884E-01
      0.784  0.9615E-02  0.1948E-01
      0.851  0.9861E-02  0.2014E-01
      0.918  0.9602E-02  0.2078E-01
      0.984  0.9060E-02  0.2138E-01
      1.051  0.8539E-02  0.2195E-01
      1.118  0.8351E-02  0.2251E-01
      1.184  0.8620E-02  0.2308E-01
      1.251  0.9122E-02  0.2369E-01
      1.318  0.9574E-02  0.2433E-01
      1.384  0.1002E-01  0.2500E-01
      1.451  0.1060E-01  0.2570E-01
      1.518  0.1114E-01  0.2645E-01
      1.584  0.1128E-01  0.2720E-01
      1.651  0.1093E-01  0.2793E-01
      1.718  0.1039E-01  0.2862E-01
      1.784  0.1001E-01  0.2929E-01
      1.851  0.9881E-02  0.2995E-01
      1.918  0.9887E-02  0.3060E-01
      1.984  0.9868E-02  0.3126E-01
      2.051  0.9790E-02  0.3192E-01
      2.118  0.9809E-02  0.3257E-01
      2.184  0.1004E-01  0.3324E-01
      2.251  0.1027E-01  0.3392E-01
      2.318  0.1012E-01  0.3460E-01
      2.384  0.9571E-02  0.3524E-01
      2.451  0.9109E-02  0.3584E-01
      2.518  0.9160E-02  0.3645E-01
      2.584  0.9769E-02  0.3711E-01
      2.651  0.1072E-01  0.3782E-01
      2.718  0.1163E-01  0.3860E-01
      2.784  0.1193E-01  0.3939E-01
      2.851  0.1132E-01  0.4015E-01
      2.918  0.1024E-01  0.4083E-01
      2.984  0.9635E-02  0.4147E-01
      3.051  0.1002E-01  0.4214E-01
      3.118  0.1125E-01  0.4289E-01
      3.184  0.1279E-01  0.4374E-01
      3.251  0.1402E-01  0.4468E-01
      3.318  0.1432E-01  0.4563E-01
      3.384  0.1347E-01  0.4653E-01
      3.451  0.1191E-01  0.4732E-01
      3.518  0.1068E-01  0.4804E-01
      3.584  0.1073E-01  0.4875E-01
      3.651  0.1201E-01  0.4955E-01
      3.718  0.1335E-01  0.5044E-01
      3.784  0.1355E-01  0.5134E-01
      3.851  0.1258E-01  0.5218E-01
      3.918  0.1137E-01  0.5294E-01
      3.984  0.1065E-01  0.5365E-01
      4.051  0.1051E-01  0.5435E-01
      4.118  0.1075E-01  0.5507E-01
      4.184  0.1128E-01  0.5582E-01
      4.251  0.1197E-01  0.5662E-01
      4.318  0.1256E-01  0.5746E-01
      4.384  0.1282E-01  0.5831E-01
      4.451  0.1278E-01  0.5916E-01
      4.518  0.1269E-01  0.6001E-01
      4.584  0.1266E-01  0.6085E-01
      4.651  0.1268E-01  0.6170E-01
      4.718  0.1291E-01  0.6256E-01
      4.784  0.1338E-01  0.6345E-01
      4.851  0.1357E-01  0.6435E-01
      4.918  0.1289E-01  0.6521E-01
      4.984  0.1177E-01  0.6600E-01
      5.051  0.1146E-01  0.6676E-01
      5.118  0.1268E-01  0.6761E-01
      5.184  0.1460E-01  0.6858E-01
      5.251  0.1556E-01  0.6962E-01
      5.318  0.1468E-01  0.7060E-01
      5.384  0.1264E-01  0.7144E-01
      5.451  0.1108E-01  0.7218E-01
      5.518  0.1123E-01  0.7293E-01
      5.584  0.1290E-01  0.7379E-01
      5.651  0.1478E-01  0.7477E-01
      5.718  0.1560E-01  0.7581E-01
      5.784  0.1499E-01  0.7681E-01
      5.851  0.1358E-01  0.7772E-01
      5.918  0.1250E-01  0.7855E-01
      5.984  0.1254E-01  0.7939E-01
      6.051  0.1379E-01  0.8031E-01
      6.118  0.1566E-01  0.8135E-01
      6.184  0.1718E-01  0.8250E-01
      6.251  0.1747E-01  0.8366E-01
      6.318  0.1635E-01  0.8475E-01
      6.384  0.1451E-01  0.8572E-01
      6.451  0.1312E-01  0.8659E-01
      6.518  0.1293E-01  0.8746E-01
      6.584  0.1378E-01  0.8837E-01
      6.651  0.1495E-01  0.8937E-01
      6.718  0.1584E-01  0.9043E-01
      6.785  0.1627E-01  0.9151E-01
      6.851  0.1617E-01  0.9259E-01
      6.918  0.1561E-01  0.9363E-01
      6.985  0.1491E-01  0.9462E-01
      7.051  0.1448E-01  0.9559E-01
      7.118  0.1450E-01  0.9656E-01
      7.185  0.1491E-01  0.9755E-01
      7.251  0.1554E-01  0.9859E-01
      7.318  0.1606E-01  0.9966E-01
      7.385  0.1592E-01  0.1007E+00
      7.451  0.1498E-01  0.1017E+00
      7.518  0.1387E-01  0.1026E+00
      7.585  0.1338E-01  0.1035E+00
      7.651  0.1369E-01  0.1044E+00
      7.718  0.1450E-01  0.1054E+00
      7.785  0.1558E-01  0.1065E+00
      7.851  0.1664E-01  0.1076E+00
      7.918  0.1704E-01  0.1087E+00
      7.985  0.1626E-01  0.1098E+00
      8.051  0.1469E-01  0.1108E+00
      8.118  0.1328E-01  0.1116E+00
      8.185  0.1275E-01  0.1125E+00
      8.251  0.1342E-01  0.1134E+00
      8.318  0.1523E-01  0.1144E+00
      8.385  0.1735E-01  0.1156E+00
      8.451  0.1827E-01  0.1168E+00
      8.518  0.1699E-01  0.1179E+00
      8.585  0.1420E-01  0.1189E+00
      8.651  0.1182E-01  0.1196E+00
      8.718  0.1136E-01  0.1204E+00
      8.785  0.1271E-01  0.1213E+00
      8.851  0.1456E-01  0.1222E+00
      8.918  0.1571E-01  0.1233E+00
      8.985  0.1599E-01  0.1243E+00
      9.051  0.1591E-01  0.1254E+00
      9.118  0.1580E-01  0.1265E+00
      9.185  0.1570E-01  0.1275E+00
      9.251  0.1570E-01  0.1285E+00
      9.318  0.1587E-01  0.1296E+00
      9.385  0.1598E-01  0.1307E+00
      9.451  0.1558E-01  0.1317E+00
      9.518  0.1446E-01  0.1327E+00
      9.585  0.1295E-01  0.1335E+00
      9.651  0.1172E-01  0.1343E+00
      9.718  0.1133E-01  0.1351E+00
      9.785  0.1196E-01  0.1359E+00
      9.851  0.1343E-01  0.1368E+00
      9.918  0.1522E-01  0.1378E+00
      9.985  0.1669E-01  0.1389E+00
     10.051  0.1745E-01  0.1401E+00
     10.118  0.1741E-01  0.1412E+00
     10.185  0.1668E-01  0.1423E+00
     10.251  0.1553E-01  0.1434E+00
     10.318  0.1458E-01  0.1443E+00
     10.385  0.1450E-01  0.1453E+00
     10.451  0.1531E-01  0.1463E+00
     10.518  0.1611E-01  0.1474E+00
     10.585  0.1598E-01  0.1485E+00
     10.651  0.1471E-01  0.1494E+00
     10.718  0.1277E-01  0.1503E+00
     10.785  0.1096E-01  0.1510E+00
     10.851  0.1019E-01  0.1517E+00
     10.918  0.1083E-01  0.1524E+00
     10.985  0.1218E-01  0.1532E+00
     11.051  0.1302E-01  0.1541E+00
     11.118  0.1261E-01  0.1549E+00
     11.185  0.1108E-01  0.1557E+00
     11.251  0.8995E-02  0.1563E+00
     11.318  0.6908E-02  0.1567E+00
     11.385  0.5120E-02  0.1571E+00
     11.451  0.3767E-02  0.1573E+00
     11.518  0.2960E-02  0.1575E+00
     11.585  0.2785E-02  0.1577E+00
     11.651  0.3135E-02  0.1579E+00
     11.718  0.3615E-02  0.1582E+00
     11.785  0.3720E-02  0.1584E+00
     11.851  0.3197E-02  0.1586E+00
     11.918  0.2258E-02  0.1588E+00
     11.985  0.1423E-02  0.1589E+00
     12.051  0.1111E-02  0.1590E+00
     12.118  0.1319E-02  0.1590E+00
     12.185  0.1662E-02  0.1591E+00
     12.251  0.1742E-02  0.1593E+00
     12.318  0.1505E-02  0.1594E+00
     12.385  0.1195E-02  0.1594E+00
     12.451  0.1017E-02  0.1595E+00
     12.518  0.9590E-03  0.1596E+00
     12.585  0.9167E-03  0.1596E+00
     12.651  0.8331E-03  0.1597E+00
     12.718  0.6967E-03  0.1597E+00
     12.785  0.5438E-03  0.1598E+00
     12.851  0.4711E-03  0.1598E+00
     12.918  0.5349E-03  0.1598E+00
     12.985  0.6407E-03  0.1599E+00
     13.051  0.6272E-03  0.1599E+00
     13.118  0.4554E-03  0.1600E+00
     13.185  0.2442E-03  0.1600E+00
     13.251  0.1190E-03  0.1600E+00
     13.318  0.9033E-04  0.1600E+00
     13.385  0.8875E-04  0.1600E+00
     13.451  0.6612E-04  0.1600E+00
     13.518  0.2925E-04  0.1600E+00
     13.585  0.2492E-05  0.1600E+00
     13.651 -0.6534E-05  0.1600E+00
     13.718 -0.5459E-05  0.1600E+00
     13.785 -0.2543E-05  0.1600E+00
     13.851 -0.8235E-06  0.1600E+00
     13.918 -0.1979E-06  0.1600E+00
     13.985 -0.3629E-07  0.1600E+00
     14.051 -0.5157E-08  0.1600E+00
     14.118 -0.5731E-09  0.1600E+00
     14.185 -0.5009E-10  0.1600E+00
     14.251 -0.3456E-11  0.1600E+00
     14.318 -0.1889E-12  0.1600E+00
     14.385 -0.8190E-14  0.1600E+00
     14.451 -0.2823E-15  0.1600E+00
     14.518 -0.7694E-17  0.1600E+00
     14.585 -0.1998E-18  0.1600E+00
     14.651  0.0000E+00  0.1600E+00
     14.718  0.0000E+00  0.1600E+00
     14.785  0.0000E+00  0.1600E+00
     14.851  0.0000E+00  0.1600E+00
     14.918  0.0000E+00  0.1600E+00
     14.985  0.0000E+00  0.1600E+00
     15.051  0.0000E+00  0.1600E+00
     15.118  0.0000E+00  0.1600E+00
     15.185  0.0000E+00  0.1600E+00
     15.251  0.0000E+00  0.1600E+00
     15.318  0.0000E+00  0.1600E+00
