    1    1   50    1
  0.3296963E+02  0.3498743E-09  0.3498743E-09  0.3498743E-09  0.5000000E-15
  1.000000000000000E-004
  CAR 
 bcc Na                                  
      1    250      4
 
  0.2500000E-01  0.2500000E-01  0.2500000E-01  0.1000000E-02
    1       -2.634968   1.000000
    2       12.479570   0.000000
    3       12.479570   0.000000
    4       12.659555   0.000000
 
  0.7500000E-01  0.2500000E-01  0.2500000E-01  0.3000000E-02
    1       -2.492669   1.000000
    2       11.166623   0.000000
    3       11.815877   0.000000
    4       12.140645   0.000000
 
  0.1250000E+00  0.2500000E-01  0.2500000E-01  0.3000000E-02
    1       -2.255341   1.000000
    2        9.812209   0.000000
    3       11.192222   0.000000
    4       11.658963   0.000000
 
  0.1750000E+00  0.2500000E-01  0.2500000E-01  0.3000000E-02
    1       -1.923998   1.000000
    2        8.496834   0.000000
    3       10.642468   0.000000
    4       11.233396   0.000000
 
  0.2250000E+00  0.2500000E-01  0.2500000E-01  0.3000000E-02
    1       -1.501892   1.000000
    2        7.237346   0.000000
    3       10.171250   0.000000
    4       10.866554   0.000000
 
  0.2750000E+00  0.2500000E-01  0.2500000E-01  0.3000000E-02
    1       -0.990057   1.000000
    2        6.041715  -0.000000
    3        9.783087   0.000000
    4       10.569389   0.000000
 
  0.3250000E+00  0.2500000E-01  0.2500000E-01  0.3000000E-02
    1       -0.394892   1.000000
    2        4.911720  -0.000000
    3        9.479226   0.000000
    4       10.330951   0.000000
 
  0.3750000E+00  0.2500000E-01  0.2500000E-01  0.3000000E-02
    1        0.284217   1.000329
    2        3.852518  -0.000000
    3        9.260795   0.000000
    4       10.160367   0.000000
 
  0.4250000E+00  0.2500000E-01  0.2500000E-01  0.3000000E-02
    1        1.033719  -0.023350
    2        2.871773  -0.000000
    3        9.128357   0.000000
    4       10.058745   0.000000
 
  0.4750000E+00  0.2500000E-01  0.2500000E-01  0.1500000E-02
    1        1.667894  -0.000000
    2        2.162790  -0.000000
    3        9.085436   0.000000
    4       10.028293   0.000000
 
 -0.2500000E-01  0.2500000E-01  0.2500000E-01  0.7500000E-03
    1       -2.682475   1.000000
    2       12.922706   0.000000
    3       12.922706   0.000000
    4       13.318065   0.000000
 
  0.7500000E-01  0.7500000E-01  0.2500000E-01  0.3000000E-02
    1       -2.302591   1.000000
    2       10.360601   0.000000
    3       10.723291   0.000000
    4       11.592428   0.000000
 
  0.1250000E+00  0.7500000E-01  0.2500000E-01  0.6000000E-02
    1       -2.017988   1.000000
    2        9.156163   0.000000
    3       10.045306   0.000000
    4       11.119780   0.000000
 
  0.1750000E+00  0.7500000E-01  0.2500000E-01  0.6000000E-02
    1       -1.641429   1.000000
    2        7.899126   0.000000
    3        9.531185   0.000000
    4       10.703104   0.000000
 
  0.2250000E+00  0.7500000E-01  0.2500000E-01  0.6000000E-02
    1       -1.175773   1.000000
    2        6.685373   0.000000
    3        9.106508   0.000000
    4       10.348205   0.000000
 
  0.2750000E+00  0.7500000E-01  0.2500000E-01  0.6000000E-02
    1       -0.622785   1.000000
    2        5.530973  -0.000000
    3        8.767798   0.000000
    4       10.058143   0.000000
 
  0.3250000E+00  0.7500000E-01  0.2500000E-01  0.6000000E-02
    1        0.014093   1.000000
    2        4.441816  -0.000000
    3        8.511632   0.000000
    4        9.836554   0.000000
 
  0.3750000E+00  0.7500000E-01  0.2500000E-01  0.6000000E-02
    1        0.729330   0.890385
    2        3.423956  -0.000000
    3        8.341758   0.000000
    4        9.690100   0.000000
 
  0.4250000E+00  0.7500000E-01  0.2500000E-01  0.6000000E-02
    1        1.491021  -0.000019
    2        2.507842  -0.000000
    3        8.255446   0.000000
    4        9.613715   0.000000
 
 -0.7500000E-01  0.7500000E-01  0.2500000E-01  0.3000000E-02
    1       -2.587498   1.000000
    2       11.849548   0.000000
    3       12.304730   0.000000
    4       13.009405   0.000000
 
  0.1250000E+00  0.1250000E+00  0.2500000E-01  0.3000000E-02
    1       -1.688672   1.000000
    2        8.394326   0.000000
    3        9.011185   0.000000
    4       10.657013   0.000000
 
  0.1750000E+00  0.1250000E+00  0.2500000E-01  0.6000000E-02
    1       -1.269142   1.000000
    2        7.330652   0.000000
    3        8.388611   0.000000
    4       10.252455   0.000000
 
  0.2250000E+00  0.1250000E+00  0.2500000E-01  0.6000000E-02
    1       -0.761559   1.000000
    2        6.195157  -0.000000
    3        7.971724   0.000000
    4        9.911924   0.000000
 
  0.2750000E+00  0.1250000E+00  0.2500000E-01  0.6000000E-02
    1       -0.166277   1.000000
    2        5.096010  -0.000000
    3        7.663761   0.000000
    4        9.645224   0.000000
 
  0.3250000E+00  0.1250000E+00  0.2500000E-01  0.6000000E-02
    1        0.507700   1.020936
    2        4.050899  -0.000000
    3        7.445125   0.000000
    4        9.449664   0.000000
 
  0.3750000E+00  0.1250000E+00  0.2500000E-01  0.6000000E-02
    1        1.251891  -0.006237
    2        3.083248  -0.000000
    3        7.314473   0.000000
    4        9.332551   0.000000
 
  0.4250000E+00  0.1250000E+00  0.2500000E-01  0.3000000E-02
    1        1.872875  -0.000000
    2        2.387934  -0.000000
    3        7.272081   0.000000
    4        9.293492   0.000000
 
 -0.1250000E+00  0.1250000E+00  0.2500000E-01  0.3000000E-02
    1       -2.397565   1.000000
    2       10.489806   0.000000
    3       11.699407   0.000000
    4       12.472970   0.000000
 
 -0.7500000E-01  0.1250000E+00  0.2500000E-01  0.3000000E-02
    1       -2.445316   1.000000
    2       11.059924   0.000000
    3       11.350869   0.000000
    4       12.682160   0.000000
 
  0.1750000E+00  0.1750000E+00  0.2500000E-01  0.3000000E-02
    1       -0.807774   1.000000
    2        6.666798   0.000000
    3        7.447772   0.000000
    4        9.866099   0.000000
 
  0.2250000E+00  0.1750000E+00  0.2500000E-01  0.6000000E-02
    1       -0.258972   1.000000
    2        5.740789  -0.000000
    3        6.901557   0.000000
    4        9.551350   0.000000
 
  0.2750000E+00  0.1750000E+00  0.2500000E-01  0.6000000E-02
    1        0.373808   1.002533
    2        4.726012  -0.000000
    3        6.585298   0.000000
    4        9.312501   0.000000
 
  0.3250000E+00  0.1750000E+00  0.2500000E-01  0.6000000E-02
    1        1.082609  -0.035456
    2        3.741737  -0.000000
    3        6.395129   0.000000
    4        9.151783   0.000000
 
  0.3750000E+00  0.1750000E+00  0.2500000E-01  0.6000000E-02
    1        1.832559  -0.000000
    2        2.850570  -0.000000
    3        6.302094   0.000000
    4        9.072368   0.000000
 
 -0.1750000E+00  0.1750000E+00  0.2500000E-01  0.3000000E-02
    1       -2.113034   1.000000
    2        9.146635   0.000000
    3       11.148491   0.000000
    4       11.969334   0.000000
 
 -0.1250000E+00  0.1750000E+00  0.2500000E-01  0.6000000E-02
    1       -2.207775   1.000000
    2        9.815232   0.000000
    3       10.682464   0.000000
    4       12.184650   0.000000
 
  0.2250000E+00  0.2250000E+00  0.2500000E-01  0.3000000E-02
    1        0.330448   1.000999
    2        5.203603  -0.000000
    3        6.047632  -0.000000
    4        9.268161   0.000000
 
  0.2750000E+00  0.2250000E+00  0.2500000E-01  0.6000000E-02
    1        0.996783   0.010208
    2        4.402345  -0.000000
    3        5.601676  -0.000000
    4        9.063750   0.000000
 
  0.3250000E+00  0.2250000E+00  0.2500000E-01  0.6000000E-02
    1        1.728113  -0.000000
    2        3.512790  -0.000000
    3        5.408871  -0.000000
    4        8.939850   0.000000
 
  0.3750000E+00  0.2250000E+00  0.2500000E-01  0.3000000E-02
    1        2.328492  -0.000000
    2        2.853865  -0.000000
    3        5.351639  -0.000000
    4        8.899316   0.000000
 
 -0.2250000E+00  0.2250000E+00  0.2500000E-01  0.3000000E-02
    1       -1.736000   1.000000
    2        7.855137   0.000000
    3       10.660143   0.000000
    4       11.537803   0.000000
 
 -0.1750000E+00  0.2250000E+00  0.2500000E-01  0.6000000E-02
    1       -1.877109   1.000000
    2        8.521241   0.000000
    3       10.151512   0.000000
    4       11.728997   0.000000
 
 -0.1250000E+00  0.2250000E+00  0.2500000E-01  0.3000000E-02
    1       -1.924052   1.000000
    2        9.027728   0.000000
    3        9.629447   0.000000
    4       11.788295   0.000000
 
  0.2750000E+00  0.2750000E+00  0.2500000E-01  0.3000000E-02
    1        1.690289  -0.000000
    2        3.992680  -0.000000
    3        4.855851  -0.000000
    4        8.897909   0.000000
 
  0.3250000E+00  0.2750000E+00  0.2500000E-01  0.6000000E-02
    1        2.418320  -0.000000
    2        3.335109  -0.000000
    3        4.552903  -0.000000
    4        8.813731   0.000000
 
 -0.2750000E+00  0.2750000E+00  0.2500000E-01  0.3000000E-02
    1       -1.269708   1.000000
    2        6.624574   0.000000
    3       10.244875   0.000000
    4       11.180150   0.000000
 
 -0.2250000E+00  0.2750000E+00  0.2500000E-01  0.6000000E-02
    1       -1.455799   1.000000
    2        7.270624   0.000000
    3        9.702399   0.000000
    4       11.337624   0.000000
 
 -0.1750000E+00  0.2750000E+00  0.2500000E-01  0.6000000E-02
    1       -1.549055   1.000000
    2        7.920745   0.000000
    3        8.982457   0.000000
    4       11.387557   0.000000
 
  0.3250000E+00  0.3250000E+00  0.2500000E-01  0.1000000E-02
    1        3.033923  -0.000000
    2        3.033935  -0.000000
    3        4.121850  -0.000000
    4        8.770041   0.000000
 
 -0.3250000E+00  0.3250000E+00  0.2500000E-01  0.3000000E-02
    1       -0.716531   1.000000
    2        5.459784  -0.000000
    3        9.907823   0.000000
    4       10.897997   0.000000
 
 -0.2750000E+00  0.3250000E+00  0.2500000E-01  0.6000000E-02
    1       -0.945493   1.000000
    2        6.078931  -0.000000
    3        9.334725   0.000000
    4       11.019247   0.000000
 
 -0.2250000E+00  0.3250000E+00  0.2500000E-01  0.6000000E-02
    1       -1.083209   1.000000
    2        6.744915   0.000000
    3        8.535485   0.000000
    4       11.039439   0.000000
 
 -0.1750000E+00  0.3250000E+00  0.2500000E-01  0.3000000E-02
    1       -1.130104   1.000000
    2        7.217109   0.000000
    3        8.006633   0.000000
    4       11.028887   0.000000
 
 -0.3750000E+00  0.3750000E+00  0.2500000E-01  0.3000000E-02
    1       -0.075648   1.000000
    2        4.365869  -0.000000
    3        9.656660   0.000000
    4       10.691411   0.000000
 
 -0.3250000E+00  0.3750000E+00  0.2500000E-01  0.6000000E-02
    1       -0.349593   1.000000
    2        4.951170  -0.000000
    3        9.045533   0.000000
    4       10.774185   0.000000
 
 -0.2750000E+00  0.3750000E+00  0.2500000E-01  0.6000000E-02
    1       -0.532553   1.000000
    2        5.603111  -0.000000
    3        8.189613   0.000000
    4       10.751909   0.000000
 
 -0.2250000E+00  0.3750000E+00  0.2500000E-01  0.6000000E-02
    1       -0.623533   1.000000
    2        6.249419  -0.000000
    3        7.424841   0.000000
    4       10.710996   0.000000
 
 -0.4250000E+00  0.4250000E+00  0.2500000E-01  0.3000000E-02
    1        0.641812   1.022436
    2        3.339567  -0.000000
    3        9.481719   0.000000
    4       10.556634   0.000000
 
 -0.3750000E+00  0.4250000E+00  0.2500000E-01  0.6000000E-02
    1        0.329484   1.000978
    2        3.895444  -0.000000
    3        8.838317   0.000000
    4       10.598762   0.000000
 
 -0.3250000E+00  0.4250000E+00  0.2500000E-01  0.6000000E-02
    1        0.104862   1.000001
    2        4.522756  -0.000000
    3        7.935232   0.000000
    4       10.535601   0.000000
 
 -0.2750000E+00  0.4250000E+00  0.2500000E-01  0.6000000E-02
    1       -0.030903   1.000000
    2        5.195744  -0.000000
    3        7.069874   0.000000
    4       10.456036   0.000000
 
 -0.2250000E+00  0.4250000E+00  0.2500000E-01  0.3000000E-02
    1       -0.076582   1.000000
    2        5.664758  -0.000000
    3        6.535031   0.000000
    4       10.424792   0.000000
 
 -0.4750000E+00  0.4750000E+00  0.2500000E-01  0.3000000E-02
    1        1.407395  -0.000209
    2        2.421019  -0.000000
    3        9.395627   0.000000
    4       10.479926   0.000000
 
 -0.4250000E+00  0.4750000E+00  0.2500000E-01  0.6000000E-02
    1        1.078720  -0.035417
    2        2.916299  -0.000000
    3        8.713394   0.000000
    4       10.494483   0.000000
 
 -0.3750000E+00  0.4750000E+00  0.2500000E-01  0.6000000E-02
    1        0.818310   0.578630
    2        3.508469  -0.000000
    3        7.764132   0.000000
    4       10.390719   0.000000
 
 -0.3250000E+00  0.4750000E+00  0.2500000E-01  0.6000000E-02
    1        0.641784   1.022453
    2        4.168445  -0.000000
    3        6.836011   0.000000
    4       10.269143   0.000000
 
 -0.2750000E+00  0.4750000E+00  0.2500000E-01  0.6000000E-02
    1        0.553569   1.031131
    2        4.822924  -0.000000
    3        6.043182  -0.000000
    4       10.202552   0.000000
 
 -0.4750000E+00 -0.4750000E+00  0.2500000E-01  0.3000000E-02
    1        1.709516  -0.000000
    2        2.209049  -0.000000
    3        8.670674   0.000000
    4       10.461220   0.000000
 
 -0.4250000E+00 -0.4750000E+00  0.2500000E-01  0.6000000E-02
    1        1.578365  -0.000001
    2        2.597050  -0.000000
    3        7.680451   0.000000
    4       10.316273   0.000000
 
 -0.3750000E+00 -0.4750000E+00  0.2500000E-01  0.6000000E-02
    1        1.383787  -0.000382
    2        3.208675  -0.000000
    3        6.699568   0.000000
    4       10.156824   0.000000
 
 -0.3250000E+00 -0.4750000E+00  0.2500000E-01  0.6000000E-02
    1        1.258339  -0.005577
    2        3.888097  -0.000000
    3        5.801889  -0.000000
    4       10.050815   0.000000
 
 -0.2750000E+00 -0.4750000E+00  0.2500000E-01  0.3000000E-02
    1        1.215890  -0.011071
    2        4.367790  -0.000000
    3        5.250223  -0.000000
    4       10.015529   0.000000
 
 -0.4250000E+00 -0.4250000E+00  0.2500000E-01  0.3000000E-02
    1        1.997631  -0.000000
    2        2.522079  -0.000000
    3        6.654702   0.000000
    4       10.119968   0.000000
 
 -0.3750000E+00 -0.4250000E+00  0.2500000E-01  0.6000000E-02
    1        2.002259  -0.000000
    2        3.014321  -0.000000
    3        5.694503  -0.000000
    4        9.974696   0.000000
 
 -0.3250000E+00 -0.4250000E+00  0.2500000E-01  0.6000000E-02
    1        1.941644  -0.000000
    2        3.655357  -0.000000
    3        4.885501  -0.000000
    4        9.900487   0.000000
 
 -0.3750000E+00 -0.3750000E+00  0.2500000E-01  0.3000000E-02
    1        2.535896  -0.000000
    2        3.031628  -0.000000
    3        4.795727  -0.000000
    4        9.861995   0.000000
 
 -0.3250000E+00 -0.3750000E+00  0.2500000E-01  0.3000000E-02
    1        2.651693  -0.000000
    2        3.327031  -0.000000
    3        4.270315  -0.000000
    4        9.823108   0.000000
 
  0.7500000E-01  0.7500000E-01  0.7500000E-01  0.1000000E-02
    1       -2.065027   1.000000
    2        9.734256   0.000000
    3        9.734256   0.000000
    4       10.789943   0.000000
 
  0.1250000E+00  0.7500000E-01  0.7500000E-01  0.3000000E-02
    1       -1.736361   1.000000
    2        8.541006   0.000000
    3        9.183007   0.000000
    4       10.247055   0.000000
 
  0.1750000E+00  0.7500000E-01  0.7500000E-01  0.3000000E-02
    1       -1.314559   1.000000
    2        7.337175   0.000000
    3        8.719207   0.000000
    4        9.819863   0.000000
 
  0.2250000E+00  0.7500000E-01  0.7500000E-01  0.3000000E-02
    1       -0.806563   1.000000
    2        6.170420  -0.000000
    3        8.335945   0.000000
    4        9.470479   0.000000
 
  0.2750000E+00  0.7500000E-01  0.7500000E-01  0.3000000E-02
    1       -0.211721   1.000000
    2        5.059992  -0.000000
    3        8.037267   0.000000
    4        9.196708   0.000000
 
  0.3250000E+00  0.7500000E-01  0.7500000E-01  0.3000000E-02
    1        0.462642   1.011831
    2        4.010152  -0.000000
    3        7.823884   0.000000
    4        8.996643   0.000000
 
  0.3750000E+00  0.7500000E-01  0.7500000E-01  0.3000000E-02
    1        1.208053  -0.012396
    2        3.040766  -0.000000
    3        7.696377   0.000000
    4        8.878665   0.000000
 
  0.4250000E+00  0.7500000E-01  0.7500000E-01  0.1500000E-02
    1        1.832899  -0.000000
    2        2.343542  -0.000000
    3        7.656128   0.000000
    4        8.839374   0.000000
 
 -0.7500000E-01  0.7500000E-01  0.7500000E-01  0.7500000E-03
    1       -2.492682   1.000000
    2       11.624943   0.000000
    3       11.624944   0.000000
    4       12.199792   0.000000
 
  0.1250000E+00  0.1250000E+00  0.7500000E-01  0.3000000E-02
    1       -1.362056   1.000000
    2        7.843382   0.000000
    3        8.281778   0.000000
    4        9.654061   0.000000
 
  0.1750000E+00  0.1250000E+00  0.7500000E-01  0.6000000E-02
    1       -0.898173   1.000000
    2        6.816395   0.000000
    3        7.748097   0.000000
    4        9.213078   0.000000
 
  0.2250000E+00  0.1250000E+00  0.7500000E-01  0.6000000E-02
    1       -0.349773   1.000000
    2        5.720656  -0.000000
    3        7.385886   0.000000
    4        8.867231   0.000000
 
  0.2750000E+00  0.1250000E+00  0.7500000E-01  0.6000000E-02
    1        0.283651   1.000324
    2        4.662903  -0.000000
    3        7.122808   0.000000
    4        8.611259   0.000000
 
  0.3250000E+00  0.1250000E+00  0.7500000E-01  0.6000000E-02
    1        0.993406   0.014670
    2        3.664261  -0.000000
    3        6.949928   0.000000
    4        8.443063   0.000000
 
  0.3750000E+00  0.1250000E+00  0.7500000E-01  0.6000000E-02
    1        1.748233  -0.000000
    2        2.766192  -0.000000
    3        6.865774   0.000000
    4        8.359266   0.000000
 
 -0.1250000E+00  0.1250000E+00  0.7500000E-01  0.3000000E-02
    1       -2.301834   1.000000
    2       10.506031   0.000000
    3       11.007391   0.000000
    4       11.799158   0.000000
 
  0.1750000E+00  0.1750000E+00  0.7500000E-01  0.3000000E-02
    1       -0.395811   1.000000
    2        6.206237  -0.000000
    3        6.883567   0.000000
    4        8.774156   0.000000
 
  0.2250000E+00  0.1750000E+00  0.7500000E-01  0.6000000E-02
    1        0.194856   1.000027
    2        5.317528  -0.000000
    3        6.406038   0.000000
    4        8.456779   0.000000
 
  0.2750000E+00  0.1750000E+00  0.7500000E-01  0.6000000E-02
    1        0.864033   0.386693
    2        4.341611  -0.000000
    3        6.146508  -0.000000
    4        8.232752   0.000000
 
  0.3250000E+00  0.1750000E+00  0.7500000E-01  0.6000000E-02
    1        1.600234  -0.000000
    2        3.406740  -0.000000
    3        6.003081  -0.000000
    4        8.101691   0.000000
 
  0.3750000E+00  0.1750000E+00  0.7500000E-01  0.3000000E-02
    1        2.203753  -0.000000
    2        2.735006  -0.000000
    3        5.956218  -0.000000
    4        8.057648   0.000000
 
 -0.1750000E+00  0.1750000E+00  0.7500000E-01  0.3000000E-02
    1       -2.018544   1.000000
    2        9.196809   0.000000
    3       10.458431   0.000000
    4       11.444652   0.000000
 
 -0.1250000E+00  0.1750000E+00  0.7500000E-01  0.3000000E-02
    1       -2.066071   1.000000
    2        9.736856   0.000000
    3       10.143637   0.000000
    4       11.475165   0.000000
 
  0.2250000E+00  0.2250000E+00  0.7500000E-01  0.3000000E-02
    1        0.821197   0.566567
    2        4.826660  -0.000000
    3        5.613072  -0.000000
    4        8.171747   0.000000
 
  0.2750000E+00  0.2250000E+00  0.7500000E-01  0.6000000E-02
    1        1.518505  -0.000008
    2        4.064670  -0.000000
    3        5.224761  -0.000000
    4        7.984707   0.000000
 
  0.3250000E+00  0.2250000E+00  0.7500000E-01  0.6000000E-02
    1        2.253600  -0.000000
    2        3.240905  -0.000000
    3        5.086922  -0.000000
    4        7.893910   0.000000
 
 -0.2250000E+00  0.2250000E+00  0.7500000E-01  0.3000000E-02
    1       -1.643499   1.000000
    2        7.917989   0.000000
    3        9.983631   0.000000
    4       11.054525   0.000000
 
 -0.1750000E+00  0.2250000E+00  0.7500000E-01  0.6000000E-02
    1       -1.737080   1.000000
    2        8.581260   0.000000
    3        9.528747   0.000000
    4       11.242145   0.000000
 
  0.2750000E+00  0.2750000E+00  0.7500000E-01  0.3000000E-02
    1        2.231634  -0.000000
    2        3.698569  -0.000000
    3        4.543433  -0.000000
    4        7.840388   0.000000
 
  0.3250000E+00  0.2750000E+00  0.7500000E-01  0.3000000E-02
    1        2.824771  -0.000000
    2        3.200292  -0.000000
    3        4.335679  -0.000000
    4        7.793138   0.000000
 
 -0.2750000E+00  0.2750000E+00  0.7500000E-01  0.3000000E-02
    1       -1.177022   1.000000
    2        6.697905   0.000000
    3        9.585480   0.000000
    4       10.699021   0.000000
 
 -0.2250000E+00  0.2750000E+00  0.7500000E-01  0.6000000E-02
    1       -1.316315   1.000000
    2        7.364895   0.000000
    3        9.073488   0.000000
    4       10.933580   0.000000
 
 -0.1750000E+00  0.2750000E+00  0.7500000E-01  0.3000000E-02
    1       -1.363372   1.000000
    2        7.850620   0.000000
    3        8.564189   0.000000
    4       11.250425   0.000000
 
 -0.3250000E+00  0.3250000E+00  0.7500000E-01  0.3000000E-02
    1       -0.624573   1.000000
    2        5.538515  -0.000000
    3        9.265468   0.000000
    4       10.396195   0.000000
 
 -0.2750000E+00  0.3250000E+00  0.7500000E-01  0.6000000E-02
    1       -0.807357   1.000000
    2        6.189509  -0.000000
    3        8.704965   0.000000
    4       10.631872   0.000000
 
 -0.2250000E+00  0.3250000E+00  0.7500000E-01  0.6000000E-02
    1       -0.899562   1.000000
    2        6.836168   0.000000
    3        7.975091   0.000000
    4       11.119842   0.000000
 
 -0.3750000E+00  0.3750000E+00  0.7500000E-01  0.3000000E-02
    1        0.014346   1.000000
    2        4.446812  -0.000000
    3        9.029604   0.000000
    4       10.165397   0.000000
 
 -0.3250000E+00  0.3750000E+00  0.7500000E-01  0.6000000E-02
    1       -0.212156   1.000000
    2        5.072746  -0.000000
    3        8.418091   0.000000
    4       10.378255   0.000000
 
 -0.2750000E+00  0.3750000E+00  0.7500000E-01  0.6000000E-02
    1       -0.349864   1.000000
    2        5.741623  -0.000000
    3        7.595082   0.000000
    4       10.903461   0.000000
 
 -0.2250000E+00  0.3750000E+00  0.7500000E-01  0.3000000E-02
    1       -0.395458   1.000000
    2        6.208157  -0.000000
    3        7.067277   0.000000
    4       11.294359   0.000000
 
 -0.4250000E+00  0.4250000E+00  0.7500000E-01  0.3000000E-02
    1        0.731307   0.885284
    2        3.427114  -0.000000
    3        8.869297   0.000000
    4       10.008011   0.000000
 
 -0.3750000E+00  0.4250000E+00  0.7500000E-01  0.6000000E-02
    1        0.463848   1.012038
    2        4.019860  -0.000000
    3        8.213859   0.000000
    4       10.193271   0.000000
 
 -0.3250000E+00  0.4250000E+00  0.7500000E-01  0.6000000E-02
    1        0.284566   1.000332
    2        4.679101  -0.000000
    3        7.327906   0.000000
    4       10.709215   0.000000
 
 -0.2750000E+00  0.4250000E+00  0.7500000E-01  0.6000000E-02
    1        0.194859   1.000027
    2        5.329355  -0.000000
    3        6.546101   0.000000
    4       11.204410   0.000000
 
 -0.4750000E+00  0.4750000E+00  0.7500000E-01  0.3000000E-02
    1        1.493678  -0.000018
    2        2.510444  -0.000000
    3        8.785242   0.000000
    4        9.928366   0.000000
 
 -0.4250000E+00  0.4750000E+00  0.7500000E-01  0.6000000E-02
    1        1.210514  -0.011970
    2        3.046586  -0.000000
    3        8.091290   0.000000
    4       10.080241   0.000000
 
 -0.3750000E+00  0.4750000E+00  0.7500000E-01  0.6000000E-02
    1        0.995328   0.012100
    2        3.674749  -0.000000
    3        7.154101   0.000000
    4       10.574276   0.000000
 
 -0.3250000E+00  0.4750000E+00  0.7500000E-01  0.6000000E-02
    1        0.864808   0.383515
    2        4.353992  -0.000000
    3        6.268175  -0.000000
    4       11.041800   0.000000
 
 -0.2750000E+00  0.4750000E+00  0.7500000E-01  0.3000000E-02
    1        0.821736   0.564308
    2        4.829988  -0.000000
    3        5.724379  -0.000000
    4       11.136278   0.000000
 
 -0.4750000E+00 -0.4750000E+00  0.7500000E-01  0.3000000E-02
    1        1.834497  -0.000000
    2        2.347329  -0.000000
    3        8.051685   0.000000
    4       10.042265   0.000000
 
 -0.4250000E+00 -0.4750000E+00  0.7500000E-01  0.6000000E-02
    1        1.750744  -0.000000
    2        2.772683  -0.000000
    3        7.068930   0.000000
    4       10.506638   0.000000
 
 -0.3750000E+00 -0.4750000E+00  0.7500000E-01  0.6000000E-02
    1        1.601384  -0.000000
    2        3.415125  -0.000000
    3        6.116355  -0.000000
    4       10.940592   0.000000
 
 -0.3250000E+00 -0.4750000E+00  0.7500000E-01  0.6000000E-02
    1        1.520291  -0.000008
    2        4.072420  -0.000000
    3        5.307568  -0.000000
    4       11.001930   0.000000
 
 -0.4250000E+00 -0.4250000E+00  0.7500000E-01  0.3000000E-02
    1        2.205341  -0.000000
    2        2.741069  -0.000000
    3        6.066077  -0.000000
    4       10.904961   0.000000
 
 -0.3750000E+00 -0.4250000E+00  0.7500000E-01  0.6000000E-02
    1        2.255446  -0.000000
    2        3.248501  -0.000000
    3        5.159010  -0.000000
    4       10.931964   0.000000
 
 -0.3250000E+00 -0.4250000E+00  0.7500000E-01  0.3000000E-02
    1        2.234010  -0.000000
    2        3.700756  -0.000000
    3        4.611423  -0.000000
    4       10.909581   0.000000
 
 -0.3750000E+00 -0.3750000E+00  0.7500000E-01  0.3000000E-02
    1        2.824968  -0.000000
    2        3.205097  -0.000000
    3        4.393993  -0.000000
    4       10.876215   0.000000
 
  0.1250000E+00  0.1250000E+00  0.1250000E+00  0.1000000E-02
    1       -0.942744   1.000000
    2        7.382386   0.000000
    3        7.382386   0.000000
    4        8.915101   0.000000
 
  0.1750000E+00  0.1250000E+00  0.1250000E+00  0.3000000E-02
    1       -0.440392   1.000000
    2        6.361802   0.000000
    3        7.000057   0.000000
    4        8.396165   0.000000
 
  0.2250000E+00  0.1250000E+00  0.1250000E+00  0.3000000E-02
    1        0.150368   1.000007
    2        5.323767  -0.000000
    3        6.703704   0.000000
    4        8.041691   0.000000
 
  0.2750000E+00  0.1250000E+00  0.1250000E+00  0.3000000E-02
    1        0.819397   0.574093
    2        4.315188  -0.000000
    3        6.492001   0.000000
    4        7.798616   0.000000
 
  0.3250000E+00  0.1250000E+00  0.1250000E+00  0.3000000E-02
    1        1.557577  -0.000002
    2        3.370757  -0.000000
    3        6.367268   0.000000
    4        7.657346   0.000000
 
  0.3750000E+00  0.1250000E+00  0.1250000E+00  0.1500000E-02
    1        2.162015  -0.000000
    2        2.691768  -0.000000
    3        6.324193   0.000000
    4        7.609779   0.000000
 
 -0.1250000E+00  0.1250000E+00  0.1250000E+00  0.7500000E-03
    1       -2.113177   1.000000
    2       10.382811   0.000000
    3       10.382815   0.000000
    4       10.744620   0.000000
 
  0.1750000E+00  0.1750000E+00  0.1250000E+00  0.3000000E-02
    1        0.104060   1.000001
    2        5.827811  -0.000000
    3        6.272703  -0.000000
    4        7.853162   0.000000
 
  0.2250000E+00  0.1750000E+00  0.1250000E+00  0.6000000E-02
    1        0.732371   0.882499
    2        4.970196  -0.000000
    3        5.904950  -0.000000
    4        7.503973   0.000000
 
  0.2750000E+00  0.1750000E+00  0.1250000E+00  0.6000000E-02
    1        1.433007  -0.000104
    2        4.039290  -0.000000
    3        5.712530  -0.000000
    4        7.287684   0.000000
 
  0.3250000E+00  0.1750000E+00  0.1250000E+00  0.6000000E-02
    1        2.170407  -0.000000
    2        3.176940  -0.000000
    3        5.620997  -0.000000
    4        7.184645   0.000000
 
 -0.1750000E+00  0.1750000E+00  0.1250000E+00  0.3000000E-02
    1       -1.831310   1.000000
    2        9.278389   0.000000
    3        9.834666   0.000000
    4       10.508849   0.000000
 
  0.2250000E+00  0.2250000E+00  0.1250000E+00  0.3000000E-02
    1        1.390806  -0.000320
    2        4.531989  -0.000000
    3        5.206021  -0.000000
    4        7.183572   0.000000
 
  0.2750000E+00  0.2250000E+00  0.1250000E+00  0.6000000E-02
    1        2.110146  -0.000000
    2        3.811383  -0.000000
    3        4.898695  -0.000000
    4        7.009153   0.000000
 
  0.3250000E+00  0.2250000E+00  0.1250000E+00  0.3000000E-02
    1        2.699392  -0.000000
    2        3.190485  -0.000000
    3        4.824932  -0.000000
    4        6.953665   0.000000
 
 -0.2250000E+00  0.2250000E+00  0.1250000E+00  0.3000000E-02
    1       -1.457054   1.000000
    2        8.040555   0.000000
    3        9.363208   0.000000
    4       10.289072   0.000000
 
 -0.1750000E+00  0.2250000E+00  0.1250000E+00  0.3000000E-02
    1       -1.503153   1.000000
    2        8.570205   0.000000
    3        9.059321   0.000000
    4       10.275062   0.000000
 
  0.2750000E+00  0.2750000E+00  0.1250000E+00  0.3000000E-02
    1        2.814662  -0.000000
    2        3.488884  -0.000000
    3        4.318854  -0.000000
    4        6.883425   0.000000
 
 -0.2750000E+00  0.2750000E+00  0.1250000E+00  0.3000000E-02
    1       -0.992081   1.000000
    2        6.841008   0.000000
    3        8.969942   0.000000