 running on    1 total cores
 distrk:  each k-point on    1 cores,    1 groups
 distr:  one band on    1 cores,    1 groups
 using from now: INCAR     
 vasp.5.4.4.18Apr17-6-g9f103f2a35 (build May 20 2018 16:52:39) complex          
  
 POSCAR found type information on POSCAR  Na
 POSCAR found :  1 types and       1 ions
 scaLAPACK will be used
 LDA part: xc-table for Ceperly-Alder, standard interpolation
 POSCAR, INCAR and KPOINTS ok, starting setup
 FFT: planning ...
 WAVECAR not read
 WARNING: random wavefunctions but no delay for mixing, default for NELMDL
 entering main loop
       N       E                     dE             d eps       ncg     rms          rms(c)
DAV:   1    -0.133837891331E+01   -0.13384E+01   -0.64181E+01  2296   0.181E+01
DAV:   2    -0.142423840325E+01   -0.85859E-01   -0.81551E-01  2632   0.428E+00
DAV:   3    -0.142453934767E+01   -0.30094E-03   -0.30091E-03  2428   0.239E-01
DAV:   4    -0.142454007764E+01   -0.72997E-06   -0.72998E-06  2520   0.907E-03
DAV:   5    -0.142454008011E+01   -0.24751E-08   -0.25245E-08  2260   0.394E-04    0.196E-01
DAV:   6    -0.142434295989E+01    0.19712E-03   -0.27966E-05  2148   0.251E-02    0.131E-01
DAV:   7    -0.142411368552E+01    0.22927E-03   -0.10960E-04  2052   0.523E-02    0.911E-03
DAV:   8    -0.142410939352E+01    0.42920E-05   -0.35047E-06  2316   0.912E-03    0.159E-03
DAV:   9    -0.142410939349E+01    0.37630E-10   -0.90506E-08  1624   0.165E-03
   1 F= -.14241094E+01 E0= -.14239245E+01  d E =-.142411E+01
 curvature:   0.00 expect dE= 0.000E+00 dE for cont linesearch  0.000E+00
 trial: gam= 0.00000 g(F)=  0.726E-63 g(S)=  0.127E-01 ort = 0.000E+00 (trialstep = 0.100E+01)
 search vector abs. value=  0.127E-01
 bond charge predicted
       N       E                     dE             d eps       ncg     rms          rms(c)
DAV:   1    -0.143551657171E+01   -0.11407E-01   -0.86299E-03  2176   0.392E-01    0.168E-02
DAV:   2    -0.143552148884E+01   -0.49171E-05   -0.63696E-05  2236   0.399E-02    0.113E-02
DAV:   3    -0.143552157191E+01   -0.83069E-07   -0.27832E-06  2420   0.703E-03
   2 F= -.14355216E+01 E0= -.14353381E+01  d E =-.114122E-01
 trial-energy change:   -0.011412  1 .order   -0.011319   -0.012709   -0.009930
 step:   3.1813(harm=  4.5730)  dis= 0.00000  next Energy=    -1.447316 (dE=-0.232E-01)
 bond charge predicted
       N       E                     dE             d eps       ncg     rms          rms(c)
DAV:   1    -0.145007232469E+01   -0.14551E-01   -0.44552E-02  2136   0.932E-01    0.380E-02
DAV:   2    -0.145009355325E+01   -0.21229E-04   -0.33055E-04  2224   0.928E-02    0.253E-02
DAV:   3    -0.145009154927E+01    0.20040E-05   -0.14911E-05  2328   0.168E-02    0.210E-03
DAV:   4    -0.145009069526E+01    0.85401E-06   -0.18229E-07  1868   0.221E-03
   3 F= -.14500907E+01 E0= -.14499132E+01  d E =-.259813E-01
 curvature:  -1.94 expect dE=-0.125E-02 dE for cont linesearch -0.125E-02
 ZBRENT: extrapolating
 opt :   4.0635  next Energy=    -1.451352 (dE=-0.272E-01)
 bond charge predicted
       N       E                     dE             d eps       ncg     rms          rms(c)
DAV:   1    -0.145121446165E+01   -0.11229E-02   -0.75203E-03  2116   0.391E-01    0.157E-02
DAV:   2    -0.145121697496E+01   -0.25133E-05   -0.59809E-05  2232   0.405E-02    0.104E-02
DAV:   3    -0.145121621304E+01    0.76192E-06   -0.31897E-06  2316   0.787E-03
   4 F= -.14512162E+01 E0= -.14510421E+01  d E =-.271068E-01
 curvature:  -1.96 expect dE=-0.305E-04 dE for cont linesearch -0.305E-04
 ZBRENT: bracketing found
 ZBRENT: interpolating
 opt :   3.9448  next Energy=    -1.451243 (dE=-0.271E-01)
 bond charge predicted
       N       E                     dE             d eps       ncg     rms          rms(c)
DAV:   1    -0.145124499829E+01   -0.28023E-04   -0.13941E-04  2112   0.530E-02    0.233E-03
DAV:   2    -0.145124491079E+01    0.87498E-07   -0.11583E-06  2184   0.570E-03
   5 F= -.14512449E+01 E0= -.14510703E+01  d E =-.271355E-01
 curvature:  -1.70 expect dE=-0.247E-09 dE for cont linesearch -0.247E-09
 trial: gam= 0.00000 g(F)=  0.586E-64 g(S)=  0.145E-09 ort =-0.136E-05 (trialstep = 0.159E+01)
 search vector abs. value=  0.245E-09
 reached required accuracy - stopping structural energy minimisation
