<?xml version="1.0" encoding="ISO-8859-1"?>
<modeling>
 <generator>
  <i name="program" type="string">vasp </i>
  <i name="version" type="string">5.4.4.18Apr17-6-g9f103f2a35  </i>
  <i name="subversion" type="string">(build May 20 2018 16:52:39) complex            parallel </i>
  <i name="platform" type="string">LinuxIFC </i>
  <i name="date" type="string">2022 10 30 </i>
  <i name="time" type="string">22:44:07 </i>
 </generator>
 <incar>
  <i type="string" name="SYSTEM"> bcc Na</i>
  <i type="string" name="PREC">normal</i>
  <i type="int" name="IBRION">     2</i>
  <i name="EDIFF">      0.00000100</i>
  <i type="int" name="NSW">    50</i>
  <i type="int" name="ISIF">     3</i>
  <i type="logical" name="LWAVE"> F  </i>
  <v type="int" name="KPOINT_BSE">    -1     0     0     0</v>
 </incar>
 <structure name="primitive_cell" >
  <crystal>
   <varray name="basis" >
    <v>      -2.02000000       2.02000000       2.02000000 </v>
    <v>       2.02000000      -2.02000000       2.02000000 </v>
    <v>       2.02000000       2.02000000      -2.02000000 </v>
   </varray>
   <i name="volume">     32.96963200 </i>
   <varray name="rec_basis" >
    <v>       0.00000000       0.24752475       0.24752475 </v>
    <v>       0.24752475       0.00000000       0.24752475 </v>
    <v>       0.24752475       0.24752475       0.00000000 </v>
   </varray>
  </crystal>
  <varray name="positions" >
   <v>       0.00000000       0.00000000       0.00000000 </v>
  </varray>
 </structure>
 <varray name="primitive_index" >
  <v type="int" >        1 </v>
 </varray>
 <kpoints>
  <generation param="Monkhorst-Pack">
   <v type="int" name="divisions">      20       20       20 </v>
   <v name="usershift">      0.00000000       0.00000000       0.00000000 </v>
   <v name="genvec1">      0.05000000       0.00000000       0.00000000 </v>
   <v name="genvec2">      0.00000000       0.05000000       0.00000000 </v>
   <v name="genvec3">      0.00000000       0.00000000       0.05000000 </v>
   <v name="shift">      0.50000000       0.50000000       0.50000000 </v>
  </generation>
  <varray name="kpointlist" >
   <v>       0.02500000       0.02500000       0.02500000 </v>
   <v>       0.07500000       0.02500000       0.02500000 </v>
   <v>       0.12500000       0.02500000       0.02500000 </v>
   <v>       0.17500000       0.02500000       0.02500000 </v>
   <v>       0.22500000       0.02500000       0.02500000 </v>
   <v>       0.27500000       0.02500000       0.02500000 </v>
   <v>       0.32500000       0.02500000       0.02500000 </v>
   <v>       0.37500000       0.02500000       0.02500000 </v>
   <v>       0.42500000       0.02500000       0.02500000 </v>
   <v>       0.47500000       0.02500000       0.02500000 </v>
   <v>      -0.02500000       0.02500000       0.02500000 </v>
   <v>       0.07500000       0.07500000       0.02500000 </v>
   <v>       0.12500000       0.07500000       0.02500000 </v>
   <v>       0.17500000       0.07500000       0.02500000 </v>
   <v>       0.22500000       0.07500000       0.02500000 </v>
   <v>       0.27500000       0.07500000       0.02500000 </v>
   <v>       0.32500000       0.07500000       0.02500000 </v>
   <v>       0.37500000       0.07500000       0.02500000 </v>
   <v>       0.42500000       0.07500000       0.02500000 </v>
   <v>      -0.07500000       0.07500000       0.02500000 </v>
   <v>       0.12500000       0.12500000       0.02500000 </v>
   <v>       0.17500000       0.12500000       0.02500000 </v>
   <v>       0.22500000       0.12500000       0.02500000 </v>
   <v>       0.27500000       0.12500000       0.02500000 </v>
   <v>       0.32500000       0.12500000       0.02500000 </v>
   <v>       0.37500000       0.12500000       0.02500000 </v>
   <v>       0.42500000       0.12500000       0.02500000 </v>
   <v>      -0.12500000       0.12500000       0.02500000 </v>
   <v>      -0.07500000       0.12500000       0.02500000 </v>
   <v>       0.17500000       0.17500000       0.02500000 </v>
   <v>       0.22500000       0.17500000       0.02500000 </v>
   <v>       0.27500000       0.17500000       0.02500000 </v>
   <v>       0.32500000       0.17500000       0.02500000 </v>
   <v>       0.37500000       0.17500000       0.02500000 </v>
   <v>      -0.17500000       0.17500000       0.02500000 </v>
   <v>      -0.12500000       0.17500000       0.02500000 </v>
   <v>       0.22500000       0.22500000       0.02500000 </v>
   <v>       0.27500000       0.22500000       0.02500000 </v>
   <v>       0.32500000       0.22500000       0.02500000 </v>
   <v>       0.37500000       0.22500000       0.02500000 </v>
   <v>      -0.22500000       0.22500000       0.02500000 </v>
   <v>      -0.17500000       0.22500000       0.02500000 </v>
   <v>      -0.12500000       0.22500000       0.02500000 </v>
   <v>       0.27500000       0.27500000       0.02500000 </v>
   <v>       0.32500000       0.27500000       0.02500000 </v>
   <v>      -0.27500000       0.27500000       0.02500000 </v>
   <v>      -0.22500000       0.27500000       0.02500000 </v>
   <v>      -0.17500000       0.27500000       0.02500000 </v>
   <v>       0.32500000       0.32500000       0.02500000 </v>
   <v>      -0.32500000       0.32500000       0.02500000 </v>
   <v>      -0.27500000       0.32500000       0.02500000 </v>
   <v>      -0.22500000       0.32500000       0.02500000 </v>
   <v>      -0.17500000       0.32500000       0.02500000 </v>
   <v>      -0.37500000       0.37500000       0.02500000 </v>
   <v>      -0.32500000       0.37500000       0.02500000 </v>
   <v>      -0.27500000       0.37500000       0.02500000 </v>
   <v>      -0.22500000       0.37500000       0.02500000 </v>
   <v>      -0.42500000       0.42500000       0.02500000 </v>
   <v>      -0.37500000       0.42500000       0.02500000 </v>
   <v>      -0.32500000       0.42500000       0.02500000 </v>
   <v>      -0.27500000       0.42500000       0.02500000 </v>
   <v>      -0.22500000       0.42500000       0.02500000 </v>
   <v>      -0.47500000       0.47500000       0.02500000 </v>
   <v>      -0.42500000       0.47500000       0.02500000 </v>
   <v>      -0.37500000       0.47500000       0.02500000 </v>
   <v>      -0.32500000       0.47500000       0.02500000 </v>
   <v>      -0.27500000       0.47500000       0.02500000 </v>
   <v>      -0.47500000      -0.47500000       0.02500000 </v>
   <v>      -0.42500000      -0.47500000       0.02500000 </v>
   <v>      -0.37500000      -0.47500000       0.02500000 </v>
   <v>      -0.32500000      -0.47500000       0.02500000 </v>
   <v>      -0.27500000      -0.47500000       0.02500000 </v>
   <v>      -0.42500000      -0.42500000       0.02500000 </v>
   <v>      -0.37500000      -0.42500000       0.02500000 </v>
   <v>      -0.32500000      -0.42500000       0.02500000 </v>
   <v>      -0.37500000      -0.37500000       0.02500000 </v>
   <v>      -0.32500000      -0.37500000       0.02500000 </v>
   <v>       0.07500000       0.07500000       0.07500000 </v>
   <v>       0.12500000       0.07500000       0.07500000 </v>
   <v>       0.17500000       0.07500000       0.07500000 </v>
   <v>       0.22500000       0.07500000       0.07500000 </v>
   <v>       0.27500000       0.07500000       0.07500000 </v>
   <v>       0.32500000       0.07500000       0.07500000 </v>
   <v>       0.37500000       0.07500000       0.07500000 </v>
   <v>       0.42500000       0.07500000       0.07500000 </v>
   <v>      -0.07500000       0.07500000       0.07500000 </v>
   <v>       0.12500000       0.12500000       0.07500000 </v>
   <v>       0.17500000       0.12500000       0.07500000 </v>
   <v>       0.22500000       0.12500000       0.07500000 </v>
   <v>       0.27500000       0.12500000       0.07500000 </v>
   <v>       0.32500000       0.12500000       0.07500000 </v>
   <v>       0.37500000       0.12500000       0.07500000 </v>
   <v>      -0.12500000       0.12500000       0.07500000 </v>
   <v>       0.17500000       0.17500000       0.07500000 </v>
   <v>       0.22500000       0.17500000       0.07500000 </v>
   <v>       0.27500000       0.17500000       0.07500000 </v>
   <v>       0.32500000       0.17500000       0.07500000 </v>
   <v>       0.37500000       0.17500000       0.07500000 </v>
   <v>      -0.17500000       0.17500000       0.07500000 </v>
   <v>      -0.12500000       0.17500000       0.07500000 </v>
   <v>       0.22500000       0.22500000       0.07500000 </v>
   <v>       0.27500000       0.22500000       0.07500000 </v>
   <v>       0.32500000       0.22500000       0.07500000 </v>
   <v>      -0.22500000       0.22500000       0.07500000 </v>
   <v>      -0.17500000       0.22500000       0.07500000 </v>
   <v>       0.27500000       0.27500000       0.07500000 </v>
   <v>       0.32500000       0.27500000       0.07500000 </v>
   <v>      -0.27500000       0.27500000       0.07500000 </v>
   <v>      -0.22500000       0.27500000       0.07500000 </v>
   <v>      -0.17500000       0.27500000       0.07500000 </v>
   <v>      -0.32500000       0.32500000       0.07500000 </v>
   <v>      -0.27500000       0.32500000       0.07500000 </v>
   <v>      -0.22500000       0.32500000       0.07500000 </v>
   <v>      -0.37500000       0.37500000       0.07500000 </v>
   <v>      -0.32500000       0.37500000       0.07500000 </v>
   <v>      -0.27500000       0.37500000       0.07500000 </v>
   <v>      -0.22500000       0.37500000       0.07500000 </v>
   <v>      -0.42500000       0.42500000       0.07500000 </v>
   <v>      -0.37500000       0.42500000       0.07500000 </v>
   <v>      -0.32500000       0.42500000       0.07500000 </v>
   <v>      -0.27500000       0.42500000       0.07500000 </v>
   <v>      -0.47500000       0.47500000       0.07500000 </v>
   <v>      -0.42500000       0.47500000       0.07500000 </v>
   <v>      -0.37500000       0.47500000       0.07500000 </v>
   <v>      -0.32500000       0.47500000       0.07500000 </v>
   <v>      -0.27500000       0.47500000       0.07500000 </v>
   <v>      -0.47500000      -0.47500000       0.07500000 </v>
   <v>      -0.42500000      -0.47500000       0.07500000 </v>
   <v>      -0.37500000      -0.47500000       0.07500000 </v>
   <v>      -0.32500000      -0.47500000       0.07500000 </v>
   <v>      -0.42500000      -0.42500000       0.07500000 </v>
   <v>      -0.37500000      -0.42500000       0.07500000 </v>
   <v>      -0.32500000      -0.42500000       0.07500000 </v>
   <v>      -0.37500000      -0.37500000       0.07500000 </v>
   <v>       0.12500000       0.12500000       0.12500000 </v>
   <v>       0.17500000       0.12500000       0.12500000 </v>
   <v>       0.22500000       0.12500000       0.12500000 </v>
   <v>       0.27500000       0.12500000       0.12500000 </v>
   <v>       0.32500000       0.12500000       0.12500000 </v>
   <v>       0.37500000       0.12500000       0.12500000 </v>
   <v>      -0.12500000       0.12500000       0.12500000 </v>
   <v>       0.17500000       0.17500000       0.12500000 </v>
   <v>       0.22500000       0.17500000       0.12500000 </v>
   <v>       0.27500000       0.17500000       0.12500000 </v>
   <v>       0.32500000       0.17500000       0.12500000 </v>
   <v>      -0.17500000       0.17500000       0.12500000 </v>
   <v>       0.22500000       0.22500000       0.12500000 </v>
   <v>       0.27500000       0.22500000       0.12500000 </v>
   <v>       0.32500000       0.22500000       0.12500000 </v>
   <v>      -0.22500000       0.22500000       0.12500000 </v>
   <v>      -0.17500000       0.22500000       0.12500000 </v>
   <v>       0.27500000       0.27500000       0.12500000 </v>
   <v>      -0.27500000       0.27500000       0.12500000 </v>
   <v>      -0.22500000       0.27500000       0.12500000 </v>
   <v>      -0.32500000       0.32500000       0.12500000 </v>
   <v>      -0.27500000       0.32500000       0.12500000 </v>
   <v>      -0.22500000       0.32500000       0.12500000 </v>
   <v>      -0.37500000       0.37500000       0.12500000 </v>
   <v>      -0.32500000       0.37500000       0.12500000 </v>
   <v>      -0.27500000       0.37500000       0.12500000 </v>
   <v>      -0.42500000       0.42500000       0.12500000 </v>
   <v>      -0.37500000       0.42500000       0.12500000 </v>
   <v>      -0.32500000       0.42500000       0.12500000 </v>
   <v>      -0.27500000       0.42500000       0.12500000 </v>
   <v>      -0.47500000       0.47500000       0.12500000 </v>
   <v>      -0.42500000       0.47500000       0.12500000 </v>
   <v>      -0.37500000       0.47500000       0.12500000 </v>
   <v>      -0.32500000       0.47500000       0.12500000 </v>
   <v>      -0.47500000      -0.47500000       0.12500000 </v>
   <v>      -0.42500000      -0.47500000       0.12500000 </v>
   <v>      -0.37500000      -0.47500000       0.12500000 </v>
   <v>      -0.32500000      -0.47500000       0.12500000 </v>
   <v>      -0.42500000      -0.42500000       0.12500000 </v>
   <v>      -0.37500000      -0.42500000       0.12500000 </v>
   <v>      -0.37500000      -0.37500000       0.12500000 </v>
   <v>       0.17500000       0.17500000       0.17500000 </v>
   <v>       0.22500000       0.17500000       0.17500000 </v>
   <v>       0.27500000       0.17500000       0.17500000 </v>
   <v>       0.32500000       0.17500000       0.17500000 </v>
   <v>      -0.17500000       0.17500000       0.17500000 </v>
   <v>       0.22500000       0.22500000       0.17500000 </v>
   <v>       0.27500000       0.22500000       0.17500000 </v>
   <v>      -0.22500000       0.22500000       0.17500000 </v>
   <v>       0.27500000       0.27500000       0.17500000 </v>
   <v>      -0.27500000       0.27500000       0.17500000 </v>
   <v>      -0.22500000       0.27500000       0.17500000 </v>
   <v>      -0.32500000       0.32500000       0.17500000 </v>
   <v>      -0.27500000       0.32500000       0.17500000 </v>
   <v>      -0.37500000       0.37500000       0.17500000 </v>
   <v>      -0.32500000       0.37500000       0.17500000 </v>
   <v>      -0.27500000       0.37500000       0.17500000 </v>
   <v>      -0.42500000       0.42500000       0.17500000 </v>
   <v>      -0.37500000       0.42500000       0.17500000 </v>
   <v>      -0.32500000       0.42500000       0.17500000 </v>
   <v>      -0.47500000       0.47500000       0.17500000 </v>
   <v>      -0.42500000       0.47500000       0.17500000 </v>
   <v>      -0.37500000       0.47500000       0.17500000 </v>
   <v>      -0.32500000       0.47500000       0.17500000 </v>
   <v>      -0.47500000      -0.47500000       0.17500000 </v>
   <v>      -0.42500000      -0.47500000       0.17500000 </v>
   <v>      -0.37500000      -0.47500000       0.17500000 </v>
   <v>      -0.42500000      -0.42500000       0.17500000 </v>
   <v>      -0.37500000      -0.42500000       0.17500000 </v>
   <v>       0.22500000       0.22500000       0.22500000 </v>
   <v>       0.27500000       0.22500000       0.22500000 </v>
   <v>      -0.22500000       0.22500000       0.22500000 </v>
   <v>      -0.27500000       0.27500000       0.22500000 </v>
   <v>      -0.32500000       0.32500000       0.22500000 </v>
   <v>      -0.27500000       0.32500000       0.22500000 </v>
   <v>      -0.37500000       0.37500000       0.22500000 </v>
   <v>      -0.32500000       0.37500000       0.22500000 </v>
   <v>      -0.42500000       0.42500000       0.22500000 </v>
   <v>      -0.37500000       0.42500000       0.22500000 </v>
   <v>      -0.32500000       0.42500000       0.22500000 </v>
   <v>      -0.47500000       0.47500000       0.22500000 </v>
   <v>      -0.42500000       0.47500000       0.22500000 </v>
   <v>      -0.37500000       0.47500000       0.22500000 </v>
   <v>      -0.47500000      -0.47500000       0.22500000 </v>
   <v>      -0.42500000      -0.47500000       0.22500000 </v>
   <v>      -0.37500000      -0.47500000       0.22500000 </v>
   <v>      -0.42500000      -0.42500000       0.22500000 </v>
   <v>      -0.27500000       0.27500000       0.27500000 </v>
   <v>      -0.32500000       0.32500000       0.27500000 </v>
   <v>      -0.37500000       0.37500000       0.27500000 </v>
   <v>      -0.32500000       0.37500000       0.27500000 </v>
   <v>      -0.42500000       0.42500000       0.27500000 </v>
   <v>      -0.37500000       0.42500000       0.27500000 </v>
   <v>      -0.47500000       0.47500000       0.27500000 </v>
   <v>      -0.42500000       0.47500000       0.27500000 </v>
   <v>      -0.37500000       0.47500000       0.27500000 </v>
   <v>      -0.47500000      -0.47500000       0.27500000 </v>
   <v>      -0.42500000      -0.47500000       0.27500000 </v>
   <v>      -0.42500000      -0.42500000       0.27500000 </v>
   <v>      -0.32500000       0.32500000       0.32500000 </v>
   <v>      -0.37500000       0.37500000       0.32500000 </v>
   <v>      -0.42500000       0.42500000       0.32500000 </v>
   <v>      -0.37500000       0.42500000       0.32500000 </v>
   <v>      -0.47500000       0.47500000       0.32500000 </v>
   <v>      -0.42500000       0.47500000       0.32500000 </v>
   <v>      -0.47500000      -0.47500000       0.32500000 </v>
   <v>      -0.42500000      -0.47500000       0.32500000 </v>
   <v>      -0.37500000       0.37500000       0.37500000 </v>
   <v>      -0.42500000       0.42500000       0.37500000 </v>
   <v>      -0.47500000       0.47500000       0.37500000 </v>
   <v>      -0.42500000       0.47500000       0.37500000 </v>
   <v>      -0.47500000      -0.47500000       0.37500000 </v>
   <v>      -0.42500000       0.42500000       0.42500000 </v>
   <v>      -0.47500000       0.47500000       0.42500000 </v>
   <v>      -0.47500000      -0.47500000       0.42500000 </v>
   <v>      -0.47500000       0.47500000       0.47500000 </v>
  </varray>
  <varray name="weights" >
   <v>       0.00100000 </v>
   <v>       0.00300000 </v>
   <v>       0.00300000 </v>
   <v>       0.00300000 </v>
   <v>       0.00300000 </v>
   <v>       0.00300000 </v>
   <v>       0.00300000 </v>
   <v>       0.00300000 </v>
   <v>       0.00300000 </v>
   <v>       0.00150000 </v>
   <v>       0.00075000 </v>
   <v>       0.00300000 </v>
   <v>       0.00600000 </v>
   <v>       0.00600000 </v>
   <v>       0.00600000 </v>
   <v>       0.00600000 </v>
   <v>       0.00600000 </v>
   <v>       0.00600000 </v>
   <v>       0.00600000 </v>
   <v>       0.00300000 </v>
   <v>       0.00300000 </v>
   <v>       0.00600000 </v>
   <v>       0.00600000 </v>
   <v>       0.00600000 </v>
   <v>       0.00600000 </v>
   <v>       0.00600000 </v>
   <v>       0.00300000 </v>
   <v>       0.00300000 </v>
   <v>       0.00300000 </v>
   <v>       0.00300000 </v>
   <v>       0.00600000 </v>
   <v>       0.00600000 </v>
   <v>       0.00600000 </v>
   <v>       0.00600000 </v>
   <v>       0.00300000 </v>
   <v>       0.00600000 </v>
   <v>       0.00300000 </v>
   <v>       0.00600000 </v>
   <v>       0.00600000 </v>
   <v>       0.00300000 </v>
   <v>       0.00300000 </v>
   <v>       0.00600000 </v>
   <v>       0.00300000 </v>
   <v>       0.00300000 </v>
   <v>       0.00600000 </v>
   <v>       0.00300000 </v>
   <v>       0.00600000 </v>
   <v>       0.00600000 </v>
   <v>       0.00100000 </v>
   <v>       0.00300000 </v>
   <v>       0.00600000 </v>
   <v>       0.00600000 </v>
   <v>       0.00300000 </v>
   <v>       0.00300000 </v>
   <v>       0.00600000 </v>
   <v>       0.00600000 </v>
   <v>       0.00600000 </v>
   <v>       0.00300000 </v>
   <v>       0.00600000 </v>
   <v>       0.00600000 </v>
   <v>       0.00600000 </v>
   <v>       0.00300000 </v>
   <v>       0.00300000 </v>
   <v>       0.00600000 </v>
   <v>       0.00600000 </v>
   <v>       0.00600000 </v>
   <v>       0.00600000 </v>
   <v>       0.00300000 </v>
   <v>       0.00600000 </v>
   <v>       0.00600000 </v>
   <v>       0.00600000 </v>
   <v>       0.00300000 </v>
   <v>       0.00300000 </v>
   <v>       0.00600000 </v>
   <v>       0.00600000 </v>
   <v>       0.00300000 </v>
   <v>       0.00300000 </v>
   <v>       0.00100000 </v>
   <v>       0.00300000 </v>
   <v>       0.00300000 </v>
   <v>       0.00300000 </v>
   <v>       0.00300000 </v>
   <v>       0.00300000 </v>
   <v>       0.00300000 </v>
   <v>       0.00150000 </v>
   <v>       0.00075000 </v>
   <v>       0.00300000 </v>
   <v>       0.00600000 </v>
   <v>       0.00600000 </v>
   <v>       0.00600000 </v>
   <v>       0.00600000 </v>
   <v>       0.00600000 </v>
   <v>       0.00300000 </v>
   <v>       0.00300000 </v>
   <v>       0.00600000 </v>
   <v>       0.00600000 </v>
   <v>       0.00600000 </v>
   <v>       0.00300000 </v>
   <v>       0.00300000 </v>
   <v>       0.00300000 </v>
   <v>       0.00300000 </v>
   <v>       0.00600000 </v>
   <v>       0.00600000 </v>
   <v>       0.00300000 </v>
   <v>       0.00600000 </v>
   <v>       0.00300000 </v>
   <v>       0.00300000 </v>
   <v>       0.00300000 </v>
   <v>       0.00600000 </v>
   <v>       0.00300000 </v>
   <v>       0.00300000 </v>
   <v>       0.00600000 </v>
   <v>       0.00600000 </v>
   <v>       0.00300000 </v>
   <v>       0.00600000 </v>
   <v>       0.00600000 </v>
   <v>       0.00300000 </v>
   <v>       0.00300000 </v>
   <v>       0.00600000 </v>
   <v>       0.00600000 </v>
   <v>       0.00600000 </v>
   <v>       0.00300000 </v>
   <v>       0.00600000 </v>
   <v>       0.00600000 </v>
   <v>       0.00600000 </v>
   <v>       0.00300000 </v>
   <v>       0.00300000 </v>
   <v>       0.00600000 </v>
   <v>       0.00600000 </v>
   <v>       0.00600000 </v>
   <v>       0.00300000 </v>
   <v>       0.00600000 </v>
   <v>       0.00300000 </v>
   <v>       0.00300000 </v>
   <v>       0.00100000 </v>
   <v>       0.00300000 </v>
   <v>       0.00300000 </v>
   <v>       0.00300000 </v>
   <v>       0.00300000 </v>
   <v>       0.00150000 </v>
   <v>       0.00075000 </v>
   <v>       0.00300000 </v>
   <v>       0.00600000 </v>
   <v>       0.00600000 </v>
   <v>       0.00600000 </v>
   <v>       0.00300000 </v>
   <v>       0.00300000 </v>
   <v>       0.00600000 </v>
   <v>       0.00300000 </v>
   <v>       0.00300000 </v>
   <v>       0.00300000 </v>
   <v>       0.00300000 </v>
   <v>       0.00300000 </v>
   <v>       0.00600000 </v>
   <v>       0.00300000 </v>
   <v>       0.00600000 </v>
   <v>       0.00300000 </v>
   <v>       0.00300000 </v>
   <v>       0.00600000 </v>
   <v>       0.00600000 </v>
   <v>       0.00300000 </v>
   <v>       0.00600000 </v>
   <v>       0.00600000 </v>
   <v>       0.00300000 </v>
   <v>       0.00300000 </v>
   <v>       0.00600000 </v>
   <v>       0.00600000 </v>
   <v>       0.00600000 </v>
   <v>       0.00300000 </v>
   <v>       0.00600000 </v>
   <v>       0.00600000 </v>
   <v>       0.00300000 </v>
   <v>       0.00300000 </v>
   <v>       0.00600000 </v>
   <v>       0.00100000 </v>
   <v>       0.00100000 </v>
   <v>       0.00300000 </v>
   <v>       0.00300000 </v>
   <v>       0.00150000 </v>
   <v>       0.00075000 </v>
   <v>       0.00300000 </v>
   <v>       0.00600000 </v>
   <v>       0.00300000 </v>
   <v>       0.00100000 </v>
   <v>       0.00300000 </v>
   <v>       0.00300000 </v>
   <v>       0.00300000 </v>
   <v>       0.00600000 </v>
   <v>       0.00300000 </v>
   <v>       0.00600000 </v>
   <v>       0.00300000 </v>
   <v>       0.00300000 </v>
   <v>       0.00600000 </v>
   <v>       0.00600000 </v>
   <v>       0.00300000 </v>
   <v>       0.00600000 </v>
   <v>       0.00600000 </v>
   <v>       0.00300000 </v>
   <v>       0.00300000 </v>
   <v>       0.00600000 </v>
   <v>       0.00600000 </v>
   <v>       0.00300000 </v>
   <v>       0.00300000 </v>
   <v>       0.00100000 </v>
   <v>       0.00150000 </v>
   <v>       0.00075000 </v>
   <v>       0.00300000 </v>
   <v>       0.00300000 </v>
   <v>       0.00300000 </v>
   <v>       0.00300000 </v>
   <v>       0.00600000 </v>
   <v>       0.00300000 </v>
   <v>       0.00600000 </v>
   <v>       0.00300000 </v>
   <v>       0.00300000 </v>
   <v>       0.00600000 </v>
   <v>       0.00600000 </v>
   <v>       0.00300000 </v>
   <v>       0.00600000 </v>
   <v>       0.00300000 </v>
   <v>       0.00300000 </v>
   <v>       0.00075000 </v>
   <v>       0.00300000 </v>
   <v>       0.00300000 </v>
   <v>       0.00300000 </v>
   <v>       0.00300000 </v>
   <v>       0.00600000 </v>
   <v>       0.00300000 </v>
   <v>       0.00600000 </v>
   <v>       0.00300000 </v>
   <v>       0.00300000 </v>
   <v>       0.00600000 </v>
   <v>       0.00100000 </v>
   <v>       0.00075000 </v>
   <v>       0.00300000 </v>
   <v>       0.00300000 </v>
   <v>       0.00300000 </v>
   <v>       0.00300000 </v>
   <v>       0.00600000 </v>
   <v>       0.00300000 </v>
   <v>       0.00300000 </v>
   <v>       0.00075000 </v>
   <v>       0.00300000 </v>
   <v>       0.00300000 </v>
   <v>       0.00300000 </v>
   <v>       0.00300000 </v>
   <v>       0.00075000 </v>
   <v>       0.00300000 </v>
   <v>       0.00100000 </v>
   <v>       0.00075000 </v>
  </varray>
 </kpoints>
 <parameters>
  <separator name="general" >
   <i type="string" name="SYSTEM">bcc Na</i>
   <i type="logical" name="LCOMPAT"> F  </i>
  </separator>
  <separator name="electronic" >
   <i type="string" name="PREC">normal</i>
   <i name="ENMAX">    101.95600000</i>
   <i name="ENAUG">    250.69500000</i>
   <i name="EDIFF">      0.00000100</i>
   <i type="int" name="IALGO">    38</i>
   <i type="int" name="IWAVPR">    11</i>
   <i type="int" name="NBANDS">     4</i>
   <i name="NELECT">      1.00000000</i>
   <i type="int" name="TURBO">     0</i>
   <i type="int" name="IRESTART">     0</i>
   <i type="int" name="NREBOOT">     0</i>
   <i type="int" name="NMIN">     0</i>
   <i name="EREF">      0.00000000</i>
   <separator name="electronic smearing" >
    <i type="int" name="ISMEAR">     1</i>
    <i name="SIGMA">      0.20000000</i>
    <i name="KSPACING">      0.50000000</i>
    <i type="logical" name="KGAMMA"> T  </i>
   </separator>
   <separator name="electronic projectors" >
    <i type="logical" name="LREAL"> F  </i>
    <v name="ROPT">      0.00000000</v>
    <i type="int" name="LMAXPAW">  -100</i>
    <i type="int" name="LMAXMIX">     2</i>
    <i type="logical" name="NLSPLINE"> F  </i>
   </separator>
   <separator name="electronic startup" >
    <i type="int" name="ISTART">     0</i>
    <i type="int" name="ICHARG">     2</i>
    <i type="int" name="INIWAV">     1</i>
   </separator>
   <separator name="electronic spin" >
    <i type="int" name="ISPIN">     1</i>
    <i type="logical" name="LNONCOLLINEAR"> F  </i>
    <v name="MAGMOM">      1.00000000</v>
    <i name="NUPDOWN">     -1.00000000</i>
    <i type="logical" name="LSORBIT"> F  </i>
    <v name="SAXIS">      0.00000000      0.00000000      1.00000000</v>
    <i type="logical" name="LSPIRAL"> F  </i>
    <v name="QSPIRAL">      0.00000000      0.00000000      0.00000000</v>
    <i type="logical" name="LZEROZ"> F  </i>
   </separator>
   <separator name="electronic exchange-correlation" >
    <i type="logical" name="LASPH"> F  </i>
    <i type="logical" name="LMETAGGA"> F  </i>
   </separator>
   <separator name="electronic convergence" >
    <i type="int" name="NELM">    60</i>
    <i type="int" name="NELMDL">     0</i>
    <i type="int" name="NELMIN">     2</i>
    <i name="ENINI">    101.95600000</i>
    <separator name="electronic convergence detail" >
     <i type="logical" name="LDIAG"> T  </i>
     <i type="logical" name="LSUBROT"> F  </i>
     <i name="WEIMIN">      0.00100000</i>
     <i name="EBREAK">      0.00000006</i>
     <i name="DEPER">      0.30000000</i>
     <i type="int" name="NRMM">     4</i>
     <i name="TIME">      0.40000000</i>
    </separator>
   </separator>
   <separator name="electronic mixer" >
    <i name="AMIX">      0.40000000</i>
    <i name="BMIX">      1.00000000</i>
    <i name="AMIN">      0.10000000</i>
    <i name="AMIX_MAG">      1.60000000</i>
    <i name="BMIX_MAG">      1.00000000</i>
    <separator name="electronic mixer details" >
     <i type="int" name="IMIX">     4</i>
     <i type="logical" name="MIXFIRST"> F  </i>
     <i type="int" name="MAXMIX">   -45</i>
     <i name="WC">    100.00000000</i>
     <i type="int" name="INIMIX">     1</i>
     <i type="int" name="MIXPRE">     1</i>
     <i type="int" name="MREMOVE">     5</i>
    </separator>
   </separator>
   <separator name="electronic dipolcorrection" >
    <i type="logical" name="LDIPOL"> F  </i>
    <i type="logical" name="LMONO"> F  </i>
    <i type="int" name="IDIPOL">     0</i>
    <i name="EPSILON">      1.00000000</i>
    <v name="DIPOL">   -100.00000000   -100.00000000   -100.00000000</v>
    <i name="EFIELD">      0.00000000</i>
   </separator>
  </separator>
  <separator name="grids" >
   <i type="int" name="NGX">    10</i>
   <i type="int" name="NGY">    10</i>
   <i type="int" name="NGZ">    10</i>
   <i type="int" name="NGXF">    20</i>
   <i type="int" name="NGYF">    20</i>
   <i type="int" name="NGZF">    20</i>
   <i type="logical" name="ADDGRID"> F  </i>
  </separator>
  <separator name="ionic" >
   <i type="int" name="NSW">    50</i>
   <i type="int" name="IBRION">     2</i>
   <i type="int" name="MDALGO">     0</i>
   <i type="int" name="ISIF">     3</i>
   <i name="PSTRESS">      0.00000000</i>
   <i name="EDIFFG">      0.00001000</i>
   <i type="int" name="NFREE">     1</i>
   <i name="POTIM">      0.50000000</i>
   <i name="SMASS">     -3.00000000</i>
   <i name="SCALEE">      1.00000000</i>
  </separator>
  <separator name="ionic md" >
   <i name="TEBEG">      0.00010000</i>
   <i name="TEEND">      0.00010000</i>
   <i type="int" name="NBLOCK">     1</i>
   <i type="int" name="KBLOCK">    50</i>
   <i type="int" name="NPACO">   256</i>
   <i name="APACO">     16.00000000</i>
  </separator>
  <separator name="symmetry" >
   <i type="int" name="ISYM">     2</i>
   <i name="SYMPREC">      0.00001000</i>
  </separator>
  <separator name="dos" >
   <i type="int" name="LORBIT">     0</i>
   <v name="RWIGS">     -1.00000000</v>
   <i type="int" name="NEDOS">   301</i>
   <i name="EMIN">     10.00000000</i>
   <i name="EMAX">    -10.00000000</i>
   <i name="EFERMI">      0.00000000</i>
  </separator>
  <separator name="writing" >
   <i type="int" name="NWRITE">     2</i>
   <i type="logical" name="LWAVE"> F  </i>
   <i type="logical" name="LDOWNSAMPLE"> F  </i>
   <i type="logical" name="LCHARG"> T  </i>
   <i type="logical" name="LPARD"> F  </i>
   <i type="logical" name="LVTOT"> F  </i>
   <i type="logical" name="LVHAR"> F  </i>
   <i type="logical" name="LELF"> F  </i>
   <i type="logical" name="LOPTICS"> F  </i>
   <v name="STM">      0.00000000      0.00000000      0.00000000      0.00000000      0.00000000      0.00000000      0.00000000</v>
  </separator>
  <separator name="performance" >
   <i type="int" name="NPAR">     1</i>
   <i type="int" name="NSIM">     4</i>
   <i type="int" name="NBLK">    -1</i>
   <i type="logical" name="LPLANE"> T  </i>
   <i type="logical" name="LSCALAPACK"> T  </i>
   <i type="logical" name="LSCAAWARE"> F  </i>
   <i type="logical" name="LSCALU"> F  </i>
   <i type="logical" name="LASYNC"> F  </i>
   <i type="logical" name="LORBITALREAL"> F  </i>
  </separator>
  <separator name="miscellaneous" >
   <i type="int" name="IDIOT">     3</i>
   <i type="int" name="ISPECIAL">     0</i>
   <i type="logical" name="LMUSIC"> F  </i>
   <v name="POMASS">     22.99000000</v>
   <v name="DARWINR">      0.00000000</v>
   <v name="DARWINV">      1.00000000</v>
   <i type="logical" name="LCORR"> T  </i>
  </separator>
  <i type="logical" name="GGA_COMPAT"> T  </i>
  <i type="logical" name="LBERRY"> F  </i>
  <i type="int" name="ICORELEVEL">     0</i>
  <i type="logical" name="LDAU"> F  </i>
  <i type="int" name="I_CONSTRAINED_M">     0</i>
  <separator name="electronic exchange-correlation" >
   <i type="string" name="GGA">--</i>
   <i type="int" name="VOSKOWN">     0</i>
   <i type="logical" name="LHFCALC"> F  </i>
   <i type="string" name="PRECFOCK"></i>
   <i type="logical" name="LSYMGRAD"> F  </i>
   <i type="logical" name="LHFONE"> F  </i>
   <i type="logical" name="LRHFCALC"> F  </i>
   <i type="logical" name="LTHOMAS"> F  </i>
   <i type="logical" name="LMODELHF"> F  </i>
   <i name="ENCUT4O">     -1.00000000</i>
   <i type="int" name="EXXOEP">     0</i>
   <i type="int" name="FOURORBIT">     0</i>
   <i name="AEXX">      0.00000000</i>
   <i name="HFALPHA">      0.00000000</i>
   <i name="MCALPHA">      0.00000000</i>
   <i name="ALDAX">      1.00000000</i>
   <i name="AGGAX">      1.00000000</i>
   <i name="ALDAC">      1.00000000</i>
   <i name="AGGAC">      1.00000000</i>
   <i type="int" name="NKREDX">     1</i>
   <i type="int" name="NKREDY">     1</i>
   <i type="int" name="NKREDZ">     1</i>
   <i type="logical" name="SHIFTRED"> F  </i>
   <i type="logical" name="ODDONLY"> F  </i>
   <i type="logical" name="EVENONLY"> F  </i>
   <i type="int" name="LMAXFOCK">     0</i>
   <i type="int" name="NMAXFOCKAE">     0</i>
   <i type="logical" name="LFOCKAEDFT"> F  </i>
   <i name="HFSCREEN">      0.00000000</i>
   <i name="HFSCREENC">      0.00000000</i>
   <i type="int" name="NBANDSGWLOW">     0</i>
  </separator>
  <separator name="vdW DFT" >
   <i type="logical" name="LUSE_VDW"> F  </i>
   <i name="Zab_VDW">     -0.84910000</i>
   <i name="PARAM1">      0.12340000</i>
   <i name="PARAM2">      1.00000000</i>
   <i name="PARAM3">      0.00000000</i>
  </separator>
  <separator name="model GW" >
   <i type="int" name="MODEL_GW">     0</i>
   <i name="MODEL_EPS0">     19.78177920</i>
   <i name="MODEL_ALPHA">      1.00000000</i>
  </separator>
  <separator name="linear response parameters" >
   <i type="logical" name="LEPSILON"> F  </i>
   <i type="logical" name="LRPA"> F  </i>
   <i type="logical" name="LNABLA"> F  </i>
   <i type="logical" name="LVEL"> F  </i>
   <i type="int" name="KINTER">     0</i>
   <i name="CSHIFT">      0.10000000</i>
   <i name="OMEGAMAX">     -1.00000000</i>
   <i name="DEG_THRESHOLD">      0.00200000</i>
   <i name="RTIME">     -0.10000000</i>
   <i name="WPLASMAI">      0.00000000</i>
   <v name="DFIELD">      0.00000000      0.00000000      0.00000000</v>
   <v name="WPLASMA">      0.00000000      0.00000000      0.00000000      0.00000000      0.00000000      0.00000000      0.00000000      0.00000000      0.00000000</v>
  </separator>
  <separator name="orbital magnetization" >
   <i type="logical" name="NUCIND"> F  </i>
   <v name="MAGPOS">      0.00000000      0.00000000      0.00000000</v>
   <i type="logical" name="LNICSALL"> T  </i>
   <i type="logical" name="ORBITALMAG"> F  </i>
   <i type="logical" name="LMAGBLOCH"> F  </i>
   <i type="logical" name="LCHIMAG"> F  </i>
   <i type="logical" name="LGAUGE"> T  </i>
   <i type="int" name="MAGATOM">     0</i>
   <v name="MAGDIPOL">      0.00000000      0.00000000      0.00000000</v>
   <v name="AVECCONST">      0.00000000      0.00000000      0.00000000</v>
  </separator>
  <separator name="response functions" >
   <i type="logical" name="LADDER"> F  </i>
   <i type="logical" name="LRPAFORCE"> F  </i>
   <i type="logical" name="LFXC"> F  </i>
   <i type="logical" name="LHARTREE"> T  </i>
   <i type="int" name="IBSE">     0</i>
   <v type="int" name="KPOINT">    -1     0     0     0</v>
   <i type="logical" name="LTCTE"> F  </i>
   <i type="logical" name="LTETE"> F  </i>
   <i type="logical" name="LTRIPLET"> F  </i>
   <i type="logical" name="LFXCEPS"> F  </i>
   <i type="logical" name="LFXHEG"> F  </i>
   <i type="int" name="NATURALO">     2</i>
   <i type="logical" name="L2ORDER"> F  </i>
   <i type="logical" name="LMP2LT"> F  </i>
   <i type="logical" name="LUSEW"> F  </i>
   <i name="ENCUTGW">     -2.00000000</i>
   <i name="ENCUTGWSOFT">     -2.00000000</i>
   <i name="ENCUTLF">     -1.00000000</i>
   <i type="int" name="LMAXMP2">    -1</i>
   <i name="SCISSOR">      0.00000000</i>
   <i type="int" name="NOMEGA">     0</i>
   <i type="int" name="NOMEGAR">     0</i>
   <i type="int" name="NBANDSGW">    -1</i>
   <i type="int" name="NBANDSO">    -1</i>
   <i type="int" name="NBANDSV">    -1</i>
   <i type="int" name="NELM">     1</i>
   <i type="int" name="NELMHF">     1</i>
   <i type="int" name="DIM">     3</i>
   <i type="int" name="ANTIRES">     0</i>
   <i name="OMEGAMAX">    -30.00000000</i>
   <i name="OMEGAMIN">    -30.00000000</i>
   <i name="OMEGATL">   -200.00000000</i>
   <i type="int" name="OMEGAGRID">   140</i>
   <i name="CSHIFT">     -0.10000000</i>
   <i type="logical" name="SELFENERGY"> F  </i>
   <i type="logical" name="LSPECTRAL"> F  </i>
   <i type="logical" name="LSPECTRALGW"> F  </i>
   <i type="logical" name="LSINGLES"> F  </i>
   <i type="logical" name="LFERMIGW"> F  </i>
   <i type="logical" name="ODDONLYGW"> F  </i>
   <i type="logical" name="EVENONLYGW"> F  </i>
   <i type="int" name="NKREDLFX">     1</i>
   <i type="int" name="NKREDLFY">     1</i>
   <i type="int" name="NKREDLFZ">     1</i>
   <i type="int" name="MAXMEM">  2800</i>
   <i type="int" name="TELESCOPE">     0</i>
   <i type="int" name="TAUPAR">     1</i>
   <i type="int" name="OMEGAPAR">    -1</i>
   <i name="LAMBDA">      1.00000000</i>
  </separator>
  <separator name="External order field" >
   <i name="OFIELD_KAPPA">      0.00000000</i>
   <v name="OFIELD_K">      0.00000000      0.00000000      0.00000000</v>
   <i name="OFIELD_Q6_NEAR">      0.00000000</i>
   <i name="OFIELD_Q6_FAR">      0.00000000</i>
   <i name="OFIELD_A">      0.00000000</i>
  </separator>
 </parameters>
 <atominfo>
  <atoms>       1 </atoms>
  <types>       1 </types>
  <array name="atoms" >
   <dimension dim="1">ion</dimension>
   <field type="string">element</field>
   <field type="int">atomtype</field>
   <set>
    <rc><c>Na</c><c>   1</c></rc>
   </set>
  </array>
  <array name="atomtypes" >
   <dimension dim="1">type</dimension>
   <field type="int">atomspertype</field>
   <field type="string">element</field>
   <field>mass</field>
   <field>valence</field>
   <field type="string">pseudopotential</field>
   <set>
    <rc><c>   1</c><c>Na</c><c>     22.99000000</c><c>      1.00000000</c><c>  PAW Na                                </c></rc>
   </set>
  </array>
 </atominfo>
 <structure name="initialpos" >
  <crystal>
   <varray name="basis" >
    <v>      -2.02000000       2.02000000       2.02000000 </v>
    <v>       2.02000000      -2.02000000       2.02000000 </v>
    <v>       2.02000000       2.02000000      -2.02000000 </v>
   </varray>
   <i name="volume">     32.96963200 </i>
   <varray name="rec_basis" >
    <v>       0.00000000       0.24752475       0.24752475 </v>
    <v>       0.24752475       0.00000000       0.24752475 </v>
    <v>       0.24752475       0.24752475       0.00000000 </v>
   </varray>
  </crystal>
  <varray name="positions" >
   <v>       0.00000000       0.00000000       0.00000000 </v>
  </varray>
 </structure>
 <calculation>
  <scstep>
   <time name="dav">    0.10    0.28</time>
   <time name="total">    0.11    0.39</time>
   <energy>
    <i name="alphaZ">     -0.62140126 </i>
    <i name="ewald">     -6.48566672 </i>
    <i name="hartreedc">     -0.00388453 </i>
    <i name="XCdc">    -35.74129089 </i>
    <i name="pawpsdc">     36.61933760 </i>
    <i name="pawaedc">      0.11055659 </i>
    <i name="eentropy">     -0.00114474 </i>
    <i name="bandstr">     -0.43703596 </i>
    <i name="atom">      5.18795064 </i>
    <i name="e_fr_energy">     -1.37257929 </i>
    <i name="e_wo_entrp">     -1.37143455 </i>
    <i name="e_0_energy">     -1.37219771 </i>
   </energy>
  </scstep>
  <scstep>
   <time name="dav">    0.10    0.25</time>
   <time name="total">    0.11    0.25</time>
   <energy>
    <i name="e_fr_energy">     -1.44805597 </i>
    <i name="e_wo_entrp">     -1.44753784 </i>
    <i name="e_0_energy">     -1.44788326 </i>
   </energy>
  </scstep>
  <scstep>
   <time name="dav">    0.10    0.19</time>
   <time name="total">    0.10    0.20</time>
   <energy>
    <i name="e_fr_energy">     -1.44824326 </i>
    <i name="e_wo_entrp">     -1.44771534 </i>
    <i name="e_0_energy">     -1.44806729 </i>
   </energy>
  </scstep>
  <scstep>
   <time name="dav">    0.10    0.20</time>
   <time name="total">    0.11    0.22</time>
   <energy>
    <i name="e_fr_energy">     -1.44824365 </i>
    <i name="e_wo_entrp">     -1.44771569 </i>
    <i name="e_0_energy">     -1.44806766 </i>
   </energy>
  </scstep>
  <scstep>
   <time name="dav">    0.09    0.18</time>
   <time name="total">    0.10    0.21</time>
   <energy>
    <i name="e_fr_energy">     -1.44824365 </i>
    <i name="e_wo_entrp">     -1.44771569 </i>
    <i name="e_0_energy">     -1.44806766 </i>
   </energy>
  </scstep>
  <scstep>
   <time name="dav">    0.09    0.18</time>
   <time name="total">    0.10    0.21</time>
   <energy>
    <i name="e_fr_energy">     -1.44737692 </i>
    <i name="e_wo_entrp">     -1.44684897 </i>
    <i name="e_0_energy">     -1.44720094 </i>
   </energy>
  </scstep>
  <scstep>
   <time name="dav">    0.09    0.16</time>
   <time name="total">    0.10    0.20</time>
   <energy>
    <i name="e_fr_energy">     -1.44684803 </i>
    <i name="e_wo_entrp">     -1.44632012 </i>
    <i name="e_0_energy">     -1.44667206 </i>
   </energy>
  </scstep>
  <scstep>
   <time name="dav">    0.08    0.15</time>
   <time name="total">    0.10    0.19</time>
   <energy>
    <i name="e_fr_energy">     -1.44683370 </i>
    <i name="e_wo_entrp">     -1.44630578 </i>
    <i name="e_0_energy">     -1.44665773 </i>
   </energy>
  </scstep>
  <scstep>
   <time name="dav">    0.10    0.18</time>
   <time name="total">    0.11    0.22</time>
   <energy>
    <i name="alphaZ">     -0.62140126 </i>
    <i name="ewald">     -6.48566672 </i>
    <i name="hartreedc">     -0.01637974 </i>
    <i name="XCdc">    -35.69140918 </i>
    <i name="pawpsdc">     36.65684112 </i>
    <i name="pawaedc">      0.06790454 </i>
    <i name="eentropy">     -0.00052793 </i>
    <i name="bandstr">     -0.54414499 </i>
    <i name="atom">      5.18795064 </i>
    <i name="e_fr_energy">     -1.44683354 </i>
    <i name="e_wo_entrp">     -1.44630560 </i>
    <i name="e_0_energy">     -1.44665756 </i>
   </energy>
  </scstep>
  <structure>
   <crystal>
    <varray name="basis" >
     <v>      -2.02000000       2.02000000       2.02000000 </v>
     <v>       2.02000000      -2.02000000       2.02000000 </v>
     <v>       2.02000000       2.02000000      -2.02000000 </v>
    </varray>
    <i name="volume">     32.96963200 </i>
    <varray name="rec_basis" >
     <v>       0.00000000       0.24752475       0.24752475 </v>
     <v>       0.24752475       0.00000000       0.24752475 </v>
     <v>       0.24752475       0.24752475       0.00000000 </v>
    </varray>
   </crystal>
   <varray name="positions" >
    <v>       0.00000000       0.00000000       0.00000000 </v>
   </varray>
  </structure>
  <varray name="forces" >
   <v>       0.00000000       0.00000000      -0.00000000 </v>
  </varray>
  <varray name="stress" >
   <v>       0.38397364       0.00000000      -0.00000000 </v>
   <v>       0.00000000       0.38397364       0.00000000 </v>
   <v>       0.00000000       0.00000000       0.38397364 </v>
  </varray>
  <energy>
   <i name="e_fr_energy">     -1.44683354 </i>
   <i name="e_wo_entrp">     -1.44665756 </i>
   <i name="e_0_energy">     -0.00052793 </i>
  </energy>
  <time name="totalsc">    1.05    2.38</time>
 </calculation>
 <calculation>
  <scstep>
   <time name="dav">    0.09    0.16</time>
   <time name="total">    0.10    0.20</time>
   <energy>
    <i name="alphaZ">     -0.62069120 </i>
    <i name="ewald">     -6.48319542 </i>
    <i name="hartreedc">     -0.01637280 </i>
    <i name="XCdc">    -35.69154520 </i>
    <i name="pawpsdc">     36.65714769 </i>
    <i name="pawaedc">      0.06755852 </i>
    <i name="eentropy">     -0.00052827 </i>
    <i name="bandstr">     -0.54716514 </i>
    <i name="atom">      5.18795064 </i>
    <i name="e_fr_energy">     -1.44684118 </i>
    <i name="e_wo_entrp">     -1.44631291 </i>
    <i name="e_0_energy">     -1.44666509 </i>
   </energy>
  </scstep>
  <scstep>
   <time name="dav">    0.05    0.12</time>
   <time name="total">    0.06    0.16</time>
   <energy>
    <i name="alphaZ">     -0.62069120 </i>
    <i name="ewald">     -6.48319542 </i>
    <i name="hartreedc">     -0.01636228 </i>
    <i name="XCdc">    -35.69157391 </i>
    <i name="pawpsdc">     36.65705333 </i>
    <i name="pawaedc">      0.06766123 </i>
    <i name="eentropy">     -0.00052827 </i>
    <i name="bandstr">     -0.54715529 </i>
    <i name="atom">      5.18795064 </i>
    <i name="e_fr_energy">     -1.44684118 </i>
    <i name="e_wo_entrp">     -1.44631292 </i>
    <i name="e_0_energy">     -1.44666509 </i>
   </energy>
  </scstep>
  <structure>
   <crystal>
    <varray name="basis" >
     <v>      -2.02076999       2.02076999       2.02076999 </v>
     <v>       2.02076999      -2.02076999       2.02076999 </v>
     <v>       2.02076999       2.02076999      -2.02076999 </v>
    </varray>
    <i name="volume">     33.00734899 </i>
    <varray name="rec_basis" >
     <v>       0.00000000       0.24743044       0.24743044 </v>
     <v>       0.24743044       0.00000000       0.24743044 </v>
     <v>       0.24743044       0.24743044       0.00000000 </v>
    </varray>
   </crystal>
   <varray name="positions" >
    <v>       0.00000000      -0.00000000       0.00000000 </v>
   </varray>
  </structure>
  <varray name="forces" >
   <v>      -0.00000000       0.00000000      -0.00000000 </v>
  </varray>
  <varray name="stress" >
   <v>       0.27252466       0.00000000       0.00000000 </v>
   <v>      -0.00000000       0.27252466       0.00000000 </v>
   <v>       0.00000000      -0.00000000       0.27252466 </v>
  </varray>
  <energy>
   <i name="e_fr_energy">     -1.44684118 </i>
   <i name="e_wo_entrp">     -1.44666509 </i>
   <i name="e_0_energy">     -0.00052827 </i>
  </energy>
  <time name="totalsc">    0.26    0.65</time>
 </calculation>
 <calculation>
  <scstep>
   <time name="dav">    0.08    0.23</time>
   <time name="total">    0.10    0.29</time>
   <energy>
    <i name="alphaZ">     -0.61895260 </i>
    <i name="ewald">     -6.47713649 </i>
    <i name="hartreedc">     -0.01632420 </i>
    <i name="XCdc">    -35.69196845 </i>
    <i name="pawpsdc">     36.65688925 </i>
    <i name="pawaedc">      0.06783995 </i>
    <i name="eentropy">     -0.00052908 </i>
    <i name="bandstr">     -0.55461800 </i>
    <i name="atom">      5.18795064 </i>
    <i name="e_fr_energy">     -1.44684898 </i>
    <i name="e_wo_entrp">     -1.44631990 </i>
    <i name="e_0_energy">     -1.44667262 </i>
   </energy>
  </scstep>
  <scstep>
   <time name="dav">    0.07    0.17</time>
   <time name="total">    0.07    0.20</time>
   <energy>
    <i name="alphaZ">     -0.61895260 </i>
    <i name="ewald">     -6.47713649 </i>
    <i name="hartreedc">     -0.01629737 </i>
    <i name="XCdc">    -35.69204177 </i>
    <i name="pawpsdc">     36.65666988 </i>
    <i name="pawaedc">      0.06807895 </i>
    <i name="eentropy">     -0.00052908 </i>
    <i name="bandstr">     -0.55459114 </i>
    <i name="atom">      5.18795064 </i>
    <i name="e_fr_energy">     -1.44684899 </i>
    <i name="e_wo_entrp">     -1.44631991 </i>
    <i name="e_0_energy">     -1.44667263 </i>
   </energy>
  </scstep>
  <structure>
   <crystal>
    <varray name="basis" >
     <v>      -2.02266029       2.02266029       2.02266029 </v>
     <v>       2.02266029      -2.02266029       2.02266029 </v>
     <v>       2.02266029       2.02266029      -2.02266029 </v>
    </varray>
    <i name="volume">     33.10006432 </i>
    <varray name="rec_basis" >
     <v>       0.00000000       0.24719920       0.24719920 </v>
     <v>       0.24719920       0.00000000       0.24719920 </v>
     <v>       0.24719920       0.24719920       0.00000000 </v>
    </varray>
   </crystal>
   <varray name="positions" >
    <v>       0.00000000      -0.00000000       0.00000000 </v>
   </varray>
  </structure>
  <varray name="forces" >
   <v>      -0.00000000       0.00000000      -0.00000000 </v>
  </varray>
  <varray name="stress" >
   <v>       0.00367178      -0.00000000       0.00000000 </v>
   <v>      -0.00000000       0.00367178      -0.00000000 </v>
   <v>       0.00000000      -0.00000000       0.00367178 </v>
  </varray>
  <energy>
   <i name="e_fr_energy">     -1.44684899 </i>
   <i name="e_wo_entrp">     -1.44667263 </i>
   <i name="e_0_energy">     -0.00052908 </i>
  </energy>
  <time name="totalsc">    0.26    0.77</time>
  <eigenvalues>
   <array>
    <dimension dim="1">band</dimension>
    <dimension dim="2">kpoint</dimension>
    <dimension dim="3">spin</dimension>
    <field>eigene</field>
    <field>occ</field>
    <set>
     <set comment="spin 1">
      <set comment="kpoint 1">
       <r>   -2.6350    1.0000 </r>
       <r>   12.4796    0.0000 </r>
       <r>   12.4796    0.0000 </r>
       <r>   12.6596    0.0000 </r>
      </set>
      <set comment="kpoint 2">
       <r>   -2.4927    1.0000 </r>
       <r>   11.1666    0.0000 </r>
       <r>   11.8159    0.0000 </r>
       <r>   12.1406    0.0000 </r>
      </set>
      <set comment="kpoint 3">
       <r>   -2.2553    1.0000 </r>
       <r>    9.8122    0.0000 </r>
       <r>   11.1922    0.0000 </r>
       <r>   11.6590    0.0000 </r>
      </set>
      <set comment="kpoint 4">
       <r>   -1.9240    1.0000 </r>
       <r>    8.4968    0.0000 </r>
       <r>   10.6425    0.0000 </r>
       <r>   11.2334    0.0000 </r>
      </set>
      <set comment="kpoint 5">
       <r>   -1.5019    1.0000 </r>
       <r>    7.2373    0.0000 </r>
       <r>   10.1713    0.0000 </r>
       <r>   10.8666    0.0000 </r>
      </set>
      <set comment="kpoint 6">
       <r>   -0.9901    1.0000 </r>
       <r>    6.0417   -0.0000 </r>
       <r>    9.7831    0.0000 </r>
       <r>   10.5694    0.0000 </r>
      </set>
      <set comment="kpoint 7">
       <r>   -0.3949    1.0000 </r>
       <r>    4.9117   -0.0000 </r>
       <r>    9.4792    0.0000 </r>
       <r>   10.3310    0.0000 </r>
      </set>
      <set comment="kpoint 8">
       <r>    0.2842    1.0003 </r>
       <r>    3.8525   -0.0000 </r>
       <r>    9.2608    0.0000 </r>
       <r>   10.1604    0.0000 </r>
      </set>
      <set comment="kpoint 9">
       <r>    1.0337   -0.0233 </r>
       <r>    2.8718   -0.0000 </r>
       <r>    9.1284    0.0000 </r>
       <r>   10.0587    0.0000 </r>
      </set>
      <set comment="kpoint 10">
       <r>    1.6679   -0.0000 </r>
       <r>    2.1628   -0.0000 </r>
       <r>    9.0854    0.0000 </r>
       <r>   10.0283    0.0000 </r>
      </set>
      <set comment="kpoint 11">
       <r>   -2.6825    1.0000 </r>
       <r>   12.9227    0.0000 </r>
       <r>   12.9227    0.0000 </r>
       <r>   13.3181    0.0000 </r>
      </set>
      <set comment="kpoint 12">
       <r>   -2.3026    1.0000 </r>
       <r>   10.3606    0.0000 </r>
       <r>   10.7233    0.0000 </r>
       <r>   11.5924    0.0000 </r>
      </set>
      <set comment="kpoint 13">
       <r>   -2.0180    1.0000 </r>
       <r>    9.1562    0.0000 </r>
       <r>   10.0453    0.0000 </r>
       <r>   11.1198    0.0000 </r>
      </set>
      <set comment="kpoint 14">
       <r>   -1.6414    1.0000 </r>
       <r>    7.8991    0.0000 </r>
       <r>    9.5312    0.0000 </r>
       <r>   10.7031    0.0000 </r>
      </set>
      <set comment="kpoint 15">
       <r>   -1.1758    1.0000 </r>
       <r>    6.6854    0.0000 </r>
       <r>    9.1065    0.0000 </r>
       <r>   10.3482    0.0000 </r>
      </set>
      <set comment="kpoint 16">
       <r>   -0.6228    1.0000 </r>
       <r>    5.5310   -0.0000 </r>
       <r>    8.7678    0.0000 </r>
       <r>   10.0581    0.0000 </r>
      </set>
      <set comment="kpoint 17">
       <r>    0.0141    1.0000 </r>
       <r>    4.4418   -0.0000 </r>
       <r>    8.5116    0.0000 </r>
       <r>    9.8366    0.0000 </r>
      </set>
      <set comment="kpoint 18">
       <r>    0.7293    0.8904 </r>
       <r>    3.4240   -0.0000 </r>
       <r>    8.3418    0.0000 </r>
       <r>    9.6901    0.0000 </r>
      </set>
      <set comment="kpoint 19">
       <r>    1.4910   -0.0000 </r>
       <r>    2.5078   -0.0000 </r>
       <r>    8.2554    0.0000 </r>
       <r>    9.6137    0.0000 </r>
      </set>
      <set comment="kpoint 20">
       <r>   -2.5875    1.0000 </r>
       <r>   11.8495    0.0000 </r>
       <r>   12.3047    0.0000 </r>
       <r>   13.0094    0.0000 </r>
      </set>
      <set comment="kpoint 21">
       <r>   -1.6887    1.0000 </r>
       <r>    8.3943    0.0000 </r>
       <r>    9.0112    0.0000 </r>
       <r>   10.6570    0.0000 </r>
      </set>
      <set comment="kpoint 22">
       <r>   -1.2691    1.0000 </r>
       <r>    7.3307    0.0000 </r>
       <r>    8.3886    0.0000 </r>
       <r>   10.2525    0.0000 </r>
      </set>
      <set comment="kpoint 23">
       <r>   -0.7616    1.0000 </r>
       <r>    6.1952   -0.0000 </r>
       <r>    7.9717    0.0000 </r>
       <r>    9.9119    0.0000 </r>
      </set>
      <set comment="kpoint 24">
       <r>   -0.1663    1.0000 </r>
       <r>    5.0960   -0.0000 </r>
       <r>    7.6638    0.0000 </r>
       <r>    9.6452    0.0000 </r>
      </set>
      <set comment="kpoint 25">
       <r>    0.5077    1.0209 </r>
       <r>    4.0509   -0.0000 </r>
       <r>    7.4451    0.0000 </r>
       <r>    9.4497    0.0000 </r>
      </set>
      <set comment="kpoint 26">
       <r>    1.2519   -0.0062 </r>
       <r>    3.0832   -0.0000 </r>
       <r>    7.3145    0.0000 </r>
       <r>    9.3326    0.0000 </r>
      </set>
      <set comment="kpoint 27">
       <r>    1.8729   -0.0000 </r>
       <r>    2.3879   -0.0000 </r>
       <r>    7.2721    0.0000 </r>
       <r>    9.2935    0.0000 </r>
      </set>
      <set comment="kpoint 28">
       <r>   -2.3976    1.0000 </r>
       <r>   10.4898    0.0000 </r>
       <r>   11.6994    0.0000 </r>
       <r>   12.4730    0.0000 </r>
      </set>
      <set comment="kpoint 29">
       <r>   -2.4453    1.0000 </r>
       <r>   11.0599    0.0000 </r>
       <r>   11.3509    0.0000 </r>
       <r>   12.6822    0.0000 </r>
      </set>
      <set comment="kpoint 30">
       <r>   -0.8078    1.0000 </r>
       <r>    6.6668    0.0000 </r>
       <r>    7.4478    0.0000 </r>
       <r>    9.8661    0.0000 </r>
      </set>
      <set comment="kpoint 31">
       <r>   -0.2590    1.0000 </r>
       <r>    5.7408   -0.0000 </r>
       <r>    6.9016    0.0000 </r>
       <r>    9.5514    0.0000 </r>
      </set>
      <set comment="kpoint 32">
       <r>    0.3738    1.0025 </r>
       <r>    4.7260   -0.0000 </r>
       <r>    6.5853    0.0000 </r>
       <r>    9.3125    0.0000 </r>
      </set>
      <set comment="kpoint 33">
       <r>    1.0826   -0.0355 </r>
       <r>    3.7417   -0.0000 </r>
       <r>    6.3951    0.0000 </r>
       <r>    9.1518    0.0000 </r>
      </set>
      <set comment="kpoint 34">
       <r>    1.8326   -0.0000 </r>
       <r>    2.8506   -0.0000 </r>
       <r>    6.3021    0.0000 </r>
       <r>    9.0724    0.0000 </r>
      </set>
      <set comment="kpoint 35">
       <r>   -2.1130    1.0000 </r>
       <r>    9.1466    0.0000 </r>
       <r>   11.1485    0.0000 </r>
       <r>   11.9693    0.0000 </r>
      </set>
      <set comment="kpoint 36">
       <r>   -2.2078    1.0000 </r>
       <r>    9.8152    0.0000 </r>
       <r>   10.6825    0.0000 </r>
       <r>   12.1846    0.0000 </r>
      </set>
      <set comment="kpoint 37">
       <r>    0.3304    1.0010 </r>
       <r>    5.2036   -0.0000 </r>
       <r>    6.0476   -0.0000 </r>
       <r>    9.2682    0.0000 </r>
      </set>
      <set comment="kpoint 38">
       <r>    0.9968    0.0102 </r>
       <r>    4.4023   -0.0000 </r>
       <r>    5.6017   -0.0000 </r>
       <r>    9.0638    0.0000 </r>
      </set>
      <set comment="kpoint 39">
       <r>    1.7281   -0.0000 </r>
       <r>    3.5128   -0.0000 </r>
       <r>    5.4089   -0.0000 </r>
       <r>    8.9399    0.0000 </r>
      </set>
      <set comment="kpoint 40">
       <r>    2.3285   -0.0000 </r>
       <r>    2.8539   -0.0000 </r>
       <r>    5.3516   -0.0000 </r>
       <r>    8.8993    0.0000 </r>
      </set>
      <set comment="kpoint 41">
       <r>   -1.7360    1.0000 </r>
       <r>    7.8551    0.0000 </r>
       <r>   10.6601    0.0000 </r>
       <r>   11.5378    0.0000 </r>
      </set>
      <set comment="kpoint 42">
       <r>   -1.8771    1.0000 </r>
       <r>    8.5212    0.0000 </r>
       <r>   10.1515    0.0000 </r>
       <r>   11.7290    0.0000 </r>
      </set>
      <set comment="kpoint 43">
       <r>   -1.9241    1.0000 </r>
       <r>    9.0277    0.0000 </r>
       <r>    9.6294    0.0000 </r>
       <r>   11.7883    0.0000 </r>
      </set>
      <set comment="kpoint 44">
       <r>    1.6903   -0.0000 </r>
       <r>    3.9927   -0.0000 </r>
       <r>    4.8559   -0.0000 </r>
       <r>    8.8979    0.0000 </r>
      </set>
      <set comment="kpoint 45">
       <r>    2.4183   -0.0000 </r>
       <r>    3.3351   -0.0000 </r>
       <r>    4.5529   -0.0000 </r>
       <r>    8.8137    0.0000 </r>
      </set>
      <set comment="kpoint 46">
       <r>   -1.2697    1.0000 </r>
       <r>    6.6246    0.0000 </r>
       <r>   10.2449    0.0000 </r>
       <r>   11.1802    0.0000 </r>
      </set>
      <set comment="kpoint 47">
       <r>   -1.4558    1.0000 </r>
       <r>    7.2706    0.0000 </r>
       <r>    9.7024    0.0000 </r>
       <r>   11.3376    0.0000 </r>
      </set>
      <set comment="kpoint 48">
       <r>   -1.5491    1.0000 </r>
       <r>    7.9207    0.0000 </r>
       <r>    8.9825    0.0000 </r>
       <r>   11.3876    0.0000 </r>
      </set>
      <set comment="kpoint 49">
       <r>    3.0339   -0.0000 </r>
       <r>    3.0339   -0.0000 </r>
       <r>    4.1218   -0.0000 </r>
       <r>    8.7700    0.0000 </r>
      </set>
      <set comment="kpoint 50">
       <r>   -0.7165    1.0000 </r>
       <r>    5.4598   -0.0000 </r>
       <r>    9.9078    0.0000 </r>
       <r>   10.8980    0.0000 </r>
      </set>
      <set comment="kpoint 51">
       <r>   -0.9455    1.0000 </r>
       <r>    6.0789   -0.0000 </r>
       <r>    9.3347    0.0000 </r>
       <r>   11.0192    0.0000 </r>
      </set>
      <set comment="kpoint 52">
       <r>   -1.0832    1.0000 </r>
       <r>    6.7449    0.0000 </r>
       <r>    8.5355    0.0000 </r>
       <r>   11.0394    0.0000 </r>
      </set>
      <set comment="kpoint 53">
       <r>   -1.1301    1.0000 </r>
       <r>    7.2171    0.0000 </r>
       <r>    8.0066    0.0000 </r>
       <r>   11.0289    0.0000 </r>
      </set>
      <set comment="kpoint 54">
       <r>   -0.0756    1.0000 </r>
       <r>    4.3659   -0.0000 </r>
       <r>    9.6567    0.0000 </r>
       <r>   10.6914    0.0000 </r>
      </set>
      <set comment="kpoint 55">
       <r>   -0.3496    1.0000 </r>
       <r>    4.9512   -0.0000 </r>
       <r>    9.0455    0.0000 </r>
       <r>   10.7742    0.0000 </r>
      </set>
      <set comment="kpoint 56">
       <r>   -0.5326    1.0000 </r>
       <r>    5.6031   -0.0000 </r>
       <r>    8.1896    0.0000 </r>
       <r>   10.7519    0.0000 </r>
      </set>
      <set comment="kpoint 57">
       <r>   -0.6235    1.0000 </r>
       <r>    6.2494   -0.0000 </r>
       <r>    7.4248    0.0000 </r>
       <r>   10.7110    0.0000 </r>
      </set>
      <set comment="kpoint 58">
       <r>    0.6418    1.0224 </r>
       <r>    3.3396   -0.0000 </r>
       <r>    9.4817    0.0000 </r>
       <r>   10.5566    0.0000 </r>
      </set>
      <set comment="kpoint 59">
       <r>    0.3295    1.0010 </r>
       <r>    3.8954   -0.0000 </r>
       <r>    8.8383    0.0000 </r>
       <r>   10.5988    0.0000 </r>
      </set>
      <set comment="kpoint 60">
       <r>    0.1049    1.0000 </r>
       <r>    4.5228   -0.0000 </r>
       <r>    7.9352    0.0000 </r>
       <r>   10.5356    0.0000 </r>
      </set>
      <set comment="kpoint 61">
       <r>   -0.0309    1.0000 </r>
       <r>    5.1957   -0.0000 </r>
       <r>    7.0699    0.0000 </r>
       <r>   10.4560    0.0000 </r>
      </set>
      <set comment="kpoint 62">
       <r>   -0.0766    1.0000 </r>
       <r>    5.6648   -0.0000 </r>
       <r>    6.5350    0.0000 </r>
       <r>   10.4248    0.0000 </r>
      </set>
      <set comment="kpoint 63">
       <r>    1.4074   -0.0002 </r>
       <r>    2.4210   -0.0000 </r>
       <r>    9.3956    0.0000 </r>
       <r>   10.4799    0.0000 </r>
      </set>
      <set comment="kpoint 64">
       <r>    1.0787   -0.0354 </r>
       <r>    2.9163   -0.0000 </r>
       <r>    8.7134    0.0000 </r>
       <r>   10.4945    0.0000 </r>
      </set>
      <set comment="kpoint 65">
       <r>    0.8183    0.5786 </r>
       <r>    3.5085   -0.0000 </r>
       <r>    7.7641    0.0000 </r>
       <r>   10.3907    0.0000 </r>
      </set>
      <set comment="kpoint 66">
       <r>    0.6418    1.0225 </r>
       <r>    4.1684   -0.0000 </r>
       <r>    6.8360    0.0000 </r>
       <r>   10.2691    0.0000 </r>
      </set>
      <set comment="kpoint 67">
       <r>    0.5536    1.0311 </r>
       <r>    4.8229   -0.0000 </r>
       <r>    6.0432   -0.0000 </r>
       <r>   10.2026    0.0000 </r>
      </set>
      <set comment="kpoint 68">
       <r>    1.7095   -0.0000 </r>
       <r>    2.2090   -0.0000 </r>
       <r>    8.6707    0.0000 </r>
       <r>   10.4612    0.0000 </r>
      </set>
      <set comment="kpoint 69">
       <r>    1.5784   -0.0000 </r>
       <r>    2.5971   -0.0000 </r>
       <r>    7.6805    0.0000 </r>
       <r>   10.3163    0.0000 </r>
      </set>
      <set comment="kpoint 70">
       <r>    1.3838   -0.0004 </r>
       <r>    3.2087   -0.0000 </r>
       <r>    6.6996    0.0000 </r>
       <r>   10.1568    0.0000 </r>
      </set>
      <set comment="kpoint 71">
       <r>    1.2583   -0.0056 </r>
       <r>    3.8881   -0.0000 </r>
       <r>    5.8019   -0.0000 </r>
       <r>   10.0508    0.0000 </r>
      </set>
      <set comment="kpoint 72">
       <r>    1.2159   -0.0111 </r>
       <r>    4.3678   -0.0000 </r>
       <r>    5.2502   -0.0000 </r>
       <r>   10.0155    0.0000 </r>
      </set>
      <set comment="kpoint 73">
       <r>    1.9976   -0.0000 </r>
       <r>    2.5221   -0.0000 </r>
       <r>    6.6547    0.0000 </r>
       <r>   10.1200    0.0000 </r>
      </set>
      <set comment="kpoint 74">
       <r>    2.0023   -0.0000 </r>
       <r>    3.0143   -0.0000 </r>
       <r>    5.6945   -0.0000 </r>
       <r>    9.9747    0.0000 </r>
      </set>
      <set comment="kpoint 75">
       <r>    1.9416   -0.0000 </r>
       <r>    3.6554   -0.0000 </r>
       <r>    4.8855   -0.0000 </r>
       <r>    9.9005    0.0000 </r>
      </set>
      <set comment="kpoint 76">
       <r>    2.5359   -0.0000 </r>
       <r>    3.0316   -0.0000 </r>
       <r>    4.7957   -0.0000 </r>
       <r>    9.8620    0.0000 </r>
      </set>
      <set comment="kpoint 77">
       <r>    2.6517   -0.0000 </r>
       <r>    3.3270   -0.0000 </r>
       <r>    4.2703   -0.0000 </r>
       <r>    9.8231    0.0000 </r>
      </set>
      <set comment="kpoint 78">
       <r>   -2.0650    1.0000 </r>
       <r>    9.7343    0.0000 </r>
       <r>    9.7343    0.0000 </r>
       <r>   10.7899    0.0000 </r>
      </set>
      <set comment="kpoint 79">
       <r>   -1.7364    1.0000 </r>
       <r>    8.5410    0.0000 </r>
       <r>    9.1830    0.0000 </r>
       <r>   10.2471    0.0000 </r>
      </set>
      <set comment="kpoint 80">
       <r>   -1.3146    1.0000 </r>
       <r>    7.3372    0.0000 </r>
       <r>    8.7192    0.0000 </r>
       <r>    9.8199    0.0000 </r>
      </set>
      <set comment="kpoint 81">
       <r>   -0.8066    1.0000 </r>
       <r>    6.1704   -0.0000 </r>
       <r>    8.3359    0.0000 </r>
       <r>    9.4705    0.0000 </r>
      </set>
      <set comment="kpoint 82">
       <r>   -0.2117    1.0000 </r>
       <r>    5.0600   -0.0000 </r>
       <r>    8.0373    0.0000 </r>
       <r>    9.1967    0.0000 </r>
      </set>
      <set comment="kpoint 83">
       <r>    0.4626    1.0118 </r>
       <r>    4.0102   -0.0000 </r>
       <r>    7.8239    0.0000 </r>
       <r>    8.9966    0.0000 </r>
      </set>
      <set comment="kpoint 84">
       <r>    1.2081   -0.0124 </r>
       <r>    3.0408   -0.0000 </r>
       <r>    7.6964    0.0000 </r>
       <r>    8.8787    0.0000 </r>
      </set>
      <set comment="kpoint 85">
       <r>    1.8329   -0.0000 </r>
       <r>    2.3435   -0.0000 </r>
       <r>    7.6561    0.0000 </r>
       <r>    8.8394    0.0000 </r>
      </set>
      <set comment="kpoint 86">
       <r>   -2.4927    1.0000 </r>
       <r>   11.6249    0.0000 </r>
       <r>   11.6249    0.0000 </r>
       <r>   12.1998    0.0000 </r>
      </set>
      <set comment="kpoint 87">
       <r>   -1.3621    1.0000 </r>
       <r>    7.8434    0.0000 </r>
       <r>    8.2818    0.0000 </r>
       <r>    9.6541    0.0000 </r>
      </set>
      <set comment="kpoint 88">
       <r>   -0.8982    1.0000 </r>
       <r>    6.8164    0.0000 </r>
       <r>    7.7481    0.0000 </r>
       <r>    9.2131    0.0000 </r>
      </set>
      <set comment="kpoint 89">
       <r>   -0.3498    1.0000 </r>
       <r>    5.7207   -0.0000 </r>
       <r>    7.3859    0.0000 </r>
       <r>    8.8672    0.0000 </r>
      </set>
      <set comment="kpoint 90">
       <r>    0.2837    1.0003 </r>
       <r>    4.6629   -0.0000 </r>
       <r>    7.1228    0.0000 </r>
       <r>    8.6113    0.0000 </r>
      </set>
      <set comment="kpoint 91">
       <r>    0.9934    0.0147 </r>
       <r>    3.6643   -0.0000 </r>
       <r>    6.9499    0.0000 </r>
       <r>    8.4431    0.0000 </r>
      </set>
      <set comment="kpoint 92">
       <r>    1.7482   -0.0000 </r>
       <r>    2.7662   -0.0000 </r>
       <r>    6.8658    0.0000 </r>
       <r>    8.3593    0.0000 </r>
      </set>
      <set comment="kpoint 93">
       <r>   -2.3018    1.0000 </r>
       <r>   10.5060    0.0000 </r>
       <r>   11.0074    0.0000 </r>
       <r>   11.7992    0.0000 </r>
      </set>
      <set comment="kpoint 94">
       <r>   -0.3958    1.0000 </r>
       <r>    6.2062   -0.0000 </r>
       <r>    6.8836    0.0000 </r>
       <r>    8.7742    0.0000 </r>
      </set>
      <set comment="kpoint 95">
       <r>    0.1949    1.0000 </r>
       <r>    5.3175   -0.0000 </r>
       <r>    6.4060    0.0000 </r>
       <r>    8.4568    0.0000 </r>
      </set>
      <set comment="kpoint 96">
       <r>    0.8640    0.3867 </r>
       <r>    4.3416   -0.0000 </r>
       <r>    6.1465   -0.0000 </r>
       <r>    8.2328    0.0000 </r>
      </set>
      <set comment="kpoint 97">
       <r>    1.6002   -0.0000 </r>
       <r>    3.4067   -0.0000 </r>
       <r>    6.0031   -0.0000 </r>
       <r>    8.1017    0.0000 </r>
      </set>
      <set comment="kpoint 98">
       <r>    2.2038   -0.0000 </r>
       <r>    2.7350   -0.0000 </r>
       <r>    5.9562   -0.0000 </r>
       <r>    8.0576    0.0000 </r>
      </set>
      <set comment="kpoint 99">
       <r>   -2.0185    1.0000 </r>
       <r>    9.1968    0.0000 </r>
       <r>   10.4584    0.0000 </r>
       <r>   11.4447    0.0000 </r>
      </set>
      <set comment="kpoint 100">
       <r>   -2.0661    1.0000 </r>
       <r>    9.7369    0.0000 </r>
       <r>   10.1436    0.0000 </r>
       <r>   11.4752    0.0000 </r>
      </set>
      <set comment="kpoint 101">
       <r>    0.8212    0.5666 </r>
       <r>    4.8267   -0.0000 </r>
       <r>    5.6131   -0.0000 </r>
       <r>    8.1717    0.0000 </r>
      </set>
      <set comment="kpoint 102">
       <r>    1.5185   -0.0000 </r>
       <r>    4.0647   -0.0000 </r>
       <r>    5.2248   -0.0000 </r>
       <r>    7.9847    0.0000 </r>
      </set>
      <set comment="kpoint 103">
       <r>    2.2536   -0.0000 </r>
       <r>    3.2409   -0.0000 </r>
       <r>    5.0869   -0.0000 </r>
       <r>    7.8939    0.0000 </r>
      </set>
      <set comment="kpoint 104">
       <r>   -1.6435    1.0000 </r>
       <r>    7.9180    0.0000 </r>
       <r>    9.9836    0.0000 </r>
       <r>   11.0545    0.0000 </r>
      </set>
      <set comment="kpoint 105">
       <r>   -1.7371    1.0000 </r>
       <r>    8.5813    0.0000 </r>
       <r>    9.5287    0.0000 </r>
       <r>   11.2421    0.0000 </r>
      </set>
      <set comment="kpoint 106">
       <r>    2.2316   -0.0000 </r>
       <r>    3.6986   -0.0000 </r>
       <r>    4.5434   -0.0000 </r>
       <r>    7.8404    0.0000 </r>
      </set>
      <set comment="kpoint 107">
       <r>    2.8248   -0.0000 </r>
       <r>    3.2003   -0.0000 </r>
       <r>    4.3357   -0.0000 </r>
       <r>    7.7931    0.0000 </r>
      </set>
      <set comment="kpoint 108">
       <r>   -1.1770    1.0000 </r>
       <r>    6.6979    0.0000 </r>
       <r>    9.5855    0.0000 </r>
       <r>   10.6990    0.0000 </r>
      </set>
      <set comment="kpoint 109">
       <r>   -1.3163    1.0000 </r>
       <r>    7.3649    0.0000 </r>
       <r>    9.0735    0.0000 </r>
       <r>   10.9336    0.0000 </r>
      </set>
      <set comment="kpoint 110">
       <r>   -1.3634    1.0000 </r>
       <r>    7.8506    0.0000 </r>
       <r>    8.5642    0.0000 </r>
       <r>   11.2504    0.0000 </r>
      </set>
      <set comment="kpoint 111">
       <r>   -0.6246    1.0000 </r>
       <r>    5.5385   -0.0000 </r>
       <r>    9.2655    0.0000 </r>
       <r>   10.3962    0.0000 </r>
      </set>
      <set comment="kpoint 112">
       <r>   -0.8074    1.0000 </r>
       <r>    6.1895   -0.0000 </r>
       <r>    8.7050    0.0000 </r>
       <r>   10.6319    0.0000 </r>
      </set>
      <set comment="kpoint 113">
       <r>   -0.8996    1.0000 </r>
       <r>    6.8362    0.0000 </r>
       <r>    7.9751    0.0000 </r>
       <r>   11.1198    0.0000 </r>
      </set>
      <set comment="kpoint 114">
       <r>    0.0143    1.0000 </r>
       <r>    4.4468   -0.0000 </r>
       <r>    9.0296    0.0000 </r>
       <r>   10.1654    0.0000 </r>
      </set>
      <set comment="kpoint 115">
       <r>   -0.2122    1.0000 </r>
       <r>    5.0727   -0.0000 </r>
       <r>    8.4181    0.0000 </r>
       <r>   10.3783    0.0000 </r>
      </set>
      <set comment="kpoint 116">
       <r>   -0.3499    1.0000 </r>
       <r>    5.7416   -0.0000 </r>
       <r>    7.5951    0.0000 </r>
       <r>   10.9035    0.0000 </r>
      </set>
      <set comment="kpoint 117">
       <r>   -0.3955    1.0000 </r>
       <r>    6.2082   -0.0000 </r>
       <r>    7.0673    0.0000 </r>
       <r>   11.2944    0.0000 </r>
      </set>
      <set comment="kpoint 118">
       <r>    0.7313    0.8853 </r>
       <r>    3.4271   -0.0000 </r>
       <r>    8.8693    0.0000 </r>
       <r>   10.0080    0.0000 </r>
      </set>
      <set comment="kpoint 119">
       <r>    0.4638    1.0120 </r>
       <r>    4.0199   -0.0000 </r>
       <r>    8.2139    0.0000 </r>
       <r>   10.1933    0.0000 </r>
      </set>
      <set comment="kpoint 120">
       <r>    0.2846    1.0003 </r>
       <r>    4.6791   -0.0000 </r>
       <r>    7.3279    0.0000 </r>
       <r>   10.7092    0.0000 </r>
      </set>
      <set comment="kpoint 121">
       <r>    0.1949    1.0000 </r>
       <r>    5.3294   -0.0000 </r>
       <r>    6.5461    0.0000 </r>
       <r>   11.2044    0.0000 </r>
      </set>
      <set comment="kpoint 122">
       <r>    1.4937   -0.0000 </r>
       <r>    2.5104   -0.0000 </r>
       <r>    8.7852    0.0000 </r>
       <r>    9.9284    0.0000 </r>
      </set>
      <set comment="kpoint 123">
       <r>    1.2105   -0.0120 </r>
       <r>    3.0466   -0.0000 </r>
       <r>    8.0913    0.0000 </r>
       <r>   10.0802    0.0000 </r>
      </set>
      <set comment="kpoint 124">
       <r>    0.9953    0.0121 </r>
       <r>    3.6747   -0.0000 </r>
       <r>    7.1541    0.0000 </r>
       <r>   10.5743    0.0000 </r>
      </set>
      <set comment="kpoint 125">
       <r>    0.8648    0.3835 </r>
       <r>    4.3540   -0.0000 </r>
       <r>    6.2682   -0.0000 </r>
       <r>   11.0418    0.0000 </r>
      </set>
      <set comment="kpoint 126">
       <r>    0.8217    0.5643 </r>
       <r>    4.8300   -0.0000 </r>
       <r>    5.7244   -0.0000 </r>
       <r>   11.1363    0.0000 </r>
      </set>
      <set comment="kpoint 127">
       <r>    1.8345   -0.0000 </r>
       <r>    2.3473   -0.0000 </r>
       <r>    8.0517    0.0000 </r>
       <r>   10.0423    0.0000 </r>
      </set>
      <set comment="kpoint 128">
       <r>    1.7507   -0.0000 </r>
       <r>    2.7727   -0.0000 </r>
       <r>    7.0689    0.0000 </r>
       <r>   10.5066    0.0000 </r>
      </set>
      <set comment="kpoint 129">
       <r>    1.6014   -0.0000 </r>
       <r>    3.4151   -0.0000 </r>
       <r>    6.1164   -0.0000 </r>
       <r>   10.9406    0.0000 </r>
      </set>
      <set comment="kpoint 130">
       <r>    1.5203   -0.0000 </r>
       <r>    4.0724   -0.0000 </r>
       <r>    5.3076   -0.0000 </r>
       <r>   11.0019    0.0000 </r>
      </set>
      <set comment="kpoint 131">
       <r>    2.2053   -0.0000 </r>
       <r>    2.7411   -0.0000 </r>
       <r>    6.0661   -0.0000 </r>
       <r>   10.9050    0.0000 </r>
      </set>
      <set comment="kpoint 132">
       <r>    2.2554   -0.0000 </r>
       <r>    3.2485   -0.0000 </r>
       <r>    5.1590   -0.0000 </r>
       <r>   10.9320    0.0000 </r>
      </set>
      <set comment="kpoint 133">
       <r>    2.2340   -0.0000 </r>
       <r>    3.7008   -0.0000 </r>
       <r>    4.6114   -0.0000 </r>
       <r>   10.9096    0.0000 </r>
      </set>
      <set comment="kpoint 134">
       <r>    2.8250   -0.0000 </r>
       <r>    3.2051   -0.0000 </r>
       <r>    4.3940   -0.0000 </r>
       <r>   10.8762    0.0000 </r>
      </set>
      <set comment="kpoint 135">
       <r>   -0.9427    1.0000 </r>
       <r>    7.3824    0.0000 </r>
       <r>    7.3824    0.0000 </r>
       <r>    8.9151    0.0000 </r>
      </set>
      <set comment="kpoint 136">
       <r>   -0.4404    1.0000 </r>
       <r>    6.3618    0.0000 </r>
       <r>    7.0001    0.0000 </r>
       <r>    8.3962    0.0000 </r>
      </set>
      <set comment="kpoint 137">
       <r>    0.1504    1.0000 </r>
       <r>    5.3238   -0.0000 </r>
       <r>    6.7037    0.0000 </r>
       <r>    8.0417    0.0000 </r>
      </set>
      <set comment="kpoint 138">
       <r>    0.8194    0.5741 </r>
       <r>    4.3152   -0.0000 </r>
       <r>    6.4920    0.0000 </r>
       <r>    7.7986    0.0000 </r>
      </set>
      <set comment="kpoint 139">
       <r>    1.5576   -0.0000 </r>
       <r>    3.3708   -0.0000 </r>
       <r>    6.3673    0.0000 </r>
       <r>    7.6573    0.0000 </r>
      </set>
      <set comment="kpoint 140">
       <r>    2.1620   -0.0000 </r>
       <r>    2.6918   -0.0000 </r>
       <r>    6.3242    0.0000 </r>
       <r>    7.6098    0.0000 </r>
      </set>
      <set comment="kpoint 141">
       <r>   -2.1132    1.0000 </r>
       <r>   10.3828    0.0000 </r>
       <r>   10.3828    0.0000 </r>
       <r>   10.7446    0.0000 </r>
      </set>
      <set comment="kpoint 142">
       <r>    0.1041    1.0000 </r>
       <r>    5.8278   -0.0000 </r>
       <r>    6.2727   -0.0000 </r>
       <r>    7.8532    0.0000 </r>
      </set>
      <set comment="kpoint 143">
       <r>    0.7324    0.8825 </r>
       <r>    4.9702   -0.0000 </r>
       <r>    5.9050   -0.0000 </r>
       <r>    7.5040    0.0000 </r>
      </set>
      <set comment="kpoint 144">
       <r>    1.4330   -0.0001 </r>
       <r>    4.0393   -0.0000 </r>
       <r>    5.7125   -0.0000 </r>
       <r>    7.2877    0.0000 </r>
      </set>
      <set comment="kpoint 145">
       <r>    2.1704   -0.0000 </r>
       <r>    3.1769   -0.0000 </r>
       <r>    5.6210   -0.0000 </r>
       <r>    7.1846    0.0000 </r>
      </set>
      <set comment="kpoint 146">
       <r>   -1.8313    1.0000 </r>
       <r>    9.2784    0.0000 </r>
       <r>    9.8347    0.0000 </r>
       <r>   10.5088    0.0000 </r>
      </set>
      <set comment="kpoint 147">
       <r>    1.3908   -0.0003 </r>
       <r>    4.5320   -0.0000 </r>
       <r>    5.2060   -0.0000 </r>
       <r>    7.1836    0.0000 </r>
      </set>
      <set comment="kpoint 148">
       <r>    2.1101   -0.0000 </r>
       <r>    3.8114   -0.0000 </r>
       <r>    4.8987   -0.0000 </r>
       <r>    7.0092    0.0000 </r>
      </set>
      <set comment="kpoint 149">
       <r>    2.6994   -0.0000 </r>
       <r>    3.1905   -0.0000 </r>
       <r>    4.8249   -0.0000 </r>
       <r>    6.9537    0.0000 </r>
      </set>
      <set comment="kpoint 150">
       <r>   -1.4571    1.0000 </r>
       <r>    8.0406    0.0000 </r>
       <r>    9.3632    0.0000 </r>
       <r>   10.2891    0.0000 </r>
      </set>
      <set comment="kpoint 151">
       <r>   -1.5032    1.0000 </r>
       <r>    8.5702    0.0000 </r>
       <r>    9.0593    0.0000 </r>
       <r>   10.2751    0.0000 </r>
      </set>
      <set comment="kpoint 152">
       <r>    2.8147   -0.0000 </r>
       <r>    3.4889   -0.0000 </r>
       <r>    4.3189   -0.0000 </r>
       <r>    6.8834    0.0000 </r>
      </set>
      <set comment="kpoint 153">
       <r>   -0.9921    1.0000 </r>
       <r>    6.8410    0.0000 </r>
       <r>    8.9699    0.0000 </r>
       <r>   10.0081    0.0000 </r>
      </set>
      <set comment="kpoint 154">
       <r>   -1.0852    1.0000 </r>
       <r>    7.4981    0.0000 </r>
       <r>    8.5116    0.0000 </r>
       <r>   10.1501    0.0000 </r>
      </set>
      <set comment="kpoint 155">
       <r>   -0.4403    1.0000 </r>
       <r>    5.6940   -0.0000 </r>
       <r>    8.6612    0.0000 </r>
       <r>    9.7346    0.0000 </r>
      </set>
      <set comment="kpoint 156">
       <r>   -0.5792    1.0000 </r>
       <r>    6.3626    0.0000 </r>
       <r>    8.1270    0.0000 </r>
       <r>    9.9459    0.0000 </r>
      </set>
      <set comment="kpoint 157">
       <r>   -0.6254    1.0000 </r>
       <r>    6.8402    0.0000 </r>
       <r>    7.6196    0.0000 </r>
       <r>   10.2306    0.0000 </r>
      </set>
      <set comment="kpoint 158">
       <r>    0.1944    1.0000 </r>
       <r>    4.6101   -0.0000 </r>
       <r>    8.4242    0.0000 </r>
       <r>    9.5092    0.0000 </r>
      </set>
      <set comment="kpoint 159">
       <r>    0.0140    1.0000 </r>
       <r>    5.2672   -0.0000 </r>
       <r>    7.8362    0.0000 </r>
       <r>    9.7326    0.0000 </r>
      </set>
      <set comment="kpoint 160">
       <r>   -0.0773    1.0000 </r>
       <r>    5.9135   -0.0000 </r>
       <r>    7.0950    0.0000 </r>
       <r>   10.2055    0.0000 </r>
      </set>
      <set comment="kpoint 161">
       <r>    0.9075    0.2212 </r>
       <r>    3.5975   -0.0000 </r>
       <r>    8.2666    0.0000 </r>
       <r>    9.3581    0.0000 </r>
      </set>
      <set comment="kpoint 162">
       <r>    0.6874    0.9755 </r>
       <r>    4.2254   -0.0000 </r>
       <r>    7.6329    0.0000 </r>
       <r>    9.5611    0.0000 </r>
      </set>
      <set comment="kpoint 163">
       <r>    0.5538    1.0312 </r>
       <r>    4.9020   -0.0000 </r>
       <r>    6.7887    0.0000 </r>
       <r>   10.0934    0.0000 </r>
      </set>
      <set comment="kpoint 164">
       <r>    0.5096    1.0214 </r>
       <r>    5.3711   -0.0000 </r>
[...]
      </set>
      <set comment="kpoint 230">
       <r>    2.5558   -0.0000 </r>
       <r>    4.8252   -0.0000 </r>
       <r>    5.6883   -0.0000 </r>
       <r>    8.2132    0.0000 </r>
      </set>
      <set comment="kpoint 231">
       <r>    3.1612   -0.0000 </r>
       <r>    3.7354   -0.0000 </r>
       <r>    6.1624   -0.0000 </r>
       <r>    7.8727    0.0000 </r>
      </set>
      <set comment="kpoint 232">
       <r>    3.2650   -0.0000 </r>
       <r>    4.1812   -0.0000 </r>
       <r>    5.4114   -0.0000 </r>
       <r>    8.4069    0.0000 </r>
      </set>
      <set comment="kpoint 233">
       <r>    3.8696   -0.0000 </r>
       <r>    3.8696   -0.0000 </r>
       <r>    5.0137   -0.0000 </r>
       <r>    8.9291    0.0000 </r>
      </set>
      <set comment="kpoint 234">
       <r>    1.1757   -0.0188 </r>
       <r>    6.7254    0.0000 </r>
       <r>    6.9701    0.0000 </r>
       <r>    6.9701    0.0000 </r>
      </set>
      <set comment="kpoint 235">
       <r>    1.7906   -0.0000 </r>
       <r>    5.9311   -0.0000 </r>
       <r>    6.7451    0.0000 </r>
       <r>    7.0888    0.0000 </r>
      </set>
      <set comment="kpoint 236">
       <r>    2.4755   -0.0000 </r>
       <r>    5.0354   -0.0000 </r>
       <r>    6.5922    0.0000 </r>
       <r>    7.1509    0.0000 </r>
      </set>
      <set comment="kpoint 237">
       <r>    2.4339   -0.0000 </r>
       <r>    5.5291   -0.0000 </r>
       <r>    6.2353   -0.0000 </r>
       <r>    7.2500    0.0000 </r>
      </set>
      <set comment="kpoint 238">
       <r>    3.1882   -0.0000 </r>
       <r>    4.2044   -0.0000 </r>
       <r>    6.5159    0.0000 </r>
       <r>    7.1489    0.0000 </r>
      </set>
      <set comment="kpoint 239">
       <r>    3.1392   -0.0000 </r>
       <r>    4.8232   -0.0000 </r>
       <r>    5.9683   -0.0000 </r>
       <r>    7.4287    0.0000 </r>
      </set>
      <set comment="kpoint 240">
       <r>    3.7023   -0.0000 </r>
       <r>    4.2281   -0.0000 </r>
       <r>    5.9027   -0.0000 </r>
       <r>    7.4769    0.0000 </r>
      </set>
      <set comment="kpoint 241">
       <r>    3.8280   -0.0000 </r>
       <r>    4.4944   -0.0000 </r>
       <r>    5.4224   -0.0000 </r>
       <r>    7.8746    0.0000 </r>
      </set>
      <set comment="kpoint 242">
       <r>    2.3932   -0.0000 </r>
       <r>    6.1767   -0.0000 </r>
       <r>    6.5160    0.0000 </r>
       <r>    6.5160    0.0000 </r>
      </set>
      <set comment="kpoint 243">
       <r>    3.0651   -0.0000 </r>
       <r>    5.5061   -0.0000 </r>
       <r>    6.3639    0.0000 </r>
       <r>    6.6636    0.0000 </r>
      </set>
      <set comment="kpoint 244">
       <r>    3.7690   -0.0000 </r>
       <r>    4.7309   -0.0000 </r>
       <r>    6.2882   -0.0000 </r>
       <r>    6.7659    0.0000 </r>
      </set>
      <set comment="kpoint 245">
       <r>    3.7547   -0.0000 </r>
       <r>    5.1906   -0.0000 </r>
       <r>    5.9261   -0.0000 </r>
       <r>    6.9189    0.0000 </r>
      </set>
      <set comment="kpoint 246">
       <r>    4.3261   -0.0000 </r>
       <r>    4.7037   -0.0000 </r>
       <r>    5.7715   -0.0000 </r>
       <r>    7.1125    0.0000 </r>
      </set>
      <set comment="kpoint 247">
       <r>    3.7238   -0.0000 </r>
       <r>    5.8106   -0.0000 </r>
       <r>    6.2123   -0.0000 </r>
       <r>    6.2123   -0.0000 </r>
      </set>
      <set comment="kpoint 248">
       <r>    4.4187   -0.0000 </r>
       <r>    5.2665   -0.0000 </r>
       <r>    6.1371   -0.0000 </r>
       <r>    6.3915    0.0000 </r>
      </set>
      <set comment="kpoint 249">
       <r>    5.0260   -0.0000 </r>
       <r>    5.0260   -0.0000 </r>
       <r>    5.8603   -0.0000 </r>
       <r>    6.7501    0.0000 </r>
      </set>
      <set comment="kpoint 250">
       <r>    5.1023   -0.0000 </r>
       <r>    5.6277   -0.0000 </r>
       <r>    6.0624   -0.0000 </r>
       <r>    6.0624   -0.0000 </r>
      </set>
     </set>
    </set>
   </array>
  </eigenvalues>
  <separator name="orbital magnetization" >
   <v name="MAGDIPOLOUT">      0.00000000      0.00000000      0.00000000</v>
  </separator>
  <dos>
   <i name="efermi">      0.83698263 </i>
   <total>
    <array>
     <dimension dim="1">gridpoints</dimension>
     <dimension dim="2">spin</dimension>
     <field>energy</field>
     <field>total</field>
     <field>integrated</field>
     <set>
      <set comment="spin 1">
       <r>    -4.6825     0.0000     0.0000 </r>
       <r>    -4.6158     0.0000     0.0000 </r>
       <r>    -4.5491     0.0000     0.0000 </r>
       <r>    -4.4825     0.0000     0.0000 </r>
       <r>    -4.4158     0.0000     0.0000 </r>
       <r>    -4.3491    -0.0000    -0.0000 </r>
       <r>    -4.2825    -0.0000    -0.0000 </r>
       <r>    -4.2158    -0.0000    -0.0000 </r>
       <r>    -4.1491    -0.0000    -0.0000 </r>
       <r>    -4.0825    -0.0000    -0.0000 </r>
       <r>    -4.0158    -0.0000    -0.0000 </r>
       <r>    -3.9491    -0.0000    -0.0000 </r>
       <r>    -3.8825    -0.0000    -0.0000 </r>
       <r>    -3.8158    -0.0000    -0.0000 </r>
       <r>    -3.7491    -0.0000    -0.0000 </r>
       <r>    -3.6824    -0.0000    -0.0000 </r>
       <r>    -3.6158    -0.0000    -0.0000 </r>
       <r>    -3.5491    -0.0000    -0.0000 </r>
       <r>    -3.4824    -0.0000    -0.0000 </r>
       <r>    -3.4158    -0.0000    -0.0000 </r>
       <r>    -3.3491    -0.0000    -0.0000 </r>
       <r>    -3.2824    -0.0000    -0.0000 </r>
       <r>    -3.2158    -0.0000    -0.0000 </r>
       <r>    -3.1491    -0.0001    -0.0000 </r>
       <r>    -3.0824    -0.0003    -0.0000 </r>
       <r>    -3.0158    -0.0009    -0.0001 </r>
       <r>    -2.9491    -0.0019    -0.0002 </r>
       <r>    -2.8824    -0.0026    -0.0004 </r>
       <r>    -2.8158    -0.0008    -0.0004 </r>
       <r>    -2.7491     0.0068     0.0000 </r>
       <r>    -2.6824     0.0223     0.0015 </r>
       <r>    -2.6158     0.0445     0.0045 </r>
       <r>    -2.5491     0.0687     0.0090 </r>
       <r>    -2.4824     0.0903     0.0151 </r>
       <r>    -2.4157     0.1080     0.0223 </r>
       <r>    -2.3491     0.1228     0.0305 </r>
       <r>    -2.2824     0.1354     0.0395 </r>
       <r>    -2.2157     0.1452     0.0492 </r>
       <r>    -2.1491     0.1541     0.0594 </r>
       <r>    -2.0824     0.1655     0.0705 </r>
       <r>    -2.0157     0.1780     0.0823 </r>
       <r>    -1.9491     0.1863     0.0947 </r>
       <r>    -1.8824     0.1901     0.1074 </r>
       <r>    -1.8157     0.1963     0.1205 </r>
       <r>    -1.7491     0.2089     0.1344 </r>
       <r>    -1.6824     0.2225     0.1493 </r>
       <r>    -1.6157     0.2299     0.1646 </r>
       <r>    -1.5491     0.2310     0.1800 </r>
       <r>    -1.4824     0.2321     0.1955 </r>
       <r>    -1.4157     0.2386     0.2114 </r>
       <r>    -1.3491     0.2515     0.2281 </r>
       <r>    -1.2824     0.2669     0.2459 </r>
       <r>    -1.2157     0.2776     0.2644 </r>
       <r>    -1.1490     0.2782     0.2830 </r>
       <r>    -1.0824     0.2718     0.3011 </r>
       <r>    -1.0157     0.2687     0.3190 </r>
       <r>    -0.9490     0.2783     0.3376 </r>
       <r>    -0.8824     0.2993     0.3575 </r>
       <r>    -0.8157     0.3204     0.3789 </r>
       <r>    -0.7490     0.3316     0.4010 </r>
       <r>    -0.6824     0.3298     0.4230 </r>
       <r>    -0.6157     0.3161     0.4441 </r>
       <r>    -0.5490     0.2987     0.4640 </r>
       <r>    -0.4824     0.2972     0.4838 </r>
       <r>    -0.4157     0.3259     0.5055 </r>
       <r>    -0.3490     0.3697     0.5302 </r>
       <r>    -0.2824     0.3942     0.5565 </r>
       <r>    -0.2157     0.3836     0.5820 </r>
       <r>    -0.1490     0.3553     0.6057 </r>
       <r>    -0.0824     0.3351     0.6281 </r>
       <r>    -0.0157     0.3325     0.6502 </r>
       <r>     0.0510     0.3444     0.6732 </r>
       <r>     0.1177     0.3703     0.6979 </r>
       <r>     0.1843     0.4083     0.7251 </r>
       <r>     0.2510     0.4421     0.7546 </r>
       <r>     0.3177     0.4480     0.7844 </r>
       <r>     0.3843     0.4201     0.8124 </r>
       <r>     0.4510     0.3803     0.8378 </r>
       <r>     0.5177     0.3571     0.8616 </r>
       <r>     0.5843     0.3640     0.8859 </r>
       <r>     0.6510     0.3977     0.9124 </r>
       <r>     0.7177     0.4437     0.9420 </r>
       <r>     0.7843     0.4807     0.9740 </r>
       <r>     0.8510     0.4931     1.0069 </r>
       <r>     0.9177     0.4801     1.0389 </r>
       <r>     0.9843     0.4530     1.0691 </r>
       <r>     1.0510     0.4270     1.0976 </r>
       <r>     1.1177     0.4175     1.1254 </r>
       <r>     1.1844     0.4310     1.1541 </r>
       <r>     1.2510     0.4561     1.1845 </r>
       <r>     1.3177     0.4787     1.2165 </r>
       <r>     1.3844     0.5009     1.2498 </r>
       <r>     1.4510     0.5300     1.2852 </r>
       <r>     1.5177     0.5571     1.3223 </r>
       <r>     1.5844     0.5639     1.3599 </r>
       <r>     1.6510     0.5463     1.3963 </r>
       <r>     1.7177     0.5196     1.4310 </r>
       <r>     1.7844     0.5006     1.4644 </r>
       <r>     1.8510     0.4940     1.4973 </r>
       <r>     1.9177     0.4943     1.5302 </r>
       <r>     1.9844     0.4934     1.5631 </r>
       <r>     2.0510     0.4895     1.5958 </r>
       <r>     2.1177     0.4904     1.6285 </r>
       <r>     2.1844     0.5021     1.6619 </r>
       <r>     2.2510     0.5136     1.6962 </r>
       <r>     2.3177     0.5058     1.7299 </r>
       <r>     2.3844     0.4786     1.7618 </r>
       <r>     2.4511     0.4554     1.7922 </r>
       <r>     2.5177     0.4580     1.8227 </r>
       <r>     2.5844     0.4884     1.8553 </r>
       <r>     2.6511     0.5360     1.8910 </r>
       <r>     2.7177     0.5814     1.9298 </r>
       <r>     2.7844     0.5966     1.9695 </r>
       <r>     2.8511     0.5659     2.0073 </r>
       <r>     2.9177     0.5122     2.0414 </r>
       <r>     2.9844     0.4818     2.0735 </r>
       <r>     3.0511     0.5011     2.1069 </r>
       <r>     3.1177     0.5624     2.1444 </r>
       <r>     3.1844     0.6396     2.1871 </r>
       <r>     3.2511     0.7011     2.2338 </r>
       <r>     3.3177     0.7162     2.2816 </r>
       <r>     3.3844     0.6734     2.3265 </r>
       <r>     3.4511     0.5953     2.3662 </r>
       <r>     3.5177     0.5340     2.4018 </r>
       <r>     3.5844     0.5366     2.4375 </r>
       <r>     3.6511     0.6006     2.4776 </r>
       <r>     3.7178     0.6673     2.5221 </r>
       <r>     3.7844     0.6774     2.5672 </r>
       <r>     3.8511     0.6291     2.6092 </r>
       <r>     3.9178     0.5683     2.6470 </r>
       <r>     3.9844     0.5323     2.6825 </r>
       <r>     4.0511     0.5253     2.7176 </r>
       <r>     4.1178     0.5376     2.7534 </r>
       <r>     4.1844     0.5638     2.7910 </r>
       <r>     4.2511     0.5983     2.8309 </r>
       <r>     4.3178     0.6282     2.8728 </r>
       <r>     4.3844     0.6410     2.9155 </r>
       <r>     4.4511     0.6389     2.9581 </r>
       <r>     4.5178     0.6345     3.0004 </r>
       <r>     4.5844     0.6329     3.0426 </r>
       <r>     4.6511     0.6341     3.0849 </r>
       <r>     4.7178     0.6457     3.1279 </r>
       <r>     4.7844     0.6692     3.1725 </r>
       <r>     4.8511     0.6785     3.2177 </r>
       <r>     4.9178     0.6447     3.2607 </r>
       <r>     4.9845     0.5883     3.3000 </r>
       <r>     5.0511     0.5730     3.3382 </r>
       <r>     5.1178     0.6341     3.3804 </r>
       <r>     5.1845     0.7298     3.4291 </r>
       <r>     5.2511     0.7779     3.4809 </r>
       <r>     5.3178     0.7340     3.5299 </r>
       <r>     5.3845     0.6319     3.5720 </r>
       <r>     5.4511     0.5541     3.6089 </r>
       <r>     5.5178     0.5616     3.6464 </r>
       <r>     5.5845     0.6450     3.6894 </r>
       <r>     5.6511     0.7392     3.7387 </r>
       <r>     5.7178     0.7801     3.7907 </r>
       <r>     5.7845     0.7493     3.8406 </r>
       <r>     5.8511     0.6792     3.8859 </r>
       <r>     5.9178     0.6250     3.9276 </r>
       <r>     5.9845     0.6271     3.9694 </r>
       <r>     6.0511     0.6896     4.0153 </r>
       <r>     6.1178     0.7831     4.0676 </r>
       <r>     6.1845     0.8591     4.1248 </r>
       <r>     6.2512     0.8737     4.1831 </r>
       <r>     6.3178     0.8173     4.2376 </r>
       <r>     6.3845     0.7256     4.2859 </r>
       <r>     6.4512     0.6561     4.3297 </r>
       <r>     6.5178     0.6464     4.3728 </r>
       <r>     6.5845     0.6892     4.4187 </r>
       <r>     6.6512     0.7477     4.4686 </r>
       <r>     6.7178     0.7922     4.5214 </r>
       <r>     6.7845     0.8133     4.5756 </r>
       <r>     6.8512     0.8085     4.6295 </r>
       <r>     6.9178     0.7806     4.6816 </r>
       <r>     6.9845     0.7453     4.7312 </r>
       <r>     7.0512     0.7240     4.7795 </r>
       <r>     7.1178     0.7252     4.8279 </r>
       <r>     7.1845     0.7453     4.8775 </r>
       <r>     7.2512     0.7771     4.9294 </r>
       <r>     7.3178     0.8030     4.9829 </r>
       <r>     7.3845     0.7960     5.0360 </r>
       <r>     7.4512     0.7491     5.0859 </r>
       <r>     7.5179     0.6936     5.1321 </r>
       <r>     7.5845     0.6689     5.1767 </r>
       <r>     7.6512     0.6845     5.2224 </r>
       <r>     7.7179     0.7251     5.2707 </r>
       <r>     7.7845     0.7789     5.3226 </r>
       <r>     7.8512     0.8321     5.3781 </r>
       <r>     7.9179     0.8520     5.4349 </r>
       <r>     7.9845     0.8130     5.4891 </r>
       <r>     8.0512     0.7345     5.5381 </r>
       <r>     8.1179     0.6639     5.5823 </r>
       <r>     8.1845     0.6375     5.6248 </r>
       <r>     8.2512     0.6711     5.6696 </r>
       <r>     8.3179     0.7614     5.7203 </r>
       <r>     8.3845     0.8675     5.7782 </r>
       <r>     8.4512     0.9135     5.8391 </r>
       <r>     8.5179     0.8494     5.8957 </r>
       <r>     8.5846     0.7099     5.9430 </r>
       <r>     8.6512     0.5912     5.9825 </r>
       <r>     8.7179     0.5679     6.0203 </r>
       <r>     8.7846     0.6355     6.0627 </r>
       <r>     8.8512     0.7279     6.1112 </r>
       <r>     8.9179     0.7854     6.1636 </r>
       <r>     8.9846     0.7995     6.2169 </r>
       <r>     9.0512     0.7955     6.2699 </r>
       <r>     9.1179     0.7899     6.3226 </r>
       <r>     9.1846     0.7848     6.3749 </r>
       <r>     9.2512     0.7848     6.4272 </r>
       <r>     9.3179     0.7934     6.4801 </r>
       <r>     9.3846     0.7990     6.5334 </r>
       <r>     9.4512     0.7791     6.5853 </r>
       <r>     9.5179     0.7232     6.6335 </r>
       <r>     9.5846     0.6477     6.6767 </r>
       <r>     9.6512     0.5861     6.7158 </r>
       <r>     9.7179     0.5664     6.7535 </r>
       <r>     9.7846     0.5981     6.7934 </r>
       <r>     9.8513     0.6715     6.8382 </r>
       <r>     9.9179     0.7609     6.8889 </r>
       <r>     9.9846     0.8347     6.9446 </r>
       <r>    10.0513     0.8723     7.0027 </r>
       <r>    10.1179     0.8703     7.0607 </r>
       <r>    10.1846     0.8340     7.1163 </r>
       <r>    10.2513     0.7766     7.1681 </r>
       <r>    10.3179     0.7288     7.2167 </r>
       <r>    10.3846     0.7252     7.2650 </r>
       <r>    10.4513     0.7653     7.3161 </r>
       <r>    10.5179     0.8053     7.3698 </r>
       <r>    10.5846     0.7988     7.4230 </r>
       <r>    10.6513     0.7357     7.4721 </r>
       <r>    10.7179     0.6387     7.5146 </r>
       <r>    10.7846     0.5481     7.5512 </r>
       <r>    10.8513     0.5094     7.5851 </r>
       <r>    10.9179     0.5413     7.6212 </r>
       <r>    10.9846     0.6091     7.6618 </r>
       <r>    11.0513     0.6511     7.7052 </r>
       <r>    11.1180     0.6306     7.7473 </r>
       <r>    11.1846     0.5538     7.7842 </r>
       <r>    11.2513     0.4498     7.8142 </r>
       <r>    11.3180     0.3454     7.8372 </r>
       <r>    11.3846     0.2560     7.8543 </r>
       <r>    11.4513     0.1883     7.8668 </r>
       <r>    11.5180     0.1480     7.8767 </r>
       <r>    11.5846     0.1392     7.8860 </r>
       <r>    11.6513     0.1567     7.8964 </r>
       <r>    11.7180     0.1807     7.9085 </r>
       <r>    11.7846     0.1860     7.9209 </r>
       <r>    11.8513     0.1599     7.9315 </r>
       <r>    11.9180     0.1129     7.9391 </r>
       <r>    11.9846     0.0712     7.9438 </r>
       <r>    12.0513     0.0556     7.9475 </r>
       <r>    12.1180     0.0660     7.9519 </r>
       <r>    12.1846     0.0831     7.9575 </r>
       <r>    12.2513     0.0871     7.9633 </r>
       <r>    12.3180     0.0752     7.9683 </r>
       <r>    12.3847     0.0598     7.9723 </r>
       <r>    12.4513     0.0509     7.9757 </r>
       <r>    12.5180     0.0480     7.9789 </r>
       <r>    12.5847     0.0458     7.9819 </r>
       <r>    12.6513     0.0417     7.9847 </r>
       <r>    12.7180     0.0348     7.9870 </r>
       <r>    12.7847     0.0272     7.9888 </r>
       <r>    12.8513     0.0236     7.9904 </r>
       <r>    12.9180     0.0267     7.9922 </r>
       <r>    12.9847     0.0320     7.9943 </r>
       <r>    13.0513     0.0314     7.9964 </r>
       <r>    13.1180     0.0228     7.9979 </r>
       <r>    13.1847     0.0122     7.9987 </r>
       <r>    13.2513     0.0060     7.9991 </r>
       <r>    13.3180     0.0045     7.9994 </r>
       <r>    13.3847     0.0044     7.9997 </r>
       <r>    13.4513     0.0033     7.9999 </r>
       <r>    13.5180     0.0015     8.0000 </r>
       <r>    13.5847     0.0001     8.0001 </r>
       <r>    13.6514    -0.0003     8.0000 </r>
       <r>    13.7180    -0.0003     8.0000 </r>
       <r>    13.7847    -0.0001     8.0000 </r>
       <r>    13.8514    -0.0000     8.0000 </r>
       <r>    13.9180    -0.0000     8.0000 </r>
       <r>    13.9847    -0.0000     8.0000 </r>
       <r>    14.0514    -0.0000     8.0000 </r>
       <r>    14.1180    -0.0000     8.0000 </r>
       <r>    14.1847    -0.0000     8.0000 </r>
       <r>    14.2514    -0.0000     8.0000 </r>
       <r>    14.3180    -0.0000     8.0000 </r>
       <r>    14.3847    -0.0000     8.0000 </r>
       <r>    14.4514    -0.0000     8.0000 </r>
       <r>    14.5180    -0.0000     8.0000 </r>
       <r>    14.5847    -0.0000     8.0000 </r>
       <r>    14.6514     0.0000     8.0000 </r>
       <r>    14.7180     0.0000     8.0000 </r>
       <r>    14.7847     0.0000     8.0000 </r>
       <r>    14.8514     0.0000     8.0000 </r>
       <r>    14.9181     0.0000     8.0000 </r>
       <r>    14.9847     0.0000     8.0000 </r>
       <r>    15.0514     0.0000     8.0000 </r>
       <r>    15.1181     0.0000     8.0000 </r>
       <r>    15.1847     0.0000     8.0000 </r>
       <r>    15.2514     0.0000     8.0000 </r>
       <r>    15.3181     0.0000     8.0000 </r>
      </set>
     </set>
    </array>
   </total>
  </dos>
 </calculation>
 <structure name="finalpos" >
  <crystal>
   <varray name="basis" >
    <v>      -2.02266029       2.02266029       2.02266029 </v>
    <v>       2.02266029      -2.02266029       2.02266029 </v>
    <v>       2.02266029       2.02266029      -2.02266029 </v>
   </varray>
   <i name="volume">     33.10006432 </i>
   <varray name="rec_basis" >
    <v>       0.00000000       0.24719920       0.24719920 </v>
    <v>       0.24719920       0.00000000       0.24719920 </v>
    <v>       0.24719920       0.24719920       0.00000000 </v>
   </varray>
  </crystal>
  <varray name="positions" >
   <v>       0.00000000      -0.00000000       0.00000000 </v>
  </varray>
 </structure>
</modeling>
