bcc Na                                  
           1
    -2.020000    2.020000    2.020000
     2.020000   -2.020000    2.020000
     2.020000    2.020000   -2.020000
   Na
   1
Direct configuration=     1
   0.00000000  0.00000000  0.00000000
bcc Na                                  
           1
    -2.020770    2.020770    2.020770
     2.020770   -2.020770    2.020770
     2.020770    2.020770   -2.020770
   Na
   1
Direct configuration=     2
   0.00000000 -0.00000000  0.00000000
bcc Na                                  
           1
    -2.022660    2.022660    2.022660
     2.022660   -2.022660    2.022660
     2.022660    2.022660   -2.022660
   Na
   1
Direct configuration=     3
   0.00000000 -0.00000000  0.00000000
