Si                                      
   5.43000000000000     
     0.500000    0.500000    0.000000
     0.000000    0.500000    0.500000
     0.500000    0.000000    0.500000
   Si
     2
Direct
  0.000000  0.000000  0.000000
  0.250000  0.250000  0.250000
 
   32   32   32
 -7.7336     -5.9785     -1.2872      4.8665      10.723      14.898      16.801      16.666      15.275      13.504    
  11.773      10.233      8.9568      7.9675      7.2666      6.8487      6.7099      6.8487      7.2665      7.9675    
  8.9569      10.234      11.774      13.504      15.275      16.665      16.800      14.897      10.722      4.8664    
 -1.2872     -5.9784     -5.9785     -2.5468      3.1872      9.4629      14.609      17.621      18.374      17.456    
  15.772      13.988      12.326      10.888      9.7176      8.8311      8.2350      7.9350      7.9350      8.2350    
  8.8311      9.7177      10.888      12.326      13.988      15.771      17.456      18.374      17.620      14.608    
  9.4631      3.1873     -2.5469     -5.9786     -1.2872      3.1872      8.9784      14.369      18.069      19.594    
  19.248      17.815      16.090      14.400      12.876      11.577      10.532      9.7620      9.2874      9.1269    
  9.2874      9.7620      10.533      11.577      12.876      14.400      16.089      17.815      19.247      19.593    
  18.069      14.369      8.9787      3.1875     -1.2870     -2.9721      4.8665      9.4629      14.369      18.210    
  20.228      20.426      19.378      17.845      16.251      14.748      13.407      12.264      11.350      10.705    
  10.369      10.369      10.705      11.350      12.264      13.407      14.748      16.251      17.845      19.378    
  20.426      20.228      18.210      14.369      9.4633      4.8668      2.0795      2.0793      10.723      14.609    
  18.069      20.228      20.838      20.226      19.019      17.655      16.299      15.029      13.880      12.886    
  12.100      11.589      11.411      11.589      12.100      12.886      13.880      15.029      16.299      17.655    
  19.019      20.226      20.838      20.229      18.069      14.609      10.723      7.6500      6.4811      7.6500    
  14.898      17.621      19.594      20.426      20.226      19.433      18.415      17.329      16.251      15.210    
  14.229      13.364      12.704      12.343      12.343      12.704      13.365      14.230      15.210      16.251    
  17.329      18.415      19.433      20.226      20.426      19.594      17.620      14.898      12.248      10.612    
  10.612      12.248      16.801      18.374      19.248      19.378      19.019      18.415      17.691      16.911    
  16.090      15.233      14.383      13.628      13.094      12.899      13.094      13.629      14.383      15.233    
  16.089      16.910      17.690      18.415      19.019      19.378      19.247      18.374      16.800      14.935    
  13.419      12.835      13.419      14.936      16.666      17.456      17.815      17.845      17.655      17.329    
  16.911      16.397      15.772      15.045      14.280      13.608      13.209      13.209      13.608      14.280    
  15.045      15.772      16.397      16.910      17.329      17.655      17.845      17.815      17.456      16.666    
  15.552      14.445      13.751      13.752      14.445      15.552      15.275      15.772      16.090      16.251    
  16.299      16.251      16.090      15.772      15.275      14.613      13.890      13.317      13.097      13.317    
  13.890      14.613      15.275      15.772      16.089      16.251      16.299      16.251      16.089      15.772    
  15.275      14.613      13.890      13.317      13.097      13.317      13.890      14.613      13.504      13.988    
  14.400      14.748      15.029      15.210      15.233      15.045      14.613      13.978      13.329      12.917    
  12.917      13.329      13.978      14.613      15.045      15.233      15.210      15.029      14.748      14.400    
  13.988      13.504      12.960      12.414      11.956      11.690      11.689      11.955      12.413      12.960    
  11.773      12.326      12.876      13.407      13.880      14.229      14.383      14.280      13.890      13.329    
  12.834      12.637      12.834      13.329      13.890      14.280      14.382      14.229      13.880      13.407    
  12.876      12.326      11.774      11.230      10.721      10.292      10.001      9.8977      10.001      10.292    
  10.721      11.230      10.233      10.888      11.577      12.264      12.886      13.364      13.628      13.608    
  13.317      12.917      12.637      12.637      12.917      13.317      13.608      13.628      13.364      12.886    
  12.264      11.577      10.888      10.234      9.6354      9.1089      8.6751      8.3616      8.1962      8.1962    
  8.3615      8.6749      9.1088      9.6353      8.9568      9.7176      10.532      11.350      12.100      12.704    
  13.094      13.209      13.097      12.917      12.834      12.917      13.097      13.208      13.094      12.704    
  12.100      11.350      10.533      9.7176      8.9567      8.2799      7.7029      7.2364      6.8909      6.6775    
  6.6052      6.6774      6.8907      7.2362      7.7029      8.2799      7.9675      8.8311      9.7620      10.705    
  11.589      12.343      12.899      13.209      13.317      13.329      13.329      13.317      13.208      12.899    
  12.342      11.589      10.705      9.7620      8.8311      7.9674      7.2059      6.5641      6.0484      5.6606    
  5.4014      5.2716      5.2716      5.4015      5.6606      6.0484      6.5641      7.2060      7.2666      8.2350    
  9.2874      10.369      11.411      12.343      13.094      13.608      13.890      13.978      13.890      13.608    
  13.094      12.342      11.411      10.369      9.2874      8.2350      7.2665      6.4175      5.7051      5.1328    
  4.6970      4.3916      4.2109      4.1511      4.2110      4.3918      4.6973      5.1331      5.7053      6.4177    
  6.8487      7.9350      9.1269      10.369      11.589      12.704      13.629      14.280      14.613      14.613    
  14.280      13.628      12.704      11.589      10.369      9.1268      7.9350      6.8488      5.9029      5.1125    
  4.4780      3.9906      3.6386      3.4109      3.2992      3.2992      3.4110      3.6388      3.9909      4.4782    
  5.1127      5.9029      6.7099      7.9350      9.2874      10.705      12.100      13.365      14.383      15.045    
  15.275      15.045      14.382      13.364      12.100      10.705      9.2874      7.9350      6.7100      5.6491    
  4.7667      4.0597      3.5146      3.1137      2.8403      2.6816      2.6297      2.6817      2.8405      3.1138    
  3.5147      4.0597      4.7666      5.6490      6.8487      8.2350      9.7620      11.350      12.886      14.230    
  15.233      15.772      15.772      15.233      14.229      12.886      11.350      9.7620      8.2350      6.8488    
  5.6491      4.6531      3.8564      3.2413      2.7844      2.4630      2.2589      2.1599      2.1599      2.2590    
  2.4631      2.7844      3.2412      3.8562      4.6529      5.6489      7.2665      8.8311      10.533      12.264    
  13.880      15.210      16.089      16.397      16.089      15.210      13.880      12.264      10.533      8.8311    
  7.2665      5.9029      4.7667      3.8564      3.1523      2.6261      2.2489      1.9966      1.8517      1.8045    
  1.8517      1.9965      2.2488      2.6259      3.1521      3.8563      4.7666      5.9028      7.9675      9.7177    
  11.577      13.407      15.029      16.251      16.910      16.910      16.251      15.029      13.407      11.577    
  9.7176      7.9674      6.4175      5.1125      4.0597      3.2413      2.6261      2.1796      1.8711      1.6775    
  1.5841      1.5841      1.6774      1.8709      2.1793      2.6259      3.2412      4.0597      5.1126      6.4177    
  8.9569      10.888      12.876      14.748      16.299      17.329      17.690      17.329      16.299      14.748    
  12.876      10.888      8.9567      7.2059      5.7051      4.4780      3.5146      2.7844      2.2489      1.8711    
  1.6211      1.4786      1.4322      1.4785      1.6210      1.8710      2.2488      2.7844      3.5146      4.4781    
  5.7052      7.2061      10.234      12.326      14.400      16.251      17.655      18.415      18.415      17.655    
  16.251      14.400      12.326      10.234      8.2799      6.5641      5.1328      3.9906      3.1137      2.4630    
  1.9966      1.6775      1.4786      1.3830      1.3830      1.4785      1.6774      1.9966      2.4631      3.1139    
  3.9908      5.1330      6.5642      8.2799      11.774      13.988      16.089      17.845      19.019      19.433    
  19.019      17.845      16.089      13.988      11.774      9.6354      7.7029      6.0484      4.6970      3.6386    
  2.8403      2.2589      1.8517      1.5841      1.4322      1.3830      1.4322      1.5841      1.8518      2.2590    
  2.8405      3.6388      4.6972      6.0486      7.7030      9.6354      13.504      15.771      17.815      19.378    
  20.226      20.226      19.378      17.815      15.772      13.504      11.230      9.1089      7.2364      5.6606    
  4.3916      3.4109      2.6816      2.1599      1.8045      1.5841      1.4785      1.4785      1.5841      1.8046    
  2.1600      2.6817      3.4110      4.3916      5.6606      7.2364      9.1090      11.230      15.275      17.456    
  19.247      20.426      20.838      20.426      19.247      17.456      15.275      12.960      10.721      8.6751    
  6.8909      5.4014      4.2109      3.2992      2.6297      2.1599      1.8517      1.6774      1.6210      1.6774    
  1.8518      2.1600      2.6297      3.2992      4.2109      5.4013      6.8907      8.6750      10.721      12.960    
  16.665      18.374      19.593      20.228      20.229      19.594      18.374      16.666      14.613      12.414    
  10.292      8.3616      6.6775      5.2716      4.1511      3.2992      2.6817      2.2590      1.9965      1.8709    
  1.8710      1.9966      2.2590      2.6817      3.2992      4.1510      5.2714      6.6774      8.3616      10.292    
  12.413      14.612      16.800      17.620      18.069      18.210      18.069      17.620      16.800      15.552    
  13.890      11.956      10.001      8.1962      6.6052      5.2716      4.2110      3.4110      2.8405      2.4631    
  2.2488      2.1793      2.2488      2.4631      2.8405      3.4110      4.2109      5.2714      6.6051      8.1962    
  10.001      11.956      13.890      15.552      14.897      14.608      14.369      14.369      14.609      14.898    
  14.935      14.445      13.317      11.690      9.8977      8.1962      6.6774      5.4015      4.3918      3.6388    
  3.1138      2.7844      2.6259      2.6259      2.7844      3.1139      3.6388      4.3916      5.4013      6.6774    
  8.1962      9.8976      11.690      13.317      14.445      14.935      10.722      9.4631      8.9787      9.4633    
  10.723      12.248      13.419      13.751      13.097      11.689      10.001      8.3615      6.8907      5.6606    
  4.6973      3.9909      3.5147      3.2412      3.1521      3.2412      3.5146      3.9908      4.6972      5.6606    
  6.8907      8.3616      10.001      11.690      13.098      13.751      13.419      12.248      4.8664      3.1873    
  3.1875      4.8668      7.6500      10.612      12.835      13.752      13.317      11.955      10.292      8.6749    
  7.2362      6.0484      5.1331      4.4782      4.0597      3.8562      3.8563      4.0597      4.4781      5.1330    
  6.0486      7.2364      8.6750      10.292      11.956      13.317      13.751      12.835      10.611      7.6497    
 -1.2872     -2.5469     -1.2870      2.0795      6.4811      10.612      13.419      14.445      13.890      12.413    
  10.721      9.1088      7.7029      6.5641      5.7053      5.1127      4.7666      4.6529      4.7666      5.1126    
  5.7052      6.5642      7.7030      9.1090      10.721      12.413      13.890      14.445      13.419      10.611    
  6.4807      2.0792     -5.9784     -5.9786     -2.9721      2.0793      7.6500      12.248      14.936      15.552    
  14.613      12.960      11.230      9.6353      8.2799      7.2060      6.4177      5.9029      5.6490      5.6489    
  5.9028      6.4177      7.2061      8.2799      9.6354      11.230      12.960      14.612      15.552      14.935    
  12.248      7.6497      2.0792     -2.9719     -5.9785     -2.5468      3.1872      9.4629      14.609      17.621    
  18.374      17.456      15.772      13.988      12.326      10.888      9.7176      8.8311      8.2350      7.9350    
  7.9350      8.2350      8.8311      9.7177      10.888      12.326      13.988      15.771      17.456      18.374    
  17.620      14.608      9.4631      3.1873     -2.5469     -5.9786     -2.5468      2.1980      8.3538      14.113    
  18.113      19.832      19.575      18.151      16.397      14.677      13.124      11.799      10.732      9.9441    
  9.4584      9.2940      9.4584      9.9441      10.732      11.799      13.124      14.677      16.397      18.150    
  19.574      19.831      18.113      14.113      8.3540      2.1980     -2.5469     -4.3319      3.1872      8.3538    
  13.907      18.322      20.745      21.153      20.150      18.568      16.911      15.344      13.945      12.750    
  11.792      11.113      10.759      10.759      11.113      11.792      12.750      13.945      15.344      16.910    
  18.568      20.150      21.153      20.745      18.322      13.907      8.3541      3.1873     0.64024E-01 0.63984E-01
  9.4629      14.113      18.322      21.056      21.997      21.488      20.228      18.776      17.329      15.972    
  14.739      13.667      12.813      12.255      12.061      12.255      12.813      13.667      14.739      15.972    
  17.329      18.776      20.228      21.488      21.997      21.056      18.322      14.113      9.4632      5.8139    
  4.4296      5.8136      14.609      18.113      20.745      21.997      21.958      21.131      20.022      18.835    
  17.655      16.508      15.416      14.443      13.692      13.278      13.278      13.693      14.443      15.416    
  16.507      17.655      18.835      20.022      21.131      21.959      21.997      20.745      18.113      14.608    
  11.252      9.1931      9.1930      11.252      17.621      19.832      21.153      21.488      21.131      20.461    
  19.651      18.776      17.845      16.859      15.860      14.946      14.284      14.041      14.284      14.946    
  15.860      16.859      17.845      18.775      19.651      20.461      21.131      21.488      21.153      19.831    
  17.620      15.075      13.033      12.252      13.034      15.075      18.374      19.575      20.150      20.228    
  20.022      19.651      19.170      18.568      17.815      16.904      15.893      14.983      14.437      14.437    
  14.983      15.893      16.904      17.815      18.568      19.169      19.651      20.022      20.228      20.150    
  19.574      18.374      16.735      15.133      14.139      14.139      15.133      16.735      17.456      18.151    
  18.568      18.776      18.835      18.776      18.568      18.151      17.456      16.472      15.383      14.517    
  14.185      14.517      15.383      16.472      17.456      18.151      18.568      18.776      18.835      18.776    
  18.568      18.151      17.456      16.472      15.383      14.517      14.185      14.517      15.383      16.472    
  15.772      16.397      16.911      17.329      17.655      17.845      17.815      17.456      16.666      15.552    
  14.445      13.752      13.751      14.445      15.552      16.666      17.456      17.815      17.845      17.655    
  17.329      16.910      16.397      15.772      15.045      14.280      13.608      13.209      13.209      13.608    
  14.280      15.045      13.988      14.677      15.344      15.972      16.508      16.859      16.904      16.472    
  15.552      14.396      13.431      13.056      13.431      14.396      15.552      16.472      16.904      16.859    
  16.508      15.972      15.344      14.677      13.988      13.286      12.606      12.018      11.612      11.466    
  11.611      12.017      12.606      13.286      12.326      13.124      13.945      14.739      15.416      15.860    
  15.893      15.383      14.445      13.431      12.776      12.776      13.431      14.444      15.383      15.893    
  15.860      15.416      14.739      13.945      13.124      12.326      11.577      10.899      10.324      9.8985    
  9.6707      9.6706      9.8983      10.324      10.899      11.577      10.888      11.799      12.750      13.667    
  14.443      14.946      14.983      14.517      13.752      13.056      12.776      13.055      13.751      14.516    
  14.983      14.946      14.443      13.667      12.750      11.799      10.888      10.060      9.3390      8.7422    
  8.2905      8.0067      7.9097      8.0067      8.2904      8.7421      9.3389      10.060      9.7176      10.732    
  11.792      12.813      13.692      14.284      14.437      14.185      13.751      13.431      13.431      13.751    
  14.185      14.437      14.284      13.692      12.813      11.792      10.732      9.7176      8.8038      8.0195    
  7.3782      6.8877      6.5550      6.3866      6.3866      6.5549      6.8876      7.3782      8.0195      8.8038    
  8.8311      9.9441      11.113      12.255      13.278      14.041      14.437      14.517      14.445      14.396    
  14.444      14.516      14.437      14.041      13.278      12.255      11.113      9.9441      8.8311      7.8313    
  6.9770      6.2805      5.7431      5.3623      5.1351      5.0595      5.1351      5.3623      5.7432      6.2805    
  6.9771      7.8314      8.2350      9.4584      10.759      12.061      13.278      14.284      14.983      15.383    
  15.552      15.552      15.383      14.983      14.284      13.278      12.061      10.759      9.4584      8.2350    
  7.1429      6.2130      5.4554      4.8669      4.4382      4.1589      4.0214      4.0215      4.1591      4.4384    
  4.8672      5.4556      6.2131      7.1430      7.9350      9.2940      10.759      12.255      13.693      14.946    
  15.893      16.472      16.666      16.472      15.893      14.946      13.692      12.255      10.759      9.2940    
  7.9350      6.7328      5.7147      4.8874      4.2426      3.7647      3.4373      3.2466      3.1840      3.2467    
  3.4375      3.7650      4.2428      4.8876      5.7148      6.7328      7.9350      9.4584      11.113      12.813    
  14.443      15.860      16.904      17.456      17.456      16.904      15.860      14.443      12.813      11.113    
  9.4584      7.9350      6.5966      5.4692      4.5563      3.8445      3.3123      2.9364      2.6971      2.5809    
  2.5809      2.6972      2.9365      3.3124      3.8445      4.5562      5.4692      6.5965      8.2350      9.9441    
  11.792      13.667      15.416      16.859      17.815      18.151      17.815      16.859      15.416      13.667    
  11.792      9.9441      8.2350      6.7328      5.4692      4.4476      3.6512      3.0529      2.6228      2.3346    
  2.1693      2.1154      2.1693      2.3346      2.6227      3.0528      3.6510      4.4474      5.4691      6.7327    
  8.8311      10.732      12.750      14.739      16.507      17.845      18.568      18.568      17.845      16.508    
  14.739      12.750      10.732      8.8311      7.1429      5.7147      4.5563      3.6512      2.9685      2.4721    
  2.1291      1.9140      1.8104      1.8103      1.9139      2.1290      2.4719      2.9683      3.6511      4.5562    
  5.7147      7.1429      9.7177      11.799      13.945      15.972      17.655      18.775      19.169      18.776    
  17.655      15.972      13.945      11.799      9.7176      7.8313      6.2130      4.8874      3.8445      3.0529    
  2.4721      2.0625      1.7919      1.6379      1.5879      1.6378      1.7918      2.0623      2.4719      3.0528    
  3.8445      4.8875      6.2131      7.8315      10.888      13.124      15.344      17.329      18.835      19.651    
  19.651      18.835      17.329      15.344      13.124      10.888      8.8038      6.9770      5.4554      4.2426    
  3.3123      2.6228      2.1291      1.7919      1.5821      1.4814      1.4813      1.5820      1.7918      2.1290    
  2.6227      3.3123      4.2427      5.4555      6.9772      8.8039      12.326      14.677      16.910      18.776    
  20.022      20.461      20.022      18.776      16.910      14.677      12.326      10.060      8.0195      6.2805    
  4.8669      3.7647      2.9364      2.3346      1.9140      1.6379      1.4814      1.4306      1.4813      1.6379    
  1.9140      2.3347      2.9365      3.7649      4.8671      6.2805      8.0195      10.060      13.988      16.397    
  18.568      20.228      21.131      21.131      20.228      18.568      16.397      13.988      11.577      9.3390    
  7.3782      5.7431      4.4382      3.4373      2.6971      2.1693      1.8104      1.5879      1.4813      1.4813    
  1.5879      1.8104      2.1694      2.6973      3.4375      4.4383      5.7432      7.3783      9.3390      11.577    
  15.771      18.150      20.150      21.488      21.959      21.488      20.150      18.151      15.772      13.286    
  10.899      8.7422      6.8877      5.3623      4.1589      3.2466      2.5809      2.1154      1.8103      1.6378    
  1.5820      1.6379      1.8104      2.1155      2.5810      3.2467      4.1589      5.3623      6.8877      8.7423    
  10.899      13.286      17.456      19.574      21.153      21.997      21.997      21.153      19.574      17.456    
  15.045      12.606      10.324      8.2905      6.5550      5.1351      4.0214      3.1840      2.5809      2.1693    
  1.9139      1.7918      1.7918      1.9140      2.1694      2.5810      3.1841      4.0214      5.1349      6.5549    
  8.2903      10.324      12.606      15.045      18.374      19.831      20.745      21.056      20.745      19.831    
  18.374      16.472      14.280      12.018      9.8985      8.0067      6.3866      5.0595      4.0215      3.2467    
  2.6972      2.3346      2.1290      2.0623      2.1290      2.3347      2.6973      3.2467      4.0214      5.0594    
  6.3865      8.0066      9.8984      12.018      14.280      16.472      17.620      18.113      18.322      18.322    
  18.113      17.620      16.735      15.383      13.608      11.612      9.6707      7.9097      6.3866      5.1351    
  4.1591      3.4375      2.9365      2.6227      2.4719      2.4719      2.6227      2.9365      3.4375      4.1589    
  5.1349      6.3865      7.9097      9.6705      11.612      13.608      15.383      16.735      14.608      14.113    
  13.907      14.113      14.608      15.075      15.133      14.517      13.209      11.466      9.6706      8.0067    
  6.5549      5.3623      4.4384      3.7650      3.3124      3.0528      2.9683      3.0528      3.3123      3.7649    
  4.4383      5.3623      6.5549      8.0066      9.6705      11.466      13.209      14.517      15.133      15.075    
  9.4631      8.3540      8.3541      9.4632      11.252      13.033      14.139      14.185      13.209      11.611    
  9.8983      8.2904      6.8876      5.7432      4.8672      4.2428      3.8445      3.6510      3.6511      3.8445    
  4.2427      4.8671      5.7432      6.8877      8.2903      9.8984      11.612      13.209      14.185      14.139    
  13.034      11.252      3.1873      2.1980      3.1873      5.8139      9.1931      12.252      14.139      14.517    
  13.608      12.017      10.324      8.7421      7.3782      6.2805      5.4556      4.8876      4.5562      4.4474    
  4.5562      4.8875      5.4555      6.2805      7.3783      8.7423      10.324      12.018      13.608      14.517    
  14.139      12.252      9.1930      5.8138     -2.5469     -2.5469     0.64024E-01  4.4296      9.1930      13.034    
  15.133      15.383      14.280      12.606      10.899      9.3389      8.0195      6.9771      6.2131      5.7148    
  5.4692      5.4691      5.7147      6.2131      6.9772      8.0195      9.3390      10.899      12.606      14.280    
  15.383      15.133      13.034      9.1930      4.4295     0.64052E-01 -5.9786     -4.3319     0.63984E-01  5.8136    
  11.252      15.075      16.735      16.472      15.045      13.286      11.577      10.060      8.8038      7.8314    
  7.1430      6.7328      6.5965      6.7327      7.1429      7.8315      8.8039      10.060      11.577      13.286    
  15.045      16.472      16.735      15.075      11.252      5.8138     0.64052E-01 -4.3319     -1.2872      3.1872    
  8.9784      14.369      18.069      19.594      19.248      17.815      16.090      14.400      12.876      11.577    
  10.532      9.7620      9.2874      9.1269      9.2874      9.7620      10.533      11.577      12.876      14.400    
  16.089      17.815      19.247      19.593      18.069      14.369      8.9787      3.1875     -1.2870     -2.9721    
  3.1872      8.3538      13.907      18.322      20.745      21.153      20.150      18.568      16.911      15.344    
  13.945      12.750      11.792      11.113      10.759      10.759      11.113      11.792      12.750      13.945    
  15.344      16.910      18.568      20.150      21.153      20.745      18.322      13.907      8.3541      3.1873    
 0.64024E-01 0.63984E-01  8.9784      13.907      18.389      21.334      22.398      21.930      20.653      19.170    
  17.691      16.302      15.041      13.940      13.063      12.489      12.288      12.489      13.063      13.940    
  15.041      16.302      17.690      19.169      20.653      21.930      22.399      21.334      18.389      13.907    
  8.9786      5.1189      3.6562      5.1188      14.369      18.322      21.334      22.832      22.895      22.055    
  20.894      19.651      18.415      17.210      16.059      15.026      14.224      13.779      13.778      14.224    
  15.026      16.058      17.210      18.415      19.651      20.894      22.056      22.895      22.832      21.334    
  18.322      14.369      10.608      8.3074      8.3073      10.608      18.069      20.745      22.398      22.895    
  22.551      21.832      20.962      20.022      19.019      17.947      16.840      15.808      15.052      14.772    
  15.052      15.808      16.840      17.947      19.019      20.022      20.962      21.832      22.551      22.895    
  22.399      20.745      18.069      15.032      12.612      11.688      12.612      15.032      19.594      21.153    
  21.930      22.055      21.832      21.424      20.894      20.228      19.378      18.302      17.076      15.960    
  15.287      15.288      15.960      17.076      18.302      19.378      20.228      20.894      21.424      21.832    
  22.056      21.930      21.153      19.594      17.504      15.482      14.234      14.234      15.483      17.504    
  19.248      20.150      20.653      20.894      20.962      20.894      20.653      20.150      19.248      17.941    
  16.491      15.341      14.901      15.341      16.491      17.940      19.247      20.150      20.653      20.894    
  20.962      20.894      20.653      20.150      19.247      17.940      16.491      15.341      14.901      15.341    
  16.491      17.941      17.815      18.568      19.170      19.651      20.022      20.228      20.150      19.575    
  18.374      16.735      15.133      14.139      14.139      15.133      16.735      18.374      19.574      20.150    
  20.228      20.022      19.651      19.169      18.568      17.815      16.904      15.893      14.983      14.437    
  14.437      14.983      15.893      16.904      16.090      16.911      17.691      18.415      19.019      19.378    
  19.248      18.374      16.801      14.936      13.419      12.835      13.419      14.935      16.800      18.374    
  19.247      19.378      19.019      18.415      17.690      16.910      16.089      15.233      14.383      13.629    
  13.094      12.899      13.094      13.628      14.383      15.233      14.400      15.344      16.302      17.210    
  17.947      18.302      17.941      16.735      14.936      13.127      11.994      11.994      13.127      14.935    
  16.735      17.941      18.302      17.947      17.210      16.302      15.344      14.400      13.498      12.662    
  11.937      11.390      11.094      11.094      11.390      11.936      12.662      13.498      12.876      13.945    
  15.041      16.059      16.840      17.076      16.491      15.133      13.419      11.994      11.440      11.994    
  13.419      15.133      16.491      17.076      16.840      16.059      15.041      13.945      12.876      11.889    
  11.014      10.276      9.7058      9.3428      9.2177      9.3426      9.7056      10.275      11.014      11.889    
  11.577      12.750      13.940      15.026      15.808      15.960      15.341      14.139      12.835      11.994    
  11.994      12.835      14.139      15.341      15.960      15.808      15.026      13.940      12.750      11.577    
  10.500      9.5616      8.7818      8.1759      7.7592      7.5462      7.5462      7.7591      8.1758      8.7817    
  9.5615      10.500      10.532      11.792      13.063      14.224      15.052      15.287      14.901      14.139    
  13.419      13.127      13.419      14.139      14.901      15.287      15.052      14.224      13.063      11.792    