   2   2   0   0
  0.2001288E+02  0.3839590E-09  0.3839590E-09  0.3839590E-09  0.5000000E-15
  1.000000000000000E-004
  CAR 
 Si                                      
     17.55517214     -8.11258959  301      5.75869664      1.00000000
     -8.113  0.0000E+00  0.0000E+00
     -8.027  0.0000E+00  0.0000E+00
     -7.941  0.0000E+00  0.0000E+00
     -7.856  0.0000E+00  0.0000E+00
     -7.770  0.0000E+00  0.0000E+00
     -7.685  0.0000E+00  0.0000E+00
     -7.599  0.0000E+00  0.0000E+00
     -7.514  0.0000E+00  0.0000E+00
     -7.428  0.0000E+00  0.0000E+00
     -7.343  0.0000E+00  0.0000E+00
     -7.257  0.0000E+00  0.0000E+00
     -7.171  0.0000E+00  0.0000E+00
     -7.086  0.0000E+00  0.0000E+00
     -7.000  0.0000E+00  0.0000E+00
     -6.915  0.0000E+00  0.0000E+00
     -6.829  0.0000E+00  0.0000E+00
     -6.744  0.0000E+00  0.0000E+00
     -6.658  0.0000E+00  0.0000E+00
     -6.573  0.0000E+00  0.0000E+00
     -6.487  0.0000E+00  0.0000E+00
     -6.401  0.0000E+00  0.0000E+00
     -6.316  0.0000E+00  0.0000E+00
     -6.230  0.0000E+00  0.0000E+00
     -6.145  0.0000E+00  0.0000E+00
     -6.059  0.8508E-01  0.3614E-02
     -5.974  0.1328E+00  0.1346E-01
     -5.888  0.1699E+00  0.2624E-01
     -5.802  0.1996E+00  0.4230E-01
     -5.717  0.2211E+00  0.6019E-01
     -5.631  0.2505E+00  0.8035E-01
     -5.546  0.2718E+00  0.1028E+00
     -5.460  0.2897E+00  0.1268E+00
     -5.375  0.3103E+00  0.1525E+00
     -5.289  0.3331E+00  0.1799E+00
     -5.204  0.3528E+00  0.2094E+00
     -5.118  0.3684E+00  0.2402E+00
     -5.032  0.3864E+00  0.2725E+00
     -4.947  0.4064E+00  0.3064E+00
     -4.861  0.4282E+00  0.3421E+00
     -4.776  0.4460E+00  0.3795E+00
     -4.690  0.4639E+00  0.4184E+00
     -4.605  0.4835E+00  0.4590E+00
     -4.519  0.5043E+00  0.5012E+00
     -4.434  0.5268E+00  0.5453E+00
     -4.348  0.5538E+00  0.5915E+00
     -4.262  0.5798E+00  0.6400E+00
     -4.177  0.6071E+00  0.6908E+00
     -4.091  0.6391E+00  0.7440E+00
     -4.006  0.6831E+00  0.8005E+00
     -3.920  0.7477E+00  0.8615E+00
     -3.835  0.8813E+00  0.9299E+00
     -3.749  0.8770E+00  0.1007E+01
     -3.664  0.8795E+00  0.1082E+01
     -3.578  0.8319E+00  0.1155E+01
     -3.492  0.7937E+00  0.1225E+01
     -3.407  0.7766E+00  0.1291E+01
     -3.321  0.7528E+00  0.1357E+01
     -3.236  0.7186E+00  0.1420E+01
     -3.150  0.6843E+00  0.1480E+01
     -3.065  0.6537E+00  0.1537E+01
     -2.979  0.6298E+00  0.1592E+01
     -2.893  0.6132E+00  0.1645E+01
     -2.808  0.5694E+00  0.1696E+01
     -2.722  0.5297E+00  0.1743E+01
     -2.637  0.5029E+00  0.1787E+01
     -2.551  0.4637E+00  0.1829E+01
     -2.466  0.4412E+00  0.1867E+01
     -2.380  0.4472E+00  0.1905E+01
     -2.295  0.4199E+00  0.1966E+01
     -2.209  0.2310E+00  0.1990E+01
     -2.123  0.0000E+00  0.2000E+01
     -2.038  0.0000E+00  0.2000E+01
     -1.952  0.0000E+00  0.2000E+01
     -1.867  0.0000E+00  0.2000E+01
     -1.781  0.0000E+00  0.2000E+01
     -1.696  0.0000E+00  0.2000E+01
     -1.610  0.0000E+00  0.2000E+01
     -1.525  0.4819E+00  0.2054E+01
     -1.439  0.4274E+00  0.2092E+01
     -1.353  0.4392E+00  0.2129E+01
     -1.268  0.4832E+00  0.2168E+01
     -1.182  0.5511E+00  0.2212E+01
     -1.097  0.7681E+00  0.2265E+01
     -1.011  0.1283E+01  0.2351E+01
     -0.926  0.1640E+01  0.2496E+01
     -0.840  0.1233E+01  0.2618E+01
     -0.754  0.9814E+00  0.2711E+01
     -0.669  0.8559E+00  0.2789E+01
     -0.583  0.7626E+00  0.2858E+01
     -0.498  0.6969E+00  0.2921E+01
     -0.412  0.6468E+00  0.2978E+01
     -0.327  0.6034E+00  0.3032E+01
     -0.241  0.5647E+00  0.3081E+01
     -0.156  0.5281E+00  0.3128E+01
     -0.070  0.5005E+00  0.3172E+01
      0.016  0.4737E+00  0.3214E+01
      0.101  0.4481E+00  0.3253E+01
      0.187  0.4245E+00  0.3291E+01
      0.272  0.4021E+00  0.3326E+01
      0.358  0.3838E+00  0.3360E+01
      0.443  0.3665E+00  0.3392E+01
      0.529  0.3499E+00  0.3422E+01
      0.614  0.3339E+00  0.3452E+01
      0.700  0.3184E+00  0.3479E+01
      0.786  0.3034E+00  0.3506E+01
      0.871  0.2904E+00  0.3531E+01
      0.957  0.2774E+00  0.3556E+01
      1.042  0.2650E+00  0.3579E+01
      1.128  0.2531E+00  0.3601E+01
      1.213  0.2413E+00  0.3622E+01
      1.299  0.2305E+00  0.3642E+01
      1.384  0.2210E+00  0.3662E+01
      1.470  0.4899E+00  0.3682E+01
      1.556  0.6844E+00  0.3730E+01
      1.641  0.9324E+00  0.3800E+01
      1.727  0.1287E+01  0.3894E+01
      1.812  0.1222E+01  0.4012E+01
      1.898  0.1147E+01  0.4113E+01
      1.983  0.1041E+01  0.4206E+01
      2.069  0.1022E+01  0.4294E+01
      2.155  0.1004E+01  0.4381E+01
      2.240  0.9714E+00  0.4465E+01
      2.326  0.1040E+01  0.4555E+01
      2.411  0.1057E+01  0.4645E+01
      2.497  0.1070E+01  0.4735E+01
      2.582  0.1116E+01  0.4829E+01
      2.668  0.1168E+01  0.4926E+01
      2.753  0.1217E+01  0.5028E+01
      2.839  0.1284E+01  0.5136E+01
      2.925  0.1441E+01  0.5250E+01
      3.010  0.1561E+01  0.5382E+01
      3.096  0.1518E+01  0.5513E+01
      3.181  0.1530E+01  0.5646E+01
      3.267  0.1451E+01  0.5773E+01
      3.352  0.1417E+01  0.5896E+01
      3.438  0.1521E+01  0.6019E+01
      3.523  0.1407E+01  0.6142E+01
      3.609  0.1362E+01  0.6261E+01
      3.695  0.1337E+01  0.6376E+01
      3.780  0.1323E+01  0.6490E+01
      3.866  0.1356E+01  0.6604E+01
      3.951  0.1293E+01  0.6716E+01
      4.037  0.1283E+01  0.6826E+01
      4.122  0.1250E+01  0.6935E+01
      4.208  0.1220E+01  0.7040E+01
      4.293  0.1228E+01  0.7145E+01
      4.379  0.1237E+01  0.7252E+01
      4.465  0.1203E+01  0.7355E+01
      4.550  0.1091E+01  0.7455E+01
      4.636  0.9434E+00  0.7542E+01
      4.721  0.7800E+00  0.7615E+01
      4.807  0.6756E+00  0.7677E+01
      4.892  0.6016E+00  0.7730E+01
      4.978  0.5243E+00  0.7779E+01
      5.064  0.4512E+00  0.7821E+01
      5.149  0.4049E+00  0.7857E+01
      5.235  0.3361E+00  0.7890E+01
      5.320  0.3344E+00  0.7919E+01
      5.406  0.2666E+00  0.7944E+01
      5.491  0.1799E+00  0.7966E+01
      5.577  0.1353E+00  0.7979E+01
      5.662  0.1187E+00  0.7993E+01
      5.748  0.3065E-01  0.7999E+01
      5.834  0.0000E+00  0.8000E+01
      5.919  0.0000E+00  0.8000E+01
      6.005  0.0000E+00  0.8000E+01
      6.090  0.0000E+00  0.8000E+01
      6.176  0.0000E+00  0.8000E+01
      6.261  0.0000E+00  0.8000E+01
      6.347  0.0000E+00  0.8000E+01
      6.432  0.0000E+00  0.8000E+01
      6.518  0.1592E+00  0.8001E+01
      6.604  0.1505E+00  0.8016E+01
      6.689  0.2125E+00  0.8031E+01
      6.775  0.2878E+00  0.8052E+01
      6.860  0.3795E+00  0.8085E+01
      6.946  0.3891E+00  0.8116E+01
      7.031  0.4319E+00  0.8151E+01
      7.117  0.5095E+00  0.8194E+01
      7.203  0.5417E+00  0.8239E+01
      7.288  0.5913E+00  0.8287E+01
      7.374  0.6336E+00  0.8340E+01
      7.459  0.6972E+00  0.8397E+01
      7.545  0.8011E+00  0.8463E+01
      7.630  0.8843E+00  0.8535E+01
      7.716  0.9795E+00  0.8616E+01
      7.801  0.1082E+01  0.8704E+01
      7.887  0.1237E+01  0.8802E+01
      7.973  0.1523E+01  0.8917E+01
      8.058  0.1678E+01  0.9055E+01
      8.144  0.1795E+01  0.9205E+01
      8.229  0.1700E+01  0.9354E+01
      8.315  0.1667E+01  0.9500E+01
      8.400  0.1562E+01  0.9638E+01
      8.486  0.1614E+01  0.9769E+01
      8.571  0.1236E+01  0.9887E+01
      8.657  0.1184E+01  0.9990E+01
      8.743  0.1103E+01  0.1009E+02
      8.828  0.9344E+00  0.1018E+02
      8.914  0.8515E+00  0.1026E+02
      8.999  0.7822E+00  0.1033E+02
      9.085  0.1288E+01  0.1040E+02
      9.170  0.2180E+01  0.1056E+02
      9.256  0.2032E+01  0.1074E+02
      9.341  0.1955E+01  0.1092E+02
      9.427  0.2053E+01  0.1109E+02
      9.513  0.1897E+01  0.1125E+02
      9.598  0.1847E+01  0.1142E+02
      9.684  0.1686E+01  0.1157E+02
      9.769  0.1481E+01  0.1170E+02
      9.855  0.1336E+01  0.1182E+02
      9.940  0.1210E+01  0.1193E+02
     10.026  0.1171E+01  0.1203E+02
     10.112  0.1112E+01  0.1213E+02
     10.197  0.1121E+01  0.1223E+02
     10.283  0.1271E+01  0.1233E+02
     10.368  0.1346E+01  0.1244E+02
     10.454  0.1228E+01  0.1256E+02
     10.539  0.1081E+01  0.1266E+02
     10.625  0.1113E+01  0.1275E+02
     10.710  0.1175E+01  0.1285E+02
     10.796  0.1241E+01  0.1295E+02
     10.882  0.1250E+01  0.1306E+02
     10.967  0.1220E+01  0.1317E+02
     11.053  0.1153E+01  0.1327E+02
     11.138  0.1187E+01  0.1337E+02
     11.224  0.1185E+01  0.1347E+02
     11.309  0.1157E+01  0.1357E+02
     11.395  0.1162E+01  0.1367E+02
     11.480  0.1133E+01  0.1377E+02
     11.566  0.1115E+01  0.1386E+02
     11.652  0.1116E+01  0.1396E+02
     11.737  0.1080E+01  0.1406E+02
     11.823  0.1022E+01  0.1415E+02
     11.908  0.9970E+00  0.1423E+02
     11.994  0.9857E+00  0.1432E+02
     12.079  0.9980E+00  0.1440E+02
     12.165  0.8352E+00  0.1448E+02
     12.251  0.8406E+00  0.1455E+02
     12.336  0.1011E+01  0.1462E+02
     12.422  0.1060E+01  0.1471E+02
     12.507  0.1054E+01  0.1480E+02
     12.593  0.1165E+01  0.1490E+02
     12.678  0.1002E+01  0.1499E+02
     12.764  0.8608E+00  0.1507E+02
     12.849  0.8079E+00  0.1514E+02
     12.935  0.7570E+00  0.1521E+02
     13.021  0.7115E+00  0.1527E+02
     13.106  0.6784E+00  0.1533E+02
     13.192  0.6537E+00  0.1539E+02
     13.277  0.6074E+00  0.1544E+02
     13.363  0.5788E+00  0.1549E+02
     13.448  0.5553E+00  0.1554E+02
     13.534  0.5419E+00  0.1559E+02
     13.619  0.5833E+00  0.1563E+02
     13.705  0.5923E+00  0.1570E+02
     13.791  0.4031E+00  0.1574E+02
     13.876  0.3202E+00  0.1577E+02
     13.962  0.2588E+00  0.1579E+02
     14.047  0.2305E+00  0.1581E+02
     14.133  0.2144E+00  0.1583E+02
     14.218  0.2138E+00  0.1585E+02
     14.304  0.2005E+00  0.1587E+02
     14.389  0.1869E+00  0.1588E+02
     14.475  0.1842E+00  0.1590E+02
     14.561  0.1520E+00  0.1591E+02
     14.646  0.1295E+00  0.1593E+02
     14.732  0.1175E+00  0.1594E+02
     14.817  0.1061E+00  0.1595E+02
     14.903  0.9539E-01  0.1595E+02
     14.988  0.8528E-01  0.1596E+02
     15.074  0.7579E-01  0.1597E+02
     15.160  0.6691E-01  0.1598E+02
     15.245  0.5866E-01  0.1598E+02
     15.331  0.6671E-01  0.1599E+02
     15.416  0.5257E-01  0.1599E+02
     15.502  0.3038E-01  0.1600E+02
     15.587  0.0000E+00  0.1600E+02
     15.673  0.0000E+00  0.1600E+02
     15.758  0.0000E+00  0.1600E+02
     15.844  0.0000E+00  0.1600E+02
     15.930  0.0000E+00  0.1600E+02
     16.015  0.0000E+00  0.1600E+02
     16.101  0.0000E+00  0.1600E+02
     16.186  0.0000E+00  0.1600E+02
     16.272  0.0000E+00  0.1600E+02
     16.357  0.0000E+00  0.1600E+02
     16.443  0.0000E+00  0.1600E+02
     16.528  0.0000E+00  0.1600E+02
     16.614  0.0000E+00  0.1600E+02
     16.700  0.0000E+00  0.1600E+02
     16.785  0.0000E+00  0.1600E+02
     16.871  0.0000E+00  0.1600E+02
     16.956  0.0000E+00  0.1600E+02
     17.042  0.0000E+00  0.1600E+02
     17.127  0.0000E+00  0.1600E+02
     17.213  0.0000E+00  0.1600E+02
     17.298  0.0000E+00  0.1600E+02
     17.384  0.0000E+00  0.1600E+02
     17.470  0.0000E+00  0.1600E+02
     17.555  0.0000E+00  0.1600E+02
