    2    2    1    1
  0.2001288E+02  0.3839590E-09  0.3839590E-09  0.3839590E-09  0.5000000E-15
  1.000000000000000E-004
  CAR 
 Si                                      
      8    110      8
 
  0.5000000E-01  0.5000000E-01  0.5000000E-01  0.2000000E-02
    1       -6.112590
    2        5.451893
    3        5.753447
    4        5.753447
    5        8.453354
    6        8.477281
    7        8.477281
    8        9.408653
 
  0.1500000E+00  0.5000000E-01  0.5000000E-01  0.6000000E-02
    1       -5.938537
    2        4.314351
    3        5.181238
    4        5.678369
    5        8.530052
    6        8.642778
    7        8.886258
    8       10.488107
 
  0.2500000E+00  0.5000000E-01  0.5000000E-01  0.6000000E-02
    1       -5.511807
    2        2.489869
    3        4.746654
    4        5.327522
    5        8.182625
    6        9.104271
    7        9.430322
    8       11.945860
 
  0.3500000E+00  0.5000000E-01  0.5000000E-01  0.6000000E-02
    1       -4.864727
    2        0.754203
    3        4.456749
    4        4.960927
    5        7.850327
    6        9.293759
    7        9.485992
    8       13.103822
 
  0.4500000E+00  0.5000000E-01  0.5000000E-01  0.6000000E-02
    1       -4.121163
    2       -0.635986
    3        4.332183
    4        4.686349
    5        7.642729
    6        9.267412
    7        9.273452
    8       13.685177
 
 -0.4500000E+00  0.5000000E-01  0.5000000E-01  0.6000000E-02
    1       -3.802294
    2       -1.118068
    3        4.370455
    4        4.543551
    5        7.589745
    6        9.129110
    7        9.315007
    8       13.659280
 
 -0.3500000E+00  0.5000000E-01  0.5000000E-01  0.6000000E-02
    1       -4.361655
    2       -0.233277
    3        4.550574
    4        4.558686
    5        7.699990
    6        9.139184
    7        9.501167
    8       13.350652
 
 -0.2500000E+00  0.5000000E-01  0.5000000E-01  0.6000000E-02
    1       -5.100521
    2        1.306783
    3        4.718737
    4        4.875205
    5        7.954427
    6        9.154167
    7        9.666586
    8       12.261995
 
 -0.1500000E+00  0.5000000E-01  0.5000000E-01  0.6000000E-02
    1       -5.680756
    2        3.106839
    3        5.038319
    4        5.269582
    5        8.279113
    6        8.869282
    7        9.458967
    8       11.390913
 
 -0.5000000E-01  0.5000000E-01  0.5000000E-01  0.6000000E-02
    1       -6.025272
    2        4.901772
    3        5.448433
    4        5.580349
    5        8.280992
    6        8.728613
    7        8.884903
    8        9.928320
 
  0.1500000E+00  0.1500000E+00  0.5000000E-01  0.6000000E-02
    1       -5.851212
    2        4.211846
    3        5.010078
    4        5.119709
    5        7.962051
    6        9.299736
    7        9.525486
    8       10.439629
 
  0.2500000E+00  0.1500000E+00  0.5000000E-01  0.1200000E-01
    1       -5.507551
    2        2.966692
    3        4.260691
    4        4.928784
    5        8.023368
    6        9.491094
    7       10.150720
    8       10.630945
 
  0.3500000E+00  0.1500000E+00  0.5000000E-01  0.1200000E-01
    1       -4.928717
    2        1.317681
    3        3.831238
    4        4.561632
    5        8.246736
    6        9.436327
    7       10.413942
    8       10.854690
 
  0.4500000E+00  0.1500000E+00  0.5000000E-01  0.1200000E-01
    1       -4.190023
    2       -0.168658
    3        3.559722
    4        4.279019
    5        8.202930
    6        9.265196
    7       10.274611
    8       12.023480
 
 -0.4500000E+00  0.1500000E+00  0.5000000E-01  0.1200000E-01
    1       -3.628408
    2       -1.038712
    3        3.380365
    4        4.232797
    5        8.203496
    6        9.118063
    7       10.105094
    8       13.639852
 
 -0.3500000E+00  0.1500000E+00  0.5000000E-01  0.1200000E-01
    1       -3.951380
    2       -0.558087
    3        3.317475
    4        4.424106
    5        8.338686
    6        9.124889
    7       10.076324
    8       13.093002
 
 -0.2500000E+00  0.1500000E+00  0.5000000E-01  0.1200000E-01
    1       -4.695920
    2        0.793414
    3        3.434053
    4        4.781578
    5        8.566677
    6        9.203105
    7       10.130775
    8       11.699138
 
 -0.1500000E+00  0.1500000E+00  0.5000000E-01  0.1200000E-01
    1       -5.340806
    2        2.389172
    3        3.813405
    4        5.191366
    5        8.679314
    6        9.083875
    7        9.920096
    8       11.092059
 
 -0.5000000E-01  0.1500000E+00  0.5000000E-01  0.1200000E-01
    1       -5.765601
    2        3.651706
    3        4.734474
    4        5.423740
    5        8.358827
    6        8.933781
    7        9.405452
    8       10.955695
 
  0.2500000E+00  0.2500000E+00  0.5000000E-01  0.6000000E-02
    1       -5.247233
    2        2.626408
    3        4.100604
    4        4.128255
    5        7.244278
    6        9.416528
    7       10.980585
    8       11.093768
 
  0.3500000E+00  0.2500000E+00  0.5000000E-01  0.1200000E-01
    1       -4.743912
    2        1.527813
    3        3.407441
    4        3.885171
    5        7.378660
    6        9.011461
    7       11.138535
    8       11.850458
 
  0.4500000E+00  0.2500000E+00  0.5000000E-01  0.1200000E-01
    1       -4.043456
    2        0.230741
    3        2.792478
    4        3.657775
    5        7.627271
    6        9.722036
    7       10.841625
    8       11.917156
 
 -0.4500000E+00  0.2500000E+00  0.5000000E-01  0.1200000E-01
    1       -3.344284
    2       -0.807612
    3        2.312027
    4        3.678442
    5        7.745234
    6       10.468651
    7       11.375649
    8       11.726047
 
 -0.3500000E+00  0.2500000E+00  0.5000000E-01  0.1200000E-01
    1       -3.368339
    2       -0.767949
    3        2.060437
    4        3.929539
    5        8.029451
    6       10.249748
    7       11.530041
    8       12.978772
 
 -0.2500000E+00  0.2500000E+00  0.5000000E-01  0.1200000E-01
    1       -4.075016
    2        0.257241
    3        2.157943
    4        4.350881
    5        8.485821
    6       10.008453
    7       11.274646
    8       11.525582
 
 -0.1500000E+00  0.2500000E+00  0.5000000E-01  0.1200000E-01
    1       -4.766516
    2        1.244244
    3        2.917009
    4        4.818711
    5        8.887049
    6        9.301473
    7       10.536174
    8       11.092862
 
 -0.5000000E-01  0.2500000E+00  0.5000000E-01  0.1200000E-01
    1       -5.260215
    2        1.888682
    3        4.305952
    4        5.058000
    5        8.337679
    6        9.082454
    7        9.832661
    8       11.544202
 
  0.3500000E+00  0.3500000E+00  0.5000000E-01  0.6000000E-02
    1       -4.315970
    2        0.910896
    3        3.341451
    4        3.454920
    5        6.710326
    6        8.023142
    7       12.761510
    8       12.820205
 
  0.4500000E+00  0.3500000E+00  0.5000000E-01  0.1200000E-01
    1       -3.672212
    2       -0.024490
    3        2.792080
    4        3.186973
    5        6.966706
    6        7.903608
    7       12.763526
    8       13.695409
 
 -0.4500000E+00  0.3500000E+00  0.5000000E-01  0.1200000E-01
    1       -2.922755
    2       -0.916073
    3        1.970387
    4        3.195952
    5        7.179373
    6        9.129763
    7       12.422608
    8       13.666288
 
 -0.3500000E+00  0.3500000E+00  0.5000000E-01  0.1200000E-01
    1       -2.690375
    2       -1.147494
    3        1.464655
    4        3.438648
    5        7.463445
    6       10.984824
    7       12.088825
    8       13.078805
 
 -0.2500000E+00  0.3500000E+00  0.5000000E-01  0.1200000E-01
    1       -3.334921
    2       -0.549069
    3        1.631346
    4        3.867953
    5        7.954367
    6       10.908312
    7       12.108370
    8       12.314454
 
 -0.1500000E+00  0.3500000E+00  0.5000000E-01  0.1200000E-01
    1       -4.030100
    2       -0.117224
    3        2.651624
    4        4.378263
    5        8.484213
    6        9.503380
    7       10.703035
    8       12.220593
 
 -0.5000000E-01  0.3500000E+00  0.5000000E-01  0.1200000E-01
    1       -4.558254
    2        0.258631
    3        4.060493
    4        4.697659
    5        8.088889
    6        9.145324
    7        9.761092
    8       12.521938
 
  0.4500000E+00  0.4500000E+00  0.5000000E-01  0.6000000E-02
    1       -3.086554
    2       -0.795090
    3        2.914751
    4        3.066272
    5        6.510350
    6        7.069415
    7       14.629588
    8       14.644176
 
 -0.4500000E+00  0.4500000E+00  0.5000000E-01  0.1200000E-01
    1       -2.340330
    2       -1.589905
    3        2.510258
    4        2.900693
    5        6.838462
    6        7.358986
    7       14.508110
    8       15.268002
 
 -0.3500000E+00  0.4500000E+00  0.5000000E-01  0.1200000E-01
    1       -2.354170
    2       -1.488360
    3        1.791542
    4        3.107553
    5        7.083595
    6        9.014338
    7       13.251017
    8       14.177482
 
 -0.2500000E+00  0.4500000E+00  0.5000000E-01  0.1200000E-01
    1       -2.949146
    2       -1.020225
    3        1.778497
    4        3.518003
    5        7.560238
    6       10.970738
    7       11.437408
    8       12.565822
 
 -0.1500000E+00  0.4500000E+00  0.5000000E-01  0.1200000E-01
    1       -3.458832
    2       -0.978284
    3        2.698414
    4        4.051493
    5        8.153077
    6        9.593689
    7       10.774585
    8       13.497488
 
 -0.5000000E-01  0.4500000E+00  0.5000000E-01  0.1200000E-01
    1       -3.863132
    2       -0.916394
    3        3.962549
    4        4.477261
    5        7.939571
    6        9.072037
    7        9.591999
    8       13.708403
 
 -0.4500000E+00 -0.4500000E+00  0.5000000E-01  0.6000000E-02
    1       -2.374331
    2       -1.606506
    3        2.829270
    4        2.987828
    5        6.543620
    6        6.803109
    7       15.491339
    8       15.555172
 
 -0.3500000E+00 -0.4500000E+00  0.5000000E-01  0.1200000E-01
    1       -3.034286
    2       -0.815842
    3        2.605110
    4        2.995068
    5        6.871673
    6        7.550359
    7       13.623875
    8       14.637815
 
 -0.2500000E+00 -0.4500000E+00  0.5000000E-01  0.1200000E-01
    1       -3.504970
    2       -0.327786
    3        2.317018
    4        3.376263
    5        7.365364
    6        9.363866
    7       11.614819
    8       12.776424
 
 -0.1500000E+00 -0.4500000E+00  0.5000000E-01  0.1200000E-01
    1       -3.775891
    2       -0.523910
    3        2.946054
    4        3.927134
    5        7.992660
    6        9.808119
    7       10.939567
    8       11.642099
 
 -0.3500000E+00 -0.3500000E+00  0.5000000E-01  0.6000000E-02
    1       -3.735983
    2        0.049075
    3        3.085887
    4        3.222475
    5        6.564085
    6        7.481700
    7       13.696879
    8       13.717590
 
 -0.2500000E+00 -0.3500000E+00  0.5000000E-01  0.1200000E-01
    1       -4.244251
    2        0.762716
    3        3.063334
    4        3.482672
    5        7.136751
    6        8.397716
    7       11.934891
    8       12.760349
 
 -0.1500000E+00 -0.3500000E+00  0.5000000E-01  0.1200000E-01
    1       -4.521222
    2        0.771057
    3        3.322040
    4        4.056714
    5        7.940829
    6       10.082766
    7       10.229451
    8       11.135074
 
 -0.2500000E+00 -0.2500000E+00  0.5000000E-01  0.6000000E-02
    1       -4.821105
    2        1.775584
    3        3.681008
    4        3.758858
    5        6.941590
    6        8.682807
    7       11.850160
    8       11.947408
 
 -0.1500000E+00 -0.2500000E+00  0.5000000E-01  0.1200000E-01
    1       -5.166104
    2        2.261548
    3        3.811065
    4        4.382328
    5        7.682100
    6        9.654634
    7       10.446111
    8       10.976431
 
 -0.1500000E+00 -0.1500000E+00  0.5000000E-01  0.6000000E-02
    1       -5.591337
    2        3.445222
    3        4.552399
    4        4.592067
    5        7.596514
    6        9.894983
    7       10.280788
    8       10.380171
 
  0.1500000E+00  0.1500000E+00  0.1500000E+00  0.2000000E-02
    1       -5.852428
    2        3.744857
    3        5.424779
    4        5.424779
    5        8.236001
    6        8.955997
    7        8.955997
    8       10.956395
 
  0.2500000E+00  0.1500000E+00  0.1500000E+00  0.6000000E-02
    1       -5.595023
    2        3.021090
    3        4.285533
    4        5.493000
    5        8.713178
    6        8.975019
    7        9.279914
    8       11.437092
 
  0.3500000E+00  0.1500000E+00  0.1500000E+00  0.6000000E-02
    1       -5.092792
    2        1.807943
    3        3.346889
    4        5.168391
    5        8.789092
    6        9.475524
    7        9.745330
    8       11.603709
 
  0.4500000E+00  0.1500000E+00  0.1500000E+00  0.6000000E-02
    1       -4.393518
    2        0.310414
    3        3.030262
    4        4.726645
    5        8.432603
    6        9.804044
    7        9.831778
    8       12.657546
 
 -0.4500000E+00  0.1500000E+00  0.1500000E+00  0.6000000E-02
    1       -3.694620
    2       -0.839340
    3        3.019228
    4        4.350830
    5        8.118368
    6        9.669777
    7       10.001695
    8       14.070061
 
 -0.3500000E+00  0.1500000E+00  0.1500000E+00  0.6000000E-02
    1       -3.688606
    2       -0.851082
    3        3.229803
    4        4.121560
    5        7.954113
    6        9.674710
    7       10.243083
    8       12.645853
 
 -0.2500000E+00  0.1500000E+00  0.1500000E+00  0.6000000E-02
    1       -4.384959
    2        0.292260
    3        3.619416
    4        4.074920
    5        7.942943
    6        9.822204
    7       10.556765
    8       11.043312
 
 -0.1500000E+00  0.1500000E+00  0.1500000E+00  0.6000000E-02
    1       -5.086513
    2        1.846011
    3        4.127438
    4        4.222156
    5        7.872704
    6        9.808998
    7       10.350575
    8       10.691718
 
  0.2500000E+00  0.2500000E+00  0.1500000E+00  0.6000000E-02
    1       -5.424777
    2        2.471815
    3        4.620488
    4        4.762270
    5        8.188187
    6        9.201011
    7       10.053964
    8       10.957128
 
  0.3500000E+00  0.2500000E+00  0.1500000E+00  0.1200000E-01
    1       -5.005043
    2        1.764572
    3        3.372524
    4        4.666276
    5        8.392396
    6        9.534659
    7       10.359544
    8       10.796263
 
  0.4500000E+00  0.2500000E+00  0.1500000E+00  0.1200000E-01
    1       -4.366189
    2        0.698289
    3        2.549579
    4        4.263123
    5        8.988416
    6        9.271102
    7       10.457964
    8       11.544580
 
 -0.4500000E+00  0.2500000E+00  0.1500000E+00  0.1200000E-01
    1       -3.620890
    2       -0.486721
    3        2.309614
    4        3.860784
    5        8.800666
    6        9.220756
    7       11.639526
    8       11.872756
 
 -0.3500000E+00  0.2500000E+00  0.1500000E+00  0.1200000E-01
    1       -3.285750
    2       -0.953772
    3        2.356160
    4        3.659413
    5        8.476219
    6        9.423411
    7       11.743301
    8       12.489924
 
 -0.2500000E+00  0.2500000E+00  0.1500000E+00  0.1200000E-01
    1       -3.853772
    2       -0.139287
    3        2.571194
    4        3.747768
    5        8.314704
    6        9.772201
    7       10.716626
    8       11.826792
 
 -0.1500000E+00  0.2500000E+00  0.1500000E+00  0.1200000E-01
    1       -4.591150
    2        1.138499
    3        2.986625
    4        4.082124
    5        8.102601
    6        9.620195
    7       10.196774
    8       11.718228
 
  0.3500000E+00  0.3500000E+00  0.1500000E+00  0.6000000E-02
    1       -4.668996
    2        1.215452
    3        3.498405
    4        3.870501
    5        7.536634
    6        9.451628
    7       10.886113
    8       11.366109
 
  0.4500000E+00  0.3500000E+00  0.1500000E+00  0.1200000E-01
    1       -4.103278
    2        0.495964
    3        2.668136
    4        3.541528
    5        7.858022
    6        9.070090
    7       10.855036
    8       12.683460
 
 -0.4500000E+00  0.3500000E+00  0.1500000E+00  0.1200000E-01
    1       -3.371754
    2       -0.388981
    3        2.058948
    4        3.093366
    5        8.581366
    6        9.534946
    7       10.436359
    8       13.620707
 
 -0.3500000E+00  0.3500000E+00  0.1500000E+00  0.1200000E-01
    1       -2.789106
    2       -1.062299
    3        1.751091
    4        2.946239
    5        8.832691
    6        9.929637
    7       11.344220
    8       12.613759
 
 -0.2500000E+00  0.3500000E+00  0.1500000E+00  0.1200000E-01
    1       -3.155831
    2       -0.644761
    3        1.750757
    4        3.176897
    5        9.208350
    6        9.639612
    7       10.695018
    8       13.453110
 
 -0.1500000E+00  0.3500000E+00  0.1500000E+00  0.1200000E-01
    1       -3.898093
    2        0.159469
    3        2.260565
    4        3.651811
    5        8.765432
    6        9.713026
    7       10.011235
    8       12.568704
 
  0.4500000E+00  0.4500000E+00  0.1500000E+00  0.6000000E-02
    1       -3.614562
    2       -0.131338
    3        2.528564
    4        3.354514
    5        6.992616
    6        8.506259
    7       12.710138
    8       12.828028
 
 -0.4500000E+00  0.4500000E+00  0.1500000E+00  0.1200000E-01
    1       -2.935243
    2       -0.867242
    3        2.258618
    4        2.808656
    5        7.553314
    6        8.332680
    7       12.387693
    8       14.608299
 
 -0.3500000E+00  0.4500000E+00  0.1500000E+00  0.1200000E-01
    1       -2.216792
    2       -1.540524
    3        1.916150
    4        2.411974
    5        8.391883
    6        9.157960
    7       11.958814
    8       12.849051
 
 -0.2500000E+00  0.4500000E+00  0.1500000E+00  0.1200000E-01
    1       -2.511846
    2       -1.241216
    3        1.591892
    4        2.743638
    5        8.751500
    6       10.571092
    7       11.298035
    8       11.757113
 
 -0.1500000E+00  0.4500000E+00  0.1500000E+00  0.1200000E-01
    1       -3.191353
    2       -0.800896
    3        2.005941
    4        3.340542
    5        8.990918
    6        9.304306
    7       11.525152
    8       12.717669
 
 -0.4500000E+00 -0.4500000E+00  0.1500000E+00  0.6000000E-02
    1       -2.339305
    2       -1.557228
    3        2.108724
    4        3.126243
    5        6.732758
    6        8.101303
    7       14.384555
    8       14.624380
 
 -0.3500000E+00 -0.4500000E+00  0.1500000E+00  0.1200000E-01
    1       -2.281482
    2       -1.564019
    3        2.174654
    4        2.659379
    5        7.496097
    6        8.179849
    7       13.238954
    8       14.146922
 
 -0.2500000E+00 -0.4500000E+00  0.1500000E+00  0.1200000E-01
    1       -2.801127
    2       -0.959786
    3        1.948605
    4        2.660784
    5        8.455275
    6        9.285503
    7       11.153688
    8       13.788400
 
 -0.3500000E+00 -0.3500000E+00  0.1500000E+00  0.6000000E-02
    1       -2.993736
    2       -0.849388
    3        2.247557
    4        3.202670
    5        6.821303
    6        8.235591
    7       13.620476
    8       13.663310
 
 -0.2500000E+00 -0.3500000E+00  0.1500000E+00  0.1200000E-01
    1       -3.548207
    2       -0.173485
    3        2.424106
    4        3.106618
    5        7.673606
    6        8.632746
    7       11.590980
    8       13.666180
 
 -0.2500000E+00 -0.2500000E+00  0.1500000E+00  0.6000000E-02
    1       -4.176208
    2        0.560183
    3        2.950987
    4        3.578410
    5        7.236084
    6        8.916104
    7       11.778227
    8       12.075116
 
  0.2500000E+00  0.2500000E+00  0.2500000E+00  0.2000000E-02
    1       -5.346227
    2        1.885336
    3        5.049132
    4        5.049132
    5        7.850408
    6        9.340897
    7        9.340897
    8       12.721142
 
  0.3500000E+00  0.2500000E+00  0.2500000E+00  0.6000000E-02
    1       -5.016059
    2        1.321164
    3        3.875870
    4        5.097786
    5        8.386539
    6        9.373098
    7        9.606766
    8       12.249763
 
  0.4500000E+00  0.2500000E+00  0.2500000E+00  0.6000000E-02
    1       -4.454488
    2        0.738022
    3        2.502156
    4        4.727718
    5        8.521325
    6       10.147924
    7       10.389966
    8       11.882494
 
 -0.4500000E+00  0.2500000E+00  0.2500000E+00  0.6000000E-02
    1       -3.726629
    2       -0.161430
    3        1.844122
    4        4.239635
    5        8.020452
    6       10.993214
    7       11.221408
    8       12.498855
 
 -0.3500000E+00  0.2500000E+00  0.2500000E+00  0.6000000E-02
    1       -3.131001
    2       -0.950970
    3        1.870818
    4        3.837823
    5        7.584653
    6       11.295431
    7       11.406048
    8       12.303029
 
 -0.2500000E+00  0.2500000E+00  0.2500000E+00  0.6000000E-02
    1       -3.429190
    2       -0.570148
    3        2.279696
    4        3.606954
    5        7.352137
    6       10.280501
    7       11.571341
    8       11.762615
 
  0.3500000E+00  0.3500000E+00  0.2500000E+00  0.6000000E-02
    1       -4.778230
    2        0.774988
    3        4.319296
    4        4.383923
    5        8.138159
    6        9.217086
    7       10.072772
    8       11.600045
 
  0.4500000E+00  0.3500000E+00  0.2500000E+00  0.1200000E-01
    1       -4.305416
    2        0.309369
    3        2.999514
    4        4.271032
    5        8.570963
    6        9.287202
    7       10.881316
    8       11.191893
 
 -0.4500000E+00  0.3500000E+00  0.2500000E+00  0.1200000E-01
    1       -3.637406
    2       -0.199881
    3        1.902390
    4        3.785746
    5        8.752850
    6        9.797256
    7       11.016324
    8       12.430411
 
 -0.3500000E+00  0.3500000E+00  0.2500000E+00  0.1200000E-01
    1       -2.920194
    2       -0.907177
    3        1.541037
    4        3.321266
    5        8.236509
    6       10.745505
    7       11.826505
    8       12.323875
 
 -0.2500000E+00  0.3500000E+00  0.2500000E+00  0.1200000E-01
    1       -2.843445
    2       -1.000229
    3        1.811572
    4        3.061259
    5        7.895073
    6       10.121469
    7       11.222616
    8       13.648137
 
  0.4500000E+00  0.4500000E+00  0.2500000E+00  0.6000000E-02
    1       -3.929773
    2       -0.149658
    3        2.910810
    4        3.811903
    5        7.630643
    6       10.556344
    7       10.706244
    8       11.121264
 
 -0.4500000E+00  0.4500000E+00  0.2500000E+00  0.1200000E-01
    1       -3.356340
    2       -0.570629
    3        2.157310
    4        3.330089
    5        8.070275
    6       10.216703
    7       10.602287
    8       12.759658
 
 -0.3500000E+00  0.4500000E+00  0.2500000E+00  0.1200000E-01
    1       -2.651416
    2       -1.091443
    3        1.714406
    4        2.636560
    5        9.457099
    6        9.833922
    7       10.535758
    8       12.524889
 
 -0.2500000E+00  0.4500000E+00  0.2500000E+00  0.1200000E-01
    1       -2.173223
    2       -1.528095
    3        1.779739
    4        2.261042
    5        9.414334
    6       10.130966
    7       10.841656
    8       11.614499
 
 -0.4500000E+00 -0.4500000E+00  0.2500000E+00  0.6000000E-02
    1       -2.916695
    2       -0.986100
    3        1.802555
    4        3.466348
    5        7.151197
    6       10.073747
    7       12.466984
    8       12.505383
 
 -0.3500000E+00 -0.4500000E+00  0.2500000E+00  0.1200000E-01
    1       -2.408301
    2       -1.380607
    3        1.613373
    4        2.932949
    5        7.805259
    6       10.030743
    7       12.002793
    8       12.942781
 
 -0.3500000E+00 -0.3500000E+00  0.2500000E+00  0.6000000E-02
    1       -2.494461
    2       -1.345822
    3        1.546112
    4        3.395521
    5        7.048073
    6        9.972222
    7       13.149131
    8       13.456150
 
  0.3500000E+00  0.3500000E+00  0.3500000E+00  0.2000000E-02
    1       -4.643734
    2        0.223682
    3        4.770857
    4        4.770857
    5        7.540981
    6        9.326876
    7        9.326876
    8       13.703369
 
  0.4500000E+00  0.3500000E+00  0.3500000E+00  0.6000000E-02
    1       -4.277640
    2       -0.193057
    3        3.712309
    4        4.716534
    5        8.121271
    6        9.404881
    7        9.492619
    8       13.455625
 
 -0.4500000E+00  0.3500000E+00  0.3500000E+00  0.6000000E-02
    1       -3.709729
    2       -0.481847
    3        2.329271
    4        4.278738
    5        8.070832
    6       10.427640
    7       10.515356
    8       13.342549
 
 -0.3500000E+00  0.3500000E+00  0.3500000E+00  0.6000000E-02
    1       -3.010266
    2       -0.867978
    3        1.476965
    4        3.777670
    5        7.492886
    6       11.855544
    7       12.001456
    8       12.554410
 
  0.4500000E+00  0.4500000E+00  0.3500000E+00  0.6000000E-02
    1       -4.033992
    2       -0.598030
    3        3.961739
    4        4.326819
    5        8.000228
    6        9.152376
    7        9.811404
    8       12.960425
 
 -0.4500000E+00  0.4500000E+00  0.3500000E+00  0.1200000E-01
    1       -3.606506
    2       -0.818148
    3        2.866366
    4        4.012374
    5        8.598573
    6        8.987999
    7       10.866959
    8       12.749962
 
 -0.3500000E+00  0.4500000E+00  0.3500000E+00  0.1200000E-01
    1       -3.044100
    2       -0.962252
    3        1.863962
    4        3.430510
    5        8.320213
    6       10.064797
    7       12.273925
    8       12.589953
 
 -0.4500000E+00 -0.4500000E+00  0.3500000E+00  0.6000000E-02
    1       -3.369176
    2       -0.969864
    3        2.499749
    4        3.954768
    5        7.755037
    6       10.462766
    7       10.784689
    8       12.417424
 
  0.4500000E+00  0.4500000E+00  0.4500000E+00  0.2000000E-02
    1       -3.950028
    2       -0.960313
    3        4.627801
    4        4.627801
    5        7.376606
    6        9.203705
    7        9.203705
    8       13.567924
 
 -0.4500000E+00  0.4500000E+00  0.4500000E+00  0.6000000E-02
    1       -3.715741
    2       -1.074830
    3        3.748710
    4        4.444605
    5        7.983648
    6        9.195142
    7        9.589650
    8       13.943131
