       N       E                     dE             d eps       ncg     rms          rms(c)
DAV:   1     0.523662322176E+00    0.52366E+00   -0.22532E+03  1784   0.432E+02
DAV:   2    -0.108804607990E+02   -0.11404E+02   -0.11168E+02  2824   0.609E+01
DAV:   3    -0.110080974236E+02   -0.12764E+00   -0.12764E+00  2072   0.806E+00
DAV:   4    -0.110085138326E+02   -0.41641E-03   -0.41641E-03  2920   0.501E-01
DAV:   5    -0.110085140362E+02   -0.20366E-06   -0.20366E-06  2136   0.849E-03    0.300E+00
DAV:   6    -0.108890266605E+02    0.11949E+00   -0.83839E-02  2096   0.150E+00    0.179E+00
DAV:   7    -0.108334349566E+02    0.55592E-01   -0.15959E-01  2232   0.217E+00    0.156E-01
DAV:   8    -0.108343367046E+02   -0.90175E-03   -0.39019E-03  2056   0.450E-01    0.268E-02
DAV:   9    -0.108343759421E+02   -0.39237E-04   -0.93081E-05  2512   0.733E-02
   1 F= -.10834376E+02 E0= -.10834376E+02  d E =0.000000E+00
 imaginary and real dielectric function
