   5   5   0   0
  0.3786540E+02  0.3160000E-09  0.3160000E-09  0.1896000E-08  0.5000000E-15
  1.000000000000000E-004
  CAR 
 unknown system                          
      5.21820208    -10.03361859  301      0.69219900      1.00000000
    -10.034  0.0000E+00  0.0000E+00
     -9.983  0.0000E+00  0.0000E+00
     -9.932  0.0000E+00  0.0000E+00
     -9.881  0.0000E+00  0.0000E+00
     -9.830  0.0000E+00  0.0000E+00
     -9.779  0.0000E+00  0.0000E+00
     -9.729  0.0000E+00  0.0000E+00
     -9.678  0.0000E+00  0.0000E+00
     -9.627  0.0000E+00  0.0000E+00
     -9.576  0.0000E+00  0.0000E+00
     -9.525  0.0000E+00  0.0000E+00
     -9.474  0.0000E+00  0.0000E+00
     -9.424  0.0000E+00  0.0000E+00
     -9.373  0.0000E+00  0.0000E+00
     -9.322  0.0000E+00  0.0000E+00
     -9.271  0.0000E+00  0.0000E+00
     -9.220  0.0000E+00  0.0000E+00
     -9.169  0.0000E+00  0.0000E+00
     -9.119  0.0000E+00  0.0000E+00
     -9.068  0.0000E+00  0.0000E+00
     -9.017  0.0000E+00  0.0000E+00
     -8.966  0.0000E+00  0.0000E+00
     -8.915  0.0000E+00  0.0000E+00
     -8.864  0.0000E+00  0.0000E+00
     -8.813  0.0000E+00  0.0000E+00
     -8.763  0.0000E+00  0.0000E+00
     -8.712  0.0000E+00  0.0000E+00
     -8.661  0.0000E+00  0.0000E+00
     -8.610  0.0000E+00  0.0000E+00
     -8.559  0.0000E+00  0.0000E+00
     -8.508  0.0000E+00  0.0000E+00
     -8.458  0.0000E+00  0.0000E+00
     -8.407  0.0000E+00  0.0000E+00
     -8.356  0.0000E+00  0.0000E+00
     -8.305  0.0000E+00  0.0000E+00
     -8.254  0.0000E+00  0.0000E+00
     -8.203  0.0000E+00  0.0000E+00
     -8.153  0.0000E+00  0.0000E+00
     -8.102  0.0000E+00  0.0000E+00
     -8.051  0.0000E+00  0.0000E+00
     -8.000  0.2163E+00  0.3631E-02
     -7.949  0.2995E+00  0.1946E-01
     -7.898  0.2608E+00  0.3278E-01
     -7.848  0.2987E+00  0.4701E-01
     -7.797  0.3090E+00  0.6293E-01
     -7.746  0.2751E+00  0.7750E-01
     -7.695  0.2839E+00  0.9171E-01
     -7.644  0.2927E+00  0.1064E+00
     -7.593  0.3019E+00  0.1215E+00
     -7.542  0.3150E+00  0.1372E+00
     -7.492  0.2945E+00  0.1527E+00
     -7.441  0.2969E+00  0.1677E+00
     -7.390  0.2994E+00  0.1829E+00
     -7.339  0.3018E+00  0.1982E+00
     -7.288  0.3100E+00  0.2137E+00
     -7.237  0.3176E+00  0.2297E+00
     -7.187  0.3247E+00  0.2460E+00
     -7.136  0.3139E+00  0.2623E+00
     -7.085  0.3149E+00  0.2783E+00
     -7.034  0.3180E+00  0.2943E+00
     -6.983  0.3213E+00  0.3106E+00
     -6.932  0.3262E+00  0.3270E+00
     -6.882  0.3310E+00  0.3437E+00
     -6.831  0.3358E+00  0.3607E+00
     -6.780  0.3406E+00  0.3779E+00
     -6.729  0.3420E+00  0.3953E+00
     -6.678  0.3431E+00  0.4126E+00
     -6.627  0.3464E+00  0.4302E+00
     -6.577  0.3497E+00  0.4479E+00
     -6.526  0.3536E+00  0.4657E+00
     -6.475  0.3576E+00  0.4838E+00
     -6.424  0.3617E+00  0.5021E+00
     -6.373  0.3683E+00  0.5206E+00
     -6.322  0.3749E+00  0.5395E+00
     -6.272  0.3803E+00  0.5587E+00
     -6.221  0.3851E+00  0.5782E+00
     -6.170  0.3901E+00  0.5979E+00
     -6.119  0.7325E+00  0.6227E+00
     -6.068  0.7483E+00  0.6639E+00
     -6.017  0.8094E+00  0.7031E+00
     -5.966  0.8291E+00  0.7456E+00
     -5.916  0.8180E+00  0.7869E+00
     -5.865  0.8467E+00  0.8292E+00
     -5.814  0.8750E+00  0.8730E+00
     -5.763  0.8811E+00  0.9177E+00
     -5.712  0.9071E+00  0.9631E+00
     -5.661  0.9392E+00  0.1010E+01
     -5.611  0.9654E+00  0.1059E+01
     -5.560  0.9949E+00  0.1108E+01
     -5.509  0.1026E+01  0.1160E+01
     -5.458  0.1057E+01  0.1213E+01
     -5.407  0.1083E+01  0.1267E+01
     -5.356  0.1167E+01  0.1324E+01
     -5.306  0.1277E+01  0.1386E+01
     -5.255  0.1349E+01  0.1453E+01
     -5.204  0.1484E+01  0.1524E+01
     -5.153  0.1643E+01  0.1604E+01
     -5.102  0.2390E+01  0.1698E+01
     -5.051  0.3467E+01  0.1864E+01
     -5.001  0.2260E+01  0.2008E+01
     -4.950  0.2051E+01  0.2115E+01
     -4.899  0.1952E+01  0.2217E+01
     -4.848  0.1771E+01  0.2313E+01
     -4.797  0.1890E+01  0.2400E+01
     -4.746  0.2524E+01  0.2520E+01
     -4.695  0.3898E+01  0.2680E+01
     -4.645  0.2467E+01  0.2823E+01
     -4.594  0.2863E+01  0.2966E+01
     -4.543  0.2552E+01  0.3102E+01
     -4.492  0.2968E+01  0.3248E+01
     -4.441  0.4406E+01  0.3434E+01
     -4.390  0.4781E+01  0.3667E+01
     -4.340  0.5181E+01  0.3925E+01
     -4.289  0.3564E+01  0.4147E+01
     -4.238  0.3322E+01  0.4322E+01
     -4.187  0.3400E+01  0.4489E+01
     -4.136  0.3126E+01  0.4656E+01
     -4.085  0.3094E+01  0.4813E+01
     -4.035  0.2762E+01  0.4962E+01
     -3.984  0.3162E+01  0.5110E+01
     -3.933  0.3047E+01  0.5263E+01
     -3.882  0.3069E+01  0.5419E+01
     -3.831  0.3193E+01  0.5578E+01
     -3.780  0.3413E+01  0.5747E+01
     -3.730  0.2486E+01  0.5886E+01
     -3.679  0.2424E+01  0.6010E+01
     -3.628  0.2414E+01  0.6133E+01
     -3.577  0.2304E+01  0.6253E+01
     -3.526  0.4374E+01  0.6428E+01
     -3.475  0.5582E+01  0.6678E+01
     -3.424  0.8533E+01  0.7061E+01
     -3.374  0.8772E+01  0.7497E+01
     -3.323  0.7767E+01  0.7943E+01
     -3.272  0.7474E+01  0.8343E+01
     -3.221  0.7459E+01  0.8879E+01
     -3.170  0.4776E+01  0.9155E+01
     -3.119  0.6969E+01  0.9425E+01
     -3.069  0.5079E+01  0.9706E+01
     -3.018  0.4127E+01  0.9940E+01
     -2.967  0.4176E+01  0.1015E+02
     -2.916  0.4079E+01  0.1036E+02
     -2.865  0.3729E+01  0.1054E+02
     -2.814  0.3348E+01  0.1073E+02
     -2.764  0.2404E+01  0.1086E+02
     -2.713  0.2430E+01  0.1100E+02
     -2.662  0.2192E+01  0.1111E+02
     -2.611  0.2450E+01  0.1123E+02
     -2.560  0.2297E+01  0.1135E+02
     -2.509  0.3149E+01  0.1148E+02
     -2.459  0.2803E+01  0.1166E+02
     -2.408  0.6825E+01  0.1189E+02
     -2.357  0.1355E+02  0.1233E+02
     -2.306  0.8050E+01  0.1285E+02
     -2.255  0.6274E+01  0.1324E+02
     -2.204  0.7362E+01  0.1359E+02
     -2.154  0.9470E+01  0.1396E+02
     -2.103  0.7513E+01  0.1442E+02
     -2.052  0.6777E+01  0.1479E+02
     -2.001  0.5023E+01  0.1506E+02
     -1.950  0.4551E+01  0.1528E+02
     -1.899  0.5102E+01  0.1555E+02
     -1.848  0.6456E+01  0.1584E+02
     -1.798  0.4456E+01  0.1612E+02
     -1.747  0.6026E+01  0.1641E+02
     -1.696  0.8044E+01  0.1676E+02
     -1.645  0.6242E+01  0.1715E+02
     -1.594  0.6964E+01  0.1751E+02
     -1.543  0.7659E+01  0.1788E+02
     -1.493  0.8187E+01  0.1828E+02
     -1.442  0.6206E+01  0.1867E+02
     -1.391  0.8006E+01  0.1902E+02
     -1.340  0.5272E+01  0.1939E+02
     -1.289  0.4270E+01  0.1961E+02
     -1.238  0.4602E+01  0.1983E+02
     -1.188  0.6046E+01  0.2010E+02
     -1.137  0.6542E+01  0.2040E+02
     -1.086  0.6168E+01  0.2073E+02
     -1.035  0.5691E+01  0.2103E+02
     -0.984  0.5537E+01  0.2131E+02
     -0.933  0.5833E+01  0.2160E+02
     -0.883  0.6366E+01  0.2191E+02
     -0.832  0.5847E+01  0.2222E+02
     -0.781  0.5140E+01  0.2250E+02
     -0.730  0.5638E+01  0.2277E+02
     -0.679  0.4987E+01  0.2305E+02
     -0.628  0.4832E+01  0.2330E+02
     -0.577  0.5311E+01  0.2355E+02
     -0.527  0.5026E+01  0.2382E+02
     -0.476  0.4612E+01  0.2407E+02
     -0.425  0.3797E+01  0.2430E+02
     -0.374  0.3038E+01  0.2446E+02
     -0.323  0.3062E+01  0.2461E+02
     -0.272  0.4043E+01  0.2479E+02
     -0.222  0.4107E+01  0.2502E+02
     -0.171  0.3716E+01  0.2520E+02
     -0.120  0.4472E+01  0.2541E+02
     -0.069  0.4507E+01  0.2565E+02
     -0.018  0.5453E+01  0.2587E+02
      0.033  0.3947E+01  0.2615E+02
      0.083  0.4787E+01  0.2637E+02
      0.134  0.4099E+01  0.2660E+02
      0.185  0.5437E+01  0.2682E+02
      0.236  0.8002E+01  0.2719E+02
      0.287  0.8004E+01  0.2759E+02
      0.338  0.8060E+01  0.2798E+02
      0.388  0.4556E+01  0.2828E+02
      0.439  0.3011E+01  0.2846E+02
      0.490  0.3054E+01  0.2865E+02
      0.541  0.4965E+01  0.2885E+02
      0.592  0.6688E+01  0.2916E+02
      0.643  0.8522E+01  0.2964E+02
      0.693  0.6190E+01  0.3001E+02
      0.744  0.6298E+01  0.3033E+02
      0.795  0.5672E+01  0.3063E+02
      0.846  0.6802E+01  0.3094E+02
      0.897  0.4785E+01  0.3123E+02
      0.948  0.5477E+01  0.3148E+02
      0.999  0.4487E+01  0.3174E+02
      1.049  0.4052E+01  0.3196E+02
      1.100  0.3573E+01  0.3215E+02
      1.151  0.3459E+01  0.3232E+02
      1.202  0.3629E+01  0.3250E+02
      1.253  0.3642E+01  0.3269E+02
      1.304  0.2998E+01  0.3288E+02
      1.354  0.3872E+01  0.3305E+02
      1.405  0.3362E+01  0.3325E+02
      1.456  0.2957E+01  0.3341E+02
      1.507  0.3797E+01  0.3357E+02
      1.558  0.7685E+01  0.3383E+02
      1.609  0.5115E+01  0.3419E+02
      1.659  0.7427E+01  0.3453E+02
      1.710  0.5427E+01  0.3484E+02
      1.761  0.4541E+01  0.3509E+02
      1.812  0.4329E+01  0.3532E+02
      1.863  0.3620E+01  0.3552E+02
      1.914  0.3574E+01  0.3570E+02
      1.964  0.4336E+01  0.3589E+02
      2.015  0.5483E+01  0.3616E+02
      2.066  0.6212E+01  0.3646E+02
      2.117  0.4475E+01  0.3685E+02
      2.168  0.2969E+01  0.3702E+02
      2.219  0.2427E+01  0.3716E+02
      2.270  0.2085E+01  0.3727E+02
      2.320  0.2130E+01  0.3737E+02
      2.371  0.2337E+01  0.3749E+02
      2.422  0.2571E+01  0.3762E+02
      2.473  0.2090E+01  0.3774E+02
      2.524  0.1442E+01  0.3783E+02
      2.575  0.7221E+00  0.3788E+02
      2.625  0.3800E+00  0.3792E+02
      2.676  0.3127E+00  0.3793E+02
      2.727  0.2456E+00  0.3795E+02
      2.778  0.1699E+00  0.3796E+02
      2.829  0.1557E+00  0.3797E+02
      2.880  0.1415E+00  0.3798E+02
      2.930  0.1272E+00  0.3798E+02
      2.981  0.1009E+00  0.3799E+02
      3.032  0.7905E-01  0.3799E+02
      3.083  0.5725E-01  0.3800E+02
      3.134  0.3544E-01  0.3800E+02
      3.185  0.1363E-01  0.3800E+02
      3.235  0.0000E+00  0.3800E+02
      3.286  0.0000E+00  0.3800E+02
      3.337  0.0000E+00  0.3800E+02
      3.388  0.0000E+00  0.3800E+02
      3.439  0.0000E+00  0.3800E+02
      3.490  0.0000E+00  0.3800E+02
      3.541  0.0000E+00  0.3800E+02
      3.591  0.0000E+00  0.3800E+02
      3.642  0.0000E+00  0.3800E+02
      3.693  0.0000E+00  0.3800E+02
      3.744  0.0000E+00  0.3800E+02
      3.795  0.0000E+00  0.3800E+02
      3.846  0.0000E+00  0.3800E+02
      3.896  0.0000E+00  0.3800E+02
      3.947  0.0000E+00  0.3800E+02
      3.998  0.0000E+00  0.3800E+02
      4.049  0.0000E+00  0.3800E+02
      4.100  0.0000E+00  0.3800E+02
      4.151  0.0000E+00  0.3800E+02
      4.201  0.0000E+00  0.3800E+02
      4.252  0.0000E+00  0.3800E+02
      4.303  0.0000E+00  0.3800E+02
      4.354  0.0000E+00  0.3800E+02
      4.405  0.0000E+00  0.3800E+02
      4.456  0.0000E+00  0.3800E+02
      4.506  0.0000E+00  0.3800E+02
      4.557  0.0000E+00  0.3800E+02
      4.608  0.0000E+00  0.3800E+02
      4.659  0.0000E+00  0.3800E+02
      4.710  0.0000E+00  0.3800E+02
      4.761  0.0000E+00  0.3800E+02
      4.811  0.0000E+00  0.3800E+02
      4.862  0.0000E+00  0.3800E+02
      4.913  0.0000E+00  0.3800E+02
      4.964  0.0000E+00  0.3800E+02
      5.015  0.0000E+00  0.3800E+02
      5.066  0.0000E+00  0.3800E+02
      5.117  0.0000E+00  0.3800E+02
      5.167  0.0000E+00  0.3800E+02
      5.218  0.0000E+00  0.3800E+02
