    5    5    1    1
  0.3786540E+02  0.3160000E-09  0.3160000E-09  0.1896000E-08  0.5000000E-15
  1.000000000000000E-004
  CAR 
 unknown system                          
     30    198     19
 
  0.0000000E+00  0.0000000E+00  0.0000000E+00  0.6250000E-03
    1       -8.033614   1.000000
    2       -6.147605   1.000000
    3       -4.639518   1.000000
    4       -4.544017   1.000000
    5       -4.017162   1.000000
    6       -3.365042   1.000000
    7       -3.356916   1.000000
    8       -1.652412   1.000000
    9       -0.455083   1.000000
   10       -0.455083   1.000000
   11       -0.111166   1.000000
   12       -0.022691   1.000000
   13       -0.022691   1.000000
   14        0.344920   1.000000
   15        0.404712   1.000000
   16        0.464149   1.000000
   17        0.825757   0.004770
   18        0.825760   0.000000
   19        1.043860   0.000000
 
  0.5000000E-01  0.0000000E+00  0.0000000E+00  0.2500000E-02
    1       -7.977879   1.000000
    2       -6.106493   1.000000
    3       -4.601408   1.000000
    4       -4.509391   1.000000
    5       -3.991717   1.000000
    6       -3.370473   1.000000
    7       -3.296554   1.000000
    8       -1.671046   1.000000
    9       -0.522217   1.000000
   10       -0.503212   1.000000
   11       -0.365301   1.000000
   12        0.021849   1.000000
   13        0.177666   1.000000
   14        0.209739   1.000000
   15        0.468696   1.000000
   16        0.477063   1.000000
   17        0.574027   1.051660
   18        1.036582   0.000000
   19        1.318715   0.000000
 
  0.1000000E+00  0.0000000E+00  0.0000000E+00  0.2500000E-02
    1       -7.812915   1.000000
    2       -5.988318   1.000000
    3       -4.517635   1.000000
    4       -4.384907   1.000000
    5       -3.925426   1.000000
    6       -3.399572   1.000000
    7       -3.106323   1.000000
    8       -1.685022   1.000000
    9       -0.677081   1.000000
   10       -0.668102   1.000000
   11       -0.662914   1.000000
   12        0.023321   1.000000
   13        0.079956   1.000000
   14        0.299394   1.000000
   15        0.329771   1.000000
   16        0.554845   1.021693
   17        0.651386   0.517652
   18        1.403230   0.000000
   19        1.658784   0.000000
 
  0.1500000E+00  0.0000000E+00  0.0000000E+00  0.2500000E-02
    1       -7.545659   1.000000
    2       -5.809048   1.000000
    3       -4.427044   1.000000
    4       -4.169059   1.000000
    5       -3.834918   1.000000
    6       -3.447634   1.000000
    7       -2.800012   1.000000
    8       -1.607756   1.000000
    9       -0.988114   1.000000
   10       -0.927861   1.000000
   11       -0.805198   1.000000
   12       -0.098023   1.000000
   13        0.026212   1.000000
   14        0.187592   1.000000
   15        0.233983   1.000000
   16        0.756340   0.304013
   17        0.894521  -0.024565
   18        1.562104   0.000000
   19        1.811104   0.000000
 
  0.2000000E+00  0.0000000E+00  0.0000000E+00  0.2500000E-02
    1       -7.188135   1.000000
    2       -5.596307   1.000000
    3       -4.357541   1.000000
    4       -3.930654   1.000000
    5       -3.687514   1.000000
    6       -3.506268   1.000000
    7       -2.396974   1.000000
    8       -1.371331   1.000000
    9       -1.283491   1.000000
   10       -1.238759   1.000000
   11       -0.874065   1.000000
   12       -0.147808   1.000000
   13       -0.128843   1.000000
   14        0.015387   1.000000
   15        0.092603   1.000000
   16        1.032910  -0.049486
   17        1.167086   0.000000
   18        1.500698   0.000000
   19        1.878742   0.000000
 
  0.2500000E+00  0.0000000E+00  0.0000000E+00  0.2500000E-02
    1       -6.758557   1.000000
    2       -5.388476   1.000000
    3       -4.350019   1.000000
    4       -3.741988   1.000000
    5       -3.556087   1.000000
    6       -3.417130   1.000000
    7       -1.931369   1.000000
    8       -1.552292   1.000000
    9       -1.542843   1.000000
   10       -0.963002   1.000000
   11       -0.842348   1.000000
   12       -0.320273   1.000000
   13       -0.249194   1.000000
   14       -0.132296   1.000000
   15       -0.010271   1.000000
   16        1.294618   0.000000
   17        1.404502   0.000000
   18        1.415017   0.000000
   19        1.850116   0.000000
 
  0.3000000E+00  0.0000000E+00  0.0000000E+00  0.2500000E-02
    1       -6.283454   1.000000
    2       -5.225848   1.000000
    3       -4.400452   1.000000
    4       -3.573831   1.000000
    5       -3.563754   1.000000
    6       -3.100772   1.000000
    7       -1.811755   1.000000
    8       -1.785601   1.000000
    9       -1.462180   1.000000
   10       -0.693917   1.000000
   11       -0.503896   1.000000
   12       -0.494210   1.000000
   13       -0.419308   1.000000
   14       -0.137453   1.000000
   15       -0.070358   1.000000
   16        1.266490   0.000000
   17        1.315200   0.000000
   18        1.410052   0.000000
   19        1.833164   0.000000
 
  0.3500000E+00  0.0000000E+00  0.0000000E+00  0.2500000E-02
    1       -5.803045   1.000000
    2       -5.130517   1.000000
    3       -4.462474   1.000000
    4       -3.551150   1.000000
    5       -3.418852   1.000000
    6       -2.787284   1.000000
    7       -2.030789   1.000000
    8       -1.975853   1.000000
    9       -1.068234   1.000000
   10       -0.692979   1.000000
   11       -0.681930   1.000000
   12       -0.446455   1.000000
   13       -0.273282   1.000000
   14        0.006223   1.000000
   15        0.168163   1.000000
   16        1.086165   0.000000
   17        1.138748   0.000000
   18        1.333963   0.000000
   19        1.948365   0.000000
 
  0.4000000E+00  0.0000000E+00  0.0000000E+00  0.2500000E-02
    1       -5.383454   1.000000
    2       -5.092844   1.000000
    3       -4.484633   1.000000
    4       -3.505237   1.000000
    5       -3.367463   1.000000
    6       -2.455920   1.000000
    7       -2.191741   1.000000
    8       -2.116701   1.000000
    9       -0.919042   1.000000
   10       -0.836114   1.000000
   11       -0.786346   1.000000
   12       -0.391519   1.000000
   13       -0.263634   1.000000
   14        0.148663   1.000000
   15        0.543323   1.000000
   16        0.921196   0.000000
   17        1.260985   0.000000
   18        1.397269   0.000000
   19        2.038694   0.000000
 
  0.4500000E+00  0.0000000E+00  0.0000000E+00  0.2500000E-02
    1       -5.121282   1.000000
    2       -5.085385   1.000000
    3       -4.425355   1.000000
    4       -3.464174   1.000000
    5       -3.408340   1.000000
    6       -2.289934   1.000000
    7       -2.203276   1.000000
    8       -2.088965   1.000000
    9       -1.247781   1.000000
   10       -0.921567   1.000000
   11       -0.609996   1.000000
   12       -0.470758   1.000000
   13       -0.255992   1.000000
   14        0.379472   1.000000
   15        0.601903   1.000000
   16        0.808583   0.000000
   17        1.495714   0.000000
   18        1.713006   0.000000
   19        2.086933   0.000000
 
  0.5000000E+00  0.0000000E+00  0.0000000E+00  0.1250000E-02
    1       -5.085578   1.000000
    2       -5.046548   1.000000
    3       -4.364881   1.000000
    4       -3.448684   1.000000
    5       -3.448229   1.000000
    6       -2.322928   1.000000
    7       -2.232497   1.000000
    8       -1.788952   1.000000
    9       -1.540892   1.000000
   10       -0.949887   1.000000
   11       -0.548192   1.000000
   12       -0.498507   1.000000
   13       -0.271489   1.000000
   14        0.488572   1.000000
   15        0.607548   1.000000
   16        0.768876   0.000000
   17        1.520064   0.000000
   18        1.951498   0.000000
   19        2.146941   0.000000
 
  0.5000000E-01  0.5000000E-01  0.0000000E+00  0.2500000E-02
    1       -7.922359   1.000000
    2       -6.064705   1.000000
    3       -4.557796   1.000000
    4       -4.479829   1.000000
    5       -3.964245   1.000000
    6       -3.307496   1.000000
    7       -3.304836   1.000000
    8       -1.695249   1.000000
    9       -0.630575   1.000000
   10       -0.516401   1.000000
   11       -0.466613   1.000000
   12        0.020423   1.000000
   13        0.101673   1.000000
   14        0.276695   1.000000
   15        0.411102   1.000000
   16        0.458660   1.000000
   17        0.734835   0.207836
   18        1.017736   0.000000
   19        1.495333   0.000000
 
  0.1000000E+00  0.5000000E-01  0.0000000E+00  0.5000000E-02
    1       -7.758105   1.000000
    2       -5.944524   1.000000
    3       -4.464631   1.000000
    4       -4.363203   1.000000
    5       -3.892525   1.000000
    6       -3.336000   1.000000
    7       -3.116059   1.000000
    8       -1.725260   1.000000
    9       -0.794262   1.000000
   10       -0.706621   1.000000
   11       -0.691597   1.000000
   12       -0.017716   1.000000
   13        0.059475   1.000000
   14        0.347134   1.000000
   15        0.363414   1.000000
   16        0.460110   1.020641
   17        0.769677   0.016574
   18        1.357334   0.000000
   19        1.675045   0.000000
 
  0.1500000E+00  0.5000000E-01  0.0000000E+00  0.5000000E-02
    1       -7.492094   1.000000
    2       -5.761999   1.000000
    3       -4.373098   1.000000
    4       -4.144002   1.000000
    5       -3.797127   1.000000
    6       -3.385186   1.000000
    7       -2.810595   1.000000
    8       -1.677394   1.000000
    9       -1.011608   1.000000
   10       -0.977244   1.000000
   11       -0.895380   1.000000
   12       -0.076526   1.000000
   13       -0.074957   1.000000
   14        0.237896   1.000000
   15        0.293155   1.000000
   16        0.620967   0.824338
   17        0.957988  -0.014947
   18        1.605294   0.000000
   19        1.727559   0.000000
 
  0.2000000E+00  0.5000000E-01  0.0000000E+00  0.5000000E-02
    1       -7.136396   1.000000
    2       -5.545091   1.000000
    3       -4.302448   1.000000
    4       -3.892666   1.000000
    5       -3.657278   1.000000
    6       -3.445683   1.000000
    7       -2.409859   1.000000
    8       -1.535725   1.000000
    9       -1.306892   1.000000
   10       -1.180252   1.000000
   11       -0.972895   1.000000
   12       -0.342641   1.000000
   13       -0.106455   1.000000
   14        0.110749   1.000000
   15        0.170599   1.000000
   16        0.846711  -0.050996
   17        1.218441   0.000000
   18        1.605480   0.000000
   19        1.660707   0.000000
 
  0.2500000E+00  0.5000000E-01  0.0000000E+00  0.5000000E-02
    1       -6.709245   1.000000
    2       -5.333007   1.000000
    3       -4.293323   1.000000
    4       -3.690220   1.000000
    5       -3.497888   1.000000
    6       -3.402940   1.000000
    7       -1.956507   1.000000
    8       -1.615675   1.000000
    9       -1.585366   1.000000
   10       -0.968636   1.000000
   11       -0.942040   1.000000
   12       -0.612752   1.000000
   13       -0.098019   1.000000
   14       -0.038582   1.000000
   15       -0.000616   1.000000
   16        1.004247  -0.002835
   17        1.464772   0.000000
   18        1.568460   0.000000
   19        1.634752   0.000000
 
  0.3000000E+00  0.5000000E-01  0.0000000E+00  0.5000000E-02
    1       -6.236896   1.000000
    2       -5.167217   1.000000
    3       -4.343815   1.000000
    4       -3.518234   1.000000
    5       -3.507280   1.000000
    6       -3.102563   1.000000
    7       -1.870437   1.000000
    8       -1.820202   1.000000
    9       -1.464308   1.000000
   10       -0.844271   1.000000
   11       -0.782917   1.000000
   12       -0.453786   1.000000
   13       -0.239194   1.000000
   14       -0.184392   1.000000
   15       -0.026288   1.000000
   16        0.975884  -0.009697
   17        1.385166   0.000000
   18        1.667582   0.000000
   19        1.799551   0.000000
 
  0.3500000E+00  0.5000000E-01  0.0000000E+00  0.5000000E-02
    1       -5.758547   1.000000
    2       -5.070526   1.000000
    3       -4.408114   1.000000
    4       -3.498577   1.000000
    5       -3.364801   1.000000
    6       -2.810784   1.000000
    7       -2.068940   1.000000
    8       -1.999346   1.000000
    9       -1.098820   1.000000
   10       -1.011484   1.000000
   11       -0.498704   1.000000
   12       -0.420988   1.000000
   13       -0.378213   1.000000
   14        0.051716   1.000000
   15        0.127351   1.000000
   16        0.870539  -0.020130
   17        1.285544   0.000000
   18        1.376675   0.000000
   19        1.966865   0.000000
 
  0.4000000E+00  0.5000000E-01  0.0000000E+00  0.5000000E-02
    1       -5.337737   1.000000
    2       -5.032802   1.000000
    3       -4.435324   1.000000
    4       -3.456389   1.000000
    5       -3.329080   1.000000
    6       -2.504472   1.000000
    7       -2.218954   1.000000
    8       -2.126988   1.000000
    9       -1.169858   1.000000
   10       -0.843614   1.000000
   11       -0.601360   1.000000
   12       -0.583563   1.000000
   13       -0.130820   1.000000
   14        0.108418   1.000000
   15        0.542515   1.016681
   16        0.869235  -0.011867
   17        1.289254   0.000000
   18        1.317951   0.000000
   19        2.052780   0.000000
 
  0.4500000E+00  0.5000000E-01  0.0000000E+00  0.5000000E-02
    1       -5.069503   1.000000
    2       -5.025679   1.000000
    3       -4.382908   1.000000
    4       -3.418833   1.000000
    5       -3.390564   1.000000
    6       -2.310486   1.000000
    7       -2.265015   1.000000
    8       -2.099806   1.000000
    9       -1.397344   1.000000
   10       -0.767766   1.000000
   11       -0.746078   1.000000
   12       -0.618539   1.000000
   13        0.017970   1.000000
   14        0.261645   1.000000
   15        0.637147   0.965674
   16        0.849052   0.000000
   17        1.302495   0.000000
   18        1.654493   0.000000
   19        2.098184   0.000000
 
  0.5000000E+00  0.5000000E-01  0.0000000E+00  0.2500000E-02
    1       -5.026036   1.000000
    2       -4.991390   1.000000
    3       -4.324479   1.000000
    4       -3.440992   1.000000
    5       -3.404364   1.000000
    6       -2.341153   1.000000
    7       -2.266325   1.000000
    8       -1.842547   1.000000
    9       -1.642992   1.000000
   10       -0.801070   1.000000
   11       -0.793183   1.000000
   12       -0.571312   1.000000
   13        0.020736   1.000000
   14        0.380327   1.000000
   15        0.650498   0.898508
   16        0.826221   0.000000
   17        1.286972   0.000000
   18        1.866979   0.000000
   19        2.109420   0.000000
 
  0.1000000E+00  0.1000000E+00  0.0000000E+00  0.2500000E-02
    1       -7.596043   1.000000
    2       -5.818324   1.000000
    3       -4.315351   1.000000
    4       -4.297694   1.000000
    5       -3.805330   1.000000
    6       -3.164069   1.000000
    7       -3.130919   1.000000
    8       -1.798187   1.000000
    9       -0.969981   1.000000
   10       -0.900942   1.000000
   11       -0.828381   1.000000
   12       -0.031513   1.000000
   13        0.108179   1.000000
   14        0.115996   1.000000
   15        0.379738   1.000000
   16        0.492202   1.000000
   17        0.926954   0.000000
   18        1.466414   0.000000
   19        1.633224   0.000000
 
  0.1500000E+00  0.1000000E+00  0.0000000E+00  0.5000000E-02
    1       -7.333914   1.000000
    2       -5.625906   1.000000
    3       -4.219337   1.000000
    4       -4.071240   1.000000
    5       -3.692868   1.000000
    6       -3.202237   1.000000
    7       -2.843905   1.000000
    8       -1.815381   1.000000
    9       -1.191736   1.000000
   10       -1.109643   1.000000
   11       -1.014185   1.000000
   12       -0.268542   1.000000
   13       -0.041202   1.000000
   14        0.225128   1.000000
   15        0.310193   1.000000
   16        0.574779   0.999293
   17        1.055166   0.000000
   18        1.602394   0.000000
   19        1.639022   0.000000
 
  0.2000000E+00  0.1000000E+00  0.0000000E+00  0.5000000E-02
    1       -6.984043   1.000000
    2       -5.396104   1.000000
    3       -4.144831   1.000000
    4       -3.789406   1.000000
    5       -3.565051   1.000000
    6       -3.268619   1.000000
    7       -2.453393   1.000000
    8       -1.748920   1.000000
    9       -1.461901   1.000000
   10       -1.197474   1.000000
   11       -1.155273   1.000000
   12       -0.632384   1.000000
   13       -0.075625   1.000000
   14        0.155769   1.000000
   15        0.255022   1.000000
   16        0.687561   0.583780
   17        1.182533   0.000000
   18        1.536017   0.000000
   19        1.630157   0.000000
 
  0.2500000E+00  0.1000000E+00  0.0000000E+00  0.5000000E-02
    1       -6.564773   1.000000
    2       -5.170569   1.000000
    3       -4.129337   1.000000
    4       -3.542323   1.000000
    5       -3.361766   1.000000
    6       -3.328842   1.000000
    7       -2.049674   1.000000
    8       -1.764583   1.000000
    9       -1.664929   1.000000
   10       -1.183480   1.000000
   11       -1.078030   1.000000
   12       -0.882693   1.000000
   13       -0.186787   1.000000
   14        0.015780   1.000000
   15        0.183831   1.000000
   16        0.768983  -0.033290
   17        1.242438   0.000000
   18        1.638394   0.000000
   19        1.647543   0.000000
 
  0.3000000E+00  0.1000000E+00  0.0000000E+00  0.5000000E-02
    1       -6.101791   1.000000
    2       -4.994643   1.000000
    3       -4.179117   1.000000
    4       -3.358325   1.000000
    5       -3.342820   1.000000
    6       -3.112464   1.000000
    7       -2.014817   1.000000
    8       -1.910751   1.000000
    9       -1.487478   1.000000
   10       -1.181695   1.000000
   11       -1.020793   1.000000
   12       -0.568271   1.000000
   13       -0.442898   1.000000
   14        0.042912   1.000000
   15        0.067583   1.000000
   16        0.732995   0.172190
   17        1.229333   0.000000
   18        1.771822   0.000000
   19        1.890930   0.000000
 
  0.3500000E+00  0.1000000E+00  0.0000000E+00  0.5000000E-02
    1       -5.631481   1.000000
    2       -4.893624   1.000000
    3       -4.250261   1.000000
    4       -3.350042   1.000000
    5       -3.214713   1.000000
    6       -2.877483   1.000000
    7       -2.164144   1.000000
    8       -2.058222   1.000000
    9       -1.300504   1.000000
   10       -1.208135   1.000000
   11       -0.696317   1.000000
   12       -0.678033   1.000000
   13       -0.216783   1.000000
   14        0.093833   1.000000
   15        0.146120   1.000000
   16        0.680376   0.416440
   17        1.159086   0.000000
   18        1.639665   0.000000
   19        1.918222   0.000000
 
  0.4000000E+00  0.1000000E+00  0.0000000E+00  0.5000000E-02
    1       -5.209483   1.000000
    2       -4.855823   1.000000
    3       -4.293647   1.000000
    4       -3.322437   1.000000
    5       -3.242631   1.000000
    6       -2.610180   1.000000
    7       -2.281878   1.000000
    8       -2.153976   1.000000
    9       -1.405734   1.000000
   10       -1.063445   1.000000
   11       -0.814087   1.000000
   12       -0.351022   1.000000
   13       -0.307586   1.000000
   14        0.264840   1.000000
   15        0.547340   1.036218
   16        0.719718   0.059110
   17        1.080555   0.000000
   18        1.486562   0.000000
   19        2.050055   0.000000
 
  0.4500000E+00  0.1000000E+00  0.0000000E+00  0.5000000E-02
    1       -4.923039   1.000000
    2       -4.849822   1.000000
    3       -4.266515   1.000000
    4       -3.365864   1.000000
    5       -3.298594   1.000000
    6       -2.387657   1.000000
    7       -2.352455   1.000000
    8       -2.130348   1.000000
    9       -1.575955   1.000000
   10       -1.122116   1.000000
   11       -0.717552   1.000000
   12       -0.486008   1.000000
   13       -0.031249   1.000000
   14        0.358022   1.000452
   15        0.743951   0.282011
   16        0.848114   0.000000
   17        1.002983   0.000000
   18        1.593862   0.000000
   19        2.099717   0.000000
 
  0.5000000E+00  0.1000000E+00  0.0000000E+00  0.2500000E-02
    1       -4.850707   1.000000
    2       -4.832763   1.000000
    3       -4.218809   1.000000
    4       -3.442667   1.000000
    5       -3.289841   1.000000
    6       -2.375630   1.000000
    7       -2.346515   1.000000
    8       -1.970429   1.000000
    9       -1.750675   1.000000
   10       -1.160334   1.000000
   11       -0.660665   1.000000
   12       -0.532725   1.000000
   13        0.066940   1.000000
   14        0.410162   1.000837
   15        0.772695  -0.073411
   16        0.888418   0.000000
   17        0.951614   0.000000
   18        1.732270   0.000000
   19        2.111871   0.000000
 
  0.1500000E+00  0.1500000E+00  0.0000000E+00  0.2500000E-02
    1       -7.078751   1.000000
    2       -5.416818   1.000000
    3       -4.027274   1.000000
    4       -3.920742   1.000000
    5       -3.554148   1.000000
    6       -2.942474   1.000000
    7       -2.872212   1.000000
    8       -1.917080   1.000000
    9       -1.408775   1.000000
   10       -1.318790   1.000000
   11       -1.130305   1.000000
   12       -0.596472   1.000000
   13       -0.072692   1.000000
   14        0.217685   1.000000
   15        0.339927   1.000000
   16        0.632415   1.000000
   17        0.971808   0.000000
   18        1.597941   0.000000
   19        1.621153   0.000000
 
  0.2000000E+00  0.1500000E+00  0.0000000E+00  0.5000000E-02
    1       -6.739730   1.000000
    2       -5.164452   1.000000
    3       -3.917806   1.000000
    4       -3.633405   1.000000
    5       -3.423609   1.000000
    6       -2.992084   1.000000
    7       -2.536168   1.000000
    8       -1.928637   1.000000
    9       -1.626153   1.000000
   10       -1.442711   1.000000
   11       -1.245667   1.000000
   12       -0.941412   1.000000
   13       -0.209303   1.000000
   14        0.266702   1.000000
   15        0.274522   1.000000
   16        0.666302   0.960193
   17        0.902356   0.000000
   18        1.564442   0.000000
   19        1.729979   0.000000
 
  0.2500000E+00  0.1500000E+00  0.0000000E+00  0.5000000E-02
    1       -6.335730   1.000000
    2       -4.914123   1.000000
    3       -3.880792   1.000000
    4       -3.326279   1.000000
    5       -3.294961   1.000000
    6       -3.069382   1.000000
    7       -2.216949   1.000000
    8       -1.933639   1.000000
    9       -1.721041   1.000000
   10       -1.464355   1.000000
   11       -1.334977   1.000000
   12       -1.061915   1.000000
   13       -0.454797   1.000000
   14        0.175569   1.000000
   15        0.290322   1.000000
   16        0.642697   0.956899
   17        0.959712   0.000000
   18        1.559754   0.000000
   19        1.853438   0.000000
 
  0.3000000E+00  0.1500000E+00  0.0000000E+00  0.5000000E-02
    1       -5.892201   1.000000
    2       -4.718793   1.000000
    3       -3.924045   1.000000
    4       -3.144768   1.000000
    5       -3.120433   1.000000
    6       -3.085873   1.000000
    7       -2.188061   1.000000
    8       -2.027549   1.000000
    9       -1.579305   1.000000
   10       -1.465819   1.000000
   11       -1.273374   1.000000
   12       -0.764262   1.000000
   13       -0.749653   1.000000
   14        0.186942   1.000000
   15        0.248681   1.000000
   16        0.577015   1.057555
   17        0.998964   0.000000
   18        1.674813   0.000000
   19        1.975097   0.000000
 
  0.3500000E+00  0.1500000E+00  0.0000000E+00  0.5000000E-02
    1       -5.441954   1.000000
    2       -4.609545   1.000000
    3       -4.005814   1.000000
    4       -3.141934   1.000000
    5       -3.107232   1.000000
    6       -2.867526   1.000000
    7       -2.264919   1.000000
    8       -2.128223   1.000000
    9       -1.511991   1.000000
   10       -1.425851   1.000000
   11       -1.014633   1.000000
   12       -0.891631   1.000000
   13       -0.365281   1.000000
   14        0.189251   1.000000
   15        0.305816   1.000000
   16        0.603310   1.067979
   17        0.951660   0.000000
   18        1.836124   0.000000
   19        1.993277   0.000000
 
  0.4000000E+00  0.1500000E+00  0.0000000E+00  0.5000000E-02
    1       -5.028210   1.000000
    2       -4.571847   1.000000
    3       -4.078415   1.000000
    4       -3.228731   1.000000
    5       -3.152410   1.000000
    6       -2.630830   1.000000
    7       -2.323722   1.000000
    8       -2.186644   1.000000
    9       -1.539939   1.000000
   10       -1.362320   1.000000
   11       -1.078080   1.000000
   12       -0.578665   1.000000
   13       -0.225024   1.000000
   14        0.356319   1.000000
   15        0.496998   1.025452
   16        0.757665   0.003276
   17        0.855823   0.000000
   18        1.738094   0.000000
   19        2.016357   0.000000
 
  0.4500000E+00  0.1500000E+00  0.0000000E+00  0.5000000E-02
    1       -4.716256   1.000000
    2       -4.568163   1.000000
    3       -4.108307   1.000000
    4       -3.400518   1.000000
    5       -3.161544   1.000000
    6       -2.449609   1.000000
    7       -2.355458   1.000000
    8       -2.174270   1.000000
    9       -1.623134   1.000000
   10       -1.455953   1.000000
   11       -0.923727   1.000000
   12       -0.391023   1.000000
   13       -0.261853   1.000000
   14        0.601406   0.999877
   15        0.665532   0.854816
   16        0.774508   0.000000
   17        0.917127   0.000000
   18        1.746871   0.000000
   19        2.081711   0.000000
 
  0.5000000E+00  0.1500000E+00  0.0000000E+00  0.2500000E-02
    1       -4.597799   1.000000
    2       -4.570107   1.000000
    3       -4.100798   1.000000
    4       -3.491672   1.000000
    5       -3.165624   1.000000
    6       -2.400421   1.000000
    7       -2.365119   1.000000
    8       -2.116982   1.000000
    9       -1.693773   1.000000
   10       -1.498505   1.000000
   11       -0.845315   1.000000
   12       -0.329675   1.000000
   13       -0.279785   1.000000
   14        0.693163   0.996745
   15        0.710622   0.391945
   16        0.760687   0.000000
   17        0.963112   0.000000
   18        1.824475   0.000000
   19        2.082649   0.000000
 
  0.2000000E+00  0.2000000E+00  0.0000000E+00  0.2500000E-02
    1       -6.418107   1.000000
    2       -4.879312   1.000000
    3       -3.711478   1.000000
    4       -3.390438   1.000000
    5       -3.293077   1.000000
    6       -2.674593   1.000000
    7       -2.639184   1.000000
    8       -2.023539   1.000000
    9       -1.749117   1.000000
   10       -1.633273   1.000000
   11       -1.394522   1.000000
   12       -1.202668   1.000000
   13       -0.465920   1.000000
   14        0.329379   1.000000
   15        0.349220   1.000000
   16        0.627369   1.000000
   17        0.727898   0.025398
   18        1.493925   0.000000
   19        1.893007   0.000000
 
  0.2500000E+00  0.2000000E+00  0.0000000E+00  0.5000000E-02
    1       -6.040076   1.000000
    2       -4.589513   1.000000
    3       -3.605217   1.000000
    4       -3.238993   1.000000
    5       -3.059743   1.000000
    6       -2.778186   1.000000
    7       -2.400206   1.000000
    8       -2.058500   1.000000
    9       -1.767706   1.000000
   10       -1.688907   1.000000
   11       -1.579095   1.000000
   12       -1.222447   1.000000
   13       -0.775755   1.000000
   14        0.339028   1.000000
   15        0.383248   1.000000
   16        0.535231   1.000000
   17        0.737888   0.065851
   18        1.520066   0.000000
   19        1.967843   0.000000
 
  0.3000000E+00  0.2000000E+00  0.0000000E+00  0.5000000E-02
    1       -5.632132   1.000000
    2       -4.360417   1.000000
    3       -3.616069   1.000000
    4       -3.221060   1.000000
    5       -2.882571   1.000000
    6       -2.765175   1.000000
    7       -2.318839   1.000000
    8       -2.132342   1.000000
    9       -1.784937   1.000000
   10       -1.658836   1.000000
   11       -1.412976   1.000000
   12       -1.082272   1.000000
   13       -0.979507   1.000000
   14        0.325497   1.000000
   15        0.364871   1.000000
   16        0.544295   1.045808
   17        0.769711   0.005305
   18        1.645114   0.000000
   19        2.031623   0.000000
 
  0.3500000E+00  0.2000000E+00  0.0000000E+00  0.5000000E-02
    1       -5.224497   1.000000
    2       -4.236515   1.000000
    3       -3.709782   1.000000
    4       -3.254370   1.000000
    5       -2.971037   1.000000
    6       -2.577841   1.000000
    7       -2.278842   1.000000
    8       -2.195043   1.000000
    9       -1.718376   1.000000
   10       -1.607483   1.000000
   11       -1.348396   1.000000
   12       -1.065784   1.000000
   13       -0.612681   1.000000
   14        0.214118   1.000000
   15        0.499540   1.000000
   16        0.705654   0.426737
   17        0.742483   0.009561
   18        1.814216   0.000000
   19        2.162602   0.000000
 
  0.4000000E+00  0.2000000E+00  0.0000000E+00  0.5000000E-02
    1       -4.847492   1.000000
    2       -4.199556   1.000000
    3       -3.830231   1.000000
    4       -3.361980   1.000000
    5       -3.046873   1.000000
    6       -2.451251   1.000000
    7       -2.255122   1.000000
    8       -2.226329   1.000000
    9       -1.644064   1.000000
   10       -1.517712   1.000000
   11       -1.428559   1.000000
   12       -0.838343   1.000000
   13       -0.276585   1.000000
   14        0.170068   1.000000
   15        0.645398   1.000000
   16        0.771382  -0.003780
   17        0.947788   0.000000
   18        1.956343   0.000000
   19        2.060835   0.000000
 
  0.4500000E+00  0.2000000E+00  0.0000000E+00  0.5000000E-02
    1       -4.532502   1.000000
    2       -4.200274   1.000000