 vasp.5.4.4.18Apr17-6-g9f103f2a35 (build May 20 2018 16:52:39) complex          
  
 executed on             LinuxIFC date 2022.11.15  16:27:17
 running on    1 total cores
 distrk:  each k-point on    1 cores,    1 groups
 distr:  one band on NCORES_PER_BAND=   1 cores,    1 groups


--------------------------------------------------------------------------------------------------------


 INCAR:
 POTCAR:    PAW W                                 
 POTCAR:    PAW W                                 
   VRHFIN =W: 5p6s5d                                                            
   LEXCH  = CA                                                                  
   EATOM  =   206.5370 eV,   15.1800 Ry                                         
                                                                                
   TITEL  = PAW W                                                               
   LULTRA =        F    use ultrasoft PP ?                                      
   IUNSCR =        1    unscreen: 0-lin 1-nonlin 2-no                           
   RPACOR =    2.330    partial core radius                                     
   POMASS =  183.850; ZVAL   =    6.000    mass and valenz                      
   RCORE  =    2.750    outmost cutoff radius                                   
   RWIGS  =    2.750; RWIGS  =    1.455    wigner-seitz radius (au A)           
   ENMAX  =  223.126; ENMIN  =  167.344 eV                                      
   RCLOC  =    2.147    cutoff for local pot                                    
   LCOR   =        T    correct aug charges                                     
   LPAW   =        T    paw PP                                                  
   EAUG   =  373.438                                                            
   DEXC   =    -.048                                                            
   RMAX   =    3.087    core radius for proj-oper                               
   RAUG   =    1.300    factor for augmentation sphere                          
   RDEP   =    2.886    radius for radial grids                                 
   QCUT   =   -4.050; QGAM   =    8.099    optimization parameters              
                                                                                
   Description                                                                  
     l     E      TYP  RCUT    TYP  RCUT                                        
     2   .000     23  2.500                                                     
     2   .000     23  2.500                                                     
     0   .000     23  2.500                                                     
     0   .000     23  2.500                                                     
     1   .200     23  2.750                                                     
     1  2.000     23  2.750                                                     
     3   .000      7   .000                                                     
  local pseudopotential read in
  partial core-charges read in
  atomic valenz-charges read in
  non local Contribution for L=           2  read in
    real space projection operators read in
  non local Contribution for L=           2  read in
    real space projection operators read in
  non local Contribution for L=           0  read in
    real space projection operators read in
  non local Contribution for L=           0  read in
    real space projection operators read in
  non local Contribution for L=           1  read in
    real space projection operators read in
  non local Contribution for L=           1  read in
    real space projection operators read in
    PAW grid and wavefunctions read in
 
   number of l-projection  operators is LMAX  =           6
   number of lm-projection operators is LMMAX =          18
 
  PAW W                                 :
 energy of atom  1       EATOM= -206.5370
 kinetic energy error for atom=    0.0005 (will be added to EATOM!!)
 
 
 POSCAR: BCC W 5-layers                          
  positions in direct lattice
  No initial velocities read in
 exchange correlation table for  LEXCH =        2
   RHO(1)=    0.500       N(1)  =     2000
   RHO(2)=  100.500       N(2)  =     4000
 


--------------------------------------------------------------------------------------------------------


 ion  position               nearest neighbor table
   1  0.000  0.000  0.000-   2 2.74   2 2.74   2 2.74   2 2.74   3 3.16
   2  0.500  0.500  0.083-   1 2.74   1 2.74   1 2.74   1 2.74   3 2.74   3 2.74   3 2.74   3 2.74
                             4 3.16
   3  0.000  0.000  0.167-   4 2.74   4 2.74   4 2.74   4 2.74   2 2.74   2 2.74   2 2.74   2 2.74
                             5 3.16   1 3.16
   4  0.500  0.500  0.250-   3 2.74   5 2.74   3 2.74   5 2.74   3 2.74   5 2.74   3 2.74   5 2.74
                             2 3.16
   5  0.000  0.000  0.333-   4 2.74   4 2.74   4 2.74   4 2.74   3 3.16
 
  LATTYP: Found a simple tetragonal cell.
 ALAT       =     3.1600000000
 C/A-ratio  =     6.0000000000
  
  Lattice vectors:
  
 A1 = (   3.1600000000,   0.0000000000,   0.0000000000)
 A2 = (   0.0000000000,   3.1600000000,   0.0000000000)
 A3 = (   0.0000000000,   0.0000000000,  18.9600000000)


Analysis of symmetry for initial positions (statically):
=====================================================================
 Subroutine PRICEL returns:
 Original cell was already a primitive cell.
 

 Routine SETGRP: Setting up the symmetry group for a 
 simple tetragonal supercell.


 Subroutine GETGRP returns: Found 16 space group operations
 (whereof  8 operations were pure point group operations)
 out of a pool of 16 trial point group operations.


The static configuration has the point symmetry C_4v.
 The point group associated with its full space group is D_4h.


Analysis of symmetry for dynamics (positions and initial velocities):
=====================================================================
 Subroutine PRICEL returns:
 Original cell was already a primitive cell.
 

 Routine SETGRP: Setting up the symmetry group for a 
 simple tetragonal supercell.


 Subroutine GETGRP returns: Found 16 space group operations
 (whereof  8 operations were pure point group operations)
 out of a pool of 16 trial point group operations.


The dynamic configuration has the point symmetry C_4v.
 The point group associated with its full space group is D_4h.


 Subroutine INISYM returns: Found 16 space group operations
 (whereof  8 operations are pure point group operations),
 and found     1 'primitive' translations

 
 
 KPOINTS: Gamma 20*20*4                           

Automatic generation of k-mesh.
Space group operators:
 irot       det(A)        alpha          n_x          n_y          n_z        tau_x        tau_y        tau_z
    1     1.000000     0.000000     1.000000     0.000000     0.000000     0.000000     0.000000     0.000000
    2     1.000000    90.000000     0.000000     0.000000    -1.000000     0.000000     0.000000     0.000000
    3     1.000000   180.000000     0.000000     0.000000     1.000000     0.000000     0.000000     0.000000
    4     1.000000    90.000000     0.000000     0.000000     1.000000     0.000000     0.000000     0.000000
    5    -1.000000   179.999999     0.000000     1.000000     0.000000     0.000000     0.000000     0.000000
    6    -1.000000   180.000000     0.707107     0.707107     0.000000     0.000000     0.000000     0.000000
    7    -1.000000   180.000000     1.000000     0.000000     0.000000     0.000000     0.000000     0.000000
    8    -1.000000   180.000000     0.707107    -0.707107     0.000000     0.000000     0.000000     0.000000
    9    -1.000000     0.000000     1.000000     0.000000     0.000000     0.000000     0.000000     0.333333
   10    -1.000000    90.000000     0.000000     0.000000    -1.000000     0.000000     0.000000     0.333333
   11    -1.000000   180.000000     0.000000     0.000000     1.000000     0.000000     0.000000     0.333333
   12    -1.000000    90.000000     0.000000     0.000000     1.000000     0.000000     0.000000     0.333333
   13     1.000000   179.999999     0.000000     1.000000     0.000000     0.000000     0.000000     0.333333
   14     1.000000   180.000000     0.707107     0.707107     0.000000     0.000000     0.000000     0.333333
   15     1.000000   180.000000     1.000000     0.000000     0.000000     0.000000     0.000000     0.333333
   16     1.000000   180.000000     0.707107    -0.707107     0.000000     0.000000     0.000000     0.333333
 
 Subroutine IBZKPT returns following result:
 ===========================================
 
 Found    198 irreducible k-points:
 
 Following reciprocal coordinates:
            Coordinates               Weight
  0.000000  0.000000  0.000000      1.000000
  0.050000  0.000000  0.000000      4.000000
  0.100000  0.000000  0.000000      4.000000
  0.150000  0.000000  0.000000      4.000000
  0.200000  0.000000  0.000000      4.000000
  0.250000  0.000000  0.000000      4.000000
  0.300000  0.000000  0.000000      4.000000
  0.350000  0.000000  0.000000      4.000000
  0.400000  0.000000  0.000000      4.000000
  0.450000  0.000000  0.000000      4.000000
  0.500000  0.000000  0.000000      2.000000
  0.050000  0.050000  0.000000      4.000000
  0.100000  0.050000  0.000000      8.000000
  0.150000  0.050000  0.000000      8.000000
  0.200000  0.050000  0.000000      8.000000
  0.250000  0.050000  0.000000      8.000000
  0.300000  0.050000  0.000000      8.000000
  0.350000  0.050000  0.000000      8.000000
  0.400000  0.050000  0.000000      8.000000
  0.450000  0.050000  0.000000      8.000000
  0.500000  0.050000  0.000000      4.000000
  0.100000  0.100000  0.000000      4.000000
  0.150000  0.100000  0.000000      8.000000
  0.200000  0.100000  0.000000      8.000000
  0.250000  0.100000  0.000000      8.000000
  0.300000  0.100000  0.000000      8.000000
  0.350000  0.100000  0.000000      8.000000
  0.400000  0.100000  0.000000      8.000000
  0.450000  0.100000  0.000000      8.000000
  0.500000  0.100000  0.000000      4.000000
  0.150000  0.150000  0.000000      4.000000
  0.200000  0.150000  0.000000      8.000000
  0.250000  0.150000  0.000000      8.000000
  0.300000  0.150000  0.000000      8.000000
  0.350000  0.150000  0.000000      8.000000
  0.400000  0.150000  0.000000      8.000000
  0.450000  0.150000  0.000000      8.000000
  0.500000  0.150000  0.000000      4.000000
  0.200000  0.200000  0.000000      4.000000
  0.250000  0.200000  0.000000      8.000000
  0.300000  0.200000  0.000000      8.000000
  0.350000  0.200000  0.000000      8.000000
  0.400000  0.200000  0.000000      8.000000
  0.450000  0.200000  0.000000      8.000000
  0.500000  0.200000  0.000000      4.000000
  0.250000  0.250000  0.000000      4.000000
  0.300000  0.250000  0.000000      8.000000
  0.350000  0.250000  0.000000      8.000000
  0.400000  0.250000  0.000000      8.000000
  0.450000  0.250000  0.000000      8.000000
  0.500000  0.250000  0.000000      4.000000
  0.300000  0.300000  0.000000      4.000000
  0.350000  0.300000  0.000000      8.000000
  0.400000  0.300000  0.000000      8.000000
  0.450000  0.300000  0.000000      8.000000
  0.500000  0.300000  0.000000      4.000000
  0.350000  0.350000  0.000000      4.000000
  0.400000  0.350000  0.000000      8.000000
  0.450000  0.350000  0.000000      8.000000
  0.500000  0.350000  0.000000      4.000000
  0.400000  0.400000  0.000000      4.000000
  0.450000  0.400000  0.000000      8.000000
  0.500000  0.400000  0.000000      4.000000
  0.450000  0.450000  0.000000      4.000000
  0.500000  0.450000  0.000000      4.000000
  0.500000  0.500000  0.000000      1.000000
  0.000000  0.000000  0.250000      2.000000
  0.050000  0.000000  0.250000      8.000000
  0.100000  0.000000  0.250000      8.000000
  0.150000  0.000000  0.250000      8.000000
  0.200000  0.000000  0.250000      8.000000
  0.250000  0.000000  0.250000      8.000000
  0.300000  0.000000  0.250000      8.000000
  0.350000  0.000000  0.250000      8.000000
  0.400000  0.000000  0.250000      8.000000
  0.450000  0.000000  0.250000      8.000000
  0.500000  0.000000  0.250000      4.000000
  0.050000  0.050000  0.250000      8.000000
  0.100000  0.050000  0.250000     16.000000
  0.150000  0.050000  0.250000     16.000000
  0.200000  0.050000  0.250000     16.000000
  0.250000  0.050000  0.250000     16.000000
  0.300000  0.050000  0.250000     16.000000
  0.350000  0.050000  0.250000     16.000000
  0.400000  0.050000  0.250000     16.000000
  0.450000  0.050000  0.250000     16.000000
  0.500000  0.050000  0.250000      8.000000
  0.100000  0.100000  0.250000      8.000000
  0.150000  0.100000  0.250000     16.000000
  0.200000  0.100000  0.250000     16.000000
  0.250000  0.100000  0.250000     16.000000
  0.300000  0.100000  0.250000     16.000000
  0.350000  0.100000  0.250000     16.000000
  0.400000  0.100000  0.250000     16.000000
  0.450000  0.100000  0.250000     16.000000
  0.500000  0.100000  0.250000      8.000000
  0.150000  0.150000  0.250000      8.000000
  0.200000  0.150000  0.250000     16.000000
  0.250000  0.150000  0.250000     16.000000
  0.300000  0.150000  0.250000     16.000000
  0.350000  0.150000  0.250000     16.000000
  0.400000  0.150000  0.250000     16.000000
  0.450000  0.150000  0.250000     16.000000
  0.500000  0.150000  0.250000      8.000000
  0.200000  0.200000  0.250000      8.000000
  0.250000  0.200000  0.250000     16.000000
  0.300000  0.200000  0.250000     16.000000
  0.350000  0.200000  0.250000     16.000000
  0.400000  0.200000  0.250000     16.000000
  0.450000  0.200000  0.250000     16.000000
  0.500000  0.200000  0.250000      8.000000
  0.250000  0.250000  0.250000      8.000000
  0.300000  0.250000  0.250000     16.000000
  0.350000  0.250000  0.250000     16.000000
  0.400000  0.250000  0.250000     16.000000
  0.450000  0.250000  0.250000     16.000000
  0.500000  0.250000  0.250000      8.000000
  0.300000  0.300000  0.250000      8.000000
  0.350000  0.300000  0.250000     16.000000
  0.400000  0.300000  0.250000     16.000000
  0.450000  0.300000  0.250000     16.000000
  0.500000  0.300000  0.250000      8.000000
  0.350000  0.350000  0.250000      8.000000
  0.400000  0.350000  0.250000     16.000000
  0.450000  0.350000  0.250000     16.000000
  0.500000  0.350000  0.250000      8.000000
  0.400000  0.400000  0.250000      8.000000
  0.450000  0.400000  0.250000     16.000000
  0.500000  0.400000  0.250000      8.000000
  0.450000  0.450000  0.250000      8.000000
  0.500000  0.450000  0.250000      8.000000
  0.500000  0.500000  0.250000      2.000000
  0.000000  0.000000  0.500000      1.000000
  0.050000  0.000000  0.500000      4.000000
  0.100000  0.000000  0.500000      4.000000
  0.150000  0.000000  0.500000      4.000000
  0.200000  0.000000  0.500000      4.000000
  0.250000  0.000000  0.500000      4.000000
  0.300000  0.000000  0.500000      4.000000
  0.350000  0.000000  0.500000      4.000000
  0.400000  0.000000  0.500000      4.000000
  0.450000  0.000000  0.500000      4.000000
  0.500000  0.000000  0.500000      2.000000
  0.050000  0.050000  0.500000      4.000000
  0.100000  0.050000  0.500000      8.000000
  0.150000  0.050000  0.500000      8.000000
  0.200000  0.050000  0.500000      8.000000
  0.250000  0.050000  0.500000      8.000000
  0.300000  0.050000  0.500000      8.000000
  0.350000  0.050000  0.500000      8.000000
  0.400000  0.050000  0.500000      8.000000
  0.450000  0.050000  0.500000      8.000000
  0.500000  0.050000  0.500000      4.000000
  0.100000  0.100000  0.500000      4.000000
  0.150000  0.100000  0.500000      8.000000
  0.200000  0.100000  0.500000      8.000000
  0.250000  0.100000  0.500000      8.000000
  0.300000  0.100000  0.500000      8.000000
  0.350000  0.100000  0.500000      8.000000
  0.400000  0.100000  0.500000      8.000000
  0.450000  0.100000  0.500000      8.000000
  0.500000  0.100000  0.500000      4.000000
  0.150000  0.150000  0.500000      4.000000
  0.200000  0.150000  0.500000      8.000000
  0.250000  0.150000  0.500000      8.000000
  0.300000  0.150000  0.500000      8.000000
  0.350000  0.150000  0.500000      8.000000
  0.400000  0.150000  0.500000      8.000000
  0.450000  0.150000  0.500000      8.000000
  0.500000  0.150000  0.500000      4.000000
  0.200000  0.200000  0.500000      4.000000
  0.250000  0.200000  0.500000      8.000000
  0.300000  0.200000  0.500000      8.000000
  0.350000  0.200000  0.500000      8.000000
  0.400000  0.200000  0.500000      8.000000
  0.450000  0.200000  0.500000      8.000000
  0.500000  0.200000  0.500000      4.000000
  0.250000  0.250000  0.500000      4.000000
  0.300000  0.250000  0.500000      8.000000
  0.350000  0.250000  0.500000      8.000000
  0.400000  0.250000  0.500000      8.000000
  0.450000  0.250000  0.500000      8.000000
  0.500000  0.250000  0.500000      4.000000
  0.300000  0.300000  0.500000      4.000000
  0.350000  0.300000  0.500000      8.000000
  0.400000  0.300000  0.500000      8.000000
  0.450000  0.300000  0.500000      8.000000
  0.500000  0.300000  0.500000      4.000000
  0.350000  0.350000  0.500000      4.000000
  0.400000  0.350000  0.500000      8.000000
  0.450000  0.350000  0.500000      8.000000
  0.500000  0.350000  0.500000      4.000000
  0.400000  0.400000  0.500000      4.000000
  0.450000  0.400000  0.500000      8.000000
  0.500000  0.400000  0.500000      4.000000
  0.450000  0.450000  0.500000      4.000000
  0.500000  0.450000  0.500000      4.000000
  0.500000  0.500000  0.500000      1.000000
 
 Following cartesian coordinates:
            Coordinates               Weight
  0.000000  0.000000  0.000000      1.000000
  0.050000  0.000000  0.000000      4.000000
  0.100000  0.000000  0.000000      4.000000
  0.150000  0.000000  0.000000      4.000000
  0.200000  0.000000  0.000000      4.000000
  0.250000  0.000000  0.000000      4.000000
  0.300000  0.000000  0.000000      4.000000
  0.350000  0.000000  0.000000      4.000000
  0.400000  0.000000  0.000000      4.000000
  0.450000  0.000000  0.000000      4.000000
  0.500000  0.000000  0.000000      2.000000
  0.050000  0.050000  0.000000      4.000000
  0.100000  0.050000  0.000000      8.000000
  0.150000  0.050000  0.000000      8.000000
  0.200000  0.050000  0.000000      8.000000
  0.250000  0.050000  0.000000      8.000000
  0.300000  0.050000  0.000000      8.000000
  0.350000  0.050000  0.000000      8.000000
  0.400000  0.050000  0.000000      8.000000
  0.450000  0.050000  0.000000      8.000000
  0.500000  0.050000  0.000000      4.000000
  0.100000  0.100000  0.000000      4.000000
  0.150000  0.100000  0.000000      8.000000
  0.200000  0.100000  0.000000      8.000000
  0.250000  0.100000  0.000000      8.000000
  0.300000  0.100000  0.000000      8.000000
  0.350000  0.100000  0.000000      8.000000
  0.400000  0.100000  0.000000      8.000000
  0.450000  0.100000  0.000000      8.000000
  0.500000  0.100000  0.000000      4.000000
  0.150000  0.150000  0.000000      4.000000
  0.200000  0.150000  0.000000      8.000000
  0.250000  0.150000  0.000000      8.000000
  0.300000  0.150000  0.000000      8.000000
  0.350000  0.150000  0.000000      8.000000
  0.400000  0.150000  0.000000      8.000000
  0.450000  0.150000  0.000000      8.000000
  0.500000  0.150000  0.000000      4.000000
  0.200000  0.200000  0.000000      4.000000
  0.250000  0.200000  0.000000      8.000000
  0.300000  0.200000  0.000000      8.000000
  0.350000  0.200000  0.000000      8.000000
  0.400000  0.200000  0.000000      8.000000
  0.450000  0.200000  0.000000      8.000000
  0.500000  0.200000  0.000000      4.000000
  0.250000  0.250000  0.000000      4.000000
  0.300000  0.250000  0.000000      8.000000
  0.350000  0.250000  0.000000      8.000000
  0.400000  0.250000  0.000000      8.000000
  0.450000  0.250000  0.000000      8.000000
  0.500000  0.250000  0.000000      4.000000
  0.300000  0.300000  0.000000      4.000000
  0.350000  0.300000  0.000000      8.000000
  0.400000  0.300000  0.000000      8.000000
  0.450000  0.300000  0.000000      8.000000
  0.500000  0.300000  0.000000      4.000000
  0.350000  0.350000  0.000000      4.000000
  0.400000  0.350000  0.000000      8.000000
  0.450000  0.350000  0.000000      8.000000
  0.500000  0.350000  0.000000      4.000000
  0.400000  0.400000  0.000000      4.000000
  0.450000  0.400000  0.000000      8.000000
  0.500000  0.400000  0.000000      4.000000
  0.450000  0.450000  0.000000      4.000000
  0.500000  0.450000  0.000000      4.000000
  0.500000  0.500000  0.000000      1.000000
  0.000000  0.000000  0.041667      2.000000
  0.050000  0.000000  0.041667      8.000000
  0.100000  0.000000  0.041667      8.000000
  0.150000  0.000000  0.041667      8.000000
  0.200000  0.000000  0.041667      8.000000
  0.250000  0.000000  0.041667      8.000000
  0.300000  0.000000  0.041667      8.000000
  0.350000  0.000000  0.041667      8.000000
  0.400000  0.000000  0.041667      8.000000
  0.450000  0.000000  0.041667      8.000000
  0.500000  0.000000  0.041667      4.000000
  0.050000  0.050000  0.041667      8.000000
  0.100000  0.050000  0.041667     16.000000
  0.150000  0.050000  0.041667     16.000000
  0.200000  0.050000  0.041667     16.000000
  0.250000  0.050000  0.041667     16.000000
  0.300000  0.050000  0.041667     16.000000
  0.350000  0.050000  0.041667     16.000000
  0.400000  0.050000  0.041667     16.000000
  0.450000  0.050000  0.041667     16.000000
  0.500000  0.050000  0.041667      8.000000
  0.100000  0.100000  0.041667      8.000000
  0.150000  0.100000  0.041667     16.000000
  0.200000  0.100000  0.041667     16.000000
  0.250000  0.100000  0.041667     16.000000
  0.300000  0.100000  0.041667     16.000000
  0.350000  0.100000  0.041667     16.000000
  0.400000  0.100000  0.041667     16.000000
  0.450000  0.100000  0.041667     16.000000
  0.500000  0.100000  0.041667      8.000000
  0.150000  0.150000  0.041667      8.000000
  0.200000  0.150000  0.041667     16.000000
  0.250000  0.150000  0.041667     16.000000
  0.300000  0.150000  0.041667     16.000000
  0.350000  0.150000  0.041667     16.000000
  0.400000  0.150000  0.041667     16.000000
  0.450000  0.150000  0.041667     16.000000
  0.500000  0.150000  0.041667      8.000000
  0.200000  0.200000  0.041667      8.000000
  0.250000  0.200000  0.041667     16.000000
  0.300000  0.200000  0.041667     16.000000
  0.350000  0.200000  0.041667     16.000000
  0.400000  0.200000  0.041667     16.000000
  0.450000  0.200000  0.041667     16.000000
  0.500000  0.200000  0.041667      8.000000
  0.250000  0.250000  0.041667      8.000000
  0.300000  0.250000  0.041667     16.000000
  0.350000  0.250000  0.041667     16.000000
  0.400000  0.250000  0.041667     16.000000
  0.450000  0.250000  0.041667     16.000000
  0.500000  0.250000  0.041667      8.000000
  0.300000  0.300000  0.041667      8.000000
  0.350000  0.300000  0.041667     16.000000
  0.400000  0.300000  0.041667     16.000000
  0.450000  0.300000  0.041667     16.000000
  0.500000  0.300000  0.041667      8.000000
  0.350000  0.350000  0.041667      8.000000
  0.400000  0.350000  0.041667     16.000000
  0.450000  0.350000  0.041667     16.000000
  0.500000  0.350000  0.041667      8.000000
  0.400000  0.400000  0.041667      8.000000
  0.450000  0.400000  0.041667     16.000000
  0.500000  0.400000  0.041667      8.000000
  0.450000  0.450000  0.041667      8.000000
  0.500000  0.450000  0.041667      8.000000
  0.500000  0.500000  0.041667      2.000000
  0.000000  0.000000  0.083333      1.000000
  0.050000  0.000000  0.083333      4.000000
  0.100000  0.000000  0.083333      4.000000
  0.150000  0.000000  0.083333      4.000000
  0.200000  0.000000  0.083333      4.000000
  0.250000  0.000000  0.083333      4.000000
  0.300000  0.000000  0.083333      4.000000
  0.350000  0.000000  0.083333      4.000000
  0.400000  0.000000  0.083333      4.000000
  0.450000  0.000000  0.083333      4.000000
  0.500000  0.000000  0.083333      2.000000
  0.050000  0.050000  0.083333      4.000000
  0.100000  0.050000  0.083333      8.000000
  0.150000  0.050000  0.083333      8.000000
  0.200000  0.050000  0.083333      8.000000
  0.250000  0.050000  0.083333      8.000000
  0.300000  0.050000  0.083333      8.000000
  0.350000  0.050000  0.083333      8.000000
  0.400000  0.050000  0.083333      8.000000
  0.450000  0.050000  0.083333      8.000000
  0.500000  0.050000  0.083333      4.000000
  0.100000  0.100000  0.083333      4.000000
  0.150000  0.100000  0.083333      8.000000
  0.200000  0.100000  0.083333      8.000000
  0.250000  0.100000  0.083333      8.000000
  0.300000  0.100000  0.083333      8.000000
  0.350000  0.100000  0.083333      8.000000
  0.400000  0.100000  0.083333      8.000000
  0.450000  0.100000  0.083333      8.000000
  0.500000  0.100000  0.083333      4.000000
  0.150000  0.150000  0.083333      4.000000
  0.200000  0.150000  0.083333      8.000000
  0.250000  0.150000  0.083333      8.000000
  0.300000  0.150000  0.083333      8.000000
  0.350000  0.150000  0.083333      8.000000
  0.400000  0.150000  0.083333      8.000000
  0.450000  0.150000  0.083333      8.000000
  0.500000  0.150000  0.083333      4.000000
  0.200000  0.200000  0.083333      4.000000
  0.250000  0.200000  0.083333      8.000000
  0.300000  0.200000  0.083333      8.000000
  0.350000  0.200000  0.083333      8.000000
  0.400000  0.200000  0.083333      8.000000
  0.450000  0.200000  0.083333      8.000000
  0.500000  0.200000  0.083333      4.000000
  0.250000  0.250000  0.083333      4.000000
  0.300000  0.250000  0.083333      8.000000
  0.350000  0.250000  0.083333      8.000000
  0.400000  0.250000  0.083333      8.000000
  0.450000  0.250000  0.083333      8.000000
  0.500000  0.250000  0.083333      4.000000
  0.300000  0.300000  0.083333      4.000000
  0.350000  0.300000  0.083333      8.000000
  0.400000  0.300000  0.083333      8.000000
  0.450000  0.300000  0.083333      8.000000
  0.500000  0.300000  0.083333      4.000000
  0.350000  0.350000  0.083333      4.000000
  0.400000  0.350000  0.083333      8.000000
  0.450000  0.350000  0.083333      8.000000
  0.500000  0.350000  0.083333      4.000000
  0.400000  0.400000  0.083333      4.000000
  0.450000  0.400000  0.083333      8.000000
  0.500000  0.400000  0.083333      4.000000
  0.450000  0.450000  0.083333      4.000000
  0.500000  0.450000  0.083333      4.000000
  0.500000  0.500000  0.083333      1.000000
 
 TETIRR: Found   2400 inequivalent tetrahedra from     9600


--------------------------------------------------------------------------------------------------------




 Dimension of arrays:
   k-points           NKPTS =    198   k-points in BZ     NKDIM =    198   number of bands    NBANDS=     19
   number of dos      NEDOS =    301   number of ions     NIONS =      5
   non local maximal  LDIM  =      6   non local SUM 2l+1 LMDIM =     18
   total plane-waves  NPLWV =  48000
   max r-space proj   IRMAX =      1   max aug-charges    IRDMAX=  14669
   dimension x,y,z NGX =    20 NGY =   20 NGZ =  120
   dimension x,y,z NGXF=    40 NGYF=   40 NGZF=  240
   support grid    NGXF=    40 NGYF=   40 NGZF=  240
   ions per type =               5
   NGX,Y,Z   is equivalent  to a cutoff of  10.52, 10.52, 10.52 a.u.
   NGXF,Y,Z  is equivalent  to a cutoff of  21.04, 21.04, 21.04 a.u.

 SYSTEM =  unknown system                          
 POSCAR =  BCC W 5-layers                          

 Startparameter for this run:
   NWRITE =      2    write-flag & timer
   PREC   = normal    normal or accurate (medium, high low for compatibility)
   ISTART =      0    job   : 0-new  1-cont  2-samecut
   ICHARG =     11    charge: 1-file 2-atom 10-const
   ISPIN  =      1    spin polarized calculation?
   LNONCOLLINEAR =      F non collinear calculations
   LSORBIT =      F    spin-orbit coupling
   INIWAV =      1    electr: 0-lowe 1-rand  2-diag
   LASPH  =      F    aspherical Exc in radial PAW
   METAGGA=      F    non-selfconsistent MetaGGA calc.

 Electronic Relaxation 1
   ENCUT  =  600.0 eV  44.10 Ry    6.64 a.u.   6.31  6.31 37.87*2*pi/ulx,y,z
   ENINI  =  600.0     initial cutoff
   ENAUG  =  373.4 eV  augmentation charge cutoff
   NELM   =     60;   NELMIN=  2; NELMDL= -5     # of ELM steps 
   EDIFF  = 0.1E-05   stopping-criterion for ELM
   LREAL  =      F    real-space projection
   NLSPLINE    = F    spline interpolate recip. space projectors
   LCOMPAT=      F    compatible to vasp.4.4
   GGA_COMPAT  = T    GGA compatible to vasp.4.4-vasp.4.6
   LMAXPAW     = -100 max onsite density
   LMAXMIX     =    2 max onsite mixed and CHGCAR
   VOSKOWN=      0    Vosko Wilk Nusair interpolation
   ROPT   =    0.00000
 Ionic relaxation
   EDIFFG = 0.1E-04   stopping-criterion for IOM
   NSW    =      0    number of steps for IOM
   NBLOCK =      1;   KBLOCK =      1    inner block; outer block 
   IBRION =     -1    ionic relax: 0-MD 1-quasi-New 2-CG
   NFREE  =      0    steps in history (QN), initial steepest desc. (CG)
   ISIF   =      2    stress and relaxation
   IWAVPR =     10    prediction:  0-non 1-charg 2-wave 3-comb
   ISYM   =      2    0-nonsym 1-usesym 2-fastsym
   LCORR  =      T    Harris-Foulkes like correction to forces

   POTIM  = 0.5000    time-step for ionic-motion
   TEIN   =    0.0    initial temperature
   TEBEG  =    0.0;   TEEND  =   0.0 temperature during run
   SMASS  =  -3.00    Nose mass-parameter (am)
   estimated Nose-frequenzy (Omega)   =  0.10E-29 period in steps =****** mass=  -0.228E-27a.u.
   SCALEE = 1.0000    scale energy and forces
   NPACO  =    256;   APACO  = 16.0  distance and # of slots for P.C.
   PSTRESS=    0.0 pullay stress

  Mass of Ions in am
   POMASS = 183.85
  Ionic Valenz
   ZVAL   =   6.00
  Atomic Wigner-Seitz radii
   RWIGS  =  -1.00
  virtual crystal weights 
   VCA    =   1.00
   NELECT =      30.0000    total number of electrons
   NUPDOWN=      -1.0000    fix difference up-down

 DOS related values:
   EMIN   =  10.00;   EMAX   =-10.00  energy-range for DOS
   EFERMI =   0.00
   ISMEAR =    -5;   SIGMA  =   0.20  broadening in eV -4-tet -1-fermi 0-gaus

 Electronic relaxation 2 (details)
   IALGO  =     38    algorithm
   LDIAG  =      T    sub-space diagonalisation (order eigenvalues)
   LSUBROT=      F    optimize rotation matrix (better conditioning)
   TURBO    =      0    0=normal 1=particle mesh
   IRESTART =      0    0=no restart 2=restart with 2 vectors
   NREBOOT  =      0    no. of reboots
   NMIN     =      0    reboot dimension
   EREF     =   0.00    reference energy to select bands
   IMIX   =      4    mixing-type and parameters
     AMIX     =   0.40;   BMIX     =  1.00
     AMIX_MAG =   1.60;   BMIX_MAG =  1.00
     AMIN     =   0.10
     WC   =   100.;   INIMIX=   1;  MIXPRE=   1;  MAXMIX= -45

 Intra band minimization:
   WEIMIN = 0.0000     energy-eigenvalue tresh-hold
   EBREAK =  0.13E-07  absolut break condition
   DEPER  =   0.30     relativ break condition  

   TIME   =   0.40     timestep for ELM

  volume/ion in A,a.u.               =      37.87       255.53
  Fermi-wavevector in a.u.,A,eV,Ry     =   0.885886  1.674081 10.677766  0.784794
  Thomas-Fermi vector in A             =   2.006979
 
 Write flags
   LWAVE        =      T    write WAVECAR
   LDOWNSAMPLE  =      F    k-point downsampling of WAVECAR
   LCHARG       =      F    write CHGCAR
   LVTOT        =      F    write LOCPOT, total local potential
   LVHAR        =      F    write LOCPOT, Hartree potential only
   LELF         =      F    write electronic localiz. function (ELF)
   LORBIT       =      0    0 simple, 1 ext, 2 COOP (PROOUT), +10 PAW based schemes


 Dipole corrections
   LMONO  =      F    monopole corrections only (constant potential shift)
   LDIPOL =      F    correct potential (dipole corrections)
   IDIPOL =      0    1-x, 2-y, 3-z, 4-all directions 
   EPSILON=  1.0000000 bulk dielectric constant

 Exchange correlation treatment:
   GGA     =    --    GGA type
   LEXCH   =     2    internal setting for exchange type
   VOSKOWN=      0    Vosko Wilk Nusair interpolation
   LHFCALC =     F    Hartree Fock is set to
   LHFONE  =     F    Hartree Fock one center treatment
   AEXX    =    0.0000 exact exchange contribution

 Linear response parameters
   LEPSILON=     F    determine dielectric tensor
   LRPA    =     F    only Hartree local field effects (RPA)
   LNABLA  =     F    use nabla operator in PAW spheres
   LVEL    =     F    velocity operator in full k-point grid
   LINTERFAST=   F  fast interpolation
   KINTER  =     0    interpolate to denser k-point grid
   CSHIFT  =0.1000    complex shift for real part using Kramers Kronig
   OMEGAMAX=  -1.0    maximum frequency
   DEG_THRESHOLD= 0.2000000E-02 threshold for treating states as degnerate
   RTIME   =   -0.100 relaxation time in fs
  (WPLASMAI=    0.000 imaginary part of plasma frequency in eV, 0.658/RTIME)
   DFIELD  = 0.0000000 0.0000000 0.0000000 field for delta impulse in time
 
 Orbital magnetization related:
   ORBITALMAG=     F  switch on orbital magnetization
   LCHIMAG   =     F  perturbation theory with respect to B field
   DQ        =  0.001000  dq finite difference perturbation B field
   LLRAUG    =     F  two centre corrections for induced B field



--------------------------------------------------------------------------------------------------------


 Static calculation
 charge density and potential remain constant during run
 non-spin polarized calculation
 Variant of blocked Davidson
 Davidson routine will perform the subspace rotation
 perform sub-space diagonalisation
    after iterative eigenvector-optimisation
 no mixing
 using additional bands            4
 reciprocal scheme for non local part
 use partial core corrections
 calculate Harris-corrections to forces 
   (improved forces if not selfconsistent)
 use of overlap-Matrix (Vanderbilt PP)
 Fermi weights with tetrahedron method with Bloechl corrections


--------------------------------------------------------------------------------------------------------


  energy-cutoff  :      600.00
  volume of cell :      189.33
      direct lattice vectors                 reciprocal lattice vectors
     3.160000000  0.000000000  0.000000000     0.316455696  0.000000000  0.000000000
     0.000000000  3.160000000  0.000000000     0.000000000  0.316455696  0.000000000
     0.000000000  0.000000000 18.960000000     0.000000000  0.000000000  0.052742616

  length of vectors
     3.160000000  3.160000000 18.960000000     0.316455696  0.316455696  0.052742616


 
 k-points in units of 2pi/SCALE and weight: Gamma 20*20*4                           
   0.00000000  0.00000000  0.00000000       0.001
   0.05000000  0.00000000  0.00000000       0.003
   0.10000000  0.00000000  0.00000000       0.003
   0.15000000  0.00000000  0.00000000       0.003
   0.20000000  0.00000000  0.00000000       0.003
   0.25000000  0.00000000  0.00000000       0.003
   0.30000000  0.00000000  0.00000000       0.003
   0.35000000  0.00000000  0.00000000       0.003
   0.40000000  0.00000000  0.00000000       0.003
   0.45000000  0.00000000  0.00000000       0.003
   0.50000000  0.00000000  0.00000000       0.001
   0.05000000  0.05000000  0.00000000       0.003
   0.10000000  0.05000000  0.00000000       0.005
   0.15000000  0.05000000  0.00000000       0.005
   0.20000000  0.05000000  0.00000000       0.005
   0.25000000  0.05000000  0.00000000       0.005
   0.30000000  0.05000000  0.00000000       0.005
   0.35000000  0.05000000  0.00000000       0.005
   0.40000000  0.05000000  0.00000000       0.005
   0.45000000  0.05000000  0.00000000       0.005
   0.50000000  0.05000000  0.00000000       0.003
   0.10000000  0.10000000  0.00000000       0.003
   0.15000000  0.10000000  0.00000000       0.005
   0.20000000  0.10000000  0.00000000       0.005
   0.25000000  0.10000000  0.00000000       0.005
   0.30000000  0.10000000  0.00000000       0.005
   0.35000000  0.10000000  0.00000000       0.005
   0.40000000  0.10000000  0.00000000       0.005
   0.45000000  0.10000000  0.00000000       0.005
   0.50000000  0.10000000  0.00000000       0.003
   0.15000000  0.15000000  0.00000000       0.003
   0.20000000  0.15000000  0.00000000       0.005
   0.25000000  0.15000000  0.00000000       0.005
   0.30000000  0.15000000  0.00000000       0.005
   0.35000000  0.15000000  0.00000000       0.005
   0.40000000  0.15000000  0.00000000       0.005
   0.45000000  0.15000000  0.00000000       0.005
   0.50000000  0.15000000  0.00000000       0.003
   0.20000000  0.20000000  0.00000000       0.003
   0.25000000  0.20000000  0.00000000       0.005
   0.30000000  0.20000000  0.00000000       0.005
   0.35000000  0.20000000  0.00000000       0.005
   0.40000000  0.20000000  0.00000000       0.005
   0.45000000  0.20000000  0.00000000       0.005
   0.50000000  0.20000000  0.00000000       0.003
   0.25000000  0.25000000  0.00000000       0.003
   0.30000000  0.25000000  0.00000000       0.005
   0.35000000  0.25000000  0.00000000       0.005
   0.40000000  0.25000000  0.00000000       0.005
   0.45000000  0.25000000  0.00000000       0.005
   0.50000000  0.25000000  0.00000000       0.003
   0.30000000  0.30000000  0.00000000       0.003
   0.35000000  0.30000000  0.00000000       0.005
   0.40000000  0.30000000  0.00000000       0.005
   0.45000000  0.30000000  0.00000000       0.005
   0.50000000  0.30000000  0.00000000       0.003
   0.35000000  0.35000000  0.00000000       0.003
   0.40000000  0.35000000  0.00000000       0.005
   0.45000000  0.35000000  0.00000000       0.005
   0.50000000  0.35000000  0.00000000       0.003
   0.40000000  0.40000000  0.00000000       0.003
   0.45000000  0.40000000  0.00000000       0.005
   0.50000000  0.40000000  0.00000000       0.003
   0.45000000  0.45000000  0.00000000       0.003
   0.50000000  0.45000000  0.00000000       0.003
   0.50000000  0.50000000  0.00000000       0.001
   0.00000000  0.00000000  0.04166667       0.001
   0.05000000  0.00000000  0.04166667       0.005
   0.10000000  0.00000000  0.04166667       0.005
   0.15000000  0.00000000  0.04166667       0.005
   0.20000000  0.00000000  0.04166667       0.005
   0.25000000  0.00000000  0.04166667       0.005
   0.30000000  0.00000000  0.04166667       0.005
   0.35000000  0.00000000  0.04166667       0.005
   0.40000000  0.00000000  0.04166667       0.005
   0.45000000  0.00000000  0.04166667       0.005
   0.50000000  0.00000000  0.04166667       0.003
   0.05000000  0.05000000  0.04166667       0.005
   0.10000000  0.05000000  0.04166667       0.010
   0.15000000  0.05000000  0.04166667       0.010
   0.20000000  0.05000000  0.04166667       0.010
   0.25000000  0.05000000  0.04166667       0.010
   0.30000000  0.05000000  0.04166667       0.010
   0.35000000  0.05000000  0.04166667       0.010
   0.40000000  0.05000000  0.04166667       0.010
   0.45000000  0.05000000  0.04166667       0.010
   0.50000000  0.05000000  0.04166667       0.005
   0.10000000  0.10000000  0.04166667       0.005
   0.15000000  0.10000000  0.04166667       0.010
   0.20000000  0.10000000  0.04166667       0.010
   0.25000000  0.10000000  0.04166667       0.010
   0.30000000  0.10000000  0.04166667       0.010
   0.35000000  0.10000000  0.04166667       0.010
   0.40000000  0.10000000  0.04166667       0.010
   0.45000000  0.10000000  0.04166667       0.010
   0.50000000  0.10000000  0.04166667       0.005
   0.15000000  0.15000000  0.04166667       0.005
   0.20000000  0.15000000  0.04166667       0.010
   0.25000000  0.15000000  0.04166667       0.010
   0.30000000  0.15000000  0.04166667       0.010
   0.35000000  0.15000000  0.04166667       0.010
   0.40000000  0.15000000  0.04166667       0.010
   0.45000000  0.15000000  0.04166667       0.010
   0.50000000  0.15000000  0.04166667       0.005
   0.20000000  0.20000000  0.04166667       0.005
   0.25000000  0.20000000  0.04166667       0.010
   0.30000000  0.20000000  0.04166667       0.010
   0.35000000  0.20000000  0.04166667       0.010
   0.40000000  0.20000000  0.04166667       0.010
   0.45000000  0.20000000  0.04166667       0.010
   0.50000000  0.20000000  0.04166667       0.005
   0.25000000  0.25000000  0.04166667       0.005
   0.30000000  0.25000000  0.04166667       0.010
   0.35000000  0.25000000  0.04166667       0.010
   0.40000000  0.25000000  0.04166667       0.010
   0.45000000  0.25000000  0.04166667       0.010
   0.50000000  0.25000000  0.04166667       0.005
   0.30000000  0.30000000  0.04166667       0.005
   0.35000000  0.30000000  0.04166667       0.010
   0.40000000  0.30000000  0.04166667       0.010
   0.45000000  0.30000000  0.04166667       0.010
   0.50000000  0.30000000  0.04166667       0.005
   0.35000000  0.35000000  0.04166667       0.005
   0.40000000  0.35000000  0.04166667       0.010
   0.45000000  0.35000000  0.04166667       0.010
   0.50000000  0.35000000  0.04166667       0.005
   0.40000000  0.40000000  0.04166667       0.005
   0.45000000  0.40000000  0.04166667       0.010
   0.50000000  0.40000000  0.04166667       0.005
   0.45000000  0.45000000  0.04166667       0.005
   0.50000000  0.45000000  0.04166667       0.005
   0.50000000  0.50000000  0.04166667       0.001
   0.00000000  0.00000000  0.08333333       0.001
   0.05000000  0.00000000  0.08333333       0.003
   0.10000000  0.00000000  0.08333333       0.003
   0.15000000  0.00000000  0.08333333       0.003
   0.20000000  0.00000000  0.08333333       0.003
   0.25000000  0.00000000  0.08333333       0.003
   0.30000000  0.00000000  0.08333333       0.003
   0.35000000  0.00000000  0.08333333       0.003
   0.40000000  0.00000000  0.08333333       0.003
   0.45000000  0.00000000  0.08333333       0.003
   0.50000000  0.00000000  0.08333333       0.001
   0.05000000  0.05000000  0.08333333       0.003
   0.10000000  0.05000000  0.08333333       0.005
   0.15000000  0.05000000  0.08333333       0.005
   0.20000000  0.05000000  0.08333333       0.005
   0.25000000  0.05000000  0.08333333       0.005
   0.30000000  0.05000000  0.08333333       0.005
   0.35000000  0.05000000  0.08333333       0.005
   0.40000000  0.05000000  0.08333333       0.005
   0.45000000  0.05000000  0.08333333       0.005
   0.50000000  0.05000000  0.08333333       0.003
   0.10000000  0.10000000  0.08333333       0.003
   0.15000000  0.10000000  0.08333333       0.005
   0.20000000  0.10000000  0.08333333       0.005
   0.25000000  0.10000000  0.08333333       0.005
   0.30000000  0.10000000  0.08333333       0.005
   0.35000000  0.10000000  0.08333333       0.005
   0.40000000  0.10000000  0.08333333       0.005
   0.45000000  0.10000000  0.08333333       0.005
   0.50000000  0.10000000  0.08333333       0.003
   0.15000000  0.15000000  0.08333333       0.003
   0.20000000  0.15000000  0.08333333       0.005
   0.25000000  0.15000000  0.08333333       0.005
   0.30000000  0.15000000  0.08333333       0.005
   0.35000000  0.15000000  0.08333333       0.005
   0.40000000  0.15000000  0.08333333       0.005
   0.45000000  0.15000000  0.08333333       0.005
   0.50000000  0.15000000  0.08333333       0.003
   0.20000000  0.20000000  0.08333333       0.003
   0.25000000  0.20000000  0.08333333       0.005
   0.30000000  0.20000000  0.08333333       0.005
   0.35000000  0.20000000  0.08333333       0.005
   0.40000000  0.20000000  0.08333333       0.005
   0.45000000  0.20000000  0.08333333       0.005
   0.50000000  0.20000000  0.08333333       0.003
   0.25000000  0.25000000  0.08333333       0.003
   0.30000000  0.25000000  0.08333333       0.005
   0.35000000  0.25000000  0.08333333       0.005
   0.40000000  0.25000000  0.08333333       0.005
   0.45000000  0.25000000  0.08333333       0.005
   0.50000000  0.25000000  0.08333333       0.003
   0.30000000  0.30000000  0.08333333       0.003
   0.35000000  0.30000000  0.08333333       0.005
   0.40000000  0.30000000  0.08333333       0.005
   0.45000000  0.30000000  0.08333333       0.005
   0.50000000  0.30000000  0.08333333       0.003
   0.35000000  0.35000000  0.08333333       0.003
   0.40000000  0.35000000  0.08333333       0.005
   0.45000000  0.35000000  0.08333333       0.005
   0.50000000  0.35000000  0.08333333       0.003
   0.40000000  0.40000000  0.08333333       0.003
   0.45000000  0.40000000  0.08333333       0.005
   0.50000000  0.40000000  0.08333333       0.003
   0.45000000  0.45000000  0.08333333       0.003
   0.50000000  0.45000000  0.08333333       0.003
   0.50000000  0.50000000  0.08333333       0.001
 
 k-points in reciprocal lattice and weights: Gamma 20*20*4                           
   0.00000000  0.00000000  0.00000000       0.001
   0.05000000  0.00000000  0.00000000       0.003
   0.10000000  0.00000000  0.00000000       0.003
   0.15000000  0.00000000  0.00000000       0.003
   0.20000000  0.00000000  0.00000000       0.003
   0.25000000  0.00000000  0.00000000       0.003
   0.30000000  0.00000000  0.00000000       0.003
   0.35000000  0.00000000  0.00000000       0.003
   0.40000000  0.00000000  0.00000000       0.003
   0.45000000  0.00000000  0.00000000       0.003
   0.50000000  0.00000000  0.00000000       0.001
   0.05000000  0.05000000  0.00000000       0.003
   0.10000000  0.05000000  0.00000000       0.005
   0.15000000  0.05000000  0.00000000       0.005
   0.20000000  0.05000000  0.00000000       0.005
   0.25000000  0.05000000  0.00000000       0.005
   0.30000000  0.05000000  0.00000000       0.005
   0.35000000  0.05000000  0.00000000       0.005
   0.40000000  0.05000000  0.00000000       0.005
   0.45000000  0.05000000  0.00000000       0.005
   0.50000000  0.05000000  0.00000000       0.003
   0.10000000  0.10000000  0.00000000       0.003
   0.15000000  0.10000000  0.00000000       0.005
   0.20000000  0.10000000  0.00000000       0.005
   0.25000000  0.10000000  0.00000000       0.005
   0.30000000  0.10000000  0.00000000       0.005
   0.35000000  0.10000000  0.00000000       0.005
   0.40000000  0.10000000  0.00000000       0.005
   0.45000000  0.10000000  0.00000000       0.005
   0.50000000  0.10000000  0.00000000       0.003
   0.15000000  0.15000000  0.00000000       0.003
   0.20000000  0.15000000  0.00000000       0.005
   0.25000000  0.15000000  0.00000000       0.005
   0.30000000  0.15000000  0.00000000       0.005
   0.35000000  0.15000000  0.00000000       0.005
   0.40000000  0.15000000  0.00000000       0.005
   0.45000000  0.15000000  0.00000000       0.005
   0.50000000  0.15000000  0.00000000       0.003
   0.20000000  0.20000000  0.00000000       0.003
   0.25000000  0.20000000  0.00000000       0.005
   0.30000000  0.20000000  0.00000000       0.005
   0.35000000  0.20000000  0.00000000       0.005
   0.40000000  0.20000000  0.00000000       0.005
   0.45000000  0.20000000  0.00000000       0.005
   0.50000000  0.20000000  0.00000000       0.003
   0.25000000  0.25000000  0.00000000       0.003
   0.30000000  0.25000000  0.00000000       0.005
   0.35000000  0.25000000  0.00000000       0.005
   0.40000000  0.25000000  0.00000000       0.005
   0.45000000  0.25000000  0.00000000       0.005
   0.50000000  0.25000000  0.00000000       0.003
   0.30000000  0.30000000  0.00000000       0.003
   0.35000000  0.30000000  0.00000000       0.005
   0.40000000  0.30000000  0.00000000       0.005
   0.45000000  0.30000000  0.00000000       0.005
   0.50000000  0.30000000  0.00000000       0.003
   0.35000000  0.35000000  0.00000000       0.003
   0.40000000  0.35000000  0.00000000       0.005
   0.45000000  0.35000000  0.00000000       0.005
   0.50000000  0.35000000  0.00000000       0.003
   0.40000000  0.40000000  0.00000000       0.003
   0.45000000  0.40000000  0.00000000       0.005
   0.50000000  0.40000000  0.00000000       0.003
   0.45000000  0.45000000  0.00000000       0.003
   0.50000000  0.45000000  0.00000000       0.003
   0.50000000  0.50000000  0.00000000       0.001
   0.00000000  0.00000000  0.25000000       0.001
   0.05000000  0.00000000  0.25000000       0.005
   0.10000000  0.00000000  0.25000000       0.005
   0.15000000  0.00000000  0.25000000       0.005
   0.20000000  0.00000000  0.25000000       0.005
   0.25000000  0.00000000  0.25000000       0.005
   0.30000000  0.00000000  0.25000000       0.005
   0.35000000  0.00000000  0.25000000       0.005
   0.40000000  0.00000000  0.25000000       0.005
   0.45000000  0.00000000  0.25000000       0.005
   0.50000000  0.00000000  0.25000000       0.003
   0.05000000  0.05000000  0.25000000       0.005
   0.10000000  0.05000000  0.25000000       0.010
   0.15000000  0.05000000  0.25000000       0.010
   0.20000000  0.05000000  0.25000000       0.010
   0.25000000  0.05000000  0.25000000       0.010
   0.30000000  0.05000000  0.25000000       0.010
   0.35000000  0.05000000  0.25000000       0.010
   0.40000000  0.05000000  0.25000000       0.010
   0.45000000  0.05000000  0.25000000       0.010
   0.50000000  0.05000000  0.25000000       0.005
   0.10000000  0.10000000  0.25000000       0.005
   0.15000000  0.10000000  0.25000000       0.010
   0.20000000  0.10000000  0.25000000       0.010
   0.25000000  0.10000000  0.25000000       0.010
   0.30000000  0.10000000  0.25000000       0.010
   0.35000000  0.10000000  0.25000000       0.010
   0.40000000  0.10000000  0.25000000       0.010
   0.45000000  0.10000000  0.25000000       0.010
   0.50000000  0.10000000  0.25000000       0.005
   0.15000000  0.15000000  0.25000000       0.005
   0.20000000  0.15000000  0.25000000       0.010
   0.25000000  0.15000000  0.25000000       0.010
   0.30000000  0.15000000  0.25000000       0.010
   0.35000000  0.15000000  0.25000000       0.010
   0.40000000  0.15000000  0.25000000       0.010
   0.45000000  0.15000000  0.25000000       0.010
   0.50000000  0.15000000  0.25000000       0.005
   0.20000000  0.20000000  0.25000000       0.005
   0.25000000  0.20000000  0.25000000       0.010
   0.30000000  0.20000000  0.25000000       0.010
   0.35000000  0.20000000  0.25000000       0.010
   0.40000000  0.20000000  0.25000000       0.010
   0.45000000  0.20000000  0.25000000       0.010
   0.50000000  0.20000000  0.25000000       0.005
   0.25000000  0.25000000  0.25000000       0.005
   0.30000000  0.25000000  0.25000000       0.010
   0.35000000  0.25000000  0.25000000       0.010
   0.40000000  0.25000000  0.25000000       0.010
   0.45000000  0.25000000  0.25000000       0.010
   0.50000000  0.25000000  0.25000000       0.005
   0.30000000  0.30000000  0.25000000       0.005
   0.35000000  0.30000000  0.25000000       0.010
   0.40000000  0.30000000  0.25000000       0.010
   0.45000000  0.30000000  0.25000000       0.010
   0.50000000  0.30000000  0.25000000       0.005
   0.35000000  0.35000000  0.25000000       0.005
   0.40000000  0.35000000  0.25000000       0.010
   0.45000000  0.35000000  0.25000000       0.010
   0.50000000  0.35000000  0.25000000       0.005
   0.40000000  0.40000000  0.25000000       0.005
   0.45000000  0.40000000  0.25000000       0.010
   0.50000000  0.40000000  0.25000000       0.005
   0.45000000  0.45000000  0.25000000       0.005
   0.50000000  0.45000000  0.25000000       0.005
   0.50000000  0.50000000  0.25000000       0.001
   0.00000000  0.00000000  0.50000000       0.001
   0.05000000  0.00000000  0.50000000       0.003
   0.10000000  0.00000000  0.50000000       0.003
   0.15000000  0.00000000  0.50000000       0.003
   0.20000000  0.00000000  0.50000000       0.003
   0.25000000  0.00000000  0.50000000       0.003
   0.30000000  0.00000000  0.50000000       0.003
   0.35000000  0.00000000  0.50000000       0.003
   0.40000000  0.00000000  0.50000000       0.003
   0.45000000  0.00000000  0.50000000       0.003
   0.50000000  0.00000000  0.50000000       0.001
   0.05000000  0.05000000  0.50000000       0.003
   0.10000000  0.05000000  0.50000000       0.005
   0.15000000  0.05000000  0.50000000       0.005
   0.20000000  0.05000000  0.50000000       0.005
   0.25000000  0.05000000  0.50000000       0.005
   0.30000000  0.05000000  0.50000000       0.005
   0.35000000  0.05000000  0.50000000       0.005
   0.40000000  0.05000000  0.50000000       0.005
   0.45000000  0.05000000  0.50000000       0.005
   0.50000000  0.05000000  0.50000000       0.003
   0.10000000  0.10000000  0.50000000       0.003
   0.15000000  0.10000000  0.50000000       0.005
   0.20000000  0.10000000  0.50000000       0.005
   0.25000000  0.10000000  0.50000000       0.005
   0.30000000  0.10000000  0.50000000       0.005
   0.35000000  0.10000000  0.50000000       0.005
   0.40000000  0.10000000  0.50000000       0.005
   0.45000000  0.10000000  0.50000000       0.005
   0.50000000  0.10000000  0.50000000       0.003
   0.15000000  0.15000000  0.50000000       0.003
   0.20000000  0.15000000  0.50000000       0.005
   0.25000000  0.15000000  0.50000000       0.005
   0.30000000  0.15000000  0.50000000       0.005
   0.35000000  0.15000000  0.50000000       0.005
   0.40000000  0.15000000  0.50000000       0.005
   0.45000000  0.15000000  0.50000000       0.005
   0.50000000  0.15000000  0.50000000       0.003
   0.20000000  0.20000000  0.50000000       0.003
   0.25000000  0.20000000  0.50000000       0.005
   0.30000000  0.20000000  0.50000000       0.005
   0.35000000  0.20000000  0.50000000       0.005
   0.40000000  0.20000000  0.50000000       0.005
   0.45000000  0.20000000  0.50000000       0.005
   0.50000000  0.20000000  0.50000000       0.003
   0.25000000  0.25000000  0.50000000       0.003
   0.30000000  0.25000000  0.50000000       0.005
   0.35000000  0.25000000  0.50000000       0.005
   0.40000000  0.25000000  0.50000000       0.005
   0.45000000  0.25000000  0.50000000       0.005
   0.50000000  0.25000000  0.50000000       0.003
   0.30000000  0.30000000  0.50000000       0.003
   0.35000000  0.30000000  0.50000000       0.005
   0.40000000  0.30000000  0.50000000       0.005
   0.45000000  0.30000000  0.50000000       0.005
   0.50000000  0.30000000  0.50000000       0.003
   0.35000000  0.35000000  0.50000000       0.003
   0.40000000  0.35000000  0.50000000       0.005
   0.45000000  0.35000000  0.50000000       0.005
   0.50000000  0.35000000  0.50000000       0.003
   0.40000000  0.40000000  0.50000000       0.003
   0.45000000  0.40000000  0.50000000       0.005
   0.50000000  0.40000000  0.50000000       0.003
   0.45000000  0.45000000  0.50000000       0.003
   0.50000000  0.45000000  0.50000000       0.003
   0.50000000  0.50000000  0.50000000       0.001
 
 position of ions in fractional coordinates (direct lattice) 
   0.00000000  0.00000000  0.00000000
   0.50000000  0.50000000  0.08333333
   0.00000000  0.00000000  0.16666667
   0.50000000  0.50000000  0.25000000
   0.00000000  0.00000000  0.33333333
 
 position of ions in cartesian coordinates  (Angst):
   0.00000000  0.00000000  0.00000000
   1.58000000  1.58000000  1.58000000
   0.00000000  0.00000000  3.16000000
   1.58000000  1.58000000  4.74000000
   0.00000000  0.00000000  6.32000000
 


--------------------------------------------------------------------------------------------------------


 k-point  1 :   0.0000 0.0000 0.0000  plane waves:    6283
 k-point  2 :   0.0500 0.0000 0.0000  plane waves:    6279
 k-point  3 :   0.1000 0.0000 0.0000  plane waves:    6307
 k-point  4 :   0.1500 0.0000 0.0000  plane waves:    6341
 k-point  5 :   0.2000 0.0000 0.0000  plane waves:    6323
 k-point  6 :   0.2500 0.0000 0.0000  plane waves:    6335
 k-point  7 :   0.3000 0.0000 0.0000  plane waves:    6335
 k-point  8 :   0.3500 0.0000 0.0000  plane waves:    6348
 k-point  9 :   0.4000 0.0000 0.0000  plane waves:    6348
 k-point 10 :   0.4500 0.0000 0.0000  plane waves:    6354
 k-point 11 :   0.5000 0.0000 0.0000  plane waves:    6352
 k-point 12 :   0.0500 0.0500 0.0000  plane waves:    6299
 k-point 13 :   0.1000 0.0500 0.0000  plane waves:    6321
 k-point 14 :   0.1500 0.0500 0.0000  plane waves:    6328
 k-point 15 :   0.2000 0.0500 0.0000  plane waves:    6329
 k-point 16 :   0.2500 0.0500 0.0000  plane waves:    6343
 k-point 17 :   0.3000 0.0500 0.0000  plane waves:    6341
 k-point 18 :   0.3500 0.0500 0.0000  plane waves:    6338
 k-point 19 :   0.4000 0.0500 0.0000  plane waves:    6352
 k-point 20 :   0.4500 0.0500 0.0000  plane waves:    6353
 k-point 21 :   0.5000 0.0500 0.0000  plane waves:    6340
 k-point 22 :   0.1000 0.1000 0.0000  plane waves:    6327
 k-point 23 :   0.1500 0.1000 0.0000  plane waves:    6335
 k-point 24 :   0.2000 0.1000 0.0000  plane waves:    6321
 k-point 25 :   0.2500 0.1000 0.0000  plane waves:    6311
 k-point 26 :   0.3000 0.1000 0.0000  plane waves:    6312
 k-point 27 :   0.3500 0.1000 0.0000  plane waves:    6321
 k-point 28 :   0.4000 0.1000 0.0000  plane waves:    6345
 k-point 29 :   0.4500 0.1000 0.0000  plane waves:    6345
 k-point 30 :   0.5000 0.1000 0.0000  plane waves:    6326
 k-point 31 :   0.1500 0.1500 0.0000  plane waves:    6335
 k-point 32 :   0.2000 0.1500 0.0000  plane waves:    6337
 k-point 33 :   0.2500 0.1500 0.0000  plane waves:    6323
 k-point 34 :   0.3000 0.1500 0.0000  plane waves:    6310
 k-point 35 :   0.3500 0.1500 0.0000  plane waves:    6311
 k-point 36 :   0.4000 0.1500 0.0000  plane waves:    6316
 k-point 37 :   0.4500 0.1500 0.0000  plane waves:    6323
 k-point 38 :   0.5000 0.1500 0.0000  plane waves:    6328
 k-point 39 :   0.2000 0.2000 0.0000  plane waves:    6313
 k-point 40 :   0.2500 0.2000 0.0000  plane waves:    6317
 k-point 41 :   0.3000 0.2000 0.0000  plane waves:    6301
 k-point 42 :   0.3500 0.2000 0.0000  plane waves:    6311
 k-point 43 :   0.4000 0.2000 0.0000  plane waves:    6327
 k-point 44 :   0.4500 0.2000 0.0000  plane waves:    6315
 k-point 45 :   0.5000 0.2000 0.0000  plane waves:    6316
 k-point 46 :   0.2500 0.2500 0.0000  plane waves:    6299
 k-point 47 :   0.3000 0.2500 0.0000  plane waves:    6300
 k-point 48 :   0.3500 0.2500 0.0000  plane waves:    6311
 k-point 49 :   0.4000 0.2500 0.0000  plane waves:    6318
 k-point 50 :   0.4500 0.2500 0.0000  plane waves:    6311
 k-point 51 :   0.5000 0.2500 0.0000  plane waves:    6306
 k-point 52 :   0.3000 0.3000 0.0000  plane waves:    6311
 k-point 53 :   0.3500 0.3000 0.0000  plane waves:    6300
 k-point 54 :   0.4000 0.3000 0.0000  plane waves:    6291
 k-point 55 :   0.4500 0.3000 0.0000  plane waves:    6306
 k-point 56 :   0.5000 0.3000 0.0000  plane waves:    6310
 k-point 57 :   0.3500 0.3500 0.0000  plane waves:    6287
 k-point 58 :   0.4000 0.3500 0.0000  plane waves:    6291
 k-point 59 :   0.4500 0.3500 0.0000  plane waves:    6290
 k-point 60 :   0.5000 0.3500 0.0000  plane waves:    6290
 k-point 61 :   0.4000 0.4000 0.0000  plane waves:    6287
 k-point 62 :   0.4500 0.4000 0.0000  plane waves:    6279
 k-point 63 :   0.5000 0.4000 0.0000  plane waves:    6294
 k-point 64 :   0.4500 0.4500 0.0000  plane waves:    6293
 k-point 65 :   0.5000 0.4500 0.0000  plane waves:    6284
 k-point 66 :   0.5000 0.5000 0.0000  plane waves:    6280
 k-point 67 :   0.0000 0.0000 0.2500  plane waves:    6276
 k-point 68 :   0.0500 0.0000 0.2500  plane waves:    6301
 k-point 69 :   0.1000 0.0000 0.2500  plane waves:    6301
 k-point 70 :   0.1500 0.0000 0.2500  plane waves:    6326
 k-point 71 :   0.2000 0.0000 0.2500  plane waves:    6345
 k-point 72 :   0.2500 0.0000 0.2500  plane waves:    6351
 k-point 73 :   0.3000 0.0000 0.2500  plane waves:    6336
 k-point 74 :   0.3500 0.0000 0.2500  plane waves:    6347
 k-point 75 :   0.4000 0.0000 0.2500  plane waves:    6343
 k-point 76 :   0.4500 0.0000 0.2500  plane waves:    6349
 k-point 77 :   0.5000 0.0000 0.2500  plane waves:    6356
 k-point 78 :   0.0500 0.0500 0.2500  plane waves:    6312
 k-point 79 :   0.1000 0.0500 0.2500  plane waves:    6318
 k-point 80 :   0.1500 0.0500 0.2500  plane waves:    6319
 k-point 81 :   0.2000 0.0500 0.2500  plane waves:    6326
 k-point 82 :   0.2500 0.0500 0.2500  plane waves:    6333
 k-point 83 :   0.3000 0.0500 0.2500  plane waves:    6336
 k-point 84 :   0.3500 0.0500 0.2500  plane waves:    6346
 k-point 85 :   0.4000 0.0500 0.2500  plane waves:    6343
 k-point 86 :   0.4500 0.0500 0.2500  plane waves:    6349
 k-point 87 :   0.5000 0.0500 0.2500  plane waves:    6354
 k-point 88 :   0.1000 0.1000 0.2500  plane waves:    6334
 k-point 89 :   0.1500 0.1000 0.2500  plane waves:    6337
 k-point 90 :   0.2000 0.1000 0.2500  plane waves:    6331
 k-point 91 :   0.2500 0.1000 0.2500  plane waves:    6322
 k-point 92 :   0.3000 0.1000 0.2500  plane waves:    6328
 k-point 93 :   0.3500 0.1000 0.2500  plane waves:    6321
 k-point 94 :   0.4000 0.1000 0.2500  plane waves:    6329
 k-point 95 :   0.4500 0.1000 0.2500  plane waves:    6342
 k-point 96 :   0.5000 0.1000 0.2500  plane waves:    6332
 k-point 97 :   0.1500 0.1500 0.2500  plane waves:    6336
 k-point 98 :   0.2000 0.1500 0.2500  plane waves:    6331
 k-point 99 :   0.2500 0.1500 0.2500  plane waves:    6325
 k-point ** :   0.3000 0.1500 0.2500  plane waves:    6323
 k-point ** :   0.3500 0.1500 0.2500  plane waves:    6315
 k-point ** :   0.4000 0.1500 0.2500  plane waves:    6321
 k-point ** :   0.4500 0.1500 0.2500  plane waves:    6316
 k-point ** :   0.5000 0.1500 0.2500  plane waves:    6316
 k-point ** :   0.2000 0.2000 0.2500  plane waves:    6319
 k-point ** :   0.2500 0.2000 0.2500  plane waves:    6312
 k-point ** :   0.3000 0.2000 0.2500  plane waves:    6311
 k-point ** :   0.3500 0.2000 0.2500  plane waves:    6311
 k-point ** :   0.4000 0.2000 0.2500  plane waves:    6308
 k-point ** :   0.4500 0.2000 0.2500  plane waves:    6316
 k-point ** :   0.5000 0.2000 0.2500  plane waves:    6312
 k-point ** :   0.2500 0.2500 0.2500  plane waves:    6307
 k-point ** :   0.3000 0.2500 0.2500  plane waves:    6298
 k-point ** :   0.3500 0.2500 0.2500  plane waves:    6306
 k-point ** :   0.4000 0.2500 0.2500  plane waves:    6311
 k-point ** :   0.4500 0.2500 0.2500  plane waves:    6315
 k-point ** :   0.5000 0.2500 0.2500  plane waves:    6320
 k-point ** :   0.3000 0.3000 0.2500  plane waves:    6285
 k-point ** :   0.3500 0.3000 0.2500  plane waves:    6296
 k-point ** :   0.4000 0.3000 0.2500  plane waves:    6291
 k-point ** :   0.4500 0.3000 0.2500  plane waves:    6292
 k-point ** :   0.5000 0.3000 0.2500  plane waves:    6296
 k-point ** :   0.3500 0.3500 0.2500  plane waves:    6293
 k-point ** :   0.4000 0.3500 0.2500  plane waves:    6289
 k-point ** :   0.4500 0.3500 0.2500  plane waves:    6297
 k-point ** :   0.5000 0.3500 0.2500  plane waves:    6304
 k-point ** :   0.4000 0.4000 0.2500  plane waves:    6302
 k-point ** :   0.4500 0.4000 0.2500  plane waves:    6300
 k-point ** :   0.5000 0.4000 0.2500  plane waves:    6300
 k-point ** :   0.4500 0.4500 0.2500  plane waves:    6294
 k-point ** :   0.5000 0.4500 0.2500  plane waves:    6288
 k-point ** :   0.5000 0.5000 0.2500  plane waves:    6280
 k-point ** :   0.0000 0.0000 0.5000  plane waves:    6268
 k-point ** :   0.0500 0.0000 0.5000  plane waves:    6290
 k-point ** :   0.1000 0.0000 0.5000  plane waves:    6306
 k-point ** :   0.1500 0.0000 0.5000  plane waves:    6328
 k-point ** :   0.2000 0.0000 0.5000  plane waves:    6350
 k-point ** :   0.2500 0.0000 0.5000  plane waves:    6326
 k-point ** :   0.3000 0.0000 0.5000  plane waves:    6346
 k-point ** :   0.3500 0.0000 0.5000  plane waves:    6352
 k-point ** :   0.4000 0.0000 0.5000  plane waves:    6346
 k-point ** :   0.4500 0.0000 0.5000  plane waves:    6338
 k-point ** :   0.5000 0.0000 0.5000  plane waves:    6376
 k-point ** :   0.0500 0.0500 0.5000  plane waves:    6304
 k-point ** :   0.1000 0.0500 0.5000  plane waves:    6314
 k-point ** :   0.1500 0.0500 0.5000  plane waves:    6330
 k-point ** :   0.2000 0.0500 0.5000  plane waves:    6330
 k-point ** :   0.2500 0.0500 0.5000  plane waves:    6326
 k-point ** :   0.3000 0.0500 0.5000  plane waves:    6330
 k-point ** :   0.3500 0.0500 0.5000  plane waves:    6338
 k-point ** :   0.4000 0.0500 0.5000  plane waves:    6338
 k-point ** :   0.4500 0.0500 0.5000  plane waves:    6336
 k-point ** :   0.5000 0.0500 0.5000  plane waves:    6368
 k-point ** :   0.1000 0.1000 0.5000  plane waves:    6324
 k-point ** :   0.1500 0.1000 0.5000  plane waves:    6338
 k-point ** :   0.2000 0.1000 0.5000  plane waves:    6336
 k-point ** :   0.2500 0.1000 0.5000  plane waves:    6322
 k-point ** :   0.3000 0.1000 0.5000  plane waves:    6326
 k-point ** :   0.3500 0.1000 0.5000  plane waves:    6334
 k-point ** :   0.4000 0.1000 0.5000  plane waves:    6340
 k-point ** :   0.4500 0.1000 0.5000  plane waves:    6340
 k-point ** :   0.5000 0.1000 0.5000  plane waves:    6340
 k-point ** :   0.1500 0.1500 0.5000  plane waves:    6340
 k-point ** :   0.2000 0.1500 0.5000  plane waves:    6330
 k-point ** :   0.2500 0.1500 0.5000  plane waves:    6320
 k-point ** :   0.3000 0.1500 0.5000  plane waves:    6318
 k-point ** :   0.3500 0.1500 0.5000  plane waves:    6320
 k-point ** :   0.4000 0.1500 0.5000  plane waves:    6320
 k-point ** :   0.4500 0.1500 0.5000  plane waves:    6328
 k-point ** :   0.5000 0.1500 0.5000  plane waves:    6304
 k-point ** :   0.2000 0.2000 0.5000  plane waves:    6318
 k-point ** :   0.2500 0.2000 0.5000  plane waves:    6308
 k-point ** :   0.3000 0.2000 0.5000  plane waves:    6310
 k-point ** :   0.3500 0.2000 0.5000  plane waves:    6316
 k-point ** :   0.4000 0.2000 0.5000  plane waves:    6308
 k-point ** :   0.4500 0.2000 0.5000  plane waves:    6308
 k-point ** :   0.5000 0.2000 0.5000  plane waves:    6304
 k-point ** :   0.2500 0.2500 0.5000  plane waves:    6340
 k-point ** :   0.3000 0.2500 0.5000  plane waves:    6308
 k-point ** :   0.3500 0.2500 0.5000  plane waves:    6304
 k-point ** :   0.4000 0.2500 0.5000  plane waves:    6302
 k-point ** :   0.4500 0.2500 0.5000  plane waves:    6308
 k-point ** :   0.5000 0.2500 0.5000  plane waves:    6312
 k-point ** :   0.3000 0.3000 0.5000  plane waves:    6280
 k-point ** :   0.3500 0.3000 0.5000  plane waves:    6288
 k-point ** :   0.4000 0.3000 0.5000  plane waves:    6298
 k-point ** :   0.4500 0.3000 0.5000  plane waves:    6292
 k-point ** :   0.5000 0.3000 0.5000  plane waves:    6300
 k-point ** :   0.3500 0.3500 0.5000  plane waves:    6278
 k-point ** :   0.4000 0.3500 0.5000  plane waves:    6288
 k-point ** :   0.4500 0.3500 0.5000  plane waves:    6308
 k-point ** :   0.5000 0.3500 0.5000  plane waves:    6300
 k-point ** :   0.4000 0.4000 0.5000  plane waves:    6298
 k-point ** :   0.4500 0.4000 0.5000  plane waves:    6314
 k-point ** :   0.5000 0.4000 0.5000  plane waves:    6300
 k-point ** :   0.4500 0.4500 0.5000  plane waves:    6306
 k-point ** :   0.5000 0.4500 0.5000  plane waves:    6312
 k-point ** :   0.5000 0.5000 0.5000  plane waves:    6288

 maximum and minimum number of plane-waves per node :      6376     6268

 maximum number of plane-waves:      6376
 maximum index in each direction: 
   IXMAX=    6   IYMAX=    6   IZMAX=   37
   IXMIN=   -6   IYMIN=   -6   IZMIN=  -38


 serial   3D FFT for wavefunctions
 parallel 3D FFT for charge:
    minimum data exchange during FFTs selected (reduces bandwidth)


 total amount of memory used by VASP MPI-rank0   659948. kBytes
=======================================================================

   base      :      30000. kBytes
   nonl-proj :     182302. kBytes
   fftplans  :      26112. kBytes
   grid      :      32256. kBytes
   one-center:         77. kBytes
   wavefun   :     389201. kBytes
 
     INWAV:  cpu time    0.0001: real time    0.0003
 initial charge density was supplied:
 number of electron      30.0000001 magnetization 
 keeping initial charge density in first step


--------------------------------------------------------------------------------------------------------


 Maximum index for augmentation-charges        13949 (set IRDMAX)


--------------------------------------------------------------------------------------------------------


 First call to EWALD:  gamma=   0.309
 Maximum number of real-space cells 5x 5x 1
 Maximum number of reciprocal cells 2x 2x 8

    FEWALD:  cpu time    0.0015: real time    0.0015


--------------------------------------- Iteration      1(   1)  ---------------------------------------


    POTLOK:  cpu time    0.0676: real time    0.0809
    SETDIJ:  cpu time    0.0148: real time    0.0148
     EDDAV:  cpu time   26.4167: real time   26.5780
 BZINTS: Fermi energy: 11.060929; 30.000000 electrons
         Band energy: 135.012869;  BLOECHL correction: -0.149639
       DOS:  cpu time    0.0898: real time    0.1045
    --------------------------------------------
      LOOP:  cpu time   26.5890: real time   26.7783

 eigenvalue-minimisations  :  7524
 total energy-change (2. order) : 0.1349584E+03  (-0.1223961E+04)
 number of electron      30.0000001 magnetization 
 augmentation part       30.0000001 magnetization 

 Free energy of the ion-electron system (eV)
  ---------------------------------------------------
  alpha Z        PSCENC =        92.17273665
  Ewald energy   TEWEN  =      3037.32980781
  -Hartree energ DENC   =     -4208.03515457
  -exchange      EXHF   =         0.00000000
  -V(xc)+E(xc)   XCENC  =      -236.30637207
  PAW double counting   =      1120.75258868     -838.65035193
  entropy T*S    EENTRO =         0.00000000
  eigenvalues    EBANDS =       135.01286893
  atomic energy  EATOM  =      1032.68232307
  Solvation  Ediel_sol  =         0.00000000
  ---------------------------------------------------
  free energy    TOTEN  =       134.95844657 eV

  energy without entropy =      134.95844657  energy(sigma->0) =      134.95844657


--------------------------------------------------------------------------------------------------------




--------------------------------------- Iteration      1(   2)  ---------------------------------------


     EDDAV:  cpu time   34.9903: real time   35.0905
 BZINTS: Fermi energy:  1.874973; 30.000000 electrons
         Band energy: -45.611292;  BLOECHL correction: -0.086259
       DOS:  cpu time    0.0789: real time    0.0791
    --------------------------------------------
      LOOP:  cpu time   35.0691: real time   35.1695

 eigenvalue-minimisations  : 10738
 total energy-change (2. order) :-0.1806242E+03  (-0.1737296E+03)
 number of electron      30.0000001 magnetization 
 augmentation part       30.0000001 magnetization 

 Free energy of the ion-electron system (eV)
  ---------------------------------------------------
  alpha Z        PSCENC =        92.17273665
  Ewald energy   TEWEN  =      3037.32980781
  -Hartree energ DENC   =     -4208.03515457
  -exchange      EXHF   =         0.00000000
  -V(xc)+E(xc)   XCENC  =      -236.30637207
  PAW double counting   =      1120.75258868     -838.65035193
  entropy T*S    EENTRO =         0.00000000
  eigenvalues    EBANDS =       -45.61129228
  atomic energy  EATOM  =      1032.68232307
  Solvation  Ediel_sol  =         0.00000000
  ---------------------------------------------------
  free energy    TOTEN  =       -45.66571465 eV

  energy without entropy =      -45.66571465  energy(sigma->0) =      -45.66571465


--------------------------------------------------------------------------------------------------------




--------------------------------------- Iteration      1(   3)  ---------------------------------------


     EDDAV:  cpu time   35.4941: real time   35.6011
 BZINTS: Fermi energy:  0.844317; 30.000000 electrons
         Band energy: -63.524709;  BLOECHL correction: -0.030179
       DOS:  cpu time    0.0701: real time    0.0703
    --------------------------------------------
      LOOP:  cpu time   35.5642: real time   35.6714

 eigenvalue-minimisations  : 10571
 total energy-change (2. order) :-0.1791342E+02  (-0.1706610E+02)
 number of electron      30.0000001 magnetization 
 augmentation part       30.0000001 magnetization 

 Free energy of the ion-electron system (eV)
  ---------------------------------------------------
  alpha Z        PSCENC =        92.17273665
  Ewald energy   TEWEN  =      3037.32980781
  -Hartree energ DENC   =     -4208.03515457
  -exchange      EXHF   =         0.00000000
  -V(xc)+E(xc)   XCENC  =      -236.30637207
  PAW double counting   =      1120.75258868     -838.65035193
  entropy T*S    EENTRO =         0.00000000
  eigenvalues    EBANDS =       -63.52470900
  atomic energy  EATOM  =      1032.68232307
  Solvation  Ediel_sol  =         0.00000000
  ---------------------------------------------------
  free energy    TOTEN  =       -63.57913136 eV

  energy without entropy =      -63.57913136  energy(sigma->0) =      -63.57913136


--------------------------------------------------------------------------------------------------------




--------------------------------------- Iteration      1(   4)  ---------------------------------------


     EDDAV:  cpu time   42.4724: real time   42.5994
 BZINTS: Fermi energy:  0.710465; 30.000000 electrons
         Band energy: -64.805750;  BLOECHL correction: -0.018818
       DOS:  cpu time    0.0802: real time    0.0804
    --------------------------------------------
      LOOP:  cpu time   42.5526: real time   42.6798

 eigenvalue-minimisations  : 13232
 total energy-change (2. order) :-0.1281041E+01  (-0.1205216E+01)
 number of electron      30.0000001 magnetization 
 augmentation part       30.0000001 magnetization 

 Free energy of the ion-electron system (eV)
  ---------------------------------------------------
  alpha Z        PSCENC =        92.17273665
  Ewald energy   TEWEN  =      3037.32980781
  -Hartree energ DENC   =     -4208.03515457
  -exchange      EXHF   =         0.00000000
  -V(xc)+E(xc)   XCENC  =      -236.30637207
  PAW double counting   =      1120.75258868     -838.65035193
  entropy T*S    EENTRO =         0.00000000
  eigenvalues    EBANDS =       -64.80575004
  atomic energy  EATOM  =      1032.68232307
  Solvation  Ediel_sol  =         0.00000000
  ---------------------------------------------------
  free energy    TOTEN  =       -64.86017240 eV

  energy without entropy =      -64.86017240  energy(sigma->0) =      -64.86017240


--------------------------------------------------------------------------------------------------------




--------------------------------------- Iteration      1(   5)  ---------------------------------------


     EDDAV:  cpu time   38.8126: real time   38.9339
 BZINTS: Fermi energy:  0.695182; 30.000000 electrons
         Band energy: -64.866803;  BLOECHL correction: -0.019186
       DOS:  cpu time    0.0839: real time    0.0841
    --------------------------------------------
      LOOP:  cpu time   38.8965: real time   39.0180

 eigenvalue-minimisations  : 11616
 total energy-change (2. order) :-0.6105259E-01  (-0.5682499E-01)
 number of electron      30.0000001 magnetization 
 augmentation part       30.0000001 magnetization 

 Free energy of the ion-electron system (eV)
  ---------------------------------------------------
  alpha Z        PSCENC =        92.17273665
  Ewald energy   TEWEN  =      3037.32980781
  -Hartree energ DENC   =     -4208.03515457
  -exchange      EXHF   =         0.00000000
  -V(xc)+E(xc)   XCENC  =      -236.30637207
  PAW double counting   =      1120.75258868     -838.65035193
  entropy T*S    EENTRO =         0.00000000
  eigenvalues    EBANDS =       -64.86680263
  atomic energy  EATOM  =      1032.68232307
  Solvation  Ediel_sol  =         0.00000000
  ---------------------------------------------------
  free energy    TOTEN  =       -64.92122499 eV

  energy without entropy =      -64.92122499  energy(sigma->0) =      -64.92122499


--------------------------------------------------------------------------------------------------------




--------------------------------------- Iteration      1(   6)  ---------------------------------------


     EDDAV:  cpu time   43.7887: real time   43.9261
 BZINTS: Fermi energy:  0.692598; 30.000000 electrons
         Band energy: -64.872096;  BLOECHL correction: -0.019275
       DOS:  cpu time    0.0841: real time    0.0844
    --------------------------------------------
      LOOP:  cpu time   43.8728: real time   44.0105

 eigenvalue-minimisations  : 13517
 total energy-change (2. order) :-0.5293566E-02  (-0.4979910E-02)
 number of electron      30.0000001 magnetization 
 augmentation part       30.0000001 magnetization 

 Free energy of the ion-electron system (eV)
  ---------------------------------------------------
  alpha Z        PSCENC =        92.17273665
  Ewald energy   TEWEN  =      3037.32980781
  -Hartree energ DENC   =     -4208.03515457
  -exchange      EXHF   =         0.00000000
  -V(xc)+E(xc)   XCENC  =      -236.30637207
  PAW double counting   =      1120.75258868     -838.65035193
  entropy T*S    EENTRO =         0.00000000
  eigenvalues    EBANDS =       -64.87209619
  atomic energy  EATOM  =      1032.68232307
  Solvation  Ediel_sol  =         0.00000000
  ---------------------------------------------------
  free energy    TOTEN  =       -64.92651855 eV

  energy without entropy =      -64.92651855  energy(sigma->0) =      -64.92651855


--------------------------------------------------------------------------------------------------------




--------------------------------------- Iteration      1(   7)  ---------------------------------------


     EDDAV:  cpu time   39.9357: real time   40.0599
 BZINTS: Fermi energy:  0.692266; 30.000000 electrons
         Band energy: -64.872590;  BLOECHL correction: -0.019302
       DOS:  cpu time    0.0866: real time    0.0877
    --------------------------------------------
      LOOP:  cpu time   40.0223: real time   40.1476

 eigenvalue-minimisations  : 12043
 total energy-change (2. order) :-0.4939999E-03  (-0.4694843E-03)
 number of electron      30.0000001 magnetization 
 augmentation part       30.0000001 magnetization 

 Free energy of the ion-electron system (eV)
  ---------------------------------------------------
  alpha Z        PSCENC =        92.17273665
  Ewald energy   TEWEN  =      3037.32980781
  -Hartree energ DENC   =     -4208.03515457
  -exchange      EXHF   =         0.00000000
  -V(xc)+E(xc)   XCENC  =      -236.30637207
  PAW double counting   =      1120.75258868     -838.65035193
  entropy T*S    EENTRO =         0.00000000
  eigenvalues    EBANDS =       -64.87259019
  atomic energy  EATOM  =      1032.68232307
  Solvation  Ediel_sol  =         0.00000000
  ---------------------------------------------------
  free energy    TOTEN  =       -64.92701255 eV

  energy without entropy =      -64.92701255  energy(sigma->0) =      -64.92701255


--------------------------------------------------------------------------------------------------------




--------------------------------------- Iteration      1(   8)  ---------------------------------------


     EDDAV:  cpu time   41.1717: real time   41.2998
 BZINTS: Fermi energy:  0.692211; 30.000000 electrons
         Band energy: -64.872646;  BLOECHL correction: -0.019305
       DOS:  cpu time    0.0839: real time    0.0842
    --------------------------------------------
      LOOP:  cpu time   41.2556: real time   41.3840

 eigenvalue-minimisations  : 12514
 total energy-change (2. order) :-0.5587850E-04  (-0.5174651E-04)
 number of electron      30.0000001 magnetization 
 augmentation part       30.0000001 magnetization 

 Free energy of the ion-electron system (eV)
  ---------------------------------------------------
  alpha Z        PSCENC =        92.17273665
  Ewald energy   TEWEN  =      3037.32980781
  -Hartree energ DENC   =     -4208.03515457
  -exchange      EXHF   =         0.00000000
[...]
 k-point   187 :       0.4500    0.3000    0.5000
  band No.  band energies     occupation 
      1      -4.5258      2.00000
      2      -4.1520      2.00000
      3      -3.3737      2.00000
      4      -3.1687      2.00000
      5      -3.0562      2.00000
      6      -2.4036      2.00000
      7      -2.1564      2.00000
      8      -2.0812      2.00000
      9      -1.6855      2.00000
     10      -1.6576      2.00000
     11      -1.4079      2.00000
     12      -0.9484      2.00000
     13      -0.6333      2.00000
     14       0.6080      1.44103
     15       0.7968      0.02038
     16       1.5755      0.00000
     17       1.7013      0.00000
     18       2.1381      0.00000
     19       2.4146      0.00000

 k-point   188 :       0.5000    0.3000    0.5000
  band No.  band energies     occupation 
      1      -4.4244      2.00000
      2      -4.2653      2.00000
      3      -3.3818      2.00000
      4      -3.1991      2.00000
      5      -3.0621      2.00000
      6      -2.4264      2.00000
      7      -2.1586      2.00000
      8      -2.1094      2.00000
      9      -1.6435      2.00000
     10      -1.5983      2.00000
     11      -1.4237      2.00000
     12      -0.8622      2.00000
     13      -0.5400      2.00000
     14       0.5962      1.44988
     15       0.8179     -0.01956
     16       1.7188      0.00000
     17       1.7975      0.00000
     18       2.1770      0.00000
     19       2.4258      0.00000

 k-point   189 :       0.3500    0.3500    0.5000
  band No.  band energies     occupation 
      1      -4.7630      2.00000
      2      -3.9834      2.00000
      3      -3.2049      2.00000
      4      -2.9095      2.00000
      5      -2.8756      2.00000
      6      -2.5146      2.00000
      7      -2.2845      2.00000
      8      -1.9746      2.00000
      9      -1.7762      2.00000
     10      -1.6002      2.00000
     11      -1.4866      2.00000
     12      -1.2645      2.00000
     13      -1.1747      2.00000
     14       0.8488      0.10321
     15       1.0065     -0.21064
     16       1.1464      0.00000
     17       1.1731      0.00000
     18       1.9880      0.00000
     19       2.2855      0.00000

 k-point   190 :       0.4000    0.3500    0.5000
  band No.  band energies     occupation 
      1      -4.6872      2.00000
      2      -4.1808      2.00000
      3      -3.2222      2.00000
      4      -2.9243      2.00000
      5      -2.7954      2.00000
      6      -2.4655      2.00000
      7      -2.3328      2.00000
      8      -2.0129      2.00000
      9      -1.8115      2.00000
     10      -1.6223      2.00000
     11      -1.3383      2.00000
     12      -1.1288      2.00000
     13      -0.9124      2.00000
     14       1.0798     -0.15054
     15       1.1557     -0.04966
     16       1.4886      0.00000
     17       1.6073      0.00000
     18       2.1242      0.00000
     19       2.3909      0.00000

 k-point   191 :       0.4500    0.3500    0.5000
  band No.  band energies     occupation 
      1      -4.6181      2.00000
      2      -4.3377      2.00000
      3      -3.2369      2.00000
      4      -3.0327      2.00000
      5      -2.7537      2.00000
      6      -2.4112      2.00000
      7      -2.3820      2.00000
      8      -2.0412      2.00000
      9      -1.9038      2.00000
     10      -1.5067      2.00000
     11      -1.3477      2.00000
     12      -0.8780      2.00000
     13      -0.6892      2.00000
     14       1.2004     -0.14621
     15       1.2028      0.00000
     16       1.8482      0.00000
     17       2.0192      0.00000
     18       2.2401      0.00000
     19       2.4620      0.00000

 k-point   192 :       0.5000    0.3500    0.5000
  band No.  band energies     occupation 
      1      -4.5718      2.00000
      2      -4.4157      2.00000
      3      -3.2357      2.00000
      4      -3.0819      2.00000
      5      -2.7356      2.00000
      6      -2.4503      2.00000
      7      -2.3519      2.00000
      8      -2.0728      2.00000
      9      -1.9271      2.00000
     10      -1.4468      2.00000
     11      -1.3582      2.00000
     12      -0.7352      2.00000
     13      -0.6409      2.00000
     14       1.2139     -0.14178
     15       1.2410      0.00000
     16       2.0137      0.00000
     17       2.1513      0.00000
     18       2.2872      0.00000
     19       2.4887      0.00000

 k-point   193 :       0.4000    0.4000    0.5000
  band No.  band energies     occupation 
      1      -4.7013      2.00000
      2      -4.3605      2.00000
      3      -3.2418      2.00000
      4      -2.7678      2.00000
      5      -2.6588      2.00000
      6      -2.6567      2.00000
      7      -2.3188      2.00000
      8      -1.9910      2.00000
      9      -1.8932      2.00000
     10      -1.6471      2.00000
     11      -1.3630      2.00000
     12      -0.9220      2.00000
     13      -0.6616      2.00000
     14       1.5171      0.00000
     15       1.7268      0.00000
     16       1.7392      0.00000
     17       1.8287      0.00000
     18       2.2634      0.00000
     19       2.4691      0.00000

 k-point   194 :       0.4500    0.4000    0.5000
  band No.  band energies     occupation 
      1      -4.7026      2.00000
      2      -4.4889      2.00000
      3      -3.2474      2.00000
      4      -2.8713      2.00000
      5      -2.6051      2.00000
      6      -2.5693      2.00000
      7      -2.3678      2.00000
      8      -2.1720      2.00000
      9      -1.8325      2.00000
     10      -1.5483      2.00000
     11      -1.4511      2.00000
     12      -0.6444      2.00000
     13      -0.4634      2.00000
     14       1.7414      0.00000
     15       1.8967      0.00000
     16       2.0901      0.00000
     17       2.2968      0.00000
     18       2.4112      0.00000
     19       2.5349      0.00000

 k-point   195 :       0.5000    0.4000    0.5000
  band No.  band energies     occupation 
      1      -4.6960      2.00000
      2      -4.5407      2.00000
      3      -3.2442      2.00000
      4      -2.9272      2.00000
      5      -2.5605      2.00000
      6      -2.5045      2.00000
      7      -2.4306      2.00000
      8      -2.2567      2.00000
      9      -1.8272      2.00000
     10      -1.4849      2.00000
     11      -1.4796      2.00000
     12      -0.5044      2.00000
     13      -0.4180      2.00000
     14       1.7974      0.00000
     15       1.9448      0.00000
     16       2.2828      0.00000
     17       2.3979      0.00000
     18       2.5456      0.00000
     19       2.5585      0.00000

 k-point   196 :       0.4500    0.4500    0.5000
  band No.  band energies     occupation 
      1      -4.7575      2.00000
      2      -4.5872      2.00000
      3      -3.2384      2.00000
      4      -2.7952      2.00000
      5      -2.7504      2.00000
      6      -2.4650      2.00000
      7      -2.3775      2.00000
      8      -2.3423      2.00000
      9      -1.6473      2.00000
     10      -1.6169      2.00000
     11      -1.5672      2.00000
     12      -0.3709      2.00000
     13      -0.2688      2.00000
     14       2.2318      0.00000
     15       2.2852      0.00000
     16       2.3676      0.00000
     17       2.5348      0.00000
     18       2.5894      0.00000
     19       2.7430      0.00000

 k-point   197 :       0.5000    0.4500    0.5000
  band No.  band energies     occupation 
      1      -4.7760      2.00000
      2      -4.6215      2.00000
      3      -3.2283      2.00000
      4      -2.8375      2.00000
      5      -2.7197      2.00000
      6      -2.4742      2.00000
      7      -2.3851      2.00000
      8      -2.3816      2.00000
      9      -1.6803      2.00000
     10      -1.6229      2.00000
     11      -1.5243      2.00000
     12      -0.2371      2.00000
     13      -0.2185      2.00000
     14       2.3253      0.00000
     15       2.4028      0.00000
     16       2.4885      0.00000
     17       2.6095      0.00000
     18       2.7568      0.00000
     19       2.9559      0.00000

 k-point   198 :       0.5000    0.5000    0.5000
  band No.  band energies     occupation 
      1      -4.8034      2.00000
      2      -4.6493      2.00000
      3      -3.2148      2.00000
      4      -2.7827      2.00000
      5      -2.7827      2.00000
      6      -2.5791      2.00000
      7      -2.3505      2.00000
      8      -2.3505      2.00000
      9      -1.7679      2.00000
     10      -1.5403      2.00000
     11      -1.5403      2.00000
     12      -0.1353      2.00000
     13      -0.1353      2.00000
     14       2.4434      0.00000
     15       2.5693      0.00000
     16       2.5693      0.00000
     17       2.6248      0.00000
     18       3.2147      0.00000
     19       3.2182      0.00000


--------------------------------------------------------------------------------------------------------


 soft charge-density along one line, spin component           1
         0         1         2         3         4         5         6         7         8         9
 total charge-density along one line
 
 pseudopotential strength for first ion, spin component:           1
 -8.129   0.000   0.000   0.000   0.000   0.000  -0.000   0.000   0.000   0.000   0.011   0.000   0.000   0.000   0.000   0.000
  0.000   0.000  -8.160   0.000  -0.000   0.000  -0.000   0.000   0.000   0.000   0.000   0.000   0.009   0.000  -0.000   0.000
  0.000   0.000  -0.000   0.000  -8.168   0.000   0.000   0.000   0.000   0.000   0.000   0.000  -0.000   0.000   0.008   0.000
 -0.000   0.000  -0.000   0.000   0.000   0.000  -8.160   0.000   0.000   0.000  -0.000   0.000  -0.000   0.000   0.000   0.000
  0.000   0.000   0.000   0.000   0.000   0.000   0.000   0.000  -8.127   0.000   0.000   0.000   0.000   0.000   0.000   0.000
  0.011   0.000   0.000   0.000   0.000   0.000  -0.000   0.000   0.000   0.000   0.076   0.000   0.000   0.000   0.000   0.000
  0.000   0.000   0.009   0.000  -0.000   0.000  -0.000   0.000   0.000   0.000   0.000   0.000   0.076   0.000  -0.000   0.000
  0.000   0.000  -0.000   0.000   0.008   0.000   0.000   0.000   0.000   0.000   0.000   0.000  -0.000   0.000   0.076   0.000
 -0.000   0.000  -0.000   0.000   0.000   0.000   0.009   0.000   0.000   0.000  -0.000   0.000  -0.000   0.000   0.000   0.000
  0.000   0.000   0.000   0.000   0.000   0.000   0.000   0.000   0.011   0.000  -0.000   0.000   0.000   0.000   0.000   0.000
  0.000   0.000   0.000   0.000   0.016   0.000  -0.000   0.000   0.000   0.000   0.000   0.000   0.000   0.000   0.001   0.000
 -0.000   0.000  -0.000   0.000  -0.002   0.000   0.000   0.000  -0.000   0.000  -0.000   0.000  -0.000   0.000  -0.000   0.000
  0.000   0.000  -0.025   0.000   0.000   0.000  -0.000   0.000   0.000   0.000   0.000   0.000  -0.001   0.000   0.000   0.000
 -0.000   0.000  -0.000   0.000  -0.043   0.000   0.000   0.000  -0.000   0.000   0.000   0.000  -0.000   0.000  -0.001   0.000
 -0.000   0.000  -0.000   0.000  -0.000   0.000  -0.025   0.000   0.000   0.000  -0.000   0.000   0.000   0.000  -0.000   0.000
 -0.000   0.000   0.021   0.000  -0.000   0.000   0.000   0.000  -0.000   0.000  -0.000   0.000   0.001   0.000  -0.000   0.000
  0.000   0.000   0.000   0.000   0.031   0.000  -0.000   0.000   0.000   0.000  -0.000   0.000   0.000   0.000   0.001   0.000
  0.000   0.000   0.000   0.000   0.000   0.000   0.021   0.000  -0.000   0.000   0.000   0.000  -0.000   0.000   0.000   0.000
 total augmentation occupancy for first ion, spin component:           1
  1.000   0.000   0.000   0.000   0.000   0.000   0.000   0.000   0.000   0.000   0.000   0.000   0.000   0.000   0.000   0.000
  0.000   1.000   0.000   0.000   0.000   0.000   0.000   0.000   0.000   0.000   0.000   0.000   0.000   0.000   0.000   0.000
  0.000   0.000   1.000   0.000   0.000   0.000   0.000   0.000   0.000   0.000   0.000   0.000   0.000   0.000   0.000   0.000
  0.000   0.000   0.000   1.000   0.000   0.000   0.000   0.000   0.000   0.000   0.000   0.000   0.000   0.000   0.000   0.000
  0.000   0.000   0.000   0.000   1.000   0.000   0.000   0.000   0.000   0.000   0.000   0.000   0.000   0.000   0.000   0.000
  0.000   0.000   0.000   0.000   0.000   0.000   0.000   0.000   0.000   0.000   0.000   0.000   0.000   0.000   0.000   0.000
  0.000   0.000   0.000   0.000   0.000   0.000   0.000   0.000   0.000   0.000   0.000   0.000   0.000   0.000   0.000   0.000
  0.000   0.000   0.000   0.000   0.000   0.000   0.000   0.000   0.000   0.000   0.000   0.000   0.000   0.000   0.000   0.000
  0.000   0.000   0.000   0.000   0.000   0.000   0.000   0.000   0.000   0.000   0.000   0.000   0.000   0.000   0.000   0.000
  0.000   0.000   0.000   0.000   0.000   0.000   0.000   0.000   0.000   0.000   0.000   0.000   0.000   0.000   0.000   0.000
  0.000   0.000   0.000   0.000   0.000   0.000   0.000   0.000   0.000   0.000   1.000   0.000   0.000   0.000   0.000   0.000
  0.000   0.000   0.000   0.000   0.000   0.000   0.000   0.000   0.000   0.000   0.000   0.000   0.000   0.000   0.000   0.000
  0.000   0.000   0.000   0.000   0.000   0.000   0.000   0.000   0.000   0.000   0.000   0.000   0.000   0.000   0.000   0.000
  0.000   0.000   0.000   0.000   0.000   0.000   0.000   0.000   0.000   0.000   0.000   0.000   0.000   0.000   0.000   0.000
  0.000   0.000   0.000   0.000   0.000   0.000   0.000   0.000   0.000   0.000   0.000   0.000   0.000   0.000   0.000   0.000
  0.000   0.000   0.000   0.000   0.000   0.000   0.000   0.000   0.000   0.000   0.000   0.000   0.000   0.000   0.000   0.000
  0.000   0.000   0.000   0.000   0.000   0.000   0.000   0.000   0.000   0.000   0.000   0.000   0.000   0.000   0.000   0.000
  0.000   0.000   0.000   0.000   0.000   0.000   0.000   0.000   0.000   0.000   0.000   0.000   0.000   0.000   0.000   0.000


------------------------ aborting loop because EDIFF is reached ----------------------------------------


    CHARGE:  cpu time    2.3233: real time    2.3299
    FORLOC:  cpu time    0.0281: real time    0.0282
    FORNL :  cpu time   16.4966: real time   16.5417
    STRESS:  cpu time   15.4306: real time   15.4740
    FORCOR:  cpu time    0.0890: real time    0.0893
    FORHAR:  cpu time    0.0756: real time    0.0758
    OFIELD:  cpu time    0.0014: real time    0.0014

  FORCE on cell =-STRESS in cart. coord.  units (eV):
  Direction    XX          YY          ZZ          XY          YZ          ZX
  --------------------------------------------------------------------------------------
  Alpha Z    92.17274    92.17274    92.17274
  Ewald    3997.59375  3997.59375 -4957.85860     0.00000     0.00000     0.00000
  Hartree  4195.89937  4195.89937 -4183.16255    -0.00000    -0.00000    -0.00000
  E(xc)    -132.88523  -132.88523  -131.73314     0.00000    -0.00000     0.00000
  Local   -8511.33027 -8511.33027  8828.32105     0.00000    -0.00000     0.00000
  n-local   -75.41153   -62.77932   -74.30527     3.82778    -0.00017    -0.00003
  augment    26.10402    26.10402    26.15153     0.00000     0.00000     0.00000
  Kinetic   371.09620   404.53956   390.65908     2.41014     0.00009    -0.00002
  Fock        0.00000     0.00000     0.00000     0.00000     0.00000     0.00000
  -------------------------------------------------------------------------------------
  Total     -13.72318   -13.72318    -9.75516     0.00000    -0.00000     0.00000
  in kB    -116.13229  -116.13229   -82.55289     0.00000    -0.00000     0.00000
  external pressure =     -104.94 kB  Pullay stress =        0.00 kB


 VOLUME and BASIS-vectors are now :
 -----------------------------------------------------------------------------
  energy-cutoff  :      600.00
  volume of cell :      189.33
      direct lattice vectors                 reciprocal lattice vectors
     3.160000000  0.000000000  0.000000000     0.316455696  0.000000000  0.000000000
     0.000000000  3.160000000  0.000000000     0.000000000  0.316455696  0.000000000
     0.000000000  0.000000000 18.960000000     0.000000000  0.000000000  0.052742616

  length of vectors
     3.160000000  3.160000000 18.960000000     0.316455696  0.316455696  0.052742616


 FORCES acting on ions
    electron-ion (+dipol)            ewald-force                    non-local-force                 convergence-correction
 -----------------------------------------------------------------------------------------------
   -.409E-14 0.169E-14 0.730E+03   0.639E-14 -.114E-14 -.723E+03   0.000E+00 0.000E+00 -.456E+01   -.335E-13 0.396E-13 -.780E-01
   -.316E-15 -.217E-13 0.382E+03   0.205E-14 -.219E-14 -.383E+03   0.000E+00 0.000E+00 -.433E-01   0.171E-13 0.352E-15 -.754E-01
   -.588E-14 0.288E-14 -.210E-07   0.496E-14 -.218E-14 -.106E-08   0.000E+00 0.000E+00 -.678E-20   0.265E-14 -.423E-15 -.120E-02
   -.465E-15 0.997E-15 -.382E+03   0.293E-14 -.181E-14 0.383E+03   0.000E+00 0.000E+00 0.433E-01   -.433E-13 0.964E-14 0.760E-01
   -.650E-14 0.395E-14 -.730E+03   0.522E-15 -.247E-14 0.723E+03   0.000E+00 0.000E+00 0.456E+01   0.186E-13 -.124E-14 0.796E-01
 -----------------------------------------------------------------------------------------------
   -.173E-13 -.121E-13 -.212E-07   0.169E-13 -.980E-14 0.000E+00   0.000E+00 0.000E+00 -.888E-15   -.384E-13 0.480E-13 0.102E-02
 
 
 POSITION                                       TOTAL-FORCE (eV/Angst)
 -----------------------------------------------------------------------------------
      0.00000      0.00000      0.00000         0.000000      0.000000      2.359461
      1.58000      1.58000      1.58000         0.000000      0.000000     -1.601010
      0.00000      0.00000      3.16000         0.000000      0.000000     -0.000000
      1.58000      1.58000      4.74000         0.000000      0.000000      1.601010
      0.00000      0.00000      6.32000        -0.000000      0.000000     -2.359461
 -----------------------------------------------------------------------------------
    total drift:                               -0.000000      0.000000      0.001016


--------------------------------------------------------------------------------------------------------



  FREE ENERGIE OF THE ION-ELECTRON SYSTEM (eV)
  ---------------------------------------------------
  free  energy   TOTEN  =       -64.92707587 eV

  energy  without entropy=      -64.92707587  energy(sigma->0) =      -64.92707587
 


--------------------------------------------------------------------------------------------------------


    POTLOK:  cpu time    0.0762: real time    0.0881


--------------------------------------------------------------------------------------------------------


 writing wavefunctions
     LOOP+:  cpu time  403.5014: real time  404.8807
    4ORBIT:  cpu time    0.0000: real time    0.0000
 BZINTS: Fermi energy:  0.692199; 30.000000 electrons
         Band energy: -64.872654;  BLOECHL correction: -0.019304

 total amount of memory used by VASP MPI-rank0   659948. kBytes
=======================================================================

   base      :      30000. kBytes
   nonl-proj :     182302. kBytes
   fftplans  :      26112. kBytes
   grid      :      32256. kBytes
   one-center:         77. kBytes
   wavefun   :     389201. kBytes
 
  
  
 General timing and accounting informations for this job:
 ========================================================
  
                  Total CPU time used (sec):      408.380
                            User time (sec):      407.605
                          System time (sec):        0.775
                         Elapsed time (sec):      410.097
  
                   Maximum memory used (kb):      732804.
                   Average memory used (kb):           0.
  
                          Minor page faults:        71283
                          Major page faults:           67
                 Voluntary context switches:          483
