<?xml version="1.0" encoding="ISO-8859-1"?>
<modeling>
 <generator>
  <i name="program" type="string">vasp </i>
  <i name="version" type="string">5.4.4.18Apr17-6-g9f103f2a35  </i>
  <i name="subversion" type="string">(build May 20 2018 16:52:39) complex            parallel </i>
  <i name="platform" type="string">LinuxIFC </i>
  <i name="date" type="string">2022 11 15 </i>
  <i name="time" type="string">16:27:17 </i>
 </generator>
 <incar>
  <i type="string" name="PREC">normal</i>
  <i type="int" name="ICHARG">    11</i>
  <i name="EDIFF">      0.00000100</i>
  <i name="ENCUT">    600.00000000</i>
  <i type="int" name="ISMEAR">    -5</i>
  <i type="logical" name="LCHARG"> F  </i>
  <v type="int" name="KPOINT_BSE">    -1     0     0     0</v>
 </incar>
 <structure name="primitive_cell" >
  <crystal>
   <varray name="basis" >
    <v>       3.16000000       0.00000000       0.00000000 </v>
    <v>       0.00000000       3.16000000       0.00000000 </v>
    <v>       0.00000000       0.00000000      18.96000000 </v>
   </varray>
   <i name="volume">    189.32697600 </i>
   <varray name="rec_basis" >
    <v>       0.31645570       0.00000000       0.00000000 </v>
    <v>       0.00000000       0.31645570       0.00000000 </v>
    <v>       0.00000000       0.00000000       0.05274262 </v>
   </varray>
  </crystal>
  <varray name="positions" >
   <v>       0.00000000       0.00000000       0.00000000 </v>
   <v>      -0.50000000      -0.50000000       0.08333333 </v>
   <v>       0.00000000       0.00000000       0.16666667 </v>
   <v>      -0.50000000      -0.50000000       0.25000000 </v>
   <v>       0.00000000       0.00000000       0.33333333 </v>
  </varray>
 </structure>
 <varray name="primitive_index" >
  <v type="int" >        1 </v>
  <v type="int" >        2 </v>
  <v type="int" >        3 </v>
  <v type="int" >        4 </v>
  <v type="int" >        5 </v>
 </varray>
 <kpoints>
  <generation param="Gamma">
   <v type="int" name="divisions">      20       20        4 </v>
   <v name="usershift">      0.00000000       0.00000000       0.00000000 </v>
   <v name="genvec1">      0.05000000       0.00000000       0.00000000 </v>
   <v name="genvec2">      0.00000000       0.05000000       0.00000000 </v>
   <v name="genvec3">      0.00000000       0.00000000       0.25000000 </v>
   <v name="shift">      0.00000000       0.00000000       0.00000000 </v>
  </generation>
  <varray name="kpointlist" >
   <v>       0.00000000       0.00000000       0.00000000 </v>
   <v>       0.05000000       0.00000000       0.00000000 </v>
   <v>       0.10000000       0.00000000       0.00000000 </v>
   <v>       0.15000000       0.00000000       0.00000000 </v>
   <v>       0.20000000       0.00000000       0.00000000 </v>
   <v>       0.25000000       0.00000000       0.00000000 </v>
   <v>       0.30000000       0.00000000       0.00000000 </v>
   <v>       0.35000000       0.00000000       0.00000000 </v>
   <v>       0.40000000       0.00000000       0.00000000 </v>
   <v>       0.45000000       0.00000000       0.00000000 </v>
   <v>       0.50000000       0.00000000       0.00000000 </v>
   <v>       0.05000000       0.05000000       0.00000000 </v>
   <v>       0.10000000       0.05000000       0.00000000 </v>
   <v>       0.15000000       0.05000000       0.00000000 </v>
   <v>       0.20000000       0.05000000       0.00000000 </v>
   <v>       0.25000000       0.05000000       0.00000000 </v>
   <v>       0.30000000       0.05000000       0.00000000 </v>
   <v>       0.35000000       0.05000000       0.00000000 </v>
   <v>       0.40000000       0.05000000       0.00000000 </v>
   <v>       0.45000000       0.05000000       0.00000000 </v>
   <v>       0.50000000       0.05000000       0.00000000 </v>
   <v>       0.10000000       0.10000000       0.00000000 </v>
   <v>       0.15000000       0.10000000       0.00000000 </v>
   <v>       0.20000000       0.10000000       0.00000000 </v>
   <v>       0.25000000       0.10000000       0.00000000 </v>
   <v>       0.30000000       0.10000000       0.00000000 </v>
   <v>       0.35000000       0.10000000       0.00000000 </v>
   <v>       0.40000000       0.10000000       0.00000000 </v>
   <v>       0.45000000       0.10000000       0.00000000 </v>
   <v>       0.50000000       0.10000000       0.00000000 </v>
   <v>       0.15000000       0.15000000       0.00000000 </v>
   <v>       0.20000000       0.15000000       0.00000000 </v>
   <v>       0.25000000       0.15000000       0.00000000 </v>
   <v>       0.30000000       0.15000000       0.00000000 </v>
   <v>       0.35000000       0.15000000       0.00000000 </v>
   <v>       0.40000000       0.15000000       0.00000000 </v>
   <v>       0.45000000       0.15000000       0.00000000 </v>
   <v>       0.50000000       0.15000000       0.00000000 </v>
   <v>       0.20000000       0.20000000       0.00000000 </v>
   <v>       0.25000000       0.20000000       0.00000000 </v>
   <v>       0.30000000       0.20000000       0.00000000 </v>
   <v>       0.35000000       0.20000000       0.00000000 </v>
   <v>       0.40000000       0.20000000       0.00000000 </v>
   <v>       0.45000000       0.20000000       0.00000000 </v>
   <v>       0.50000000       0.20000000       0.00000000 </v>
   <v>       0.25000000       0.25000000       0.00000000 </v>
   <v>       0.30000000       0.25000000       0.00000000 </v>
   <v>       0.35000000       0.25000000       0.00000000 </v>
   <v>       0.40000000       0.25000000       0.00000000 </v>
   <v>       0.45000000       0.25000000       0.00000000 </v>
   <v>       0.50000000       0.25000000       0.00000000 </v>
   <v>       0.30000000       0.30000000       0.00000000 </v>
   <v>       0.35000000       0.30000000       0.00000000 </v>
   <v>       0.40000000       0.30000000       0.00000000 </v>
   <v>       0.45000000       0.30000000       0.00000000 </v>
   <v>       0.50000000       0.30000000       0.00000000 </v>
   <v>       0.35000000       0.35000000       0.00000000 </v>
   <v>       0.40000000       0.35000000       0.00000000 </v>
   <v>       0.45000000       0.35000000       0.00000000 </v>
   <v>       0.50000000       0.35000000       0.00000000 </v>
   <v>       0.40000000       0.40000000       0.00000000 </v>
   <v>       0.45000000       0.40000000       0.00000000 </v>
   <v>       0.50000000       0.40000000       0.00000000 </v>
   <v>       0.45000000       0.45000000       0.00000000 </v>
   <v>       0.50000000       0.45000000       0.00000000 </v>
   <v>       0.50000000       0.50000000       0.00000000 </v>
   <v>       0.00000000       0.00000000       0.25000000 </v>
   <v>       0.05000000       0.00000000       0.25000000 </v>
   <v>       0.10000000       0.00000000       0.25000000 </v>
   <v>       0.15000000       0.00000000       0.25000000 </v>
   <v>       0.20000000       0.00000000       0.25000000 </v>
   <v>       0.25000000       0.00000000       0.25000000 </v>
   <v>       0.30000000       0.00000000       0.25000000 </v>
   <v>       0.35000000       0.00000000       0.25000000 </v>
   <v>       0.40000000       0.00000000       0.25000000 </v>
   <v>       0.45000000       0.00000000       0.25000000 </v>
   <v>       0.50000000       0.00000000       0.25000000 </v>
   <v>       0.05000000       0.05000000       0.25000000 </v>
   <v>       0.10000000       0.05000000       0.25000000 </v>
   <v>       0.15000000       0.05000000       0.25000000 </v>
   <v>       0.20000000       0.05000000       0.25000000 </v>
   <v>       0.25000000       0.05000000       0.25000000 </v>
   <v>       0.30000000       0.05000000       0.25000000 </v>
   <v>       0.35000000       0.05000000       0.25000000 </v>
   <v>       0.40000000       0.05000000       0.25000000 </v>
   <v>       0.45000000       0.05000000       0.25000000 </v>
   <v>       0.50000000       0.05000000       0.25000000 </v>
   <v>       0.10000000       0.10000000       0.25000000 </v>
   <v>       0.15000000       0.10000000       0.25000000 </v>
   <v>       0.20000000       0.10000000       0.25000000 </v>
   <v>       0.25000000       0.10000000       0.25000000 </v>
   <v>       0.30000000       0.10000000       0.25000000 </v>
   <v>       0.35000000       0.10000000       0.25000000 </v>
   <v>       0.40000000       0.10000000       0.25000000 </v>
   <v>       0.45000000       0.10000000       0.25000000 </v>
   <v>       0.50000000       0.10000000       0.25000000 </v>
   <v>       0.15000000       0.15000000       0.25000000 </v>
   <v>       0.20000000       0.15000000       0.25000000 </v>
   <v>       0.25000000       0.15000000       0.25000000 </v>
   <v>       0.30000000       0.15000000       0.25000000 </v>
   <v>       0.35000000       0.15000000       0.25000000 </v>
   <v>       0.40000000       0.15000000       0.25000000 </v>
   <v>       0.45000000       0.15000000       0.25000000 </v>
   <v>       0.50000000       0.15000000       0.25000000 </v>
   <v>       0.20000000       0.20000000       0.25000000 </v>
   <v>       0.25000000       0.20000000       0.25000000 </v>
   <v>       0.30000000       0.20000000       0.25000000 </v>
   <v>       0.35000000       0.20000000       0.25000000 </v>
   <v>       0.40000000       0.20000000       0.25000000 </v>
   <v>       0.45000000       0.20000000       0.25000000 </v>
   <v>       0.50000000       0.20000000       0.25000000 </v>
   <v>       0.25000000       0.25000000       0.25000000 </v>
   <v>       0.30000000       0.25000000       0.25000000 </v>
   <v>       0.35000000       0.25000000       0.25000000 </v>
   <v>       0.40000000       0.25000000       0.25000000 </v>
   <v>       0.45000000       0.25000000       0.25000000 </v>
   <v>       0.50000000       0.25000000       0.25000000 </v>
   <v>       0.30000000       0.30000000       0.25000000 </v>
   <v>       0.35000000       0.30000000       0.25000000 </v>
   <v>       0.40000000       0.30000000       0.25000000 </v>
   <v>       0.45000000       0.30000000       0.25000000 </v>
   <v>       0.50000000       0.30000000       0.25000000 </v>
   <v>       0.35000000       0.35000000       0.25000000 </v>
   <v>       0.40000000       0.35000000       0.25000000 </v>
   <v>       0.45000000       0.35000000       0.25000000 </v>
   <v>       0.50000000       0.35000000       0.25000000 </v>
   <v>       0.40000000       0.40000000       0.25000000 </v>
   <v>       0.45000000       0.40000000       0.25000000 </v>
   <v>       0.50000000       0.40000000       0.25000000 </v>
   <v>       0.45000000       0.45000000       0.25000000 </v>
   <v>       0.50000000       0.45000000       0.25000000 </v>
   <v>       0.50000000       0.50000000       0.25000000 </v>
   <v>       0.00000000       0.00000000       0.50000000 </v>
   <v>       0.05000000       0.00000000       0.50000000 </v>
   <v>       0.10000000       0.00000000       0.50000000 </v>
   <v>       0.15000000       0.00000000       0.50000000 </v>
   <v>       0.20000000       0.00000000       0.50000000 </v>
   <v>       0.25000000       0.00000000       0.50000000 </v>
   <v>       0.30000000       0.00000000       0.50000000 </v>
   <v>       0.35000000       0.00000000       0.50000000 </v>
   <v>       0.40000000       0.00000000       0.50000000 </v>
   <v>       0.45000000       0.00000000       0.50000000 </v>
   <v>       0.50000000       0.00000000       0.50000000 </v>
   <v>       0.05000000       0.05000000       0.50000000 </v>
   <v>       0.10000000       0.05000000       0.50000000 </v>
   <v>       0.15000000       0.05000000       0.50000000 </v>
   <v>       0.20000000       0.05000000       0.50000000 </v>
   <v>       0.25000000       0.05000000       0.50000000 </v>
   <v>       0.30000000       0.05000000       0.50000000 </v>
   <v>       0.35000000       0.05000000       0.50000000 </v>
   <v>       0.40000000       0.05000000       0.50000000 </v>
   <v>       0.45000000       0.05000000       0.50000000 </v>
   <v>       0.50000000       0.05000000       0.50000000 </v>
   <v>       0.10000000       0.10000000       0.50000000 </v>
   <v>       0.15000000       0.10000000       0.50000000 </v>
   <v>       0.20000000       0.10000000       0.50000000 </v>
   <v>       0.25000000       0.10000000       0.50000000 </v>
   <v>       0.30000000       0.10000000       0.50000000 </v>
   <v>       0.35000000       0.10000000       0.50000000 </v>
   <v>       0.40000000       0.10000000       0.50000000 </v>
   <v>       0.45000000       0.10000000       0.50000000 </v>
   <v>       0.50000000       0.10000000       0.50000000 </v>
   <v>       0.15000000       0.15000000       0.50000000 </v>
   <v>       0.20000000       0.15000000       0.50000000 </v>
   <v>       0.25000000       0.15000000       0.50000000 </v>
   <v>       0.30000000       0.15000000       0.50000000 </v>
   <v>       0.35000000       0.15000000       0.50000000 </v>
   <v>       0.40000000       0.15000000       0.50000000 </v>
   <v>       0.45000000       0.15000000       0.50000000 </v>
   <v>       0.50000000       0.15000000       0.50000000 </v>
   <v>       0.20000000       0.20000000       0.50000000 </v>
   <v>       0.25000000       0.20000000       0.50000000 </v>
   <v>       0.30000000       0.20000000       0.50000000 </v>
   <v>       0.35000000       0.20000000       0.50000000 </v>
   <v>       0.40000000       0.20000000       0.50000000 </v>
   <v>       0.45000000       0.20000000       0.50000000 </v>
   <v>       0.50000000       0.20000000       0.50000000 </v>
   <v>       0.25000000       0.25000000       0.50000000 </v>
   <v>       0.30000000       0.25000000       0.50000000 </v>
   <v>       0.35000000       0.25000000       0.50000000 </v>
   <v>       0.40000000       0.25000000       0.50000000 </v>
   <v>       0.45000000       0.25000000       0.50000000 </v>
   <v>       0.50000000       0.25000000       0.50000000 </v>
   <v>       0.30000000       0.30000000       0.50000000 </v>
   <v>       0.35000000       0.30000000       0.50000000 </v>
   <v>       0.40000000       0.30000000       0.50000000 </v>
   <v>       0.45000000       0.30000000       0.50000000 </v>
   <v>       0.50000000       0.30000000       0.50000000 </v>
   <v>       0.35000000       0.35000000       0.50000000 </v>
   <v>       0.40000000       0.35000000       0.50000000 </v>
   <v>       0.45000000       0.35000000       0.50000000 </v>
   <v>       0.50000000       0.35000000       0.50000000 </v>
   <v>       0.40000000       0.40000000       0.50000000 </v>
   <v>       0.45000000       0.40000000       0.50000000 </v>
   <v>       0.50000000       0.40000000       0.50000000 </v>
   <v>       0.45000000       0.45000000       0.50000000 </v>
   <v>       0.50000000       0.45000000       0.50000000 </v>
   <v>       0.50000000       0.50000000       0.50000000 </v>
  </varray>
  <varray name="weights" >
   <v>       0.00062500 </v>
   <v>       0.00250000 </v>
   <v>       0.00250000 </v>
   <v>       0.00250000 </v>
   <v>       0.00250000 </v>
   <v>       0.00250000 </v>
   <v>       0.00250000 </v>
   <v>       0.00250000 </v>
   <v>       0.00250000 </v>
   <v>       0.00250000 </v>
   <v>       0.00125000 </v>
   <v>       0.00250000 </v>
   <v>       0.00500000 </v>
   <v>       0.00500000 </v>
   <v>       0.00500000 </v>
   <v>       0.00500000 </v>
   <v>       0.00500000 </v>
   <v>       0.00500000 </v>
   <v>       0.00500000 </v>
   <v>       0.00500000 </v>
   <v>       0.00250000 </v>
   <v>       0.00250000 </v>
   <v>       0.00500000 </v>
   <v>       0.00500000 </v>
   <v>       0.00500000 </v>
   <v>       0.00500000 </v>
   <v>       0.00500000 </v>
   <v>       0.00500000 </v>
   <v>       0.00500000 </v>
   <v>       0.00250000 </v>
   <v>       0.00250000 </v>
   <v>       0.00500000 </v>
   <v>       0.00500000 </v>
   <v>       0.00500000 </v>
   <v>       0.00500000 </v>
   <v>       0.00500000 </v>
   <v>       0.00500000 </v>
   <v>       0.00250000 </v>
   <v>       0.00250000 </v>
   <v>       0.00500000 </v>
   <v>       0.00500000 </v>
   <v>       0.00500000 </v>
   <v>       0.00500000 </v>
   <v>       0.00500000 </v>
   <v>       0.00250000 </v>
   <v>       0.00250000 </v>
   <v>       0.00500000 </v>
   <v>       0.00500000 </v>
   <v>       0.00500000 </v>
   <v>       0.00500000 </v>
   <v>       0.00250000 </v>
   <v>       0.00250000 </v>
   <v>       0.00500000 </v>
   <v>       0.00500000 </v>
   <v>       0.00500000 </v>
   <v>       0.00250000 </v>
   <v>       0.00250000 </v>
   <v>       0.00500000 </v>
   <v>       0.00500000 </v>
   <v>       0.00250000 </v>
   <v>       0.00250000 </v>
   <v>       0.00500000 </v>
   <v>       0.00250000 </v>
   <v>       0.00250000 </v>
   <v>       0.00250000 </v>
   <v>       0.00062500 </v>
   <v>       0.00125000 </v>
   <v>       0.00500000 </v>
   <v>       0.00500000 </v>
   <v>       0.00500000 </v>
   <v>       0.00500000 </v>
   <v>       0.00500000 </v>
   <v>       0.00500000 </v>
   <v>       0.00500000 </v>
   <v>       0.00500000 </v>
   <v>       0.00500000 </v>
   <v>       0.00250000 </v>
   <v>       0.00500000 </v>
   <v>       0.01000000 </v>
   <v>       0.01000000 </v>
   <v>       0.01000000 </v>
   <v>       0.01000000 </v>
   <v>       0.01000000 </v>
   <v>       0.01000000 </v>
   <v>       0.01000000 </v>
   <v>       0.01000000 </v>
   <v>       0.00500000 </v>
   <v>       0.00500000 </v>
   <v>       0.01000000 </v>
   <v>       0.01000000 </v>
   <v>       0.01000000 </v>
   <v>       0.01000000 </v>
   <v>       0.01000000 </v>
   <v>       0.01000000 </v>
   <v>       0.01000000 </v>
   <v>       0.00500000 </v>
   <v>       0.00500000 </v>
   <v>       0.01000000 </v>
   <v>       0.01000000 </v>
   <v>       0.01000000 </v>
   <v>       0.01000000 </v>
   <v>       0.01000000 </v>
   <v>       0.01000000 </v>
   <v>       0.00500000 </v>
   <v>       0.00500000 </v>
   <v>       0.01000000 </v>
   <v>       0.01000000 </v>
   <v>       0.01000000 </v>
   <v>       0.01000000 </v>
   <v>       0.01000000 </v>
   <v>       0.00500000 </v>
   <v>       0.00500000 </v>
   <v>       0.01000000 </v>
   <v>       0.01000000 </v>
   <v>       0.01000000 </v>
   <v>       0.01000000 </v>
   <v>       0.00500000 </v>
   <v>       0.00500000 </v>
   <v>       0.01000000 </v>
   <v>       0.01000000 </v>
   <v>       0.01000000 </v>
   <v>       0.00500000 </v>
   <v>       0.00500000 </v>
   <v>       0.01000000 </v>
   <v>       0.01000000 </v>
   <v>       0.00500000 </v>
   <v>       0.00500000 </v>
   <v>       0.01000000 </v>
   <v>       0.00500000 </v>
   <v>       0.00500000 </v>
   <v>       0.00500000 </v>
   <v>       0.00125000 </v>
   <v>       0.00062500 </v>
   <v>       0.00250000 </v>
   <v>       0.00250000 </v>
   <v>       0.00250000 </v>
   <v>       0.00250000 </v>
   <v>       0.00250000 </v>
   <v>       0.00250000 </v>
   <v>       0.00250000 </v>
   <v>       0.00250000 </v>
   <v>       0.00250000 </v>
   <v>       0.00125000 </v>
   <v>       0.00250000 </v>
   <v>       0.00500000 </v>
   <v>       0.00500000 </v>
   <v>       0.00500000 </v>
   <v>       0.00500000 </v>
   <v>       0.00500000 </v>
   <v>       0.00500000 </v>
   <v>       0.00500000 </v>
   <v>       0.00500000 </v>
   <v>       0.00250000 </v>
   <v>       0.00250000 </v>
   <v>       0.00500000 </v>
   <v>       0.00500000 </v>
   <v>       0.00500000 </v>
   <v>       0.00500000 </v>
   <v>       0.00500000 </v>
   <v>       0.00500000 </v>
   <v>       0.00500000 </v>
   <v>       0.00250000 </v>
   <v>       0.00250000 </v>
   <v>       0.00500000 </v>
   <v>       0.00500000 </v>
   <v>       0.00500000 </v>
   <v>       0.00500000 </v>
   <v>       0.00500000 </v>
   <v>       0.00500000 </v>
   <v>       0.00250000 </v>
   <v>       0.00250000 </v>
   <v>       0.00500000 </v>
   <v>       0.00500000 </v>
   <v>       0.00500000 </v>
   <v>       0.00500000 </v>
   <v>       0.00500000 </v>
   <v>       0.00250000 </v>
   <v>       0.00250000 </v>
   <v>       0.00500000 </v>
   <v>       0.00500000 </v>
   <v>       0.00500000 </v>
   <v>       0.00500000 </v>
   <v>       0.00250000 </v>
   <v>       0.00250000 </v>
   <v>       0.00500000 </v>
   <v>       0.00500000 </v>
   <v>       0.00500000 </v>
   <v>       0.00250000 </v>
   <v>       0.00250000 </v>
   <v>       0.00500000 </v>
   <v>       0.00500000 </v>
   <v>       0.00250000 </v>
   <v>       0.00250000 </v>
   <v>       0.00500000 </v>
   <v>       0.00250000 </v>
   <v>       0.00250000 </v>
   <v>       0.00250000 </v>
   <v>       0.00062500 </v>
  </varray>
  <varray name="tetrahedronlist"  type="int" >
   <v type="int" >        4        1        2       12       67 </v>
   <v type="int" >        4        2       12       67       68 </v>
   <v type="int" >        4       12       67       68       78 </v>
   <v type="int" >        4        2        3       13       68 </v>
   <v type="int" >        4        2       12       13       68 </v>
   <v type="int" >        4       12       13       68       78 </v>
   <v type="int" >        4        3       13       68       69 </v>
   <v type="int" >        4       13       68       69       79 </v>
   <v type="int" >        4       13       68       78       79 </v>
   <v type="int" >        4        3        4       14       69 </v>
   <v type="int" >        4        3       13       14       69 </v>
   <v type="int" >        4       13       14       69       79 </v>
   <v type="int" >        4        4       14       69       70 </v>
   <v type="int" >        4       14       69       70       80 </v>
   <v type="int" >        4       14       69       79       80 </v>
   <v type="int" >        4        4        5       15       70 </v>
   <v type="int" >        4        4       14       15       70 </v>
   <v type="int" >        4       14       15       70       80 </v>
   <v type="int" >        4        5       15       70       71 </v>
   <v type="int" >        4       15       70       71       81 </v>
   <v type="int" >        4       15       70       80       81 </v>
   <v type="int" >        4        5        6       16       71 </v>
   <v type="int" >        4        5       15       16       71 </v>
   <v type="int" >        4       15       16       71       81 </v>
   <v type="int" >        4        6       16       71       72 </v>
   <v type="int" >        4       16       71       72       82 </v>
   <v type="int" >        4       16       71       81       82 </v>
   <v type="int" >        4        6        7       17       72 </v>
   <v type="int" >        4        6       16       17       72 </v>
   <v type="int" >        4       16       17       72       82 </v>
   <v type="int" >        4        7       17       72       73 </v>
   <v type="int" >        4       17       72       73       83 </v>
   <v type="int" >        4       17       72       82       83 </v>
   <v type="int" >        4        7        8       18       73 </v>
   <v type="int" >        4        7       17       18       73 </v>
   <v type="int" >        4       17       18       73       83 </v>
   <v type="int" >        4        8       18       73       74 </v>
   <v type="int" >        4       18       73       74       84 </v>
   <v type="int" >        4       18       73       83       84 </v>
   <v type="int" >        4        8        9       19       74 </v>
   <v type="int" >        4        8       18       19       74 </v>
   <v type="int" >        4       18       19       74       84 </v>
   <v type="int" >        4        9       19       74       75 </v>
   <v type="int" >        4       19       74       75       85 </v>
   <v type="int" >        4       19       74       84       85 </v>
   <v type="int" >        4        9       10       20       75 </v>
   <v type="int" >        4        9       19       20       75 </v>
   <v type="int" >        4       19       20       75       85 </v>
   <v type="int" >        4       10       20       75       76 </v>
   <v type="int" >        4       20       75       76       86 </v>
   <v type="int" >        4       20       75       85       86 </v>
   <v type="int" >        4       10       11       21       76 </v>
   <v type="int" >        4       10       20       21       76 </v>
   <v type="int" >        4       20       21       76       86 </v>
   <v type="int" >        4       11       21       76       77 </v>
   <v type="int" >        4       21       76       77       87 </v>
   <v type="int" >        4       21       76       86       87 </v>
   <v type="int" >        4       10       11       20       77 </v>
   <v type="int" >        4       11       20       21       77 </v>
   <v type="int" >        4       20       21       77       87 </v>
   <v type="int" >        4       10       20       76       77 </v>
   <v type="int" >        4       20       76       77       86 </v>
   <v type="int" >        4       20       77       86       87 </v>
   <v type="int" >        4        9       10       19       76 </v>
   <v type="int" >        4       10       19       20       76 </v>
   <v type="int" >        4       19       20       76       86 </v>
   <v type="int" >        4        9       19       75       76 </v>
   <v type="int" >        4       19       75       76       85 </v>
   <v type="int" >        4       19       76       85       86 </v>
   <v type="int" >        4        8        9       18       75 </v>
   <v type="int" >        4        9       18       19       75 </v>
   <v type="int" >        4       18       19       75       85 </v>
   <v type="int" >        4        8       18       74       75 </v>
   <v type="int" >        4       18       74       75       84 </v>
   <v type="int" >        4       18       75       84       85 </v>
   <v type="int" >        4        7        8       17       74 </v>
   <v type="int" >        4        8       17       18       74 </v>
   <v type="int" >        4       17       18       74       84 </v>
   <v type="int" >        4        7       17       73       74 </v>
   <v type="int" >        4       17       73       74       83 </v>
   <v type="int" >        4       17       74       83       84 </v>
   <v type="int" >        4        6        7       16       73 </v>
   <v type="int" >        4        7       16       17       73 </v>
   <v type="int" >        4       16       17       73       83 </v>
   <v type="int" >        4        6       16       72       73 </v>
   <v type="int" >        4       16       72       73       82 </v>
   <v type="int" >        4       16       73       82       83 </v>
   <v type="int" >        4        5        6       15       72 </v>
   <v type="int" >        4        6       15       16       72 </v>
   <v type="int" >        4       15       16       72       82 </v>
   <v type="int" >        4        5       15       71       72 </v>
   <v type="int" >        4       15       71       72       81 </v>
   <v type="int" >        4       15       72       81       82 </v>
   <v type="int" >        4        4        5       14       71 </v>
   <v type="int" >        4        5       14       15       71 </v>
   <v type="int" >        4       14       15       71       81 </v>
   <v type="int" >        4        4       14       70       71 </v>
   <v type="int" >        4       14       70       71       80 </v>
   <v type="int" >        4       14       71       80       81 </v>
   <v type="int" >        4        3        4       13       70 </v>
   <v type="int" >        4        4       13       14       70 </v>
   <v type="int" >        4       13       14       70       80 </v>
   <v type="int" >        4        3       13       69       70 </v>
   <v type="int" >        4       13       69       70       79 </v>
   <v type="int" >        4       13       70       79       80 </v>
   <v type="int" >        4        2        3       12       69 </v>
   <v type="int" >        4        3       12       13       69 </v>
   <v type="int" >        4       12       13       69       79 </v>
   <v type="int" >        4        2       12       68       69 </v>
   <v type="int" >        4       12       68       69       78 </v>
   <v type="int" >        4       12       69       78       79 </v>
   <v type="int" >        4        1        2        2       68 </v>
   <v type="int" >        4        2        2       12       68 </v>
   <v type="int" >        4        2       12       68       78 </v>
   <v type="int" >        4        1        2       67       68 </v>
   <v type="int" >        4        2       67       68       68 </v>
   <v type="int" >        4        2       68       68       78 </v>
   <v type="int" >        4       12       13       22       78 </v>
   <v type="int" >        4       13       22       78       79 </v>
   <v type="int" >        4       22       78       79       88 </v>
   <v type="int" >        4       13       14       23       79 </v>
   <v type="int" >        4       13       22       23       79 </v>
   <v type="int" >        4       22       23       79       88 </v>
   <v type="int" >        4       14       23       79       80 </v>
   <v type="int" >        4       23       79       80       89 </v>
   <v type="int" >        4       23       79       88       89 </v>
   <v type="int" >        4       14       15       24       80 </v>
   <v type="int" >        4       14       23       24       80 </v>
   <v type="int" >        4       23       24       80       89 </v>
   <v type="int" >        4       15       24       80       81 </v>
   <v type="int" >        4       24       80       81       90 </v>
   <v type="int" >        4       24       80       89       90 </v>
   <v type="int" >        4       15       16       25       81 </v>
   <v type="int" >        4       15       24       25       81 </v>
   <v type="int" >        4       24       25       81       90 </v>
   <v type="int" >        4       16       25       81       82 </v>
   <v type="int" >        4       25       81       82       91 </v>
   <v type="int" >        4       25       81       90       91 </v>
   <v type="int" >        4       16       17       26       82 </v>
   <v type="int" >        4       16       25       26       82 </v>
   <v type="int" >        4       25       26       82       91 </v>
   <v type="int" >        4       17       26       82       83 </v>
   <v type="int" >        4       26       82       83       92 </v>
   <v type="int" >        4       26       82       91       92 </v>
   <v type="int" >        4       17       18       27       83 </v>
   <v type="int" >        4       17       26       27       83 </v>
   <v type="int" >        4       26       27       83       92 </v>
   <v type="int" >        4       18       27       83       84 </v>
   <v type="int" >        4       27       83       84       93 </v>
   <v type="int" >        4       27       83       92       93 </v>
   <v type="int" >        4       18       19       28       84 </v>
   <v type="int" >        4       18       27       28       84 </v>
   <v type="int" >        4       27       28       84       93 </v>
   <v type="int" >        4       19       28       84       85 </v>
   <v type="int" >        4       28       84       85       94 </v>
   <v type="int" >        4       28       84       93       94 </v>
   <v type="int" >        4       19       20       29       85 </v>
   <v type="int" >        4       19       28       29       85 </v>
   <v type="int" >        4       28       29       85       94 </v>
   <v type="int" >        4       20       29       85       86 </v>
   <v type="int" >        4       29       85       86       95 </v>
   <v type="int" >        4       29       85       94       95 </v>
   <v type="int" >        4       20       21       30       86 </v>
   <v type="int" >        4       20       29       30       86 </v>
   <v type="int" >        4       29       30       86       95 </v>
   <v type="int" >        4       21       30       86       87 </v>
   <v type="int" >        4       30       86       87       96 </v>
   <v type="int" >        4       30       86       95       96 </v>
   <v type="int" >        4       20       21       29       87 </v>
   <v type="int" >        4       21       29       30       87 </v>
   <v type="int" >        4       29       30       87       96 </v>
   <v type="int" >        4       20       29       86       87 </v>
   <v type="int" >        4       29       86       87       95 </v>
   <v type="int" >        4       29       87       95       96 </v>
   <v type="int" >        4       19       20       28       86 </v>
   <v type="int" >        4       20       28       29       86 </v>
   <v type="int" >        4       28       29       86       95 </v>
   <v type="int" >        4       19       28       85       86 </v>
   <v type="int" >        4       28       85       86       94 </v>
   <v type="int" >        4       28       86       94       95 </v>
   <v type="int" >        4       18       19       27       85 </v>
   <v type="int" >        4       19       27       28       85 </v>
   <v type="int" >        4       27       28       85       94 </v>
   <v type="int" >        4       18       27       84       85 </v>
   <v type="int" >        4       27       84       85       93 </v>
   <v type="int" >        4       27       85       93       94 </v>
   <v type="int" >        4       17       18       26       84 </v>
   <v type="int" >        4       18       26       27       84 </v>
   <v type="int" >        4       26       27       84       93 </v>
   <v type="int" >        4       17       26       83       84 </v>
   <v type="int" >        4       26       83       84       92 </v>
   <v type="int" >        4       26       84       92       93 </v>
   <v type="int" >        4       16       17       25       83 </v>
   <v type="int" >        4       17       25       26       83 </v>
   <v type="int" >        4       25       26       83       92 </v>
   <v type="int" >        4       16       25       82       83 </v>
   <v type="int" >        4       25       82       83       91 </v>
   <v type="int" >        4       25       83       91       92 </v>
   <v type="int" >        4       15       16       24       82 </v>
   <v type="int" >        4       16       24       25       82 </v>
   <v type="int" >        4       24       25       82       91 </v>
   <v type="int" >        4       15       24       81       82 </v>
   <v type="int" >        4       24       81       82       90 </v>
   <v type="int" >        4       24       82       90       91 </v>
   <v type="int" >        4       14       15       23       81 </v>
   <v type="int" >        4       15       23       24       81 </v>
   <v type="int" >        4       23       24       81       90 </v>
   <v type="int" >        4       14       23       80       81 </v>
   <v type="int" >        4       23       80       81       89 </v>
   <v type="int" >        4       23       81       89       90 </v>
   <v type="int" >        4       13       14       22       80 </v>
   <v type="int" >        4       14       22       23       80 </v>
   <v type="int" >        4       22       23       80       89 </v>
   <v type="int" >        4       13       22       79       80 </v>
   <v type="int" >        4       22       79       80       88 </v>
   <v type="int" >        4       22       80       88       89 </v>
   <v type="int" >        4       12       13       13       79 </v>
   <v type="int" >        4       13       13       22       79 </v>
   <v type="int" >        4       13       22       79       88 </v>
   <v type="int" >        4       12       13       78       79 </v>
   <v type="int" >        4       13       78       79       79 </v>
   <v type="int" >        4       13       79       79       88 </v>
   <v type="int" >        4        2        3       12       78 </v>
   <v type="int" >        4        3       12       13       78 </v>
   <v type="int" >        4        3       13       78       79 </v>
   <v type="int" >        4        2        3       68       78 </v>
   <v type="int" >        4        3       68       69       78 </v>
   <v type="int" >        4        3       69       78       79 </v>
   <v type="int" >        4       22       23       31       88 </v>
   <v type="int" >        4       23       31       88       89 </v>
   <v type="int" >        4       31       88       89       97 </v>
   <v type="int" >        4       23       24       32       89 </v>
   <v type="int" >        4       23       31       32       89 </v>
   <v type="int" >        4       31       32       89       97 </v>
   <v type="int" >        4       24       32       89       90 </v>
   <v type="int" >        4       32       89       90       98 </v>
   <v type="int" >        4       32       89       97       98 </v>
   <v type="int" >        4       24       25       33       90 </v>
   <v type="int" >        4       24       32       33       90 </v>
   <v type="int" >        4       32       33       90       98 </v>
   <v type="int" >        4       25       33       90       91 </v>
   <v type="int" >        4       33       90       91       99 </v>
   <v type="int" >        4       33       90       98       99 </v>
   <v type="int" >        4       25       26       34       91 </v>
   <v type="int" >        4       25       33       34       91 </v>
   <v type="int" >        4       33       34       91       99 </v>
   <v type="int" >        4       26       34       91       92 </v>
   <v type="int" >        4       34       91       92      100 </v>
   <v type="int" >        4       34       91       99      100 </v>
   <v type="int" >        4       26       27       35       92 </v>
   <v type="int" >        4       26       34       35       92 </v>
   <v type="int" >        4       34       35       92      100 </v>
   <v type="int" >        4       27       35       92       93 </v>
   <v type="int" >        4       35       92       93      101 </v>
   <v type="int" >        4       35       92      100      101 </v>
   <v type="int" >        4       27       28       36       93 </v>
   <v type="int" >        4       27       35       36       93 </v>
   <v type="int" >        4       35       36       93      101 </v>
   <v type="int" >        4       28       36       93       94 </v>
   <v type="int" >        4       36       93       94      102 </v>
   <v type="int" >        4       36       93      101      102 </v>
   <v type="int" >        4       28       29       37       94 </v>
   <v type="int" >        4       28       36       37       94 </v>
   <v type="int" >        4       36       37       94      102 </v>
   <v type="int" >        4       29       37       94       95 </v>
   <v type="int" >        4       37       94       95      103 </v>
   <v type="int" >        4       37       94      102      103 </v>
   <v type="int" >        4       29       30       38       95 </v>
   <v type="int" >        4       29       37       38       95 </v>
   <v type="int" >        4       37       38       95      103 </v>
   <v type="int" >        4       30       38       95       96 </v>
   <v type="int" >        4       38       95       96      104 </v>
   <v type="int" >        4       38       95      103      104 </v>
   <v type="int" >        4       29       30       37       96 </v>
   <v type="int" >        4       30       37       38       96 </v>
   <v type="int" >        4       37       38       96      104 </v>
   <v type="int" >        4       29       37       95       96 </v>
   <v type="int" >        4       37       95       96      103 </v>
   <v type="int" >        4       37       96      103      104 </v>
   <v type="int" >        4       28       29       36       95 </v>
   <v type="int" >        4       29       36       37       95 </v>
   <v type="int" >        4       36       37       95      103 </v>
   <v type="int" >        4       28       36       94       95 </v>
   <v type="int" >        4       36       94       95      102 </v>
   <v type="int" >        4       36       95      102      103 </v>
   <v type="int" >        4       27       28       35       94 </v>
   <v type="int" >        4       28       35       36       94 </v>
   <v type="int" >        4       35       36       94      102 </v>
   <v type="int" >        4       27       35       93       94 </v>
   <v type="int" >        4       35       93       94      101 </v>
   <v type="int" >        4       35       94      101      102 </v>
   <v type="int" >        4       26       27       34       93 </v>
   <v type="int" >        4       27       34       35       93 </v>
   <v type="int" >        4       34       35       93      101 </v>
   <v type="int" >        4       26       34       92       93 </v>
   <v type="int" >        4       34       92       93      100 </v>
   <v type="int" >        4       34       93      100      101 </v>
   <v type="int" >        4       25       26       33       92 </v>
   <v type="int" >        4       26       33       34       92 </v>
   <v type="int" >        4       33       34       92      100 </v>
   <v type="int" >        4       25       33       91       92 </v>
   <v type="int" >        4       33       91       92       99 </v>
   <v type="int" >        4       33       92       99      100 </v>
   <v type="int" >        4       24       25       32       91 </v>
   <v type="int" >        4       25       32       33       91 </v>
   <v type="int" >        4       32       33       91       99 </v>
   <v type="int" >        4       24       32       90       91 </v>
   <v type="int" >        4       32       90       91       98 </v>
   <v type="int" >        4       32       91       98       99 </v>
   <v type="int" >        4       23       24       31       90 </v>
   <v type="int" >        4       24       31       32       90 </v>
   <v type="int" >        4       31       32       90       98 </v>
   <v type="int" >        4       23       31       89       90 </v>
   <v type="int" >        4       31       89       90       97 </v>
   <v type="int" >        4       31       90       97       98 </v>
   <v type="int" >        4       22       23       23       89 </v>
   <v type="int" >        4       23       23       31       89 </v>
   <v type="int" >        4       23       31       89       97 </v>
   <v type="int" >        4       22       23       88       89 </v>
   <v type="int" >        4       23       88       89       89 </v>
   <v type="int" >        4       23       89       89       97 </v>
   <v type="int" >        4       13       14       22       88 </v>
   <v type="int" >        4       14       22       23       88 </v>
   <v type="int" >        4       14       23       88       89 </v>
   <v type="int" >        4       13       14       79       88 </v>
   <v type="int" >        4       14       79       80       88 </v>
   <v type="int" >        4       14       80       88       89 </v>
   <v type="int" >        4        3        4       13       79 </v>
   <v type="int" >        4        4       13       14       79 </v>
   <v type="int" >        4        4       14       79       80 </v>
   <v type="int" >        4        3        4       69       79 </v>
   <v type="int" >        4        4       69       70       79 </v>
   <v type="int" >        4        4       70       79       80 </v>
   <v type="int" >        4       31       32       39       97 </v>
   <v type="int" >        4       32       39       97       98 </v>
   <v type="int" >        4       39       97       98      105 </v>
   <v type="int" >        4       32       33       40       98 </v>
   <v type="int" >        4       32       39       40       98 </v>
   <v type="int" >        4       39       40       98      105 </v>
   <v type="int" >        4       33       40       98       99 </v>
   <v type="int" >        4       40       98       99      106 </v>
   <v type="int" >        4       40       98      105      106 </v>
   <v type="int" >        4       33       34       41       99 </v>
   <v type="int" >        4       33       40       41       99 </v>
   <v type="int" >        4       40       41       99      106 </v>
   <v type="int" >        4       34       41       99      100 </v>
   <v type="int" >        4       41       99      100      107 </v>
   <v type="int" >        4       41       99      106      107 </v>
   <v type="int" >        4       34       35       42      100 </v>
   <v type="int" >        4       34       41       42      100 </v>
   <v type="int" >        4       41       42      100      107 </v>
   <v type="int" >        4       35       42      100      101 </v>
   <v type="int" >        4       42      100      101      108 </v>
   <v type="int" >        4       42      100      107      108 </v>
   <v type="int" >        4       35       36       43      101 </v>
   <v type="int" >        4       35       42       43      101 </v>
   <v type="int" >        4       42       43      101      108 </v>
   <v type="int" >        4       36       43      101      102 </v>
   <v type="int" >        4       43      101      102      109 </v>
   <v type="int" >        4       43      101      108      109 </v>
   <v type="int" >        4       36       37       44      102 </v>
   <v type="int" >        4       36       43       44      102 </v>
   <v type="int" >        4       43       44      102      109 </v>
   <v type="int" >        4       37       44      102      103 </v>
   <v type="int" >        4       44      102      103      110 </v>
   <v type="int" >        4       44      102      109      110 </v>
   <v type="int" >        4       37       38       45      103 </v>
   <v type="int" >        4       37       44       45      103 </v>
   <v type="int" >        4       44       45      103      110 </v>
   <v type="int" >        4       38       45      103      104 </v>
   <v type="int" >        4       45      103      104      111 </v>
   <v type="int" >        4       45      103      110      111 </v>
   <v type="int" >        4       37       38       44      104 </v>
   <v type="int" >        4       38       44       45      104 </v>
   <v type="int" >        4       44       45      104      111 </v>
   <v type="int" >        4       37       44      103      104 </v>
   <v type="int" >        4       44      103      104      110 </v>
   <v type="int" >        4       44      104      110      111 </v>
   <v type="int" >        4       36       37       43      103 </v>
   <v type="int" >        4       37       43       44      103 </v>
   <v type="int" >        4       43       44      103      110 </v>
   <v type="int" >        4       36       43      102      103 </v>
   <v type="int" >        4       43      102      103      109 </v>
   <v type="int" >        4       43      103      109      110 </v>
   <v type="int" >        4       35       36       42      102 </v>
   <v type="int" >        4       36       42       43      102 </v>
   <v type="int" >        4       42       43      102      109 </v>
   <v type="int" >        4       35       42      101      102 </v>
   <v type="int" >        4       42      101      102      108 </v>
   <v type="int" >        4       42      102      108      109 </v>
   <v type="int" >        4       34       35       41      101 </v>
   <v type="int" >        4       35       41       42      101 </v>
   <v type="int" >        4       41       42      101      108 </v>
   <v type="int" >        4       34       41      100      101 </v>
   <v type="int" >        4       41      100      101      107 </v>
   <v type="int" >        4       41      101      107      108 </v>
   <v type="int" >        4       33       34       40      100 </v>
   <v type="int" >        4       34       40       41      100 </v>
   <v type="int" >        4       40       41      100      107 </v>
   <v type="int" >        4       33       40       99      100 </v>
   <v type="int" >        4       40       99      100      106 </v>
   <v type="int" >        4       40      100      106      107 </v>
   <v type="int" >        4       32       33       39       99 </v>
   <v type="int" >        4       33       39       40       99 </v>
   <v type="int" >        4       39       40       99      106 </v>
   <v type="int" >        4       32       39       98       99 </v>
   <v type="int" >        4       39       98       99      105 </v>
   <v type="int" >        4       39       99      105      106 </v>
   <v type="int" >        4       31       32       32       98 </v>
   <v type="int" >        4       32       32       39       98 </v>
   <v type="int" >        4       32       39       98      105 </v>
   <v type="int" >        4       31       32       97       98 </v>
   <v type="int" >        4       32       97       98       98 </v>
   <v type="int" >        4       32       98       98      105 </v>
   <v type="int" >        4       23       24       31       97 </v>
   <v type="int" >        4       24       31       32       97 </v>
   <v type="int" >        4       24       32       97       98 </v>
   <v type="int" >        4       23       24       89       97 </v>
   <v type="int" >        4       24       89       90       97 </v>
   <v type="int" >        4       24       90       97       98 </v>
   <v type="int" >        4       14       15       23       89 </v>
   <v type="int" >        4       15       23       24       89 </v>
   <v type="int" >        4       15       24       89       90 </v>
   <v type="int" >        4       14       15       80       89 </v>
   <v type="int" >        4       15       80       81       89 </v>
   <v type="int" >        4       15       81       89       90 </v>
   <v type="int" >        4        4        5       14       80 </v>
   <v type="int" >        4        5       14       15       80 </v>
   <v type="int" >        4        5       15       80       81 </v>
   <v type="int" >        4        4        5       70       80 </v>
   <v type="int" >        4        5       70       71       80 </v>
   <v type="int" >        4        5       71       80       81 </v>
   <v type="int" >        4       39       40       46      105 </v>
   <v type="int" >        4       40       46      105      106 </v>
   <v type="int" >        4       46      105      106      112 </v>
   <v type="int" >        4       40       41       47      106 </v>
   <v type="int" >        4       40       46       47      106 </v>
   <v type="int" >        4       46       47      106      112 </v>
   <v type="int" >        4       41       47      106      107 </v>
   <v type="int" >        4       47      106      107      113 </v>
   <v type="int" >        4       47      106      112      113 </v>
   <v type="int" >        4       41       42       48      107 </v>
   <v type="int" >        4       41       47       48      107 </v>
   <v type="int" >        4       47       48      107      113 </v>
   <v type="int" >        4       42       48      107      108 </v>
   <v type="int" >        4       48      107      108      114 </v>
   <v type="int" >        4       48      107      113      114 </v>
   <v type="int" >        4       42       43       49      108 </v>
   <v type="int" >        4       42       48       49      108 </v>
   <v type="int" >        4       48       49      108      114 </v>
   <v type="int" >        4       43       49      108      109 </v>
   <v type="int" >        4       49      108      109      115 </v>
   <v type="int" >        4       49      108      114      115 </v>
   <v type="int" >        4       43       44       50      109 </v>
   <v type="int" >        4       43       49       50      109 </v>
   <v type="int" >        4       49       50      109      115 </v>
   <v type="int" >        4       44       50      109      110 </v>
   <v type="int" >        4       50      109      110      116 </v>
   <v type="int" >        4       50      109      115      116 </v>
   <v type="int" >        4       44       45       51      110 </v>
   <v type="int" >        4       44       50       51      110 </v>
   <v type="int" >        4       50       51      110      116 </v>
   <v type="int" >        4       45       51      110      111 </v>
   <v type="int" >        4       51      110      111      117 </v>
   <v type="int" >        4       51      110      116      117 </v>
   <v type="int" >        4       44       45       50      111 </v>
   <v type="int" >        4       45       50       51      111 </v>
   <v type="int" >        4       50       51      111      117 </v>
   <v type="int" >        4       44       50      110      111 </v>
   <v type="int" >        4       50      110      111      116 </v>
   <v type="int" >        4       50      111      116      117 </v>
   <v type="int" >        4       43       44       49      110 </v>
   <v type="int" >        4       44       49       50      110 </v>
   <v type="int" >        4       49       50      110      116 </v>
   <v type="int" >        4       43       49      109      110 </v>
   <v type="int" >        4       49      109      110      115 </v>
   <v type="int" >        4       49      110      115      116 </v>
   <v type="int" >        4       42       43       48      109 </v>
   <v type="int" >        4       43       48       49      109 </v>
   <v type="int" >        4       48       49      109      115 </v>
   <v type="int" >        4       42       48      108      109 </v>
   <v type="int" >        4       48      108      109      114 </v>
   <v type="int" >        4       48      109      114      115 </v>
   <v type="int" >        4       41       42       47      108 </v>
   <v type="int" >        4       42       47       48      108 </v>
   <v type="int" >        4       47       48      108      114 </v>
   <v type="int" >        4       41       47      107      108 </v>
   <v type="int" >        4       47      107      108      113 </v>
   <v type="int" >        4       47      108      113      114 </v>
   <v type="int" >        4       40       41       46      107 </v>
   <v type="int" >        4       41       46       47      107 </v>
   <v type="int" >        4       46       47      107      113 </v>
   <v type="int" >        4       40       46      106      107 </v>
   <v type="int" >        4       46      106      107      112 </v>
   <v type="int" >        4       46      107      112      113 </v>
   <v type="int" >        4       39       40       40      106 </v>
   <v type="int" >        4       40       40       46      106 </v>
   <v type="int" >        4       40       46      106      112 </v>
   <v type="int" >        4       39       40      105      106 </v>
   <v type="int" >        4       40      105      106      106 </v>
   <v type="int" >        4       40      106      106      112 </v>
   <v type="int" >        4       32       33       39      105 </v>
   <v type="int" >        4       33       39       40      105 </v>
   <v type="int" >        4       33       40      105      106 </v>
   <v type="int" >        4       32       33       98      105 </v>
   <v type="int" >        4       33       98       99      105 </v>
   <v type="int" >        4       33       99      105      106 </v>
   <v type="int" >        4       24       25       32       98 </v>
   <v type="int" >        4       25       32       33       98 </v>
   <v type="int" >        4       25       33       98       99 </v>
   <v type="int" >        4       24       25       90       98 </v>
   <v type="int" >        4       25       90       91       98 </v>
   <v type="int" >        4       25       91       98       99 </v>
   <v type="int" >        4       15       16       24       90 </v>
   <v type="int" >        4       16       24       25       90 </v>
   <v type="int" >        4       16       25       90       91 </v>
   <v type="int" >        4       15       16       81       90 </v>
   <v type="int" >        4       16       81       82       90 </v>
   <v type="int" >        4       16       82       90       91 </v>
   <v type="int" >        4        5        6       15       81 </v>
   <v type="int" >        4        6       15       16       81 </v>
   <v type="int" >        4        6       16       81       82 </v>
   <v type="int" >        4        5        6       71       81 </v>
   <v type="int" >        4        6       71       72       81 </v>
   <v type="int" >        4        6       72       81       82 </v>
   <v type="int" >        4       46       47       52      112 </v>
   <v type="int" >        4       47       52      112      113 </v>
   <v type="int" >        4       52      112      113      118 </v>
   <v type="int" >        4       47       48       53      113 </v>
   <v type="int" >        4       47       52       53      113 </v>
   <v type="int" >        4       52       53      113      118 </v>
   <v type="int" >        4       48       53      113      114 </v>
   <v type="int" >        4       53      113      114      119 </v>
   <v type="int" >        4       53      113      118      119 </v>
   <v type="int" >        4       48       49       54      114 </v>
   <v type="int" >        4       48       53       54      114 </v>
   <v type="int" >        4       53       54      114      119 </v>
   <v type="int" >        4       49       54      114      115 </v>
   <v type="int" >        4       54      114      115      120 </v>
   <v type="int" >        4       54      114      119      120 </v>
   <v type="int" >        4       49       50       55      115 </v>
   <v type="int" >        4       49       54       55      115 </v>
   <v type="int" >        4       54       55      115      120 </v>
   <v type="int" >        4       50       55      115      116 </v>
   <v type="int" >        4       55      115      116      121 </v>
   <v type="int" >        4       55      115      120      121 </v>
   <v type="int" >        4       50       51       56      116 </v>
   <v type="int" >        4       50       55       56      116 </v>
   <v type="int" >        4       55       56      116      121 </v>
   <v type="int" >        4       51       56      116      117 </v>
   <v type="int" >        4       56      116      117      122 </v>
   <v type="int" >        4       56      116      121      122 </v>
   <v type="int" >        4       50       51       55      117 </v>
   <v type="int" >        4       51       55       56      117 </v>
   <v type="int" >        4       55       56      117      122 </v>
   <v type="int" >        4       50       55      116      117 </v>
   <v type="int" >        4       55      116      117      121 </v>
   <v type="int" >        4       55      117      121      122 </v>
   <v type="int" >        4       49       50       54      116 </v>
   <v type="int" >        4       50       54       55      116 </v>
   <v type="int" >        4       54       55      116      121 </v>
   <v type="int" >        4       49       54      115      116 </v>
   <v type="int" >        4       54      115      116      120 </v>
   <v type="int" >        4       54      116      120      121 </v>
   <v type="int" >        4       48       49       53      115 </v>
   <v type="int" >        4       49       53       54      115 </v>
   <v type="int" >        4       53       54      115      120 </v>
   <v type="int" >        4       48       53      114      115 </v>
   <v type="int" >        4       53      114      115      119 </v>
   <v type="int" >        4       53      115      119      120 </v>
   <v type="int" >        4       47       48       52      114 </v>
   <v type="int" >        4       48       52       53      114 </v>
   <v type="int" >        4       52       53      114      119 </v>
   <v type="int" >        4       47       52      113      114 </v>
   <v type="int" >        4       52      113      114      118 </v>
   <v type="int" >        4       52      114      118      119 </v>
   <v type="int" >        4       46       47       47      113 </v>
   <v type="int" >        4       47       47       52      113 </v>
   <v type="int" >        4       47       52      113      118 </v>
   <v type="int" >        4       46       47      112      113 </v>
   <v type="int" >        4       47      112      113      113 </v>
   <v type="int" >        4       47      113      113      118 </v>
   <v type="int" >        4       40       41       46      112 </v>
   <v type="int" >        4       41       46       47      112 </v>
   <v type="int" >        4       41       47      112      113 </v>
   <v type="int" >        4       40       41      106      112 </v>
   <v type="int" >        4       41      106      107      112 </v>
   <v type="int" >        4       41      107      112      113 </v>
   <v type="int" >        4       33       34       40      106 </v>
   <v type="int" >        4       34       40       41      106 </v>
   <v type="int" >        4       34       41      106      107 </v>
   <v type="int" >        4       33       34       99      106 </v>
   <v type="int" >        4       34       99      100      106 </v>
   <v type="int" >        4       34      100      106      107 </v>
   <v type="int" >        4       25       26       33       99 </v>
   <v type="int" >        4       26       33       34       99 </v>
   <v type="int" >        4       26       34       99      100 </v>
   <v type="int" >        4       25       26       91       99 </v>
   <v type="int" >        4       26       91       92       99 </v>
   <v type="int" >        4       26       92       99      100 </v>
   <v type="int" >        4       16       17       25       91 </v>
   <v type="int" >        4       17       25       26       91 </v>
   <v type="int" >        4       17       26       91       92 </v>
   <v type="int" >        4       16       17       82       91 </v>
   <v type="int" >        4       17       82       83       91 </v>
   <v type="int" >        4       17       83       91       92 </v>
   <v type="int" >        4        6        7       16       82 </v>
   <v type="int" >        4        7       16       17       82 </v>
   <v type="int" >        4        7       17       82       83 </v>
   <v type="int" >        4        6        7       72       82 </v>
   <v type="int" >        4        7       72       73       82 </v>
   <v type="int" >        4        7       73       82       83 </v>
   <v type="int" >        4       52       53       57      118 </v>
   <v type="int" >        4       53       57      118      119 </v>
   <v type="int" >        4       57      118      119      123 </v>
   <v type="int" >        4       53       54       58      119 </v>
   <v type="int" >        4       53       57       58      119 </v>
   <v type="int" >        4       57       58      119      123 </v>
   <v type="int" >        4       54       58      119      120 </v>
   <v type="int" >        4       58      119      120      124 </v>
   <v type="int" >        4       58      119      123      124 </v>
   <v type="int" >        4       54       55       59      120 </v>
   <v type="int" >        4       54       58       59      120 </v>
   <v type="int" >        4       58       59      120      124 </v>
   <v type="int" >        4       55       59      120      121 </v>
   <v type="int" >        4       59      120      121      125 </v>
   <v type="int" >        4       59      120      124      125 </v>
   <v type="int" >        4       55       56       60      121 </v>
   <v type="int" >        4       55       59       60      121 </v>
   <v type="int" >        4       59       60      121      125 </v>
   <v type="int" >        4       56       60      121      122 </v>
   <v type="int" >        4       60      121      122      126 </v>
   <v type="int" >        4       60      121      125      126 </v>
   <v type="int" >        4       55       56       59      122 </v>
   <v type="int" >        4       56       59       60      122 </v>
   <v type="int" >        4       59       60      122      126 </v>
   <v type="int" >        4       55       59      121      122 </v>
   <v type="int" >        4       59      121      122      125 </v>
   <v type="int" >        4       59      122      125      126 </v>
   <v type="int" >        4       54       55       58      121 </v>
   <v type="int" >        4       55       58       59      121 </v>
   <v type="int" >        4       58       59      121      125 </v>
   <v type="int" >        4       54       58      120      121 </v>
   <v type="int" >        4       58      120      121      124 </v>
   <v type="int" >        4       58      121      124      125 </v>
   <v type="int" >        4       53       54       57      120 </v>
   <v type="int" >        4       54       57       58      120 </v>
   <v type="int" >        4       57       58      120      124 </v>
   <v type="int" >        4       53       57      119      120 </v>
   <v type="int" >        4       57      119      120      123 </v>
   <v type="int" >        4       57      120      123      124 </v>
   <v type="int" >        4       52       53       53      119 </v>
   <v type="int" >        4       53       53       57      119 </v>
   <v type="int" >        4       53       57      119      123 </v>
   <v type="int" >        4       52       53      118      119 </v>
   <v type="int" >        4       53      118      119      119 </v>
   <v type="int" >        4       53      119      119      123 </v>
   <v type="int" >        4       47       48       52      118 </v>
   <v type="int" >        4       48       52       53      118 </v>
   <v type="int" >        4       48       53      118      119 </v>
   <v type="int" >        4       47       48      113      118 </v>
   <v type="int" >        4       48      113      114      118 </v>
   <v type="int" >        4       48      114      118      119 </v>
   <v type="int" >        4       41       42       47      113 </v>
   <v type="int" >        4       42       47       48      113 </v>
   <v type="int" >        4       42       48      113      114 </v>
   <v type="int" >        4       41       42      107      113 </v>
   <v type="int" >        4       42      107      108      113 </v>
   <v type="int" >        4       42      108      113      114 </v>
   <v type="int" >        4       34       35       41      107 </v>
   <v type="int" >        4       35       41       42      107 </v>
   <v type="int" >        4       35       42      107      108 </v>
   <v type="int" >        4       34       35      100      107 </v>
   <v type="int" >        4       35      100      101      107 </v>
   <v type="int" >        4       35      101      107      108 </v>
   <v type="int" >        4       26       27       34      100 </v>
   <v type="int" >        4       27       34       35      100 </v>
   <v type="int" >        4       27       35      100      101 </v>
   <v type="int" >        4       26       27       92      100 </v>
   <v type="int" >        4       27       92       93      100 </v>
   <v type="int" >        4       27       93      100      101 </v>
   <v type="int" >        4       17       18       26       92 </v>
   <v type="int" >        4       18       26       27       92 </v>
   <v type="int" >        4       18       27       92       93 </v>
   <v type="int" >        4       17       18       83       92 </v>
   <v type="int" >        4       18       83       84       92 </v>
   <v type="int" >        4       18       84       92       93 </v>
   <v type="int" >        4        7        8       17       83 </v>
   <v type="int" >        4        8       17       18       83 </v>
   <v type="int" >        4        8       18       83       84 </v>
   <v type="int" >        4        7        8       73       83 </v>
   <v type="int" >        4        8       73       74       83 </v>
   <v type="int" >        4        8       74       83       84 </v>
   <v type="int" >        4       57       58       61      123 </v>
   <v type="int" >        4       58       61      123      124 </v>
   <v type="int" >        4       61      123      124      127 </v>
   <v type="int" >        4       58       59       62      124 </v>
   <v type="int" >        4       58       61       62      124 </v>
   <v type="int" >        4       61       62      124      127 </v>
   <v type="int" >        4       59       62      124      125 </v>
   <v type="int" >        4       62      124      125      128 </v>
   <v type="int" >        4       62      124      127      128 </v>
   <v type="int" >        4       59       60       63      125 </v>
   <v type="int" >        4       59       62       63      125 </v>
   <v type="int" >        4       62       63      125      128 </v>
   <v type="int" >        4       60       63      125      126 </v>
   <v type="int" >        4       63      125      126      129 </v>
   <v type="int" >        4       63      125      128      129 </v>
   <v type="int" >        4       59       60       62      126 </v>
   <v type="int" >        4       60       62       63      126 </v>
   <v type="int" >        4       62       63      126      129 </v>
   <v type="int" >        4       59       62      125      126 </v>
   <v type="int" >        4       62      125      126      128 </v>
   <v type="int" >        4       62      126      128      129 </v>
   <v type="int" >        4       58       59       61      125 </v>
   <v type="int" >        4       59       61       62      125 </v>
   <v type="int" >        4       61       62      125      128 </v>
   <v type="int" >        4       58       61      124      125 </v>
   <v type="int" >        4       61      124      125      127 </v>
   <v type="int" >        4       61      125      127      128 </v>
   <v type="int" >        4       57       58       58      124 </v>
   <v type="int" >        4       58       58       61      124 </v>
   <v type="int" >        4       58       61      124      127 </v>
   <v type="int" >        4       57       58      123      124 </v>
   <v type="int" >        4       58      123      124      124 </v>
   <v type="int" >        4       58      124      124      127 </v>
   <v type="int" >        4       53       54       57      123 </v>
   <v type="int" >        4       54       57       58      123 </v>
   <v type="int" >        4       54       58      123      124 </v>
   <v type="int" >        4       53       54      119      123 </v>
   <v type="int" >        4       54      119      120      123 </v>
   <v type="int" >        4       54      120      123      124 </v>
   <v type="int" >        4       48       49       53      119 </v>
   <v type="int" >        4       49       53       54      119 </v>
   <v type="int" >        4       49       54      119      120 </v>
   <v type="int" >        4       48       49      114      119 </v>
   <v type="int" >        4       49      114      115      119 </v>
   <v type="int" >        4       49      115      119      120 </v>
   <v type="int" >        4       42       43       48      114 </v>
   <v type="int" >        4       43       48       49      114 </v>
   <v type="int" >        4       43       49      114      115 </v>
   <v type="int" >        4       42       43      108      114 </v>
   <v type="int" >        4       43      108      109      114 </v>
   <v type="int" >        4       43      109      114      115 </v>
   <v type="int" >        4       35       36       42      108 </v>
   <v type="int" >        4       36       42       43      108 </v>
   <v type="int" >        4       36       43      108      109 </v>
   <v type="int" >        4       35       36      101      108 </v>
   <v type="int" >        4       36      101      102      108 </v>
   <v type="int" >        4       36      102      108      109 </v>
   <v type="int" >        4       27       28       35      101 </v>
   <v type="int" >        4       28       35       36      101 </v>
   <v type="int" >        4       28       36      101      102 </v>
   <v type="int" >        4       27       28       93      101 </v>
   <v type="int" >        4       28       93       94      101 </v>
   <v type="int" >        4       28       94      101      102 </v>
   <v type="int" >        4       18       19       27       93 </v>
   <v type="int" >        4       19       27       28       93 </v>
   <v type="int" >        4       19       28       93       94 </v>
   <v type="int" >        4       18       19       84       93 </v>
   <v type="int" >        4       19       84       85       93 </v>
   <v type="int" >        4       19       85       93       94 </v>
   <v type="int" >        4        8        9       18       84 </v>
   <v type="int" >        4        9       18       19       84 </v>
   <v type="int" >        4        9       19       84       85 </v>
   <v type="int" >        4        8        9       74       84 </v>
   <v type="int" >        4        9       74       75       84 </v>
   <v type="int" >        4        9       75       84       85 </v>
   <v type="int" >        4       61       62       64      127 </v>
   <v type="int" >        4       62       64      127      128 </v>
   <v type="int" >        4       64      127      128      130 </v>
   <v type="int" >        4       62       63       65      128 </v>
   <v type="int" >        4       62       64       65      128 </v>
   <v type="int" >        4       64       65      128      130 </v>
   <v type="int" >        4       63       65      128      129 </v>
   <v type="int" >        4       65      128      129      131 </v>
   <v type="int" >        4       65      128      130      131 </v>
   <v type="int" >        4       62       63       64      129 </v>
   <v type="int" >        4       63       64       65      129 </v>
   <v type="int" >        4       64       65      129      131 </v>
   <v type="int" >        4       62       64      128      129 </v>
   <v type="int" >        4       64      128      129      130 </v>
   <v type="int" >        4       64      129      130      131 </v>
   <v type="int" >        4       61       62       62      128 </v>
   <v type="int" >        4       62       62       64      128 </v>
   <v type="int" >        4       62       64      128      130 </v>
   <v type="int" >        4       61       62      127      128 </v>
   <v type="int" >        4       62      127      128      128 </v>
   <v type="int" >        4       62      128      128      130 </v>
   <v type="int" >        4       58       59       61      127 </v>
   <v type="int" >        4       59       61       62      127 </v>
   <v type="int" >        4       59       62      127      128 </v>
   <v type="int" >        4       58       59      124      127 </v>
   <v type="int" >        4       59      124      125      127 </v>
   <v type="int" >        4       59      125      127      128 </v>
   <v type="int" >        4       54       55       58      124 </v>
   <v type="int" >        4       55       58       59      124 </v>
   <v type="int" >        4       55       59      124      125 </v>
   <v type="int" >        4       54       55      120      124 </v>
   <v type="int" >        4       55      120      121      124 </v>
   <v type="int" >        4       55      121      124      125 </v>
   <v type="int" >        4       49       50       54      120 </v>
   <v type="int" >        4       50       54       55      120 </v>
   <v type="int" >        4       50       55      120      121 </v>
   <v type="int" >        4       49       50      115      120 </v>
   <v type="int" >        4       50      115      116      120 </v>
   <v type="int" >        4       50      116      120      121 </v>
   <v type="int" >        4       43       44       49      115 </v>
   <v type="int" >        4       44       49       50      115 </v>
   <v type="int" >        4       44       50      115      116 </v>
   <v type="int" >        4       43       44      109      115 </v>
   <v type="int" >        4       44      109      110      115 </v>
   <v type="int" >        4       44      110      115      116 </v>
   <v type="int" >        4       36       37       43      109 </v>
   <v type="int" >        4       37       43       44      109 </v>
   <v type="int" >        4       37       44      109      110 </v>
   <v type="int" >        4       36       37      102      109 </v>
   <v type="int" >        4       37      102      103      109 </v>
   <v type="int" >        4       37      103      109      110 </v>
   <v type="int" >        4       28       29       36      102 </v>
   <v type="int" >        4       29       36       37      102 </v>
   <v type="int" >        4       29       37      102      103 </v>
   <v type="int" >        4       28       29       94      102 </v>
   <v type="int" >        4       29       94       95      102 </v>
   <v type="int" >        4       29       95      102      103 </v>
   <v type="int" >        4       19       20       28       94 </v>
   <v type="int" >        4       20       28       29       94 </v>
   <v type="int" >        4       20       29       94       95 </v>
   <v type="int" >        4       19       20       85       94 </v>
   <v type="int" >        4       20       85       86       94 </v>
   <v type="int" >        4       20       86       94       95 </v>
   <v type="int" >        4        9       10       19       85 </v>
   <v type="int" >        4       10       19       20       85 </v>
   <v type="int" >        4       10       20       85       86 </v>
   <v type="int" >        4        9       10       75       85 </v>
   <v type="int" >        4       10       75       76       85 </v>
   <v type="int" >        4       10       76       85       86 </v>
   <v type="int" >        4       64       65       66      130 </v>
   <v type="int" >        4       65       66      130      131 </v>
   <v type="int" >        4       66      130      131      132 </v>
   <v type="int" >        4       64       65       65      131 </v>
   <v type="int" >        4       65       65       66      131 </v>
   <v type="int" >        4       65       66      131      132 </v>
   <v type="int" >        4       64       65      130      131 </v>
   <v type="int" >        4       65      130      131      131 </v>
   <v type="int" >        4       65      131      131      132 </v>
   <v type="int" >        4       62       63       64      130 </v>
   <v type="int" >        4       63       64       65      130 </v>
   <v type="int" >        4       63       65      130      131 </v>
   <v type="int" >        4       62       63      128      130 </v>
   <v type="int" >        4       63      128      129      130 </v>
   <v type="int" >        4       63      129      130      131 </v>
   <v type="int" >        4       59       60       62      128 </v>
   <v type="int" >        4       60       62       63      128 </v>
   <v type="int" >        4       60       63      128      129 </v>
   <v type="int" >        4       59       60      125      128 </v>
   <v type="int" >        4       60      125      126      128 </v>
   <v type="int" >        4       60      126      128      129 </v>
[...]
       <r>    2.2634    0.0000 </r>
       <r>    2.4691    0.0000 </r>
      </set>
      <set comment="kpoint 194">
       <r>   -4.7026    1.0000 </r>
       <r>   -4.4889    1.0000 </r>
       <r>   -3.2474    1.0000 </r>
       <r>   -2.8713    1.0000 </r>
       <r>   -2.6051    1.0000 </r>
       <r>   -2.5693    1.0000 </r>
       <r>   -2.3678    1.0000 </r>
       <r>   -2.1720    1.0000 </r>
       <r>   -1.8325    1.0000 </r>
       <r>   -1.5483    1.0000 </r>
       <r>   -1.4511    1.0000 </r>
       <r>   -0.6444    1.0000 </r>
       <r>   -0.4634    1.0000 </r>
       <r>    1.7414    0.0000 </r>
       <r>    1.8967    0.0000 </r>
       <r>    2.0901    0.0000 </r>
       <r>    2.2968    0.0000 </r>
       <r>    2.4112    0.0000 </r>
       <r>    2.5349    0.0000 </r>
      </set>
      <set comment="kpoint 195">
       <r>   -4.6960    1.0000 </r>
       <r>   -4.5407    1.0000 </r>
       <r>   -3.2442    1.0000 </r>
       <r>   -2.9272    1.0000 </r>
       <r>   -2.5605    1.0000 </r>
       <r>   -2.5045    1.0000 </r>
       <r>   -2.4306    1.0000 </r>
       <r>   -2.2567    1.0000 </r>
       <r>   -1.8272    1.0000 </r>
       <r>   -1.4849    1.0000 </r>
       <r>   -1.4796    1.0000 </r>
       <r>   -0.5044    1.0000 </r>
       <r>   -0.4180    1.0000 </r>
       <r>    1.7974    0.0000 </r>
       <r>    1.9448    0.0000 </r>
       <r>    2.2828    0.0000 </r>
       <r>    2.3979    0.0000 </r>
       <r>    2.5456    0.0000 </r>
       <r>    2.5585    0.0000 </r>
      </set>
      <set comment="kpoint 196">
       <r>   -4.7575    1.0000 </r>
       <r>   -4.5872    1.0000 </r>
       <r>   -3.2384    1.0000 </r>
       <r>   -2.7952    1.0000 </r>
       <r>   -2.7504    1.0000 </r>
       <r>   -2.4650    1.0000 </r>
       <r>   -2.3775    1.0000 </r>
       <r>   -2.3423    1.0000 </r>
       <r>   -1.6473    1.0000 </r>
       <r>   -1.6169    1.0000 </r>
       <r>   -1.5672    1.0000 </r>
       <r>   -0.3709    1.0000 </r>
       <r>   -0.2688    1.0000 </r>
       <r>    2.2318    0.0000 </r>
       <r>    2.2852    0.0000 </r>
       <r>    2.3676    0.0000 </r>
       <r>    2.5348    0.0000 </r>
       <r>    2.5894    0.0000 </r>
       <r>    2.7430    0.0000 </r>
      </set>
      <set comment="kpoint 197">
       <r>   -4.7760    1.0000 </r>
       <r>   -4.6215    1.0000 </r>
       <r>   -3.2283    1.0000 </r>
       <r>   -2.8375    1.0000 </r>
       <r>   -2.7197    1.0000 </r>
       <r>   -2.4742    1.0000 </r>
       <r>   -2.3851    1.0000 </r>
       <r>   -2.3816    1.0000 </r>
       <r>   -1.6803    1.0000 </r>
       <r>   -1.6229    1.0000 </r>
       <r>   -1.5243    1.0000 </r>
       <r>   -0.2371    1.0000 </r>
       <r>   -0.2185    1.0000 </r>
       <r>    2.3253    0.0000 </r>
       <r>    2.4028    0.0000 </r>
       <r>    2.4885    0.0000 </r>
       <r>    2.6095    0.0000 </r>
       <r>    2.7568    0.0000 </r>
       <r>    2.9559    0.0000 </r>
      </set>
      <set comment="kpoint 198">
       <r>   -4.8034    1.0000 </r>
       <r>   -4.6493    1.0000 </r>
       <r>   -3.2148    1.0000 </r>
       <r>   -2.7827    1.0000 </r>
       <r>   -2.7827    1.0000 </r>
       <r>   -2.5791    1.0000 </r>
       <r>   -2.3505    1.0000 </r>
       <r>   -2.3505    1.0000 </r>
       <r>   -1.7679    1.0000 </r>
       <r>   -1.5403    1.0000 </r>
       <r>   -1.5403    1.0000 </r>
       <r>   -0.1353    1.0000 </r>
       <r>   -0.1353    1.0000 </r>
       <r>    2.4434    0.0000 </r>
       <r>    2.5693    0.0000 </r>
       <r>    2.5693    0.0000 </r>
       <r>    2.6248    0.0000 </r>
       <r>    3.2147    0.0000 </r>
       <r>    3.2182    0.0000 </r>
      </set>
     </set>
    </set>
   </array>
  </eigenvalues>
  <separator name="orbital magnetization" >
   <v name="MAGDIPOLOUT">      0.00000000      0.00000000      0.00000000</v>
  </separator>
  <dos>
   <i name="efermi">      0.69219900 </i>
   <total>
    <array>
     <dimension dim="1">gridpoints</dimension>
     <dimension dim="2">spin</dimension>
     <field>energy</field>
     <field>total</field>
     <field>integrated</field>
     <set>
      <set comment="spin 1">
       <r>   -10.0336     0.0000     0.0000 </r>
       <r>    -9.9828     0.0000     0.0000 </r>
       <r>    -9.9319     0.0000     0.0000 </r>
       <r>    -9.8811     0.0000     0.0000 </r>
       <r>    -9.8303     0.0000     0.0000 </r>
       <r>    -9.7794     0.0000     0.0000 </r>
       <r>    -9.7286     0.0000     0.0000 </r>
       <r>    -9.6777     0.0000     0.0000 </r>
       <r>    -9.6269     0.0000     0.0000 </r>
       <r>    -9.5761     0.0000     0.0000 </r>
       <r>    -9.5252     0.0000     0.0000 </r>
       <r>    -9.4744     0.0000     0.0000 </r>
       <r>    -9.4235     0.0000     0.0000 </r>
       <r>    -9.3727     0.0000     0.0000 </r>
       <r>    -9.3219     0.0000     0.0000 </r>
       <r>    -9.2710     0.0000     0.0000 </r>
       <r>    -9.2202     0.0000     0.0000 </r>
       <r>    -9.1693     0.0000     0.0000 </r>
       <r>    -9.1185     0.0000     0.0000 </r>
       <r>    -9.0677     0.0000     0.0000 </r>
       <r>    -9.0168     0.0000     0.0000 </r>
       <r>    -8.9660     0.0000     0.0000 </r>
       <r>    -8.9152     0.0000     0.0000 </r>
       <r>    -8.8643     0.0000     0.0000 </r>
       <r>    -8.8135     0.0000     0.0000 </r>
       <r>    -8.7626     0.0000     0.0000 </r>
       <r>    -8.7118     0.0000     0.0000 </r>
       <r>    -8.6610     0.0000     0.0000 </r>
       <r>    -8.6101     0.0000     0.0000 </r>
       <r>    -8.5593     0.0000     0.0000 </r>
       <r>    -8.5084     0.0000     0.0000 </r>
       <r>    -8.4576     0.0000     0.0000 </r>
       <r>    -8.4068     0.0000     0.0000 </r>
       <r>    -8.3559     0.0000     0.0000 </r>
       <r>    -8.3051     0.0000     0.0000 </r>
       <r>    -8.2542     0.0000     0.0000 </r>
       <r>    -8.2034     0.0000     0.0000 </r>
       <r>    -8.1526     0.0000     0.0000 </r>
       <r>    -8.1017     0.0000     0.0000 </r>
       <r>    -8.0509     0.0000     0.0000 </r>
       <r>    -8.0000     0.2163     0.0036 </r>
       <r>    -7.9492     0.2995     0.0195 </r>
       <r>    -7.8984     0.2608     0.0328 </r>
       <r>    -7.8475     0.2987     0.0470 </r>
       <r>    -7.7967     0.3090     0.0629 </r>
       <r>    -7.7458     0.2751     0.0775 </r>
       <r>    -7.6950     0.2839     0.0917 </r>
       <r>    -7.6442     0.2927     0.1064 </r>
       <r>    -7.5933     0.3019     0.1215 </r>
       <r>    -7.5425     0.3150     0.1372 </r>
       <r>    -7.4916     0.2945     0.1527 </r>
       <r>    -7.4408     0.2969     0.1677 </r>
       <r>    -7.3900     0.2994     0.1829 </r>
       <r>    -7.3391     0.3018     0.1982 </r>
       <r>    -7.2883     0.3100     0.2137 </r>
       <r>    -7.2375     0.3176     0.2297 </r>
       <r>    -7.1866     0.3247     0.2460 </r>
       <r>    -7.1358     0.3139     0.2623 </r>
       <r>    -7.0849     0.3149     0.2783 </r>
       <r>    -7.0341     0.3180     0.2943 </r>
       <r>    -6.9833     0.3213     0.3106 </r>
       <r>    -6.9324     0.3262     0.3270 </r>
       <r>    -6.8816     0.3310     0.3437 </r>
       <r>    -6.8307     0.3358     0.3607 </r>
       <r>    -6.7799     0.3406     0.3779 </r>
       <r>    -6.7291     0.3420     0.3953 </r>
       <r>    -6.6782     0.3431     0.4126 </r>
       <r>    -6.6274     0.3464     0.4302 </r>
       <r>    -6.5765     0.3497     0.4479 </r>
       <r>    -6.5257     0.3536     0.4657 </r>
       <r>    -6.4749     0.3576     0.4838 </r>
       <r>    -6.4240     0.3617     0.5021 </r>
       <r>    -6.3732     0.3683     0.5206 </r>
       <r>    -6.3223     0.3749     0.5395 </r>
       <r>    -6.2715     0.3803     0.5587 </r>
       <r>    -6.2207     0.3851     0.5782 </r>
       <r>    -6.1698     0.3901     0.5979 </r>
       <r>    -6.1190     0.7325     0.6227 </r>
       <r>    -6.0681     0.7483     0.6639 </r>
       <r>    -6.0173     0.8094     0.7031 </r>
       <r>    -5.9665     0.8291     0.7456 </r>
       <r>    -5.9156     0.8180     0.7869 </r>
       <r>    -5.8648     0.8467     0.8292 </r>
       <r>    -5.8139     0.8750     0.8730 </r>
       <r>    -5.7631     0.8811     0.9177 </r>
       <r>    -5.7123     0.9071     0.9631 </r>
       <r>    -5.6614     0.9392     1.0100 </r>
       <r>    -5.6106     0.9654     1.0585 </r>
       <r>    -5.5598     0.9949     1.1083 </r>
       <r>    -5.5089     1.0259     1.1597 </r>
       <r>    -5.4581     1.0568     1.2126 </r>
       <r>    -5.4072     1.0828     1.2671 </r>
       <r>    -5.3564     1.1671     1.3236 </r>
       <r>    -5.3056     1.2768     1.3863 </r>
       <r>    -5.2547     1.3489     1.4531 </r>
       <r>    -5.2039     1.4842     1.5242 </r>
       <r>    -5.1530     1.6433     1.6045 </r>
       <r>    -5.1022     2.3900     1.6981 </r>
       <r>    -5.0514     3.4672     1.8640 </r>
       <r>    -5.0005     2.2601     2.0081 </r>
       <r>    -4.9497     2.0507     2.1151 </r>
       <r>    -4.8988     1.9517     2.2171 </r>
       <r>    -4.8480     1.7713     2.3128 </r>
       <r>    -4.7972     1.8900     2.4003 </r>
       <r>    -4.7463     2.5244     2.5205 </r>
       <r>    -4.6955     3.8981     2.6799 </r>
       <r>    -4.6446     2.4669     2.8228 </r>
       <r>    -4.5938     2.8627     2.9663 </r>
       <r>    -4.5430     2.5520     3.1020 </r>
       <r>    -4.4921     2.9680     3.2485 </r>
       <r>    -4.4413     4.4058     3.4338 </r>
       <r>    -4.3904     4.7809     3.6673 </r>
       <r>    -4.3396     5.1814     3.9252 </r>
       <r>    -4.2888     3.5640     4.1475 </r>
       <r>    -4.2379     3.3220     4.3215 </r>
       <r>    -4.1871     3.4000     4.4891 </r>
       <r>    -4.1362     3.1257     4.6562 </r>
       <r>    -4.0854     3.0943     4.8129 </r>
       <r>    -4.0346     2.7615     4.9617 </r>
       <r>    -3.9837     3.1618     5.1100 </r>
       <r>    -3.9329     3.0467     5.2632 </r>
       <r>    -3.8821     3.0689     5.4189 </r>
       <r>    -3.8312     3.1930     5.5784 </r>
       <r>    -3.7804     3.4127     5.7466 </r>
       <r>    -3.7295     2.4857     5.8857 </r>
       <r>    -3.6787     2.4243     6.0098 </r>
       <r>    -3.6279     2.4143     6.1331 </r>
       <r>    -3.5770     2.3045     6.2533 </r>
       <r>    -3.5262     4.3743     6.4284 </r>
       <r>    -3.4753     5.5822     6.6777 </r>
       <r>    -3.4245     8.5327     7.0605 </r>
       <r>    -3.3737     8.7719     7.4972 </r>
       <r>    -3.3228     7.7668     7.9433 </r>
       <r>    -3.2720     7.4740     8.3434 </r>
       <r>    -3.2211     7.4592     8.8793 </r>
       <r>    -3.1703     4.7757     9.1552 </r>
       <r>    -3.1195     6.9686     9.4253 </r>
       <r>    -3.0686     5.0791     9.7059 </r>
       <r>    -3.0178     4.1269     9.9400 </r>
       <r>    -2.9669     4.1757    10.1539 </r>
       <r>    -2.9161     4.0790    10.3571 </r>
       <r>    -2.8653     3.7295    10.5435 </r>
       <r>    -2.8144     3.3481    10.7293 </r>
       <r>    -2.7636     2.4041    10.8630 </r>
       <r>    -2.7127     2.4297    10.9968 </r>
       <r>    -2.6619     2.1924    11.1145 </r>
       <r>    -2.6111     2.4505    11.2303 </r>
       <r>    -2.5602     2.2967    11.3454 </r>
       <r>    -2.5094     3.1487    11.4834 </r>
       <r>    -2.4585     2.8025    11.6615 </r>
       <r>    -2.4077     6.8250    11.8949 </r>
       <r>    -2.3569    13.5519    12.3323 </r>
       <r>    -2.3060     8.0504    12.8521 </r>
       <r>    -2.2552     6.2737    13.2442 </r>
       <r>    -2.2044     7.3622    13.5859 </r>
       <r>    -2.1535     9.4700    13.9592 </r>
       <r>    -2.1027     7.5132    14.4184 </r>
       <r>    -2.0518     6.7768    14.7886 </r>
       <r>    -2.0010     5.0234    15.0601 </r>
       <r>    -1.9502     4.5512    15.2840 </r>
       <r>    -1.8993     5.1018    15.5527 </r>
       <r>    -1.8485     6.4561    15.8443 </r>
       <r>    -1.7976     4.4564    16.1231 </r>
       <r>    -1.7468     6.0255    16.4142 </r>
       <r>    -1.6960     8.0439    16.7602 </r>
       <r>    -1.6451     6.2424    17.1452 </r>
       <r>    -1.5943     6.9642    17.5129 </r>
       <r>    -1.5434     7.6586    17.8792 </r>
       <r>    -1.4926     8.1870    18.2753 </r>
       <r>    -1.4418     6.2065    18.6698 </r>
       <r>    -1.3909     8.0059    19.0155 </r>
       <r>    -1.3401     5.2723    19.3877 </r>
       <r>    -1.2892     4.2697    19.6107 </r>
       <r>    -1.2384     4.6018    19.8312 </r>
       <r>    -1.1876     6.0461    20.0976 </r>
       <r>    -1.1367     6.5425    20.3974 </r>
       <r>    -1.0859     6.1679    20.7290 </r>
       <r>    -1.0350     5.6906    21.0274 </r>
       <r>    -0.9842     5.5375    21.3122 </r>
       <r>    -0.9334     5.8329    21.5981 </r>
       <r>    -0.8825     6.3663    21.9082 </r>
       <r>    -0.8317     5.8469    22.2213 </r>
       <r>    -0.7808     5.1404    22.4966 </r>
       <r>    -0.7300     5.6379    22.7736 </r>
       <r>    -0.6792     4.9868    23.0461 </r>
       <r>    -0.6283     4.8318    23.2983 </r>
       <r>    -0.5775     5.3113    23.5515 </r>
       <r>    -0.5267     5.0258    23.8155 </r>
       <r>    -0.4758     4.6118    24.0681 </r>
       <r>    -0.4250     3.7967    24.2959 </r>
       <r>    -0.3741     3.0383    24.4644 </r>
       <r>    -0.3233     3.0619    24.6126 </r>
       <r>    -0.2725     4.0434    24.7864 </r>
       <r>    -0.2216     4.1069    25.0178 </r>
       <r>    -0.1708     3.7159    25.2039 </r>
       <r>    -0.1199     4.4723    25.4085 </r>
       <r>    -0.0691     4.5070    25.6492 </r>
       <r>    -0.0183     5.4530    25.8688 </r>
       <r>     0.0326     3.9472    26.1544 </r>
       <r>     0.0834     4.7871    26.3748 </r>
       <r>     0.1343     4.0990    26.5963 </r>
       <r>     0.1851     5.4369    26.8150 </r>
       <r>     0.2359     8.0016    27.1918 </r>
       <r>     0.2868     8.0036    27.5929 </r>
       <r>     0.3376     8.0596    27.9839 </r>
       <r>     0.3885     4.5560    28.2764 </r>
       <r>     0.4393     3.0115    28.4593 </r>
       <r>     0.4901     3.0537    28.6549 </r>
       <r>     0.5410     4.9653    28.8509 </r>
       <r>     0.5918     6.6877    29.1556 </r>
       <r>     0.6427     8.5223    29.6446 </r>
       <r>     0.6935     6.1897    30.0080 </r>
       <r>     0.7443     6.2984    30.3317 </r>
       <r>     0.7952     5.6725    30.6315 </r>
       <r>     0.8460     6.8022    30.9387 </r>
       <r>     0.8969     4.7853    31.2276 </r>
       <r>     0.9477     5.4774    31.4798 </r>
       <r>     0.9985     4.4870    31.7361 </r>
       <r>     1.0494     4.0523    31.9567 </r>
       <r>     1.1002     3.5729    32.1460 </r>
       <r>     1.1510     3.4592    32.3236 </r>
       <r>     1.2019     3.6286    32.5006 </r>
       <r>     1.2527     3.6421    32.6876 </r>
       <r>     1.3036     2.9981    32.8803 </r>
       <r>     1.3544     3.8725    33.0532 </r>
       <r>     1.4052     3.3617    33.2486 </r>
       <r>     1.4561     2.9572    33.4119 </r>
       <r>     1.5069     3.7970    33.5667 </r>
       <r>     1.5578     7.6854    33.8298 </r>
       <r>     1.6086     5.1153    34.1907 </r>
       <r>     1.6594     7.4270    34.5285 </r>
       <r>     1.7103     5.4266    34.8449 </r>
       <r>     1.7611     4.5408    35.0932 </r>
       <r>     1.8120     4.3287    35.3160 </r>
       <r>     1.8628     3.6202    35.5187 </r>
       <r>     1.9136     3.5742    35.6977 </r>
       <r>     1.9645     4.3364    35.8907 </r>
       <r>     2.0153     5.4826    36.1555 </r>
       <r>     2.0662     6.2124    36.4570 </r>
       <r>     2.1170     4.4749    36.8542 </r>
       <r>     2.1678     2.9694    37.0222 </r>
       <r>     2.2187     2.4269    37.1556 </r>
       <r>     2.2695     2.0855    37.2709 </r>
       <r>     2.3204     2.1305    37.3747 </r>
       <r>     2.3712     2.3374    37.4853 </r>
       <r>     2.4220     2.5705    37.6211 </r>
       <r>     2.4729     2.0899    37.7393 </r>
       <r>     2.5237     1.4417    37.8272 </r>
       <r>     2.5746     0.7221    37.8781 </r>
       <r>     2.6254     0.3800    37.9172 </r>
       <r>     2.6762     0.3127    37.9348 </r>
       <r>     2.7271     0.2456    37.9490 </r>
       <r>     2.7779     0.1699    37.9596 </r>
       <r>     2.8288     0.1557    37.9679 </r>
       <r>     2.8796     0.1415    37.9755 </r>
       <r>     2.9304     0.1272    37.9823 </r>
       <r>     2.9813     0.1009    37.9881 </r>
       <r>     3.0321     0.0791    37.9927 </r>
       <r>     3.0829     0.0572    37.9962 </r>
       <r>     3.1338     0.0354    37.9985 </r>
       <r>     3.1846     0.0136    37.9998 </r>
       <r>     3.2355     0.0000    38.0000 </r>
       <r>     3.2863     0.0000    38.0000 </r>
       <r>     3.3371     0.0000    38.0000 </r>
       <r>     3.3880     0.0000    38.0000 </r>
       <r>     3.4388     0.0000    38.0000 </r>
       <r>     3.4897     0.0000    38.0000 </r>
       <r>     3.5405     0.0000    38.0000 </r>
       <r>     3.5913     0.0000    38.0000 </r>
       <r>     3.6422     0.0000    38.0000 </r>
       <r>     3.6930     0.0000    38.0000 </r>
       <r>     3.7439     0.0000    38.0000 </r>
       <r>     3.7947     0.0000    38.0000 </r>
       <r>     3.8455     0.0000    38.0000 </r>
       <r>     3.8964     0.0000    38.0000 </r>
       <r>     3.9472     0.0000    38.0000 </r>
       <r>     3.9981     0.0000    38.0000 </r>
       <r>     4.0489     0.0000    38.0000 </r>
       <r>     4.0997     0.0000    38.0000 </r>
       <r>     4.1506     0.0000    38.0000 </r>
       <r>     4.2014     0.0000    38.0000 </r>
       <r>     4.2523     0.0000    38.0000 </r>
       <r>     4.3031     0.0000    38.0000 </r>
       <r>     4.3539     0.0000    38.0000 </r>
       <r>     4.4048     0.0000    38.0000 </r>
       <r>     4.4556     0.0000    38.0000 </r>
       <r>     4.5065     0.0000    38.0000 </r>
       <r>     4.5573     0.0000    38.0000 </r>
       <r>     4.6081     0.0000    38.0000 </r>
       <r>     4.6590     0.0000    38.0000 </r>
       <r>     4.7098     0.0000    38.0000 </r>
       <r>     4.7606     0.0000    38.0000 </r>
       <r>     4.8115     0.0000    38.0000 </r>
       <r>     4.8623     0.0000    38.0000 </r>
       <r>     4.9132     0.0000    38.0000 </r>
       <r>     4.9640     0.0000    38.0000 </r>
       <r>     5.0148     0.0000    38.0000 </r>
       <r>     5.0657     0.0000    38.0000 </r>
       <r>     5.1165     0.0000    38.0000 </r>
       <r>     5.1674     0.0000    38.0000 </r>
       <r>     5.2182     0.0000    38.0000 </r>
      </set>
     </set>
    </array>
   </total>
  </dos>
 </calculation>
 <structure name="finalpos" >
  <crystal>
   <varray name="basis" >
    <v>       3.16000000       0.00000000       0.00000000 </v>
    <v>       0.00000000       3.16000000       0.00000000 </v>
    <v>       0.00000000       0.00000000      18.96000000 </v>
   </varray>
   <i name="volume">    189.32697600 </i>
   <varray name="rec_basis" >
    <v>       0.31645570       0.00000000       0.00000000 </v>
    <v>       0.00000000       0.31645570       0.00000000 </v>
    <v>       0.00000000       0.00000000       0.05274262 </v>
   </varray>
  </crystal>
  <varray name="positions" >
   <v>       0.00000000       0.00000000       0.00000000 </v>
   <v>       0.50000000       0.50000000       0.08333333 </v>
   <v>       0.00000000       0.00000000       0.16666667 </v>
   <v>       0.50000000       0.50000000       0.25000000 </v>
   <v>       0.00000000       0.00000000       0.33333333 </v>
  </varray>
 </structure>
</modeling>
