fcc Ni                                  
   3.52950000000000     
     0.500000    0.500000    0.000000
     0.000000    0.500000    0.500000
     0.500000    0.000000    0.500000
   Ni
     1
Direct
  0.000000  0.000000  0.000000
 
   28   28   28
  152.43      147.35      133.05      112.05      87.741      63.595      42.409      25.919      14.701      8.2853    
  5.4111      4.3906      3.8178      3.4737      3.3609      3.4737      3.8178      4.3906      5.4111      8.2853    
  14.701      25.919      42.409      63.595      87.741      112.05      133.05      147.35      147.35      137.67    
  120.05      97.493      73.453      51.064      32.572      19.103      10.677      6.3922      4.7392      4.0505    
  3.5955      3.3717      3.3718      3.5955      4.0505      4.7391      6.3922      10.677      19.103      32.572    
  51.063      73.453      97.493      120.05      137.67      147.35      133.05      120.05      100.96      78.890    
  57.011      37.887      23.103      13.163      7.5896      5.1606      4.2715      3.7257      3.4015      3.2959    
  3.4015      3.7257      4.2715      5.1606      7.5897      13.163      23.103      37.886      57.011      78.890    
  100.96      120.05      133.06      137.67      112.05      97.493      78.890      59.131      40.841      25.902    
  15.229      8.7636      5.6377      4.4615      3.8497      3.4429      3.2458      3.2458      3.4428      3.8497    
  4.4615      5.6377      8.7636      15.229      25.902      40.841      59.130      78.890      97.493      112.05    
  120.05      120.05      87.741      73.453      57.011      40.841      26.908      16.401      9.6241      6.0667    
  4.6203      3.9539      3.4863      3.2167      3.1299      3.2167      3.4863      3.9539      4.6203      6.0667    
  9.6241      16.401      26.908      40.841      57.011      73.453      87.741      97.493      100.96      97.493    
  63.595      51.064      37.887      25.902      16.401      9.9401      6.3224      4.7351      4.0282      3.5233    
  3.2017      3.0495      3.0495      3.2017      3.5234      4.0281      4.7351      6.3224      9.9401      16.401    
  25.902      37.887      51.064      63.595      73.453      78.890      78.890      73.453      42.409      32.572    
  23.103      15.229      9.6241      6.3224      4.7778      4.0665      3.5478      3.1950      2.9980      2.9355    
  2.9980      3.1950      3.5478      4.0666      4.7778      6.3223      9.6240      15.229      23.103      32.572    
  42.409      51.064      57.011      59.130      57.011      51.063      25.919      19.103      13.163      8.7636    
  6.0667      4.7351      4.0665      3.5562      3.1925      2.9695      2.8661      2.8660      2.9695      3.1925    
  3.5562      4.0666      4.7351      6.0667      8.7635      13.163      19.103      25.919      32.572      37.887    
  40.841      40.841      37.886      32.572      14.701      10.677      7.5896      5.6377      4.6203      4.0282    
  3.5478      3.1925      2.9605      2.8334      2.7934      2.8334      2.9605      3.1925      3.5478      4.0282    
  4.6204      5.6378      7.5896      10.677      14.701      19.103      23.103      25.902      26.908      25.902    
  23.103      19.103      8.2853      6.3922      5.1606      4.4615      3.9539      3.5233      3.1950      2.9695    
  2.8334      2.7704      2.7704      2.8334      2.9695      3.1949      3.5233      3.9539      4.4616      5.1607    
  6.3922      8.2853      10.677      13.163      15.229      16.401      16.401      15.229      13.163      10.677    
  5.4111      4.7392      4.2715      3.8497      3.4863      3.2017      2.9980      2.8661      2.7934      2.7704    
  2.7934      2.8661      2.9980      3.2016      3.4862      3.8496      4.2715      4.7392      5.4112      6.3922    
  7.5896      8.7635      9.6240      9.9401      9.6241      8.7636      7.5897      6.3922      4.3906      4.0505    
  3.7257      3.4429      3.2167      3.0495      2.9355      2.8660      2.8334      2.8334      2.8661      2.9356    
  3.0495      3.2166      3.4428      3.7256      4.0504      4.3906      4.7392      5.1607      5.6378      6.0667    
  6.3223      6.3224      6.0667      5.6377      5.1606      4.7391      3.8178      3.5955      3.4015      3.2458    
  3.1299      3.0495      2.9980      2.9695      2.9605      2.9695      2.9980      3.0495      3.1300      3.2459    
  3.4015      3.5954      3.8177      4.0504      4.2715      4.4616      4.6204      4.7351      4.7778      4.7351    
  4.6203      4.4615      4.2715      4.0505      3.4737      3.3717      3.2959      3.2458      3.2167      3.2017    
  3.1950      3.1925      3.1925      3.1949      3.2016      3.2166      3.2459      3.2960      3.3718      3.4737    
  3.5954      3.7256      3.8496      3.9539      4.0282      4.0666      4.0666      4.0281      3.9539      3.8497    
  3.7257      3.5955      3.3609      3.3718      3.4015      3.4428      3.4863      3.5234      3.5478      3.5562    
  3.5478      3.5233      3.4862      3.4428      3.4015      3.3718      3.3610      3.3718      3.4015      3.4428    
  3.4862      3.5233      3.5478      3.5562      3.5478      3.5234      3.4863      3.4428      3.4015      3.3718    
  3.4737      3.5955      3.7257      3.8497      3.9539      4.0281      4.0666      4.0666      4.0282      3.9539    
  3.8496      3.7256      3.5954      3.4737      3.3718      3.2960      3.2459      3.2166      3.2016      3.1949    
  3.1925      3.1925      3.1950      3.2017      3.2167      3.2458      3.2959      3.3717      3.8178      4.0505    
  4.2715      4.4615      4.6203      4.7351      4.7778      4.7351      4.6204      4.4616      4.2715      4.0504    
  3.8177      3.5954      3.4015      3.2459      3.1300      3.0495      2.9980      2.9695      2.9605      2.9695    
  2.9980      3.0495      3.1299      3.2458      3.4015      3.5955      4.3906      4.7391      5.1606      5.6377    
  6.0667      6.3224      6.3223      6.0667      5.6378      5.1607      4.7392      4.3906      4.0504      3.7256    
  3.4428      3.2166      3.0495      2.9356      2.8661      2.8334      2.8334      2.8660      2.9355      3.0495    
  3.2167      3.4429      3.7257      4.0505      5.4111      6.3922      7.5897      8.7636      9.6241      9.9401    
  9.6240      8.7635      7.5896      6.3922      5.4112      4.7392      4.2715      3.8496      3.4862      3.2016    
  2.9980      2.8661      2.7934      2.7704      2.7934      2.8661      2.9980      3.2017      3.4863      3.8497    
  4.2715      4.7392      8.2853      10.677      13.163      15.229      16.401      16.401      15.229      13.163    
  10.677      8.2853      6.3922      5.1607      4.4616      3.9539      3.5233      3.1949      2.9695      2.8334    
  2.7704      2.7704      2.8334      2.9695      3.1950      3.5233      3.9539      4.4615      5.1606      6.3922    
  14.701      19.103      23.103      25.902      26.908      25.902      23.103      19.103      14.701      10.677    
  7.5896      5.6378      4.6204      4.0282      3.5478      3.1925      2.9605      2.8334      2.7934      2.8334    
  2.9605      3.1925      3.5478      4.0282      4.6203      5.6377      7.5896      10.677      25.919      32.572    
  37.886      40.841      40.841      37.887      32.572      25.919      19.103      13.163      8.7635      6.0667    
  4.7351      4.0666      3.5562      3.1925      2.9695      2.8660      2.8661      2.9695      3.1925      3.5562    
  4.0665      4.7351      6.0667      8.7636      13.163      19.103      42.409      51.063      57.011      59.130    
  57.011      51.064      42.409      32.572      23.103      15.229      9.6240      6.3223      4.7778      4.0666    
  3.5478      3.1950      2.9980      2.9355      2.9980      3.1950      3.5478      4.0665      4.7778      6.3224    
  9.6241      15.229      23.103      32.572      63.595      73.453      78.890      78.890      73.453      63.595    
  51.064      37.887      25.902      16.401      9.9401      6.3224      4.7351      4.0281      3.5234      3.2017    
  3.0495      3.0495      3.2017      3.5233      4.0282      4.7351      6.3224      9.9401      16.401      25.902    
  37.887      51.064      87.741      97.493      100.96      97.493      87.741      73.453      57.011      40.841    
  26.908      16.401      9.6241      6.0667      4.6203      3.9539      3.4863      3.2167      3.1299      3.2167    
  3.4863      3.9539      4.6203      6.0667      9.6241      16.401      26.908      40.841      57.011      73.453    
  112.05      120.05      120.05      112.05      97.493      78.890      59.130      40.841      25.902      15.229    
  8.7636      5.6377      4.4615      3.8497      3.4428      3.2458      3.2458      3.4429      3.8497      4.4615    
  5.6377      8.7636      15.229      25.902      40.841      59.131      78.890      97.493      133.05      137.67    
  133.06      120.05      100.96      78.890      57.011      37.886      23.103      13.163      7.5897      5.1606    
  4.2715      3.7257      3.4015      3.2959      3.4015      3.7257      4.2715      5.1606      7.5896      13.163    
  23.103      37.887      57.011      78.890      100.96      120.05      147.35      147.35      137.67      120.05    
  97.493      73.453      51.063      32.572      19.103      10.677      6.3922      4.7391      4.0505      3.5955    
  3.3718      3.3717      3.5955      4.0505      4.7392      6.3922      10.677      19.103      32.572      51.064    
  73.453      97.493      120.05      137.67      147.35      137.67      120.05      97.493      73.453      51.064    
  32.572      19.103      10.677      6.3922      4.7392      4.0505      3.5955      3.3717      3.3718      3.5955    
  4.0505      4.7391      6.3922      10.677      19.103      32.572      51.063      73.453      97.493      120.05    
  137.67      147.35      137.67      124.20      104.42      81.593      58.979      39.218      23.927      13.616    
  7.7976      5.2384      4.3130      3.7597      3.4297      3.3219      3.4297      3.7597      4.3130      5.2384    
  7.7977      13.616      23.927      39.218      58.979      81.593      104.42      124.20      137.67      142.46    
  120.05      104.42      84.481      63.336      43.782      27.795      16.323      9.3044      5.8538      4.5499    
  3.9204      3.4998      3.2950      3.2949      3.4998      3.9204      4.5499      5.8538      9.3045      16.323    
  27.795      43.782      63.336      84.481      104.42      120.05      128.66      128.66      97.493      81.593    
  63.336      45.408      29.948      18.230      10.579      6.4749      4.7737      4.0612      3.5716      3.2864    
  3.1942      3.2864      3.5716      4.0612      4.7737      6.4749      10.579      18.230      29.948      45.408    
  63.336      81.593      97.493      108.37      112.23      108.37      73.453      58.979      43.782      29.948    
  18.917      11.310      6.9399      4.9673      4.1692      3.6346      3.2890      3.1242      3.1242      3.2890    
  3.6346      4.1692      4.9673      6.9399      11.310      18.917      29.948      43.782      58.979      73.453    
  84.864      91.168      91.168      84.864      51.064      39.218      27.795      18.230      11.310      7.1125    
  5.0826      4.2364      3.6806      3.2959      3.0789      3.0098      3.0789      3.2959      3.6806      4.2364    
  5.0826      7.1125      11.310      18.230      27.795      39.218      51.064      61.495      68.674      71.235    
  68.674      61.495      32.572      23.927      16.323      10.579      6.9399      5.0826      4.2591      3.7047    
  3.3018      3.0522      2.9358      2.9358      3.0522      3.3018      3.7047      4.2592      5.0826      6.9399    
  10.579      16.322      23.927      32.572      40.982      47.696      51.430      51.430      47.696      40.982    
  19.103      13.616      9.3044      6.4749      4.9673      4.2364      3.7047      3.3040      3.0399      2.8947    
  2.8489      2.8947      3.0399      3.3040      3.7047      4.2365      4.9673      6.4749      9.3044      13.616    
  19.103      25.029      30.379      34.114      35.456      34.114      30.379      25.029      10.677      7.7976    
  5.8538      4.7737      4.1692      3.6806      3.3018      3.0399      2.8816      2.8084      2.8084      2.8816    
  3.0398      3.3017      3.6806      4.1693      4.7738      5.8539      7.7976      10.677      14.207      17.812    
  20.777      22.452      22.452      20.777      17.812      14.207      6.3922      5.2384      4.5499      4.0612    
  3.6346      3.2959      3.0522      2.8947      2.8084      2.7812      2.8084      2.8947      3.0522      3.2958    
  3.6346      4.0612      4.5500      5.2386      6.3922      8.0544      10.019      11.900      13.260      13.756    
  13.260      11.900      10.019      8.0544      4.7392      4.3130      3.9204      3.5716      3.2890      3.0789    
  2.9358      2.8489      2.8084      2.8084      2.8490      2.9358      3.0789      3.2890      3.5715      3.9203    
  4.3130      4.7392      5.3238      6.1198      7.0191      7.8116      8.2771      8.2772      7.8117      7.0191    
  6.1197      5.3237      4.0505      3.7597      3.4998      3.2864      3.1242      3.0098      2.9358      2.8947    
  2.8816      2.8947      2.9358      3.0099      3.1243      3.2864      3.4997      3.7596      4.0504      4.3476    
  4.6357      4.9488      5.2663      5.5104      5.6026      5.5104      5.2662      4.9487      4.6355      4.3476    
  3.5955      3.4297      3.2950      3.1942      3.1242      3.0789      3.0522      3.0399      3.0398      3.0522    
  3.0789      3.1243      3.1943      3.2950      3.4297      3.5954      3.7821      3.9732      4.1500      4.2954    
  4.3988      4.4549      4.4549      4.3987      4.2953      4.1500      3.9733      3.7822      3.3717      3.3219    
  3.2949      3.2864      3.2890      3.2959      3.3018      3.3040      3.3017      3.2958      3.2890      3.2864    
  3.2950      3.3220      3.3718      3.4441      3.5326      3.6269      3.7145      3.7846      3.8295      3.8448    
  3.8294      3.7846      3.7146      3.6270      3.5328      3.4441      3.3718      3.4297      3.4998      3.5716    
  3.6346      3.6806      3.7047      3.7047      3.6806      3.6346      3.5715      3.4997      3.4297      3.3718    
  3.3337      3.3175      3.3201      3.3348      3.3535      3.3696      3.3786      3.3786      3.3696      3.3536    
  3.3348      3.3201      3.3174      3.3336      3.5955      3.7597      3.9204      4.0612      4.1692      4.2364    
  4.2592      4.2365      4.1693      4.0612      3.9203      3.7596      3.5954      3.4441      3.3175      3.2207    
  3.1528      3.1085      3.0818      3.0676      3.0633      3.0677      3.0818      3.1085      3.1527      3.2206    
  3.3174      3.4441      4.0505      4.3130      4.5499      4.7737      4.9673      5.0826      5.0826      4.9673    
  4.7738      4.5500      4.3130      4.0504      3.7821      3.5326      3.3201      3.1528      3.0302      2.9469    
  2.8958      2.8718      2.8718      2.8958      2.9468      3.0302      3.1527      3.3201      3.5327      3.7822    
  4.7391      5.2384      5.8538      6.4749      6.9399      7.1125      6.9399      6.4749      5.8539      5.2386    
  4.7392      4.3476      3.9732      3.6269      3.3348      3.1085      2.9469      2.8416      2.7832      2.7646    
  2.7832      2.8416      2.9468      3.1085      3.3348      3.6270      3.9733      4.3476      6.3922      7.7977    
  9.3045      10.579      11.310      11.310      10.579      9.3044      7.7976      6.3922      5.3238      4.6357    
  4.1500      3.7145      3.3535      3.0818      2.8958      2.7832      2.7308      2.7308      2.7832      2.8958    
  3.0818      3.3536      3.7146      4.1500      4.6356      5.3237      10.677      13.616      16.323      18.230    
  18.917      18.230      16.322      13.616      10.677      8.0544      6.1198      4.9488      4.2954      3.7846    
  3.3696      3.0676      2.8718      2.7646      2.7308      2.7645      2.8718      3.0677      3.3696      3.7846    
  4.2953      4.9487      6.1197      8.0544      19.103      23.927      27.795      29.948      29.948      27.795    
  23.927      19.103      14.207      10.019      7.0191      5.2663      4.3988      3.8295      3.3786      3.0633    
  2.8718      2.7832      2.7832      2.8718      3.0633      3.3786      3.8294      4.3988      5.2662      7.0191    
  10.019      14.207      32.572      39.218      43.782      45.408      43.782      39.218      32.572      25.029    
  17.812      11.900      7.8116      5.5104      4.4549      3.8448      3.3786      3.0677      2.8958      2.8416    
  2.8958      3.0677      3.3786      3.8448      4.4549      5.5104      7.8117      11.900      17.812      25.029    
  51.063      58.979      63.336      63.336      58.979      51.064      40.982      30.379      20.777      13.260    
  8.2771      5.6026      4.4549      3.8294      3.3696      3.0818      2.9468      2.9468      3.0818      3.3696    
  3.8294      4.4549      5.6026      8.2772      13.260      20.777      30.379      40.982      73.453      81.593    
  84.481      81.593      73.453      61.495      47.696      34.114      22.452      13.756      8.2772      5.5104    
  4.3987      3.7846      3.3536      3.1085      3.0302      3.1085      3.3536      3.7846      4.3988      5.5104    
  8.2772      13.756      22.452      34.114      47.696      61.495      97.493      104.42      104.42      97.493    
  84.864      68.674      51.430      35.456      22.452      13.260      7.8117      5.2662      4.2953      3.7146    
  3.3348      3.1527      3.1527      3.3348      3.7146      4.2953      5.2662      7.8117      13.260      22.452    
  35.456      51.430      68.674      84.864      120.05      124.20      120.05      108.37      91.168      71.235    
  51.430      34.114      20.777      11.900      7.0191      4.9487      4.1500      3.6270      3.3201      3.2206    
  3.3201      3.6270      4.1500      4.9487      7.0191      11.900      20.777      34.114      51.430      71.235    
  91.168      108.37      137.67      137.67      128.66      112.23      91.168      68.674      47.696      30.379    
  17.812      10.019      6.1197      4.6355      3.9733      3.5328      3.3174      3.3174      3.5327      3.9733    
  4.6356      6.1197      10.019      17.812      30.379      47.696      68.674      91.168      112.23      128.66    
  147.35      142.46      128.66      108.37      84.864      61.495      40.982      25.029      14.207      8.0544    
  5.3237      4.3476      3.7822      3.4441      3.3336      3.4441      3.7822      4.3476      5.3237      8.0544    
  14.207      25.029      40.982      61.495      84.864      108.37      128.66      142.46      133.05      120.05    
  100.96      78.890      57.011      37.887      23.103      13.163      7.5896      5.1606      4.2715      3.7257    
  3.4015      3.2959      3.4015      3.7257      4.2715      5.1606      7.5897      13.163      23.103      37.886    
  57.011      78.890      100.96      120.05      133.06      137.67      120.05      104.42      84.481      63.336    
  43.782      27.795      16.323      9.3044      5.8538      4.5499      3.9204      3.4998      3.2950      3.2949    
  3.4998      3.9204      4.5499      5.8538      9.3045      16.323      27.795      43.782      63.336      84.481    
  104.42      120.05      128.66      128.66      100.96      84.481      65.577      47.024      31.025      18.882    
  10.924      6.6248      4.8293      4.0979      3.6010      3.3105      3.2164      3.3105      3.6010      4.0979    
  4.8293      6.6248      10.924      18.882      31.025      47.024      65.577      84.481      100.96      112.23    
  116.25      112.23      78.890      63.336      47.024      32.176      20.312      12.081      7.2963      5.1016    
  4.2421      3.6930      3.3350      3.1636      3.1636      3.3351      3.6930      4.2421      5.1016      7.2963    
  12.081      20.312      32.176      47.024      63.336      78.889      91.168      97.957      97.957      91.168    
  57.011      43.782      31.025      20.312      12.501      7.6877      5.3073      4.3424      3.7653      3.3607    
  3.1310      3.0576      3.1310      3.3607      3.7653      4.3424      5.3073      7.6877      12.501      20.312    
  31.025      43.782      57.011      68.674      76.711      79.581      76.711      68.674      37.887      27.795    
  18.882      12.081      7.6877      5.3844      4.3945      3.8110      3.3810      3.1122      2.9863      2.9862    
  3.1122      3.3810      3.8110      4.3945      5.3844      7.6876      12.081      18.882      27.795      37.887    
  47.696      55.533      59.895      59.895      55.533      47.696      23.103      16.323      10.924      7.2963    
  5.3073      4.3945      3.8266      3.3920      3.1027      2.9430      2.8926      2.9430      3.1027      3.3920    
  3.8266      4.3945      5.3073      7.2963      10.924      16.323      23.103      30.379      36.933      41.507    
  43.150      41.507      36.933      30.379      13.163      9.3044      6.6248      5.1016      4.3424      3.8110    
  3.3920      3.0998      2.9227      2.8408      2.8408      2.9227      3.0998      3.3920      3.8111      4.3425    
  5.1017      6.6247      9.3044      13.163      17.812      22.514      26.363      28.534      28.534      26.363    
  22.514      17.812      7.5896      5.8538      4.8293      4.2421      3.7653      3.3810      3.1027      2.9227    
  2.8243      2.7933      2.8243      2.9227      3.1027      3.3810      3.7653      4.2422      4.8294      5.8539    
  7.5897      10.019      12.824      15.473      17.373      18.065      17.373      15.473      12.825      10.019    
  5.1606      4.5499      4.0979      3.6930      3.3607      3.1122      2.9430      2.8408      2.7933      2.7934    
  2.8408      2.9430      3.1122      3.3606      3.6929      4.0979      4.5499      5.1607      6.1198      7.4192    
  8.8524      10.092      10.813      10.813      10.093      8.8525      7.4192      6.1197      4.2715      3.9204    
  3.6010      3.3350      3.1310      2.9863      2.8926      2.8408      2.8243      2.8408      2.8926      2.9863    
  3.1310      3.3350      3.6009      3.9203      4.2715      4.6357      5.0862      5.6495      6.2312      6.6748    
  6.8411      6.6748      6.2312      5.6494      5.0861      4.6356      3.7257      3.4998      3.3105      3.1636    
  3.0576      2.9862      2.9430      2.9227      2.9227      2.9430      2.9863      3.0576      3.1637      3.3105    
  3.4997      3.7256      3.9733      4.2212      4.4476      4.6551      4.8339      4.9410      4.9409      4.8338    
  4.6550      4.4475      4.2212      3.9733      3.4015      3.2950      3.2164      3.1636      3.1310      3.1122    
  3.1027      3.0998      3.1027      3.1122      3.1310      3.1637      3.2165      3.2950      3.4015      3.5327    
  3.6788      3.8256      3.9575      4.0609      4.1264      4.1488      4.1264      4.0609      3.9575      3.8256    
  3.6789      3.5327      3.2959      3.2949      3.3105      3.3351      3.3607      3.3810      3.3920      3.3920    
  3.3810      3.3606      3.3350      3.3105      3.2950      3.2960      3.3175      3.3586      3.4135      3.4731    
  3.5273      3.5680      3.5896      3.5896      3.5680      3.5274      3.4732      3.4136      3.3586      3.3174    
  3.4015      3.4998      3.6010      3.6930      3.7653      3.8110      3.8266      3.8111      3.7653      3.6929    
  3.6009      3.4997      3.4015      3.3175      3.2546      3.2145      3.1939      3.1865      3.1861      3.1877    
  3.1885      3.1877      3.1862      3.1866      3.1939      3.2145      3.2545      3.3174      3.7257      3.9204    
  4.0979      4.2421      4.3424      4.3945      4.3945      4.3425      4.2422      4.0979      3.9203      3.7256    
  3.5327      3.3586      3.2145      3.1041      3.0252      2.9725      2.9405      2.9254      2.9255      2.9405    
  2.9725      3.0251      3.1040      3.2144      3.3586      3.5328      4.2715      4.5499      4.8293      5.1016    
  5.3073      5.3844      5.3073      5.1017      4.8294      4.5499      4.2715      3.9733      3.6788      3.4135    
  3.1939      3.0252      2.9047      2.8256      2.7812      2.7669      2.7812      2.8256      2.9046      3.0252    
  3.1939      3.4136      3.6789      3.9733      5.1606      5.8538      6.6248      7.2963      7.6877      7.6876    
  7.2963      6.6247      5.8539      5.1607      4.6357      4.2212      3.8256      3.4731      3.1865      2.9725    
  2.8256      2.7358      2.6936      2.6936      2.7358      2.8256      2.9725      3.1866      3.4732      3.8256    
  4.2212      4.6355      7.5897      9.3045      10.924      12.081      12.501      12.081      10.924      9.3044    
  7.5897      6.1198      5.0862      4.4476      3.9575      3.5273      3.1861      2.9405      2.7812      2.6936    
  2.6659      2.6936      2.7812      2.9405      3.1862      3.5274      3.9575      4.4475      5.0861      6.1197    
  13.163      16.323      18.882      20.312      20.312      18.882      16.323      13.163      10.019      7.4192    
  5.6495      4.6551      4.0609      3.5680      3.1877      2.9254      2.7669      2.6936      2.6936      2.7669    
  2.9255      3.1877      3.5680      4.0609      4.6550      5.6494      7.4192      10.019      23.103      27.795    
  31.025      32.176      31.025      27.795      23.103      17.812      12.824      8.8524      6.2312      4.8339    
  4.1264      3.5896      3.1885      2.9255      2.7812      2.7358      2.7812      2.9255      3.1885      3.5896    
  4.1264      4.8338      6.2312      8.8525      12.825      17.812      37.886      43.782      47.024      47.024    
  43.782      37.887      30.379      22.514      15.473      10.092      6.6748      4.9410      4.1488      3.5896    
  3.1877      2.9405      2.8256      2.8256      2.9405      3.1877      3.5896      4.1488      4.9410      6.6749    
  10.093      15.473      22.514      30.379      57.011      63.336      65.577      63.336      57.011      47.696    
  36.933      26.363      17.373      10.813      6.8411      4.9409      4.1264      3.5680      3.1862      2.9725    
  2.9046      2.9725      3.1862      3.5680      4.1264      4.9410      6.8411      10.813      17.373      26.363    
  36.933      47.696      78.890      84.481      84.481      78.889      68.674      55.533      41.507      28.534    
  18.065      10.813      6.6748      4.8338      4.0609      3.5274      3.1866      3.0251      3.0252      3.1866    
  3.5274      4.0609      4.8338      6.6749      10.813      18.064      28.534      41.507      55.533      68.674    
  100.96      104.42      100.96      91.168      76.711      59.895      43.150      28.534      17.373      10.093    
  6.2312      4.6550      3.9575      3.4732      3.1939      3.1040      3.1939      3.4732      3.9575      4.6550    
  6.2312      10.093      17.373      28.534      43.150      59.895      76.711      91.168      120.05      120.05    
  112.23      97.957      79.581      59.895      41.507      26.363      15.473      8.8525      5.6494      4.4475    
  3.8256      3.4136      3.2145      3.2144      3.4136      3.8256      4.4475      5.6494      8.8525      15.473    
  26.363      41.507      59.895      79.581      97.957      112.23      133.06      128.66      116.25      97.957    
  76.711      55.533      36.933      22.514      12.825      7.4192      5.0861      4.2212      3.6789      3.3586    
  3.2545      3.3586      3.6789      4.2212      5.0861      7.4192      12.825      22.514      36.933      55.533    
  76.711      97.957      116.25      128.66      137.67      128.66      112.23      91.168      68.674      47.696    
  30.379      17.812      10.019      6.1197      4.6356      3.9733      3.5327      3.3174      3.3174      3.5328    
  3.9733      4.6355      6.1197      10.019      17.812      30.379      47.696      68.674      91.168      112.23    
  128.66      137.67      112.05      97.493      78.890      59.131      40.841      25.902      15.229      8.7636    
  5.6377      4.4615      3.8497      3.4429      3.2458      3.2458      3.4428      3.8497      4.4615      5.6377    
  8.7636      15.229      25.902      40.841      59.130      78.890      97.493      112.05      120.05      120.05    
  97.493      81.593      63.336      45.408      29.948      18.230      10.579      6.4749      4.7737      4.0612    
  3.5716      3.2864      3.1942      3.2864      3.5716      4.0612      4.7737      6.4749      10.579      18.230    
  29.948      45.408      63.336      81.593      97.493      108.37      112.23      108.37      78.890      63.336    
  47.024      32.176      20.312      12.081      7.2963      5.1016      4.2421      3.6930      3.3350      3.1636    
  3.1636      3.3351      3.6930      4.2421      5.1016      7.2963      12.081      20.312      32.176      47.024    
  63.336      78.889      91.168      97.957      97.957      91.168      59.131      45.408      32.176      21.057    
  12.930      7.8980      5.3905      4.3786      3.7943      3.3831      3.1489      3.0740      3.1489      3.3831    