   1   1   1   0
  0.1099207E+02  0.2495733E-09  0.2495733E-09  0.2495733E-09  0.5000000E-15
  1.000000000000000E-004
  CAR 
 fcc Ni                                  
     36.39594618     -6.21602861  301      4.64780286      1.00000000
     -6.216  0.0000E+00  0.0000E+00  0.0000E+00  0.0000E+00
     -6.074  0.0000E+00  0.0000E+00  0.0000E+00  0.0000E+00
     -5.932 -0.1131E-34 -0.4583E-34 -0.1606E-35 -0.6510E-35
     -5.790 -0.1403E-29 -0.5064E-29 -0.1993E-30 -0.7193E-30
     -5.648 -0.6258E-25 -0.2010E-24 -0.8888E-26 -0.2854E-25
     -5.506 -0.1013E-20 -0.2896E-20 -0.1439E-21 -0.4114E-21
     -5.364 -0.5770E-17 -0.1479E-16 -0.8197E-18 -0.2101E-17
     -5.222 -0.1231E-13 -0.2786E-13 -0.1750E-14 -0.3959E-14
     -5.080 -0.9520E-11 -0.1917E-10 -0.1354E-11 -0.2727E-11
     -4.938 -0.2680E-08 -0.4803E-08 -0.3820E-09 -0.6850E-09
     -4.796 -0.2741E-06 -0.4370E-06 -0.3931E-07 -0.6275E-07
     -4.654 -0.1005E-04 -0.1420E-04 -0.1466E-05 -0.2079E-05
     -4.512 -0.1242E-03 -0.1533E-03 -0.1911E-04 -0.2385E-04
     -4.370 -0.3614E-03 -0.3399E-03 -0.7043E-04 -0.7213E-04
     -4.227  0.1294E-02  0.1781E-02  0.1134E-03  0.1809E-03
     -4.085  0.7613E-02  0.8519E-02  0.1195E-02  0.1391E-02
     -3.943  0.1511E-01  0.1580E-01  0.3341E-02  0.3635E-02
     -3.801  0.2046E-01  0.2091E-01  0.6247E-02  0.6606E-02
     -3.659  0.2433E-01  0.2464E-01  0.9703E-02  0.1011E-01
     -3.517  0.2815E-01  0.2848E-01  0.1370E-01  0.1415E-01
     -3.375  0.3129E-01  0.3136E-01  0.1815E-01  0.1861E-01
     -3.233  0.3429E-01  0.3457E-01  0.2302E-01  0.2352E-01
     -3.091  0.3841E-01  0.3833E-01  0.2847E-01  0.2896E-01
     -2.949  0.3941E-01  0.3932E-01  0.3407E-01  0.3455E-01
     -2.807  0.4449E-01  0.4454E-01  0.4039E-01  0.4087E-01
     -2.665  0.4696E-01  0.4645E-01  0.4706E-01  0.4747E-01
     -2.523  0.4821E-01  0.4778E-01  0.5391E-01  0.5426E-01
     -2.381  0.5350E-01  0.5306E-01  0.6151E-01  0.6179E-01
     -2.239  0.5756E-01  0.5661E-01  0.6968E-01  0.6984E-01
     -2.097  0.5612E-01  0.5484E-01  0.7765E-01  0.7762E-01
     -1.955  0.6435E-01  0.6304E-01  0.8680E-01  0.8658E-01
     -1.813  0.6820E-01  0.6647E-01  0.9648E-01  0.9602E-01
     -1.671  0.6775E-01  0.6517E-01  0.1061E+00  0.1053E+00
     -1.529  0.7552E-01  0.7234E-01  0.1168E+00  0.1156E+00
     -1.387  0.8097E-01  0.7724E-01  0.1283E+00  0.1265E+00
     -1.245  0.8511E-01  0.8049E-01  0.1404E+00  0.1380E+00
     -1.103  0.8884E-01  0.8219E-01  0.1530E+00  0.1496E+00
     -0.961  0.1009E+00  0.9145E-01  0.1674E+00  0.1626E+00
     -0.819  0.1074E+00  0.9892E-01  0.1826E+00  0.1767E+00
     -0.676  0.1147E+00  0.9843E-01  0.1989E+00  0.1907E+00
     -0.534  0.1342E+00  0.1132E+00  0.2180E+00  0.2067E+00
     -0.392  0.1462E+00  0.1218E+00  0.2387E+00  0.2240E+00
     -0.250  0.1779E+00  0.1291E+00  0.2640E+00  0.2424E+00
     -0.108  0.2323E+00  0.1504E+00  0.2970E+00  0.2637E+00
      0.034  0.3272E+00  0.1645E+00  0.3435E+00  0.2871E+00
      0.176  0.4483E+00  0.2003E+00  0.4072E+00  0.3155E+00
      0.318  0.5374E+00  0.2618E+00  0.4835E+00  0.3527E+00
      0.460  0.5710E+00  0.3688E+00  0.5646E+00  0.4051E+00
      0.602  0.6426E+00  0.4651E+00  0.6559E+00  0.4712E+00
      0.744  0.7907E+00  0.5002E+00  0.7682E+00  0.5422E+00
      0.886  0.9356E+00  0.5049E+00  0.9011E+00  0.6139E+00
      1.028  0.1021E+01  0.5158E+00  0.1046E+01  0.6872E+00
      1.170  0.9829E+00  0.5874E+00  0.1186E+01  0.7706E+00
      1.312  0.8859E+00  0.7442E+00  0.1312E+01  0.8764E+00
      1.454  0.8451E+00  0.8872E+00  0.1432E+01  0.1002E+01
      1.596  0.8481E+00  0.9149E+00  0.1552E+01  0.1132E+01
      1.738  0.9543E+00  0.8631E+00  0.1688E+01  0.1255E+01
      1.880  0.1117E+01  0.8332E+00  0.1846E+01  0.1373E+01
      2.022  0.1215E+01  0.8054E+00  0.2019E+01  0.1488E+01
      2.164  0.1298E+01  0.7978E+00  0.2203E+01  0.1601E+01
      2.306  0.1468E+01  0.9207E+00  0.2412E+01  0.1732E+01
      2.448  0.1674E+01  0.1084E+01  0.2650E+01  0.1886E+01
      2.590  0.1719E+01  0.1180E+01  0.2894E+01  0.2053E+01
      2.732  0.1375E+01  0.1272E+01  0.3089E+01  0.2234E+01
      2.875  0.1041E+01  0.1378E+01  0.3237E+01  0.2430E+01
      3.017  0.9729E+00  0.1425E+01  0.3375E+01  0.2632E+01
      3.159  0.1144E+01  0.1550E+01  0.3537E+01  0.2852E+01
      3.301  0.1389E+01  0.1464E+01  0.3735E+01  0.3060E+01
      3.443  0.1459E+01  0.1126E+01  0.3942E+01  0.3220E+01
      3.585  0.1355E+01  0.9756E+00  0.4134E+01  0.3359E+01
      3.727  0.1284E+01  0.1092E+01  0.4317E+01  0.3514E+01
      3.869  0.1455E+01  0.1305E+01  0.4523E+01  0.3699E+01
      4.011  0.1979E+01  0.1366E+01  0.4805E+01  0.3893E+01
      4.153  0.2043E+01  0.1246E+01  0.5095E+01  0.4070E+01
      4.295  0.1029E+01  0.1139E+01  0.5241E+01  0.4232E+01
      4.437  0.2360E+00  0.1140E+01  0.5274E+01  0.4394E+01
      4.579  0.1318E+00  0.1326E+01  0.5293E+01  0.4582E+01
      4.721  0.1624E+00  0.1777E+01  0.5316E+01  0.4835E+01
      4.863  0.1726E+00  0.1847E+01  0.5341E+01  0.5097E+01
      5.005  0.1644E+00  0.1071E+01  0.5364E+01  0.5249E+01
      5.147  0.1519E+00  0.3538E+00  0.5386E+01  0.5299E+01
      5.289  0.1566E+00  0.1668E+00  0.5408E+01  0.5323E+01
      5.431  0.1565E+00  0.1801E+00  0.5430E+01  0.5349E+01
      5.573  0.1438E+00  0.1779E+00  0.5450E+01  0.5374E+01
      5.715  0.1467E+00  0.1826E+00  0.5471E+01  0.5400E+01
      5.857  0.1401E+00  0.1772E+00  0.5491E+01  0.5425E+01
      5.999  0.1421E+00  0.1631E+00  0.5511E+01  0.5448E+01
      6.141  0.1472E+00  0.1561E+00  0.5532E+01  0.5470E+01
      6.283  0.1291E+00  0.1693E+00  0.5551E+01  0.5495E+01
      6.426  0.1221E+00  0.1538E+00  0.5568E+01  0.5516E+01
      6.568  0.1462E+00  0.1500E+00  0.5589E+01  0.5538E+01
      6.710  0.1395E+00  0.1454E+00  0.5609E+01  0.5558E+01
      6.852  0.1194E+00  0.1428E+00  0.5625E+01  0.5579E+01
      6.994  0.1166E+00  0.1550E+00  0.5642E+01  0.5601E+01
      7.136  0.1368E+00  0.1453E+00  0.5661E+01  0.5621E+01
      7.278  0.1417E+00  0.1243E+00  0.5682E+01  0.5639E+01
      7.420  0.1168E+00  0.1371E+00  0.5698E+01  0.5658E+01
      7.562  0.1155E+00  0.1572E+00  0.5715E+01  0.5681E+01
      7.704  0.1252E+00  0.1253E+00  0.5732E+01  0.5698E+01
      7.846  0.1236E+00  0.1162E+00  0.5750E+01  0.5715E+01
      7.988  0.1142E+00  0.1296E+00  0.5766E+01  0.5733E+01
      8.130  0.1018E+00  0.1267E+00  0.5781E+01  0.5751E+01
      8.272  0.1154E+00  0.1194E+00  0.5797E+01  0.5768E+01
      8.414  0.1109E+00  0.1117E+00  0.5813E+01  0.5784E+01
      8.556  0.9149E-01  0.1110E+00  0.5826E+01  0.5800E+01
      8.698  0.9713E-01  0.1085E+00  0.5840E+01  0.5815E+01
      8.840  0.9943E-01  0.1006E+00  0.5854E+01  0.5830E+01
      8.982  0.9628E-01  0.1024E+00  0.5867E+01  0.5844E+01
      9.124  0.8644E-01  0.9863E-01  0.5880E+01  0.5858E+01
      9.266  0.7237E-01  0.9340E-01  0.5890E+01  0.5872E+01
      9.408  0.8249E-01  0.8276E-01  0.5902E+01  0.5883E+01
      9.550  0.8632E-01  0.8208E-01  0.5914E+01  0.5895E+01
      9.692  0.6923E-01  0.8675E-01  0.5924E+01  0.5907E+01
      9.834  0.5923E-01  0.7799E-01  0.5932E+01  0.5918E+01
      9.977  0.7018E-01  0.6382E-01  0.5942E+01  0.5927E+01
     10.119  0.6000E-01  0.6910E-01  0.5951E+01  0.5937E+01
     10.261  0.5306E-01  0.6975E-01  0.5958E+01  0.5947E+01
     10.403  0.8750E-01  0.5300E-01  0.5971E+01  0.5955E+01
     10.545  0.1303E+00  0.4510E-01  0.5989E+01  0.5961E+01
     10.687  0.1412E+00  0.6818E-01  0.6009E+01  0.5971E+01
     10.829  0.1463E+00  0.1138E+00  0.6030E+01  0.5987E+01
     10.971  0.1393E+00  0.1465E+00  0.6050E+01  0.6008E+01
     11.113  0.1349E+00  0.1504E+00  0.6069E+01  0.6029E+01
     11.255  0.1584E+00  0.1473E+00  0.6091E+01  0.6050E+01
     11.397  0.1692E+00  0.1563E+00  0.6115E+01  0.6072E+01
     11.539  0.1457E+00  0.1775E+00  0.6136E+01  0.6097E+01
     11.681  0.1305E+00  0.1713E+00  0.6155E+01  0.6122E+01
     11.823  0.1375E+00  0.1402E+00  0.6174E+01  0.6142E+01
     11.965  0.1403E+00  0.1359E+00  0.6194E+01  0.6161E+01
     12.107  0.1285E+00  0.1508E+00  0.6212E+01  0.6182E+01
     12.249  0.1285E+00  0.1423E+00  0.6231E+01  0.6203E+01
     12.391  0.1255E+00  0.1280E+00  0.6248E+01  0.6221E+01
     12.533  0.1169E+00  0.1272E+00  0.6265E+01  0.6239E+01
     12.675  0.1139E+00  0.1263E+00  0.6281E+01  0.6257E+01
     12.817  0.1163E+00  0.1211E+00  0.6298E+01  0.6274E+01
     12.959  0.1240E+00  0.1164E+00  0.6315E+01  0.6291E+01
     13.101  0.1166E+00  0.1211E+00  0.6332E+01  0.6308E+01
     13.243  0.1009E+00  0.1244E+00  0.6346E+01  0.6325E+01
     13.385  0.1015E+00  0.1106E+00  0.6361E+01  0.6341E+01
     13.528  0.1186E+00  0.1009E+00  0.6378E+01  0.6355E+01
     13.670  0.1148E+00  0.1134E+00  0.6394E+01  0.6372E+01
     13.812  0.1050E+00  0.1206E+00  0.6409E+01  0.6389E+01
     13.954  0.1308E+00  0.1078E+00  0.6427E+01  0.6404E+01
     14.096  0.1586E+00  0.1100E+00  0.6450E+01  0.6420E+01
     14.238  0.1466E+00  0.1482E+00  0.6471E+01  0.6441E+01
     14.380  0.1260E+00  0.1653E+00  0.6489E+01  0.6464E+01
     14.522  0.1507E+00  0.1332E+00  0.6510E+01  0.6483E+01
     14.664  0.1838E+00  0.1328E+00  0.6536E+01  0.6502E+01
     14.806  0.1604E+00  0.1837E+00  0.6559E+01  0.6528E+01
     14.948  0.1496E+00  0.1790E+00  0.6580E+01  0.6553E+01
     15.090  0.1754E+00  0.1564E+00  0.6605E+01  0.6576E+01
     15.232  0.1975E+00  0.1716E+00  0.6633E+01  0.6600E+01
     15.374  0.1936E+00  0.1924E+00  0.6661E+01  0.6627E+01
     15.516  0.1649E+00  0.1973E+00  0.6684E+01  0.6655E+01
     15.658  0.1449E+00  0.1774E+00  0.6705E+01  0.6681E+01
     15.800  0.1739E+00  0.1545E+00  0.6729E+01  0.6703E+01
     15.942  0.1914E+00  0.1740E+00  0.6756E+01  0.6727E+01
     16.084  0.1731E+00  0.1924E+00  0.6781E+01  0.6755E+01
     16.226  0.1649E+00  0.1766E+00  0.6804E+01  0.6780E+01
     16.368  0.1792E+00  0.1651E+00  0.6830E+01  0.6803E+01
     16.510  0.1953E+00  0.1825E+00  0.6858E+01  0.6829E+01
     16.652  0.1827E+00  0.2048E+00  0.6884E+01  0.6858E+01
     16.794  0.1807E+00  0.1844E+00  0.6909E+01  0.6884E+01
     16.936  0.1870E+00  0.1824E+00  0.6936E+01  0.6910E+01
     17.079  0.1700E+00  0.1893E+00  0.6960E+01  0.6937E+01
     17.221  0.1741E+00  0.1708E+00  0.6985E+01  0.6961E+01
     17.363  0.1911E+00  0.1806E+00  0.7012E+01  0.6987E+01
     17.505  0.1948E+00  0.1975E+00  0.7040E+01  0.7015E+01
     17.647  0.1877E+00  0.1960E+00  0.7066E+01  0.7043E+01
     17.789  0.1805E+00  0.1871E+00  0.7092E+01  0.7069E+01
     17.931  0.1970E+00  0.1826E+00  0.7120E+01  0.7095E+01
     18.073  0.1977E+00  0.2014E+00  0.7148E+01  0.7124E+01
     18.215  0.1897E+00  0.2023E+00  0.7175E+01  0.7153E+01
     18.357  0.1857E+00  0.1925E+00  0.7201E+01  0.7180E+01
     18.499  0.1887E+00  0.1895E+00  0.7228E+01  0.7207E+01
     18.641  0.1843E+00  0.1900E+00  0.7254E+01  0.7234E+01
     18.783  0.1985E+00  0.1839E+00  0.7282E+01  0.7260E+01
     18.925  0.2166E+00  0.2081E+00  0.7313E+01  0.7290E+01
     19.067  0.2107E+00  0.2237E+00  0.7343E+01  0.7321E+01
     19.209  0.2009E+00  0.2088E+00  0.7372E+01  0.7351E+01
     19.351  0.1979E+00  0.2008E+00  0.7400E+01  0.7380E+01
     19.493  0.2199E+00  0.2121E+00  0.7431E+01  0.7410E+01
     19.635  0.2230E+00  0.2253E+00  0.7463E+01  0.7442E+01
     19.777  0.2154E+00  0.2239E+00  0.7493E+01  0.7474E+01
     19.919  0.2121E+00  0.2131E+00  0.7523E+01  0.7504E+01
     20.061  0.2196E+00  0.2132E+00  0.7555E+01  0.7534E+01
     20.203  0.2276E+00  0.2253E+00  0.7587E+01  0.7566E+01
     20.345  0.2101E+00  0.2273E+00  0.7617E+01  0.7598E+01
     20.487  0.1929E+00  0.1962E+00  0.7644E+01  0.7626E+01
     20.630  0.2156E+00  0.1997E+00  0.7675E+01  0.7655E+01
     20.772  0.2212E+00  0.2278E+00  0.7706E+01  0.7687E+01
     20.914  0.2000E+00  0.2098E+00  0.7735E+01  0.7717E+01
     21.056  0.2032E+00  0.1999E+00  0.7763E+01  0.7745E+01
     21.198  0.1930E+00  0.2049E+00  0.7791E+01  0.7774E+01
     21.340  0.1863E+00  0.1865E+00  0.7817E+01  0.7801E+01
     21.482  0.2009E+00  0.1949E+00  0.7846E+01  0.7828E+01
     21.624  0.2057E+00  0.2042E+00  0.7875E+01  0.7857E+01
     21.766  0.1991E+00  0.2047E+00  0.7903E+01  0.7887E+01
     21.908  0.1835E+00  0.1947E+00  0.7929E+01  0.7914E+01
     22.050  0.1667E+00  0.1754E+00  0.7953E+01  0.7939E+01
     22.192  0.1727E+00  0.1667E+00  0.7978E+01  0.7963E+01
     22.334  0.2092E+00  0.1888E+00  0.8007E+01  0.7990E+01
     22.476  0.2162E+00  0.2180E+00  0.8038E+01  0.8021E+01
     22.618  0.1752E+00  0.2023E+00  0.8063E+01  0.8049E+01
     22.760  0.1420E+00  0.1605E+00  0.8083E+01  0.8072E+01
     22.902  0.1483E+00  0.1397E+00  0.8104E+01  0.8092E+01
     23.044  0.1837E+00  0.1664E+00  0.8130E+01  0.8116E+01
     23.186  0.1931E+00  0.1944E+00  0.8158E+01  0.8143E+01
     23.328  0.1672E+00  0.1802E+00  0.8181E+01  0.8169E+01
     23.470  0.1608E+00  0.1618E+00  0.8204E+01  0.8192E+01
     23.612  0.1692E+00  0.1684E+00  0.8228E+01  0.8216E+01
     23.754  0.1635E+00  0.1683E+00  0.8252E+01  0.8240E+01
     23.896  0.1556E+00  0.1620E+00  0.8274E+01  0.8263E+01
     24.038  0.1551E+00  0.1560E+00  0.8296E+01  0.8285E+01
     24.181  0.1502E+00  0.1551E+00  0.8317E+01  0.8307E+01
     24.323  0.1432E+00  0.1447E+00  0.8337E+01  0.8327E+01
     24.465  0.1511E+00  0.1429E+00  0.8359E+01  0.8348E+01
     24.607  0.1591E+00  0.1542E+00  0.8381E+01  0.8370E+01
     24.749  0.1817E+00  0.1815E+00  0.8407E+01  0.8395E+01
     24.891  0.1787E+00  0.1848E+00  0.8433E+01  0.8422E+01
     25.033  0.1453E+00  0.1460E+00  0.8453E+01  0.8442E+01
     25.175  0.1420E+00  0.1394E+00  0.8473E+01  0.8462E+01
     25.317  0.1535E+00  0.1610E+00  0.8495E+01  0.8485E+01
     25.459  0.1719E+00  0.1691E+00  0.8520E+01  0.8509E+01
     25.601  0.1948E+00  0.1778E+00  0.8547E+01  0.8534E+01
     25.743  0.1911E+00  0.1884E+00  0.8574E+01  0.8561E+01
     25.885  0.1870E+00  0.1944E+00  0.8601E+01  0.8589E+01
     26.027  0.1913E+00  0.1908E+00  0.8628E+01  0.8616E+01
     26.169  0.1896E+00  0.1901E+00  0.8655E+01  0.8643E+01
     26.311  0.2163E+00  0.2108E+00  0.8686E+01  0.8673E+01
     26.453  0.2334E+00  0.2370E+00  0.8719E+01  0.8706E+01
     26.595  0.2085E+00  0.2193E+00  0.8749E+01  0.8738E+01
     26.737  0.2253E+00  0.2180E+00  0.8781E+01  0.8768E+01
     26.879  0.2461E+00  0.2432E+00  0.8816E+01  0.8803E+01
     27.021  0.2472E+00  0.2588E+00  0.8851E+01  0.8840E+01
     27.163  0.2585E+00  0.2610E+00  0.8887E+01  0.8877E+01
     27.305  0.2495E+00  0.2467E+00  0.8923E+01  0.8912E+01
     27.447  0.2221E+00  0.2393E+00  0.8954E+01  0.8946E+01
     27.589  0.1956E+00  0.2049E+00  0.8982E+01  0.8975E+01
     27.732  0.2566E+00  0.2293E+00  0.9019E+01  0.9008E+01
     27.874  0.2711E+00  0.2749E+00  0.9057E+01  0.9047E+01
     28.016  0.2316E+00  0.2476E+00  0.9090E+01  0.9082E+01
     28.158  0.2389E+00  0.2410E+00  0.9124E+01  0.9116E+01
     28.300  0.2544E+00  0.2447E+00  0.9160E+01  0.9151E+01
     28.442  0.2621E+00  0.2632E+00  0.9197E+01  0.9188E+01
     28.584  0.2337E+00  0.2462E+00  0.9231E+01  0.9223E+01
     28.726  0.2208E+00  0.2154E+00  0.9262E+01  0.9254E+01
     28.868  0.2768E+00  0.2594E+00  0.9301E+01  0.9291E+01
     29.010  0.3002E+00  0.2980E+00  0.9344E+01  0.9333E+01
     29.152  0.2541E+00  0.2737E+00  0.9380E+01  0.9372E+01
     29.294  0.2270E+00  0.2341E+00  0.9412E+01  0.9405E+01
     29.436  0.2216E+00  0.2190E+00  0.9444E+01  0.9436E+01
     29.578  0.2249E+00  0.2256E+00  0.9476E+01  0.9468E+01
     29.720  0.2373E+00  0.2320E+00  0.9509E+01  0.9501E+01
     29.862  0.2197E+00  0.2247E+00  0.9541E+01  0.9533E+01
     30.004  0.1785E+00  0.1888E+00  0.9566E+01  0.9560E+01
     30.146  0.2121E+00  0.1962E+00  0.9596E+01  0.9588E+01
     30.288  0.2402E+00  0.2454E+00  0.9630E+01  0.9623E+01
     30.430  0.1982E+00  0.2181E+00  0.9658E+01  0.9654E+01
     30.572  0.1678E+00  0.1669E+00  0.9682E+01  0.9677E+01
     30.714  0.1556E+00  0.1564E+00  0.9704E+01  0.9699E+01
     30.856  0.1509E+00  0.1497E+00  0.9726E+01  0.9721E+01
     30.998  0.1813E+00  0.1817E+00  0.9751E+01  0.9747E+01
     31.140  0.1834E+00  0.1896E+00  0.9777E+01  0.9773E+01
     31.283  0.1448E+00  0.1412E+00  0.9798E+01  0.9794E+01
     31.425  0.1381E+00  0.1269E+00  0.9818E+01  0.9812E+01
     31.567  0.1548E+00  0.1621E+00  0.9840E+01  0.9835E+01
     31.709  0.1375E+00  0.1546E+00  0.9859E+01  0.9857E+01
     31.851  0.1095E+00  0.1115E+00  0.9875E+01  0.9872E+01
     31.993  0.9726E-01  0.9598E-01  0.9888E+01  0.9886E+01
     32.135  0.8519E-01  0.9072E-01  0.9901E+01  0.9899E+01
     32.277  0.1034E+00  0.9468E-01  0.9915E+01  0.9912E+01
     32.419  0.1224E+00  0.1160E+00  0.9933E+01  0.9929E+01
     32.561  0.9175E-01  0.1079E+00  0.9946E+01  0.9944E+01
     32.703  0.6597E-01  0.7345E-01  0.9955E+01  0.9955E+01
     32.845  0.7191E-01  0.6117E-01  0.9965E+01  0.9963E+01
     32.987  0.7160E-01  0.7291E-01  0.9975E+01  0.9974E+01
     33.129  0.4712E-01  0.5702E-01  0.9982E+01  0.9982E+01
     33.271  0.3443E-01  0.3715E-01  0.9987E+01  0.9987E+01
     33.413  0.2205E-01  0.2185E-01  0.9990E+01  0.9990E+01
     33.555  0.8781E-02  0.8247E-02  0.9991E+01  0.9991E+01
     33.697  0.1187E-01  0.1179E-01  0.9993E+01  0.9993E+01
     33.839  0.1248E-01  0.1338E-01  0.9995E+01  0.9995E+01
     33.981  0.7486E-02  0.7095E-02  0.9996E+01  0.9996E+01
     34.123  0.5428E-02  0.5325E-02  0.9997E+01  0.9997E+01
     34.265  0.4381E-02  0.4527E-02  0.9997E+01  0.9997E+01
     34.407  0.1070E-01  0.1033E-01  0.9999E+01  0.9999E+01
     34.549  0.8081E-02  0.8785E-02  0.1000E+02  0.1000E+02
     34.691  0.5171E-03  0.8762E-03  0.1000E+02  0.1000E+02
     34.834 -0.4661E-03 -0.5068E-03  0.1000E+02  0.1000E+02
     34.976 -0.6349E-04 -0.7951E-04  0.1000E+02  0.1000E+02
     35.118 -0.2258E-05 -0.3124E-05  0.1000E+02  0.1000E+02
     35.260 -0.2601E-07 -0.3939E-07  0.1000E+02  0.1000E+02
     35.402 -0.1029E-09 -0.1700E-09  0.1000E+02  0.1000E+02
     35.544 -0.1433E-12 -0.2577E-12  0.1000E+02  0.1000E+02
     35.686 -0.7269E-16 -0.1383E-15  0.1000E+02  0.1000E+02
     35.828  0.0000E+00  0.0000E+00  0.1000E+02  0.1000E+02
     35.970  0.0000E+00  0.0000E+00  0.1000E+02  0.1000E+02
     36.112  0.0000E+00  0.0000E+00  0.1000E+02  0.1000E+02
     36.254  0.0000E+00  0.0000E+00  0.1000E+02  0.1000E+02
     36.396  0.0000E+00  0.0000E+00  0.1000E+02  0.1000E+02
     36.39594618     -6.21602861  301      4.64780286      1.00000000
     -6.216  0.0000E+00  0.0000E+00  0.0000E+00  0.0000E+00  0.0000E+00  0.0000E+00  0.0000E+00  0.0000E+00  0.0000E+00  0.0000E+00  0.0000E+00  0.0000E+00  0.0000E+00  0.0000E+00  0.0000E+00  0.0000E+00  0.0000E+00  0.0000E+00
     -6.074  0.0000E+00  0.0000E+00  0.0000E+00  0.0000E+00  0.0000E+00  0.0000E+00  0.0000E+00  0.0000E+00  0.0000E+00  0.0000E+00  0.0000E+00  0.0000E+00  0.0000E+00  0.0000E+00  0.0000E+00  0.0000E+00  0.0000E+00  0.0000E+00
     -5.932 -0.8193E-35 -0.3322E-34 -0.6252E-38 -0.2543E-37 -0.6252E-38 -0.2543E-37 -0.6252E-38 -0.2543E-37 -0.1290E-40 -0.4589E-40 -0.1290E-40 -0.4589E-40 -0.4191E-59 -0.3971E-57 -0.1290E-40 -0.4589E-40 -0.1149E-58 -0.2791E-56
     -5.790 -0.1017E-29 -0.3670E-29 -0.7762E-33 -0.2811E-32 -0.8747E-33 -0.3185E-32 -0.7762E-33 -0.2811E-32 -0.1610E-35 -0.5105E-35 -0.1806E-35 -0.5754E-35 -0.4175E-36 -0.1455E-35 -0.1806E-35 -0.5754E-35 -0.1404E-53 -0.3032E-51
     -5.648 -0.4533E-25 -0.1456E-24 -0.3464E-28 -0.1116E-27 -0.4154E-28 -0.1350E-27 -0.3464E-28 -0.1116E-27 -0.7244E-31 -0.2045E-30 -0.8585E-31 -0.2441E-30 -0.2941E-31 -0.9125E-31 -0.8585E-31 -0.2441E-30 -0.8413E-35 -0.2858E-34
     -5.506 -0.7340E-21 -0.2099E-20 -0.5622E-24 -0.1613E-23 -0.7367E-24 -0.2137E-23 -0.5621E-24 -0.1613E-23 -0.1199E-26 -0.3018E-26 -0.1525E-26 -0.3873E-26 -0.7500E-27 -0.2071E-26 -0.1525E-26 -0.3873E-26 -0.5384E-30 -0.1630E-29
     -5.364 -0.4179E-17 -0.1071E-16 -0.3219E-20 -0.8285E-20 -0.4806E-20 -0.1253E-19 -0.3218E-20 -0.8281E-20 -0.7202E-23 -0.1633E-22 -0.9993E-23 -0.2280E-22 -0.6918E-23 -0.1700E-22 -0.9991E-23 -0.2280E-22 -0.1246E-25 -0.3359E-25
     -5.222 -0.8916E-14 -0.2018E-13 -0.6962E-17 -0.1584E-16 -0.1196E-16 -0.2769E-16 -0.6952E-17 -0.1582E-16 -0.1719E-19 -0.3478E-19 -0.2506E-19 -0.5085E-19 -0.2229E-19 -0.4870E-19 -0.2505E-19 -0.5082E-19 -0.1040E-21 -0.2497E-21
     -5.080 -0.6891E-11 -0.1388E-10 -0.5567E-14 -0.1132E-13 -0.1128E-13 -0.2334E-13 -0.5537E-14 -0.1125E-13 -0.1679E-16 -0.3069E-16 -0.2404E-16 -0.4362E-16 -0.2654E-16 -0.5155E-16 -0.2401E-16 -0.4355E-16 -0.3020E-18 -0.6447E-18
     -4.938 -0.1939E-08 -0.3476E-08 -0.1698E-11 -0.3096E-11 -0.3973E-11 -0.7331E-11 -0.1666E-11 -0.3030E-11 -0.7040E-14 -0.1167E-13 -0.8748E-14 -0.1419E-13 -0.1134E-13 -0.1959E-13 -0.8736E-14 -0.1417E-13 -0.3219E-15 -0.6112E-15
     -4.796 -0.1981E-06 -0.3159E-06 -0.2073E-09 -0.3412E-09 -0.5120E-09 -0.8400E-09 -0.1957E-09 -0.3199E-09 -0.1261E-11 -0.1889E-11 -0.1204E-11 -0.1746E-11 -0.1737E-11 -0.2665E-11 -0.1212E-11 -0.1761E-11 -0.1216E-12 -0.2051E-12
     -4.654 -0.7252E-05 -0.1025E-04 -0.1070E-07 -0.1598E-07 -0.2335E-07 -0.3389E-07 -0.9239E-08 -0.1360E-07 -0.9023E-10 -0.1208E-09 -0.6288E-10 -0.8152E-10 -0.9551E-10 -0.1303E-09 -0.6666E-10 -0.8742E-10 -0.1606E-10 -0.2399E-10
     -4.512 -0.8943E-04 -0.1103E-03 -0.2336E-06 -0.3140E-06 -0.3561E-06 -0.4531E-06 -0.1733E-06 -0.2282E-06 -0.2334E-08 -0.2760E-08 -0.1272E-08 -0.1479E-08 -0.1921E-08 -0.2337E-08 -0.1637E-08 -0.1972E-08 -0.7206E-09 -0.9495E-09
     -4.370 -0.2579E-03 -0.2417E-03 -0.1846E-05 -0.2155E-05 -0.1598E-05 -0.1726E-05 -0.1126E-05 -0.1282E-05 -0.1906E-07 -0.1946E-07 -0.1039E-07 -0.1085E-07 -0.1477E-07 -0.1607E-07 -0.2008E-07 -0.2212E-07 -0.1039E-07 -0.1195E-07
     -4.227  0.9425E-03  0.1294E-02 -0.2106E-05 -0.1233E-05  0.2320E-06  0.1290E-05 -0.6434E-06  0.1010E-07 -0.3998E-07 -0.3401E-07 -0.3106E-07 -0.2732E-07 -0.3783E-07 -0.3356E-07 -0.8872E-07 -0.8081E-07 -0.4243E-07 -0.4128E-07
     -4.085  0.5472E-02  0.6118E-02  0.1801E-04  0.2233E-04  0.2534E-04  0.3139E-04  0.1385E-04  0.1702E-04 -0.2790E-07 -0.1198E-07  0.4650E-07  0.6792E-07  0.1001E-06  0.1351E-06  0.1620E-06  0.2237E-06 -0.1164E-07  0.7502E-08
     -3.943  0.1075E-01  0.1123E-01  0.7916E-04  0.9202E-04  0.9191E-04  0.9900E-04  0.5188E-04  0.5792E-04  0.7945E-06  0.9429E-06  0.5880E-06  0.6079E-06  0.8524E-06  0.9068E-06  0.1262E-05  0.1210E-05  0.4858E-06  0.5708E-06
     -3.801  0.1437E-01  0.1467E-01  0.2503E-03  0.2744E-03  0.1191E-03  0.1208E-03  0.1154E-03  0.1240E-03  0.5107E-05  0.4946E-05  0.1942E-05  0.1873E-05  0.2300E-05  0.2290E-05  0.2478E-05  0.2450E-05  0.2565E-05  0.2656E-05
     -3.659  0.1685E-01  0.1704E-01  0.4039E-03  0.4138E-03  0.2059E-03  0.2270E-03  0.1908E-03  0.1994E-03  0.8174E-05  0.7225E-05  0.4500E-05  0.4213E-05  0.4967E-05  0.4980E-05  0.1013E-04  0.9914E-05  0.6337E-05  0.6256E-05
     -3.517  0.1921E-01  0.1941E-01  0.5349E-03  0.5620E-03  0.3873E-03  0.3967E-03  0.2724E-03  0.2833E-03  0.1603E-04  0.1564E-04  0.9053E-05  0.8299E-05  0.1186E-04  0.1164E-04  0.1942E-04  0.1689E-04  0.1164E-04  0.1104E-04
     -3.375  0.2105E-01  0.2108E-01  0.8718E-03  0.9110E-03  0.3426E-03  0.3324E-03  0.3821E-03  0.3942E-03  0.4527E-04  0.4136E-04  0.1556E-04  0.1389E-04  0.1967E-04  0.1842E-04  0.1637E-04  0.1410E-04  0.1753E-04  0.1681E-04
     -3.233  0.2270E-01  0.2286E-01  0.1164E-02  0.1178E-02  0.4259E-03  0.4623E-03  0.4873E-03  0.4984E-03  0.5704E-04  0.4809E-04  0.2406E-04  0.2127E-04  0.2782E-04  0.2636E-04  0.4041E-04  0.3854E-04  0.3631E-04  0.3470E-04
     -3.091  0.2505E-01  0.2499E-01  0.1110E-02  0.1098E-02  0.9326E-03  0.9722E-03  0.6006E-03  0.6123E-03  0.5193E-04  0.4523E-04  0.3700E-04  0.3227E-04  0.4770E-04  0.4472E-04  0.9584E-04  0.8422E-04  0.4735E-04  0.4230E-04
     -2.949  0.2529E-01  0.2521E-01  0.1363E-02  0.1430E-02  0.9562E-03  0.9244E-03  0.7344E-03  0.7482E-03  0.1173E-03  0.1064E-03  0.5320E-04  0.4575E-04  0.6945E-04  0.6390E-04  0.9299E-04  0.7573E-04  0.5476E-04  0.5142E-04
     -2.807  0.2804E-01  0.2807E-01  0.2420E-02  0.2490E-02  0.5472E-03  0.5294E-03  0.8782E-03  0.8880E-03  0.2246E-03  0.1933E-03  0.7532E-04  0.6405E-04  0.8866E-04  0.8042E-04  0.6672E-04  0.5597E-04  0.1149E-03  0.1065E-03
     -2.665  0.2913E-01  0.2883E-01  0.2540E-02  0.2493E-02  0.8518E-03  0.9050E-03  0.1018E-02  0.1031E-02  0.2312E-03  0.1901E-03  0.1013E-03  0.8485E-04  0.1026E-03  0.9260E-04  0.1690E-03  0.1495E-03  0.1469E-03  0.1296E-03
     -2.523  0.2935E-01  0.2911E-01  0.1929E-02  0.1914E-02  0.1818E-02  0.1859E-02  0.1177E-02  0.1184E-02  0.1800E-03  0.1472E-03  0.1366E-03  0.1131E-03  0.1536E-03  0.1394E-03  0.3502E-03  0.2954E-03  0.1571E-03  0.1410E-03
     -2.381  0.3191E-01  0.3170E-01  0.2908E-02  0.2983E-02  0.1687E-02  0.1647E-02  0.1317E-02  0.1325E-02  0.3515E-03  0.2981E-03  0.1785E-03  0.1457E-03  0.2225E-03  0.1981E-03  0.3285E-03  0.2644E-03  0.2645E-03  0.2365E-03
     -2.239  0.3372E-01  0.3327E-01  0.4214E-02  0.4218E-02  0.9522E-03  0.9324E-03  0.1578E-02  0.1585E-02  0.6935E-03  0.5737E-03  0.2364E-03  0.1904E-03  0.2597E-03  0.2291E-03  0.2195E-03  0.1733E-03  0.3149E-03  0.2722E-03
     -2.097  0.3217E-01  0.3157E-01  0.4096E-02  0.4054E-02  0.1226E-02  0.1233E-02  0.1656E-02  0.1649E-02  0.7544E-03  0.6090E-03  0.3050E-03  0.2419E-03  0.2970E-03  0.2604E-03  0.3595E-03  0.2853E-03  0.3495E-03  0.3002E-03
     -1.955  0.3598E-01  0.3545E-01  0.4208E-02  0.4207E-02  0.2365E-02  0.2347E-02  0.1929E-02  0.1927E-02  0.6395E-03  0.5111E-03  0.3838E-03  0.2989E-03  0.4153E-03  0.3597E-03  0.8262E-03  0.6550E-03  0.5973E-03  0.5152E-03
     -1.813  0.3737E-01  0.3670E-01  0.4201E-02  0.4175E-02  0.3102E-02  0.3083E-02  0.2076E-02  0.2064E-02  0.7107E-03  0.5451E-03  0.5004E-03  0.3833E-03  0.5464E-03  0.4669E-03  0.1096E-02  0.8681E-03  0.6783E-03  0.5824E-03
     -1.671  0.3615E-01  0.3513E-01  0.4845E-02  0.4676E-02  0.2551E-02  0.2592E-02  0.2346E-02  0.2313E-02  0.1372E-02  0.1031E-02  0.6271E-03  0.4712E-03  0.6755E-03  0.5713E-03  0.9195E-03  0.7234E-03  0.6180E-03  0.5077E-03
     -1.529  0.3915E-01  0.3800E-01  0.6943E-02  0.6742E-02  0.1714E-02  0.1732E-02  0.2625E-02  0.2615E-02  0.2102E-02  0.1613E-02  0.7999E-03  0.5854E-03  0.8469E-03  0.7141E-03  0.7877E-03  0.5798E-03  0.1046E-02  0.8336E-03
     -1.387  0.4076E-01  0.3954E-01  0.7696E-02  0.7699E-02  0.2080E-02  0.1914E-02  0.2709E-02  0.2645E-02  0.2166E-02  0.1671E-02  0.1017E-02  0.7285E-03  0.9460E-03  0.7971E-03  0.1337E-02  0.8930E-03  0.1533E-02  0.1263E-02
     -1.245  0.4158E-01  0.4016E-01  0.6443E-02  0.6516E-02  0.3840E-02  0.3558E-02  0.3181E-02  0.3117E-02  0.2003E-02  0.1518E-02  0.1298E-02  0.9051E-03  0.1083E-02  0.8796E-03  0.2611E-02  0.1812E-02  0.1561E-02  0.1274E-02
     -1.103  0.4177E-01  0.3979E-01  0.6305E-02  0.5977E-02  0.4740E-02  0.4604E-02  0.3251E-02  0.3207E-02  0.2345E-02  0.1579E-02  0.1653E-02  0.1112E-02  0.1555E-02  0.1178E-02  0.3190E-02  0.2322E-02  0.1920E-02  0.1445E-02
     -0.961  0.4551E-01  0.4269E-01  0.8968E-02  0.8064E-02  0.3848E-02  0.4181E-02  0.3711E-02  0.3501E-02  0.4274E-02  0.2630E-02  0.2127E-02  0.1380E-02  0.2153E-02  0.1711E-02  0.2907E-02  0.2157E-02  0.2683E-02  0.2059E-02
     -0.819  0.4660E-01  0.4485E-01  0.1136E-01  0.1070E-01  0.2198E-02  0.2581E-02  0.4071E-02  0.4029E-02  0.6344E-02  0.4251E-02  0.2794E-02  0.1727E-02  0.2181E-02  0.1826E-02  0.2839E-02  0.1833E-02  0.3239E-02  0.2440E-02
     -0.676  0.4699E-01  0.4287E-01  0.1129E-01  0.1113E-01  0.3192E-02  0.2242E-02  0.4207E-02  0.3970E-02  0.6547E-02  0.4677E-02  0.3656E-02  0.2155E-02  0.2558E-02  0.1813E-02  0.5045E-02  0.2446E-02  0.4469E-02  0.2998E-02
     -0.534  0.5200E-01  0.4705E-01  0.1013E-01  0.1046E-01  0.6607E-02  0.5089E-02  0.4863E-02  0.4583E-02  0.6570E-02  0.4323E-02  0.4953E-02  0.2715E-02  0.3770E-02  0.2627E-02  0.9127E-02  0.4877E-02  0.5805E-02  0.4227E-02
     -0.392  0.5284E-01  0.4857E-01  0.1074E-01  0.9579E-02  0.6876E-02  0.7126E-02  0.5016E-02  0.4818E-02  0.9852E-02  0.4636E-02  0.6791E-02  0.3481E-02  0.4969E-02  0.3469E-02  0.1058E-01  0.6694E-02  0.6748E-02  0.4708E-02
     -0.250  0.5858E-01  0.4853E-01  0.1565E-01  0.1151E-01  0.4136E-02  0.5840E-02  0.5799E-02  0.5117E-02  0.1867E-01  0.7659E-02  0.1080E-01  0.4453E-02  0.6258E-02  0.4243E-02  0.1245E-01  0.6517E-02  0.9191E-02  0.5623E-02
     -0.108  0.6673E-01  0.5323E-01  0.1759E-01  0.1621E-01  0.4330E-02  0.3487E-02  0.6037E-02  0.5882E-02  0.2939E-01  0.1231E-01  0.2076E-01  0.5920E-02  0.7358E-02  0.5362E-02  0.2505E-01  0.6456E-02  0.1238E-01  0.8063E-02
      0.034  0.7762E-01  0.5414E-01  0.1710E-01  0.1674E-01  0.7795E-02  0.4033E-02  0.6490E-02  0.5863E-02  0.4184E-01  0.1376E-01  0.3373E-01  0.7970E-02  0.1382E-01  0.6167E-02  0.4575E-01  0.1018E-01  0.2949E-01  0.1053E-01
      0.176  0.8401E-01  0.6017E-01  0.1966E-01  0.1489E-01  0.8562E-02  0.8268E-02  0.7031E-02  0.6703E-02  0.5280E-01  0.1604E-01  0.3873E-01  0.1243E-01  0.3427E-01  0.7853E-02  0.5484E-01  0.1993E-01  0.8076E-01  0.1382E-01
      0.318  0.8238E-01  0.6814E-01  0.2326E-01  0.1621E-01  0.6789E-02  0.9089E-02  0.8081E-02  0.6918E-02  0.6140E-01  0.2765E-01  0.3764E-01  0.2145E-01  0.5496E-01  0.1269E-01  0.5568E-01  0.2967E-01  0.1302E+00  0.2239E-01
      0.460  0.7492E-01  0.7765E-01  0.2294E-01  0.2224E-01  0.6995E-02  0.5864E-02  0.9294E-02  0.7603E-02  0.6458E-01  0.4442E-01  0.3611E-01  0.3022E-01  0.6462E-01  0.2606E-01  0.6914E-01  0.3724E-01  0.1447E+00  0.5679E-01
      0.602  0.6551E-01  0.7977E-01  0.1918E-01  0.2439E-01  0.9660E-02  0.5608E-02  0.1039E-01  0.8391E-02  0.6784E-01  0.4903E-01  0.3442E-01  0.3200E-01  0.7482E-01  0.4363E-01  0.1390E+00  0.4480E-01  0.1433E+00  0.1056E+00
      0.744  0.5526E-01  0.7385E-01  0.1740E-01  0.2090E-01  0.1041E-01  0.9208E-02  0.1170E-01  0.9554E-02  0.7826E-01  0.4748E-01  0.3157E-01  0.3062E-01  0.8646E-01  0.5518E-01  0.2784E+00  0.5415E-01  0.1382E+00  0.1250E+00
      0.886  0.4387E-01  0.6578E-01  0.1499E-01  0.1893E-01  0.1290E-01  0.1047E-01  0.1445E-01  0.1084E-01  0.8595E-01  0.5231E-01  0.2665E-01  0.2907E-01  0.1092E+00  0.6456E-01  0.4128E+00  0.5652E-01  0.1271E+00  0.1243E+00