    1    1    1    2
  0.1099207E+02  0.2495733E-09  0.2495733E-09  0.2495733E-09  0.5000000E-15
  1.000000000000000E-004
  CAR 
 fcc Ni                                  
     10    770     10
 
  0.2500000E-01  0.2500000E-01  0.2500000E-01  0.2500000E-03
    1       -4.199685     -4.216029   1.000000   1.000000
    2        2.292724      2.961751   1.000000   1.000000
    3        2.304591      2.974561   1.000000   1.000000
    4        2.304591      2.974561   1.000000   1.000000
    5        3.430130      4.014525   1.000000   1.000036
    6        3.430130      4.014525   1.000000   1.000036
    7       28.678968     28.546346   0.000000   0.000000
    8       31.819957     31.831104   0.000000   0.000000
    9       32.237544     32.243784   0.000000   0.000000
   10       32.237544     32.243784   0.000000   0.000000
 
  0.7500000E-01  0.2500000E-01  0.2500000E-01  0.7500000E-03
    1       -4.070347     -4.086554   1.000000   1.000000
    2        2.257255      2.922543   1.000000   1.000000
    3        2.330891      3.002088   1.000000   1.000000
    4        2.338617      3.009343   1.000000   1.000000
    5        3.403084      3.985820   1.000000   1.000015
    6        3.433240      4.017703   1.000000   1.000039
    7       28.179491     28.095028   0.000000   0.000000
    8       30.462672     30.474252   0.000000   0.000000
    9       31.422710     31.444266   0.000000   0.000000
   10       32.418156     32.425573   0.000000   0.000000
 
  0.1250000E+00  0.2500000E-01  0.2500000E-01  0.7500000E-03
    1       -3.751413     -3.766940   1.000000   1.000000
    2        2.181912      2.837649   1.000000   1.000000
    3        2.394216      3.067179   1.000000   1.000000
    4        2.403288      3.074455   1.000000   1.000000
    5        3.365796      3.946899   1.000000   1.000004
    6        3.427117      4.012309   1.000000   1.000033
    7       26.333471     26.357340   0.000000   0.000000
    8       29.400333     29.360322   0.000000   0.000000
    9       30.942752     30.961512   0.000000   0.000000
   10       32.078255     32.116807   0.000000   0.000000
 
  0.1750000E+00  0.2500000E-01  0.2500000E-01  0.7500000E-03
    1       -3.255659     -3.268766   1.000000   1.000000
    2        2.085100      2.724749   1.000000   1.000000
    3        2.471758      3.141546   1.000000   1.000000
    4        2.474917      3.142290   1.000000   1.000000
    5        3.341105      3.925627   1.000000   1.000002
    6        3.434166      4.025564   1.000000   1.000049
    7       23.785225     23.860476   0.000000   0.000000
    8       28.897134     28.861511   0.000000   0.000000
    9       30.531206     30.543096   0.000000   0.000000
   10       31.604260     31.668970   0.000000   0.000000
 
  0.2250000E+00  0.2500000E-01  0.2500000E-01  0.7500000E-03
    1       -2.609133     -2.614741   1.000000   1.000000
    2        1.999953      2.613996   1.000000   1.000000
    3        2.518962      3.171109   1.000000   1.000000
    4        2.524961      3.181234   1.000000   1.000000
    5        3.365796      3.966694   1.000000   1.000008
    6        3.485525      4.093683   1.000000   1.000318
    7       21.181359     21.289780   0.000000   0.000000
    8       28.469416     28.443601   0.000000   0.000000
    9       30.106488     30.117392   0.000000   0.000000
   10       31.164289     31.247856   0.000000   0.000000
 
  0.2750000E+00  0.2500000E-01  0.2500000E-01  0.7500000E-03
    1       -1.863675     -1.847758   1.000000   1.000000
    2        1.981809      2.551650   1.000000   1.000000
    3        2.513133      3.144332   1.000000   1.000000
    4        2.523415      3.156279   1.000000   1.000000
    5        3.465451      4.093125   1.000000   1.000313
    6        3.598011      4.229839   1.000000   1.005917
    7       18.660439     18.800016   0.000000   0.000000
    8       28.077339     28.047550   0.000000   0.000000
    9       29.650872     29.669868   0.000000   0.000000
   10       30.792510     30.889579   0.000000   0.000000
 
  0.3250000E+00  0.2500000E-01  0.2500000E-01  0.7500000E-03
    1       -1.121803     -1.049885   1.000000   1.000000
    2        2.125830      2.611599   1.000000   1.000000
    3        2.466448      3.078480   1.000000   1.000000
    4        2.476284      3.088405   1.000000   1.000000
    5        3.622659      4.275531   1.000000   1.012187
    6        3.755738      4.408908   1.000000   1.035311
    7       16.275678     16.449789   0.000000   0.000000
    8       27.729851     27.681844   0.000000   0.000000
    9       29.227015     29.262720   0.000000   0.000000
   10       30.474550     30.580193   0.000000   0.000000
 
  0.3750000E+00  0.2500000E-01  0.2500000E-01  0.7500000E-03
    1       -0.542433     -0.360879   1.000000   1.000000
    2        2.402554      2.898699   1.000000   1.000000
    3        2.412973      3.002650   1.000000   1.000000
    4        2.558561      3.010778   1.000000   1.000000
    5        3.796402      4.468615   1.000000   1.010688
    6        3.929962      4.595061   1.000002   0.714796
    7       14.078560     14.295606   0.000000   0.000000
    8       27.434223     27.360555   0.000000   0.000000
    9       28.916063     28.972530   0.000000   0.000000
   10       30.162249     30.270332   0.000000   0.000000
 
  0.4250000E+00  0.2500000E-01  0.2500000E-01  0.7500000E-03
    1       -0.220204      0.083365   1.000000   1.000000
    2        2.344878      2.932463   1.000000   1.000000
    3        2.356778      2.945690   1.000000   1.000000
    4        3.261364      3.459997   1.000000   1.000000
    5        3.949755      4.635635   1.000005   0.551380
    6        4.121489      4.765767   1.000631   0.084605
    7       12.161796     12.436760   0.000000   0.000000
    8       27.204777     27.107859   0.000000   0.000000
    9       28.773312     28.847449   0.000000   0.000000
   10       29.796627     29.900160   0.000000   0.000000
 
  0.4750000E+00  0.2500000E-01  0.2500000E-01  0.7500000E-03
    1       -0.090180      0.285796   1.000000   1.000000
    2        2.306066      2.888285   1.000000   1.000000
    3        2.321452      2.905829   1.000000   1.000000
    4        3.802337      4.044107   1.000000   1.000084
    5        4.055559      4.749569   1.000116   0.125092
    6        4.459878      4.924802   1.017673  -0.032307
    7       10.749863     11.096771   0.000000   0.000000
    8       27.067308     26.955349   0.000000   0.000000
    9       28.816901     28.902559   0.000000   0.000000
   10       29.387884     29.484808   0.000000   0.000000
 
 -0.4750000E+00  0.2500000E-01  0.2500000E-01  0.7500000E-03
    1       -0.064267      0.328527   1.000000   1.000000
    2        2.294334      2.874767   1.000000   1.000000
    3        2.313674      2.897346   1.000000   1.000000
    4        3.889389      4.220141   1.000001   1.004986
    5        4.096948      4.793306   1.000345   0.030887
    6        4.661589      4.990781   0.441818  -0.017903
    7       10.321422     10.700089   0.000000   0.000000
    8       27.047501     26.928969   0.000000   0.000000
    9       29.022599     29.116492   0.000000   0.000000
   10       29.035691     29.128829   0.000000   0.000000
 
 -0.4250000E+00  0.2500000E-01  0.2500000E-01  0.7500000E-03
    1       -0.118791      0.239722   1.000000   1.000000
    2        2.312142      2.894371   1.000000   1.000000
    3        2.334484      2.921140   1.000000   1.000000
    4        3.663460      3.871333   1.000000   1.000000
    5        4.068349      4.761097   1.000164   0.095599
    6        4.297579      4.835210   1.016379  -0.017298
    7       11.139970     11.462859   0.000000   0.000000
    8       27.158443     27.040092   0.000000   0.000000
    9       28.771855     28.866569   0.000000   0.000000
   10       29.393585     29.492832   0.000000   0.000000
 
 -0.3750000E+00  0.2500000E-01  0.2500000E-01  0.7500000E-03
    1       -0.301003     -0.034483   1.000000   1.000000
    2        2.356686      2.943916   1.000000   1.000000
    3        2.379664      2.973139   1.000000   1.000000
    4        3.007632      3.249643   1.000000   1.000000
    5        3.976047      4.639014   1.000011   0.537149
    6        3.984258      4.659322   1.000014   0.451348
    7       12.759866     13.013452   0.000000   0.000000
    8       27.395944     27.282934   0.000000   0.000000
    9       28.664018     28.761258   0.000000   0.000000
   10       29.828320     29.931536   0.000000   0.000000
 
 -0.3250000E+00  0.2500000E-01  0.2500000E-01  0.7500000E-03
    1       -0.708248     -0.568378   1.000000   1.000000
    2        2.374259      2.770018   1.000000   1.000000
    3        2.419634      3.019734   1.000000   1.000000
    4        2.439343      3.043924   1.000000   1.000000
    5        3.774941      4.435189   1.000000   1.030495
    6        3.837999      4.506180   1.000000   0.962674
    7       14.785633     14.987029   0.000000   0.000000
    8       27.738037     27.634072   0.000000   0.000000
    9       28.702365     28.801490   0.000000   0.000000
   10       30.274220     30.374851   0.000000   0.000000
 
 -0.2750000E+00  0.2500000E-01  0.2500000E-01  0.7500000E-03
    1       -1.359608     -1.311920   1.000000   1.000000
    2        2.050610      2.570666   1.000000   1.000000
    3        2.483463      3.099264   1.000000   1.000000
    4        2.496844      3.117440   1.000000   1.000000
    5        3.585349      4.229307   1.000000   1.005863
    6        3.682481      4.330194   1.000000   1.023619
    7       17.052494     17.214420   0.000000   0.000000
    8       28.146587     28.053226   0.000000   0.000000
    9       28.880709     28.979239   0.000000   0.000000
   10       30.708203     30.797927   0.000000   0.000000
 
 -0.2250000E+00  0.2500000E-01  0.2500000E-01  0.7500000E-03
    1       -2.118284     -2.112071   1.000000   1.000000
    2        1.974487      2.562161   1.000000   1.000000
    3        2.522933      3.161030   1.000000   1.000000
    4        2.528561      3.169502   1.000000   1.000000
    5        3.433417      4.052547   1.000000   1.000107
    6        3.545443      4.168648   1.000000   1.001821
    7       19.487656     19.616677   0.000000   0.000000
    8       28.573304     28.488574   0.000000   0.000000
    9       29.191667     29.286001   0.000000   0.000000
   10       31.139212     31.212970   0.000000   0.000000
 
 -0.1750000E+00  0.2500000E-01  0.2500000E-01  0.7500000E-03
    1       -2.838977     -2.848027   1.000000   1.000000
    2        2.023057      2.647089   1.000000   1.000000
    3        2.510305      3.170700   1.000000   1.000000
    4        2.512942      3.173092   1.000000   1.000000
    5        3.351897      3.946560   1.000000   1.000004
    6        3.459459      4.060039   1.000000   1.000131
    7       22.043677     22.141630   0.000000   0.000000
    8       28.973007     28.891470   0.000000   0.000000
    9       29.629346     29.715393   0.000000   0.000000
   10       31.555579     31.611408   0.000000   0.000000
 
 -0.1250000E+00  0.2500000E-01  0.2500000E-01  0.7500000E-03
    1       -3.439324     -3.453574   1.000000   1.000000
    2        2.116647      2.762534   1.000000   1.000000
    3        2.448102      3.119341   1.000000   1.000000
    4        2.452687      3.122894   1.000000   1.000000
    5        3.343512      3.926068   1.000000   1.000002
    6        3.430232      4.018216   1.000000   1.000040
    7       24.655152     24.716974   0.000000   0.000000
    8       29.333556     29.252993   0.000000   0.000000
    9       30.187966     30.261439   0.000000   0.000000
   10       31.919751     31.955837   0.000000   0.000000
 
 -0.7500000E-01  0.2500000E-01  0.2500000E-01  0.7500000E-03
    1       -3.878199     -3.894065   1.000000   1.000000
    2        2.208708      2.868357   1.000000   1.000000
    3        2.373483      3.045589   1.000000   1.000000
    4        2.378308      3.050030   1.000000   1.000000
    5        3.374011      3.955300   1.000000   1.000006
    6        3.432947      4.017638   1.000000   1.000039
    7       27.097297     27.091148   0.000000   0.000000
    8       29.811081     29.759198   0.000000   0.000000
    9       30.854835     30.911016   0.000000   0.000000
   10       32.179301     32.193626   0.000000   0.000000
 
 -0.2500000E-01  0.2500000E-01  0.2500000E-01  0.7500000E-03
    1       -4.134875     -4.151161   1.000000   1.000000
    2        2.271254      2.938503   1.000000   1.000000
    3        2.321107      2.991598   1.000000   1.000000
    4        2.322409      2.992875   1.000000   1.000000
    5        3.409005      3.992155   1.000000   1.000018
    6        3.438660      4.023385   1.000000   1.000046
    7       28.478493     28.364653   0.000000   0.000000
    8       31.151763     31.168799   0.000000   0.000000
    9       31.588400     31.621390   0.000000   0.000000
   10       32.205261     32.204607   0.000000   0.000000
 
  0.7500000E-01  0.7500000E-01  0.2500000E-01  0.7500000E-03
    1       -4.005942     -4.022081   1.000000   1.000000
    2        2.226323      2.890121   1.000000   1.000000
    3        2.356658      3.028159   1.000000   1.000000
    4        2.357873      3.029342   1.000000   1.000000
    5        3.367688      3.948328   1.000000   1.000004
    6        3.455523      4.040902   1.000000   1.000077
    7       28.126976     28.043081   0.000000   0.000000
    8       30.358530     30.381214   0.000000   0.000000
    9       30.699152     30.753320   0.000000   0.000000
   10       31.772945     31.764322   0.000000   0.000000
 
  0.1250000E+00  0.7500000E-01  0.2500000E-01  0.1500000E-02
    1       -3.750928     -3.766583   1.000000   1.000000
    2        2.154703      2.811616   1.000000   1.000000
    3        2.412917      3.086621   1.000000   1.000000
    4        2.420560      3.092402   1.000000   1.000000
    5        3.311400      3.888692   1.000000   1.000001
    6        3.472351      4.058936   1.000000   1.000127
    7       27.083059     27.075128   0.000000   0.000000
    8       28.806865     28.832390   0.000000   0.000000
    9       30.246681     30.264332   0.000000   0.000000
   10       31.896566     31.886187   0.000000   0.000000
 
  0.1750000E+00  0.7500000E-01  0.2500000E-01  0.1500000E-02
    1       -3.315055     -3.328962   1.000000   1.000000
    2        2.059223      2.703806   1.000000   1.000000
    3        2.489753      3.159278   1.000000   1.000000
    4        2.495274      3.167315   1.000000   1.000000
    5        3.262778      3.840059   1.000000   1.000000
    6        3.493361      4.084926   1.000000   1.000254
    7       24.743226     24.805654   0.000000   0.000000
    8       27.977175     27.992221   0.000000   0.000000
    9       29.800545     29.808700   0.000000   0.000000
   10       32.547665     32.521697   0.000000   0.000000
 
  0.2250000E+00  0.7500000E-01  0.2500000E-01  0.1500000E-02
    1       -2.719069     -2.727579   1.000000   1.000000
    2        1.962479      2.587655   1.000000   1.000000
    3        2.538112      3.190039   1.000000   1.000000
    4        2.561147      3.224918   1.000000   1.000000
    5        3.265953      3.856877   1.000000   1.000000
    6        3.545431      4.150859   1.000000   1.001239
    7       22.139387     22.236895   0.000000   0.000000
    8       27.441982     27.467652   0.000000   0.000000
    9       29.342996     29.348533   0.000000   0.000000
   10       33.203683     33.171354   0.000000   0.000000
 
  0.2750000E+00  0.7500000E-01  0.2500000E-01  0.1500000E-02
    1       -2.004023     -1.997022   1.000000   1.000000
    2        1.905816      2.498850   1.000000   1.000000
    3        2.525518      3.151457   1.000000   1.000000
    4        2.580518      3.223729   1.000000   1.000000
    5        3.366104      3.983555   1.000000   1.000014
    6        3.649961      4.277104   1.000000   1.012461
    7       19.583362     19.710947   0.000000   0.000000
    8       27.021718     27.051568   0.000000   0.000000
    9       28.888898     28.891825   0.000000   0.000000
   10       32.403082     32.501666   0.000000   0.000000
 
  0.3250000E+00  0.7500000E-01  0.2500000E-01  0.1500000E-02
    1       -1.252089     -1.203278   1.000000   1.000000
    2        1.959947      2.493302   1.000000   1.000000
    3        2.461366      3.065674   1.000000   1.000000
    4        2.550429      3.172872   1.000000   1.000000
    5        3.555255      4.194176   1.000000   1.003062
    6        3.804045      4.451261   1.000000   1.023239
    7       17.145868     17.305351   0.000000   0.000000
    8       26.709319     26.733136   0.000000   0.000000
    9       28.454577     28.456861   0.000000   0.000000
   10       31.236117     31.346879   0.000000   0.000000
 
  0.3750000E+00  0.7500000E-01  0.2500000E-01  0.1500000E-02
    1       -0.608532     -0.466601   1.000000   1.000000
    2        2.227030      2.651677   1.000000   1.000000
    3        2.379937      2.974867   1.000000   1.000000
    4        2.494617      3.100566   1.000000   1.000000
    5        3.784385      4.437232   1.000000   1.029778
    6        4.004882      4.653569   1.000027   0.475612
    7       14.873398     15.071068   0.000000   0.000000
    8       26.503574     26.509554   0.000000   0.000000
    9       28.070212     28.081521   0.000000   0.000000
   10       30.208972     30.320704   0.000000   0.000000
 
  0.4250000E+00  0.7500000E-01  0.2500000E-01  0.1500000E-02
    1       -0.209818      0.060524   1.000000   1.000000
    2        2.305128      2.856119   1.000000   1.000000
    3        2.434025      3.028118   1.000000   1.000000
    4        2.728947      3.082429   1.000000   1.000000
    5        3.970641      4.645260   1.000009   0.510758
    6        4.329234      4.914649   1.023397  -0.033873
    7       12.835598     13.083759   0.000000   0.000000
    8       26.383221     26.359799   0.000000   0.000000
    9       27.779942     27.819012   0.000000   0.000000
   10       29.387390     29.486846   0.000000   0.000000
 
  0.4750000E+00  0.7500000E-01  0.2500000E-01  0.1500000E-02
    1       -0.033948      0.329333   1.000000   1.000000
    2        2.255092      2.816444   1.000000   1.000000
    3        2.388995      2.976982   1.000000   1.000000
    4        3.204053      3.537278   1.000000   1.000000
    5        4.068295      4.759628   1.000164   0.099171
    6        4.851862      5.283128  -0.027107  -0.000034
    7       11.191927     11.508049   0.000000   0.000000
    8       26.288599     26.237169   0.000000   0.000000
    9       27.640451     27.720143   0.000000   0.000000
   10       28.851956     28.925511   0.000000   0.000000
 
 -0.4750000E+00  0.7500000E-01  0.2500000E-01  0.1500000E-02
    1        0.018252      0.415941   1.000000   1.000000
    2        2.235937      2.797867   1.000000   1.000000
    3        2.367433      2.952117   1.000000   1.000000
    4        3.413066      3.782401   1.000000   1.000000
    5        4.089528      4.786454   1.000286   0.042503
    6        5.269111      5.573536  -0.000051  -0.000000
    7       10.348213     10.721016   0.000000   0.000000
    8       26.152293     26.100576   0.000000   0.000000
    9       27.686871     27.779375   0.000000   0.000000
   10       28.691484     28.744506   0.000000   0.000000
 
 -0.4250000E+00  0.7500000E-01  0.2500000E-01  0.1500000E-02
    1       -0.006046      0.374724   1.000000   1.000000
    2        2.249934      2.814051   1.000000   1.000000
    3        2.374267      2.959430   1.000000   1.000000
    4        3.328705      3.667725   1.000000   1.000000
    5        4.041035      4.734537   1.000077   0.168476
    6        5.053498      5.436747  -0.007284  -0.000000
    7       10.792469     11.132804   0.000000   0.000000
    8       25.991877     25.964931   0.000000   0.000000
    9       27.882317     27.937279   0.000000   0.000000
   10       28.951163     29.016630   0.000000   0.000000
 
 -0.3750000E+00  0.7500000E-01  0.2500000E-01  0.1500000E-02
    1       -0.130442      0.177301   1.000000   1.000000
    2        2.294445      2.861180   1.000000   1.000000
    3        2.408627      2.998154   1.000000   1.000000
    4        2.934230      3.245624   1.000000   1.000000
    5        3.924346      4.606886   1.000002   0.669182
    6        4.542353      5.095247   0.884696  -0.003452
    7       12.232591     12.501741   0.000000   0.000000
    8       25.883937     25.884302   0.000000   0.000000
    9       28.201241     28.213046   0.000000   0.000000
   10       29.567692     29.656749   0.000000   0.000000
 
 -0.3250000E+00  0.7500000E-01  0.2500000E-01  0.1500000E-02
    1       -0.444146     -0.260100   1.000000   1.000000
    2        2.359849      2.770259   1.000000   1.000000
    3        2.392357      2.957275   1.000000   1.000000
    4        2.468107      3.063599   1.000000   1.000000
    5        3.749135      4.417301   1.000000   1.034572
    6        4.178389      4.812728   1.002231   0.003917
    7       14.164931     14.377937   0.000000   0.000000
    8       25.881898     25.902672   0.000000   0.000000
    9       28.646590     28.633213   0.000000   0.000000
   10       30.424073     30.532184   0.000000   0.000000
 
 -0.2750000E+00  0.7500000E-01  0.2500000E-01  0.1500000E-02
    1       -1.015529     -0.942424   1.000000   1.000000
    2        2.031835      2.535274   1.000000   1.000000
    3        2.439450      3.040301   1.000000   1.000000
    4        2.528662      3.141133   1.000000   1.000000
    5        3.550139      4.200288   1.000000   1.003448
    6        3.930493      4.577712   1.000002   0.777352
    7       16.369261     16.540731   0.000000   0.000000
    8       26.005507     26.038875   0.000000   0.000000
    9       29.192473     29.169269   0.000000   0.000000
   10       31.393316     31.513286   0.000000   0.000000
 
 -0.2250000E+00  0.7500000E-01  0.2500000E-01  0.1500000E-02
    1       -1.750882     -1.734138   1.000000   1.000000
    2        1.916562      2.493928   1.000000   1.000000
    3        2.504648      3.124246   1.000000   1.000000
    4        2.575973      3.210288   1.000000   1.000000
    5        3.374158      3.998884   1.000000   1.000022
    6        3.734949      4.370119   1.000000   1.032187
    7       18.756936     18.894919   0.000000   0.000000
    8       26.256488     26.295121   0.000000   0.000000
    9       29.777931     29.754342   0.000000   0.000000
   10       32.294850     32.402885   0.000000   0.000000
 
 -0.1750000E+00  0.7500000E-01  0.2500000E-01  0.1500000E-02
    1       -2.490771     -2.495745   1.000000   1.000000
    2        1.946139      2.562472   1.000000   1.000000
    3        2.531309      3.173652   1.000000   1.000000
    4        2.573963      3.234496   1.000000   1.000000
    5        3.270928      3.865742   1.000000   1.000000
    6        3.589987      4.204877   1.000000   1.003763
    7       21.277760     21.385543   0.000000   0.000000
    8       26.631545     26.668553   0.000000   0.000000
    9       30.316551     30.294554   0.000000   0.000000
   10       32.905316     32.960614   0.000000   0.000000
 
 -0.1250000E+00  0.7500000E-01  0.2500000E-01  0.1500000E-02
    1       -3.132766     -3.145427   1.000000   1.000000
    2        2.036084      2.675020   1.000000   1.000000
    3        2.504347      3.165467   1.000000   1.000000
    4        2.511305      3.185914   1.000000   1.000000
    5        3.261339      3.839431   1.000000   1.000000
    6        3.504890      4.101975   1.000000   1.000392
    7       23.873063     23.948783   0.000000   0.000000
    8       27.139821     27.169887   0.000000   0.000000
    9       30.710645     30.685295   0.000000   0.000000
   10       32.959972     32.964048   0.000000   0.000000
 
 -0.7500000E-01  0.7500000E-01  0.2500000E-01  0.1500000E-02
    1       -3.625149     -3.640384   1.000000   1.000000
    2        2.136442      2.789674   1.000000   1.000000
    3        2.426004      3.101170   1.000000   1.000000
    4        2.440494      3.109924   1.000000   1.000000
    5        3.308609      3.885788   1.000000   1.000000
    6        3.466666      4.054707   1.000000   1.000113
    7       26.321568     26.344992   0.000000   0.000000
    8       27.924154     27.955143   0.000000   0.000000
    9       30.876337     30.851106   0.000000   0.000000
   10       32.707331     32.704144   0.000000   0.000000
 
 -0.2500000E-01  0.7500000E-01  0.2500000E-01  0.1500000E-02
    1       -3.941924     -3.957942   1.000000   1.000000
    2        2.217666      2.879489   1.000000   1.000000
    3        2.361793      3.034046   1.000000   1.000000
    4        2.371639      3.042838   1.000000   1.000000
    5        3.367978      3.948644   1.000000   1.000004
    6        3.446473      4.031658   1.000000   1.000059
    7       27.683017     27.637912   0.000000   0.000000
    8       29.651202     29.667571   0.000000   0.000000
    9       30.920841     30.937386   0.000000   0.000000
   10       32.360747     32.360832   0.000000   0.000000
 
  0.1250000E+00  0.1250000E+00  0.2500000E-01  0.7500000E-03
    1       -3.561756     -3.577035   1.000000   1.000000
    2        2.075510      2.727930   1.000000   1.000000
    3        2.479732      3.154744   1.000000   1.000000
    4        2.480463      3.155557   1.000000   1.000000
    5        3.233284      3.804986   1.000000   1.000000
    6        3.512531      4.100148   1.000000   1.000374
    7       27.172859     27.159319   0.000000   0.000000
    8       28.713643     28.740799   0.000000   0.000000
    9       28.776910     28.854633   0.000000   0.000000
   10       30.375788     30.348247   0.000000   0.000000
 
  0.1750000E+00  0.1250000E+00  0.2500000E-01  0.1500000E-02
    1       -3.191122     -3.204911   1.000000   1.000000
    2        1.973106      2.616415   1.000000   1.000000
    3        2.559794      3.231387   1.000000   1.000000
    4        2.567439      3.245592   1.000000   1.000000
    5        3.161904      3.730630   1.000000   1.000000
    6        3.549034      4.139918   1.000000   1.000969
    7       25.751986     25.800588   0.000000   0.000000
    8       27.118581     27.167895   0.000000   0.000000
    9       28.816197     28.834425   0.000000   0.000000
   10       30.349219     30.326061   0.000000   0.000000
 
  0.2250000E+00  0.1250000E+00  0.2500000E-01  0.1500000E-02
    1       -2.655823     -2.665243   1.000000   1.000000
    2        1.864680      2.494283   1.000000   1.000000
    3        2.600808      3.248667   1.000000   1.000000
    4        2.652358      3.325311   1.000000   1.000000
    5        3.159360      3.745091   1.000000   1.000000
    6        3.603811      4.205527   1.000000   1.003809
    7       23.220114     23.306891   0.000000   0.000000
    8       26.417794     26.472392   0.000000   0.000000
    9       28.410196     28.413075   0.000000   0.000000
   10       30.892714     30.882109   0.000000   0.000000
 
  0.2750000E+00  0.1250000E+00  0.2500000E-01  0.1500000E-02
    1       -1.988825     -1.986317   1.000000   1.000000
    2        1.777096      2.385512   1.000000   1.000000
    3        2.552646      3.165185   1.000000   1.000000
    4        2.695590      3.351422   1.000000   1.000000
    5        3.296562      3.911006   1.000000   1.000001
    6        3.700549      4.322519   1.000000   1.021849
    7       20.640803     20.755455   0.000000   0.000000
    8       25.915361     25.975652   0.000000   0.000000
    9       27.911586     27.908471   0.000000   0.000000
   10       30.620887     30.676932   0.000000   0.000000
 
  0.3250000E+00  0.1250000E+00  0.2500000E-01  0.1500000E-02
    1       -1.255094     -1.221023   1.000000   1.000000
    2        1.756266      2.326753   1.000000   1.000000
    3        2.446645      3.037698   1.000000   1.000000
    4        2.686529      3.321548   1.000000   1.000000
    5        3.552236      4.179204   1.000000   1.002269
    6        3.848254      4.490734   1.000000   0.986203
    7       18.156968     18.300172   0.000000   0.000000
    8       25.555774     25.614942   0.000000   0.000000
    9       27.369032     27.366167   0.000000   0.000000
   10       29.764924     29.862261   0.000000   0.000000
 
  0.3750000E+00  0.1250000E+00  0.2500000E-01  0.1500000E-02
    1       -0.577306     -0.467687   1.000000   1.000000
    2        1.873082      2.370063   1.000000   1.000000
    3        2.335218      2.918980   1.000000   1.000000
    4        2.641854      3.258797   1.000000   1.000000
    5        3.839583      4.481701   1.000000   0.997446
    6        4.089955      4.719622   1.000289   0.216739
    7       15.815894     15.991989   0.000000   0.000000
    8       25.333454     25.382115   0.000000   0.000000
    9       26.773462     26.788201   0.000000   0.000000
   10       28.970260     29.068754   0.000000   0.000000
 
  0.4250000E+00  0.1250000E+00  0.2500000E-01  0.1500000E-02
    1       -0.110854      0.125610   1.000000   1.000000
    2        2.120243      2.533819   1.000000   1.000000
    3        2.304989      2.875193   1.000000   1.000000
    4        2.584825      3.187615   1.000000   1.000000
    5        4.011213      4.687253   1.000032   0.336622
    6        4.572458      5.120911   0.795114  -0.002067
    7       13.669816     13.887983   0.000000   0.000000
    8       25.190403     25.212842   0.000000   0.000000
    9       26.204510     26.263163   0.000000   0.000000
   10       28.432982     28.508393   0.000000   0.000000
 
  0.4750000E+00  0.1250000E+00  0.2500000E-01  0.1500000E-02
    1        0.112924      0.463030   1.000000   1.000000
    2        2.125480      2.612899   1.000000   1.000000