<?xml version="1.0" encoding="ISO-8859-1"?>
<modeling>
 <generator>
  <i name="program" type="string">vasp </i>
  <i name="version" type="string">5.4.4.18Apr17-6-g9f103f2a35  </i>
  <i name="subversion" type="string">(build May 20 2018 16:52:39) complex            parallel </i>
  <i name="platform" type="string">LinuxIFC </i>
  <i name="date" type="string">2022 10 01 </i>
  <i name="time" type="string">22:45:26 </i>
 </generator>
 <incar>
  <i type="string" name="SYSTEM"> fcc Ni</i>
  <i type="int" name="ISTART">     0</i>
  <i type="string" name="PREC">normal</i>
  <i type="int" name="ISPIN">     2</i>
  <i type="int" name="ICHARG">     2</i>
  <i name="EDIFF">      0.00000010</i>
  <i name="ENCUT">    500.00000000</i>
  <v name="RWIGS">      1.37000000</v>
  <v name="MAGMOM">      1.00000000</v>
  <i type="int" name="ISMEAR">     1</i>
  <i name="SIGMA">      0.20000000</i>
  <i type="logical" name="LWAVE"> F  </i>
  <i type="int" name="LORBIT">    11</i>
  <v type="int" name="KPOINT_BSE">    -1     0     0     0</v>
 </incar>
 <structure name="primitive_cell" >
  <crystal>
   <varray name="basis" >
    <v>       1.76475000       1.76475000       0.00000000 </v>
    <v>       0.00000000       1.76475000       1.76475000 </v>
    <v>       1.76475000       0.00000000       1.76475000 </v>
   </varray>
   <i name="volume">     10.99207207 </i>
   <varray name="rec_basis" >
    <v>       0.28332625       0.28332625      -0.28332625 </v>
    <v>      -0.28332625       0.28332625       0.28332625 </v>
    <v>       0.28332625      -0.28332625       0.28332625 </v>
   </varray>
  </crystal>
  <varray name="positions" >
   <v>       0.00000000       0.00000000       0.00000000 </v>
  </varray>
 </structure>
 <varray name="primitive_index" >
  <v type="int" >        1 </v>
 </varray>
 <kpoints>
  <generation param="Monkhorst-Pack">
   <v type="int" name="divisions">      20       20       20 </v>
   <v name="usershift">      0.00000000       0.00000000       0.00000000 </v>
   <v name="genvec1">      0.05000000       0.00000000       0.00000000 </v>
   <v name="genvec2">      0.00000000       0.05000000       0.00000000 </v>
   <v name="genvec3">      0.00000000       0.00000000       0.05000000 </v>
   <v name="shift">      0.50000000       0.50000000       0.50000000 </v>
  </generation>
  <varray name="kpointlist" >
   <v>       0.02500000       0.02500000       0.02500000 </v>
   <v>       0.07500000       0.02500000       0.02500000 </v>
   <v>       0.12500000       0.02500000       0.02500000 </v>
   <v>       0.17500000       0.02500000       0.02500000 </v>
   <v>       0.22500000       0.02500000       0.02500000 </v>
   <v>       0.27500000       0.02500000       0.02500000 </v>
   <v>       0.32500000       0.02500000       0.02500000 </v>
   <v>       0.37500000       0.02500000       0.02500000 </v>
   <v>       0.42500000       0.02500000       0.02500000 </v>
   <v>       0.47500000       0.02500000       0.02500000 </v>
   <v>      -0.47500000       0.02500000       0.02500000 </v>
   <v>      -0.42500000       0.02500000       0.02500000 </v>
   <v>      -0.37500000       0.02500000       0.02500000 </v>
   <v>      -0.32500000       0.02500000       0.02500000 </v>
   <v>      -0.27500000       0.02500000       0.02500000 </v>
   <v>      -0.22500000       0.02500000       0.02500000 </v>
   <v>      -0.17500000       0.02500000       0.02500000 </v>
   <v>      -0.12500000       0.02500000       0.02500000 </v>
   <v>      -0.07500000       0.02500000       0.02500000 </v>
   <v>      -0.02500000       0.02500000       0.02500000 </v>
   <v>       0.07500000       0.07500000       0.02500000 </v>
   <v>       0.12500000       0.07500000       0.02500000 </v>
   <v>       0.17500000       0.07500000       0.02500000 </v>
   <v>       0.22500000       0.07500000       0.02500000 </v>
   <v>       0.27500000       0.07500000       0.02500000 </v>
   <v>       0.32500000       0.07500000       0.02500000 </v>
   <v>       0.37500000       0.07500000       0.02500000 </v>
   <v>       0.42500000       0.07500000       0.02500000 </v>
   <v>       0.47500000       0.07500000       0.02500000 </v>
   <v>      -0.47500000       0.07500000       0.02500000 </v>
   <v>      -0.42500000       0.07500000       0.02500000 </v>
   <v>      -0.37500000       0.07500000       0.02500000 </v>
   <v>      -0.32500000       0.07500000       0.02500000 </v>
   <v>      -0.27500000       0.07500000       0.02500000 </v>
   <v>      -0.22500000       0.07500000       0.02500000 </v>
   <v>      -0.17500000       0.07500000       0.02500000 </v>
   <v>      -0.12500000       0.07500000       0.02500000 </v>
   <v>      -0.07500000       0.07500000       0.02500000 </v>
   <v>      -0.02500000       0.07500000       0.02500000 </v>
   <v>       0.12500000       0.12500000       0.02500000 </v>
   <v>       0.17500000       0.12500000       0.02500000 </v>
   <v>       0.22500000       0.12500000       0.02500000 </v>
   <v>       0.27500000       0.12500000       0.02500000 </v>
   <v>       0.32500000       0.12500000       0.02500000 </v>
   <v>       0.37500000       0.12500000       0.02500000 </v>
   <v>       0.42500000       0.12500000       0.02500000 </v>
   <v>       0.47500000       0.12500000       0.02500000 </v>
   <v>      -0.47500000       0.12500000       0.02500000 </v>
   <v>      -0.42500000       0.12500000       0.02500000 </v>
   <v>      -0.37500000       0.12500000       0.02500000 </v>
   <v>      -0.32500000       0.12500000       0.02500000 </v>
   <v>      -0.27500000       0.12500000       0.02500000 </v>
   <v>      -0.22500000       0.12500000       0.02500000 </v>
   <v>      -0.17500000       0.12500000       0.02500000 </v>
   <v>      -0.12500000       0.12500000       0.02500000 </v>
   <v>      -0.07500000       0.12500000       0.02500000 </v>
   <v>      -0.02500000       0.12500000       0.02500000 </v>
   <v>       0.17500000       0.17500000       0.02500000 </v>
   <v>       0.22500000       0.17500000       0.02500000 </v>
   <v>       0.27500000       0.17500000       0.02500000 </v>
   <v>       0.32500000       0.17500000       0.02500000 </v>
   <v>       0.37500000       0.17500000       0.02500000 </v>
   <v>       0.42500000       0.17500000       0.02500000 </v>
   <v>       0.47500000       0.17500000       0.02500000 </v>
   <v>      -0.47500000       0.17500000       0.02500000 </v>
   <v>      -0.42500000       0.17500000       0.02500000 </v>
   <v>      -0.37500000       0.17500000       0.02500000 </v>
   <v>      -0.32500000       0.17500000       0.02500000 </v>
   <v>      -0.27500000       0.17500000       0.02500000 </v>
   <v>      -0.22500000       0.17500000       0.02500000 </v>
   <v>      -0.17500000       0.17500000       0.02500000 </v>
   <v>      -0.12500000       0.17500000       0.02500000 </v>
   <v>      -0.07500000       0.17500000       0.02500000 </v>
   <v>      -0.02500000       0.17500000       0.02500000 </v>
   <v>       0.22500000       0.22500000       0.02500000 </v>
   <v>       0.27500000       0.22500000       0.02500000 </v>
   <v>       0.32500000       0.22500000       0.02500000 </v>
   <v>       0.37500000       0.22500000       0.02500000 </v>
   <v>       0.42500000       0.22500000       0.02500000 </v>
   <v>       0.47500000       0.22500000       0.02500000 </v>
   <v>      -0.47500000       0.22500000       0.02500000 </v>
   <v>      -0.42500000       0.22500000       0.02500000 </v>
   <v>      -0.37500000       0.22500000       0.02500000 </v>
   <v>      -0.32500000       0.22500000       0.02500000 </v>
   <v>      -0.27500000       0.22500000       0.02500000 </v>
   <v>      -0.22500000       0.22500000       0.02500000 </v>
   <v>      -0.17500000       0.22500000       0.02500000 </v>
   <v>      -0.12500000       0.22500000       0.02500000 </v>
   <v>      -0.07500000       0.22500000       0.02500000 </v>
   <v>      -0.02500000       0.22500000       0.02500000 </v>
   <v>       0.27500000       0.27500000       0.02500000 </v>
   <v>       0.32500000       0.27500000       0.02500000 </v>
   <v>       0.37500000       0.27500000       0.02500000 </v>
   <v>       0.42500000       0.27500000       0.02500000 </v>
   <v>       0.47500000       0.27500000       0.02500000 </v>
   <v>      -0.47500000       0.27500000       0.02500000 </v>
   <v>      -0.42500000       0.27500000       0.02500000 </v>
   <v>      -0.37500000       0.27500000       0.02500000 </v>
   <v>      -0.32500000       0.27500000       0.02500000 </v>
   <v>      -0.27500000       0.27500000       0.02500000 </v>
   <v>      -0.22500000       0.27500000       0.02500000 </v>
   <v>      -0.17500000       0.27500000       0.02500000 </v>
   <v>      -0.12500000       0.27500000       0.02500000 </v>
   <v>      -0.07500000       0.27500000       0.02500000 </v>
   <v>      -0.02500000       0.27500000       0.02500000 </v>
   <v>       0.32500000       0.32500000       0.02500000 </v>
   <v>       0.37500000       0.32500000       0.02500000 </v>
   <v>       0.42500000       0.32500000       0.02500000 </v>
   <v>       0.47500000       0.32500000       0.02500000 </v>
   <v>      -0.47500000       0.32500000       0.02500000 </v>
   <v>      -0.42500000       0.32500000       0.02500000 </v>
   <v>      -0.37500000       0.32500000       0.02500000 </v>
   <v>      -0.32500000       0.32500000       0.02500000 </v>
   <v>      -0.27500000       0.32500000       0.02500000 </v>
   <v>      -0.22500000       0.32500000       0.02500000 </v>
   <v>      -0.17500000       0.32500000       0.02500000 </v>
   <v>      -0.12500000       0.32500000       0.02500000 </v>
   <v>      -0.07500000       0.32500000       0.02500000 </v>
   <v>      -0.02500000       0.32500000       0.02500000 </v>
   <v>       0.37500000       0.37500000       0.02500000 </v>
   <v>       0.42500000       0.37500000       0.02500000 </v>
   <v>       0.47500000       0.37500000       0.02500000 </v>
   <v>      -0.47500000       0.37500000       0.02500000 </v>
   <v>      -0.42500000       0.37500000       0.02500000 </v>
   <v>      -0.37500000       0.37500000       0.02500000 </v>
   <v>      -0.32500000       0.37500000       0.02500000 </v>
   <v>      -0.27500000       0.37500000       0.02500000 </v>
   <v>      -0.22500000       0.37500000       0.02500000 </v>
   <v>      -0.17500000       0.37500000       0.02500000 </v>
   <v>      -0.12500000       0.37500000       0.02500000 </v>
   <v>      -0.07500000       0.37500000       0.02500000 </v>
   <v>      -0.02500000       0.37500000       0.02500000 </v>
   <v>       0.42500000       0.42500000       0.02500000 </v>
   <v>       0.47500000       0.42500000       0.02500000 </v>
   <v>      -0.47500000       0.42500000       0.02500000 </v>
   <v>      -0.42500000       0.42500000       0.02500000 </v>
   <v>      -0.37500000       0.42500000       0.02500000 </v>
   <v>      -0.32500000       0.42500000       0.02500000 </v>
   <v>      -0.27500000       0.42500000       0.02500000 </v>
   <v>      -0.22500000       0.42500000       0.02500000 </v>
   <v>      -0.17500000       0.42500000       0.02500000 </v>
   <v>      -0.12500000       0.42500000       0.02500000 </v>
   <v>      -0.07500000       0.42500000       0.02500000 </v>
   <v>      -0.02500000       0.42500000       0.02500000 </v>
   <v>       0.47500000       0.47500000       0.02500000 </v>
   <v>      -0.47500000       0.47500000       0.02500000 </v>
   <v>      -0.42500000       0.47500000       0.02500000 </v>
   <v>      -0.37500000       0.47500000       0.02500000 </v>
   <v>      -0.32500000       0.47500000       0.02500000 </v>
   <v>      -0.27500000       0.47500000       0.02500000 </v>
   <v>      -0.22500000       0.47500000       0.02500000 </v>
   <v>      -0.17500000       0.47500000       0.02500000 </v>
   <v>      -0.12500000       0.47500000       0.02500000 </v>
   <v>      -0.07500000       0.47500000       0.02500000 </v>
   <v>      -0.02500000       0.47500000       0.02500000 </v>
   <v>      -0.47500000      -0.47500000       0.02500000 </v>
   <v>      -0.42500000      -0.47500000       0.02500000 </v>
   <v>      -0.37500000      -0.47500000       0.02500000 </v>
   <v>      -0.32500000      -0.47500000       0.02500000 </v>
   <v>      -0.27500000      -0.47500000       0.02500000 </v>
   <v>      -0.22500000      -0.47500000       0.02500000 </v>
   <v>      -0.17500000      -0.47500000       0.02500000 </v>
   <v>      -0.12500000      -0.47500000       0.02500000 </v>
   <v>      -0.07500000      -0.47500000       0.02500000 </v>
   <v>      -0.42500000      -0.42500000       0.02500000 </v>
   <v>      -0.37500000      -0.42500000       0.02500000 </v>
   <v>      -0.32500000      -0.42500000       0.02500000 </v>
   <v>      -0.27500000      -0.42500000       0.02500000 </v>
   <v>      -0.22500000      -0.42500000       0.02500000 </v>
   <v>      -0.17500000      -0.42500000       0.02500000 </v>
   <v>      -0.12500000      -0.42500000       0.02500000 </v>
   <v>      -0.07500000      -0.42500000       0.02500000 </v>
   <v>      -0.37500000      -0.37500000       0.02500000 </v>
   <v>      -0.32500000      -0.37500000       0.02500000 </v>
   <v>      -0.27500000      -0.37500000       0.02500000 </v>
   <v>      -0.22500000      -0.37500000       0.02500000 </v>
   <v>      -0.17500000      -0.37500000       0.02500000 </v>
   <v>      -0.12500000      -0.37500000       0.02500000 </v>
   <v>      -0.07500000      -0.37500000       0.02500000 </v>
   <v>      -0.32500000      -0.32500000       0.02500000 </v>
   <v>      -0.27500000      -0.32500000       0.02500000 </v>
   <v>      -0.22500000      -0.32500000       0.02500000 </v>
   <v>      -0.17500000      -0.32500000       0.02500000 </v>
   <v>      -0.12500000      -0.32500000       0.02500000 </v>
   <v>      -0.07500000      -0.32500000       0.02500000 </v>
   <v>      -0.27500000      -0.27500000       0.02500000 </v>
   <v>      -0.22500000      -0.27500000       0.02500000 </v>
   <v>      -0.17500000      -0.27500000       0.02500000 </v>
   <v>      -0.12500000      -0.27500000       0.02500000 </v>
   <v>      -0.07500000      -0.27500000       0.02500000 </v>
   <v>      -0.22500000      -0.22500000       0.02500000 </v>
   <v>      -0.17500000      -0.22500000       0.02500000 </v>
   <v>      -0.12500000      -0.22500000       0.02500000 </v>
   <v>      -0.07500000      -0.22500000       0.02500000 </v>
   <v>      -0.17500000      -0.17500000       0.02500000 </v>
   <v>      -0.12500000      -0.17500000       0.02500000 </v>
   <v>      -0.07500000      -0.17500000       0.02500000 </v>
   <v>      -0.12500000      -0.12500000       0.02500000 </v>
   <v>      -0.07500000      -0.12500000       0.02500000 </v>
   <v>      -0.07500000      -0.07500000       0.02500000 </v>
   <v>       0.07500000       0.07500000       0.07500000 </v>
   <v>       0.12500000       0.07500000       0.07500000 </v>
   <v>       0.17500000       0.07500000       0.07500000 </v>
   <v>       0.22500000       0.07500000       0.07500000 </v>
   <v>       0.27500000       0.07500000       0.07500000 </v>
   <v>       0.32500000       0.07500000       0.07500000 </v>
   <v>       0.37500000       0.07500000       0.07500000 </v>
   <v>       0.42500000       0.07500000       0.07500000 </v>
   <v>       0.47500000       0.07500000       0.07500000 </v>
   <v>      -0.47500000       0.07500000       0.07500000 </v>
   <v>      -0.42500000       0.07500000       0.07500000 </v>
   <v>      -0.37500000       0.07500000       0.07500000 </v>
   <v>      -0.32500000       0.07500000       0.07500000 </v>
   <v>      -0.27500000       0.07500000       0.07500000 </v>
   <v>      -0.22500000       0.07500000       0.07500000 </v>
   <v>      -0.17500000       0.07500000       0.07500000 </v>
   <v>      -0.12500000       0.07500000       0.07500000 </v>
   <v>      -0.07500000       0.07500000       0.07500000 </v>
   <v>       0.12500000       0.12500000       0.07500000 </v>
   <v>       0.17500000       0.12500000       0.07500000 </v>
   <v>       0.22500000       0.12500000       0.07500000 </v>
   <v>       0.27500000       0.12500000       0.07500000 </v>
   <v>       0.32500000       0.12500000       0.07500000 </v>
   <v>       0.37500000       0.12500000       0.07500000 </v>
   <v>       0.42500000       0.12500000       0.07500000 </v>
   <v>       0.47500000       0.12500000       0.07500000 </v>
   <v>      -0.47500000       0.12500000       0.07500000 </v>
   <v>      -0.42500000       0.12500000       0.07500000 </v>
   <v>      -0.37500000       0.12500000       0.07500000 </v>
   <v>      -0.32500000       0.12500000       0.07500000 </v>
   <v>      -0.27500000       0.12500000       0.07500000 </v>
   <v>      -0.22500000       0.12500000       0.07500000 </v>
   <v>      -0.17500000       0.12500000       0.07500000 </v>
   <v>      -0.12500000       0.12500000       0.07500000 </v>
   <v>      -0.07500000       0.12500000       0.07500000 </v>
   <v>       0.17500000       0.17500000       0.07500000 </v>
   <v>       0.22500000       0.17500000       0.07500000 </v>
   <v>       0.27500000       0.17500000       0.07500000 </v>
   <v>       0.32500000       0.17500000       0.07500000 </v>
   <v>       0.37500000       0.17500000       0.07500000 </v>
   <v>       0.42500000       0.17500000       0.07500000 </v>
   <v>       0.47500000       0.17500000       0.07500000 </v>
   <v>      -0.47500000       0.17500000       0.07500000 </v>
   <v>      -0.42500000       0.17500000       0.07500000 </v>
   <v>      -0.37500000       0.17500000       0.07500000 </v>
   <v>      -0.32500000       0.17500000       0.07500000 </v>
   <v>      -0.27500000       0.17500000       0.07500000 </v>
   <v>      -0.22500000       0.17500000       0.07500000 </v>
   <v>      -0.17500000       0.17500000       0.07500000 </v>
   <v>      -0.12500000       0.17500000       0.07500000 </v>
   <v>      -0.07500000       0.17500000       0.07500000 </v>
   <v>       0.22500000       0.22500000       0.07500000 </v>
   <v>       0.27500000       0.22500000       0.07500000 </v>
   <v>       0.32500000       0.22500000       0.07500000 </v>
   <v>       0.37500000       0.22500000       0.07500000 </v>
   <v>       0.42500000       0.22500000       0.07500000 </v>
   <v>       0.47500000       0.22500000       0.07500000 </v>
   <v>      -0.47500000       0.22500000       0.07500000 </v>
   <v>      -0.42500000       0.22500000       0.07500000 </v>
   <v>      -0.37500000       0.22500000       0.07500000 </v>
   <v>      -0.32500000       0.22500000       0.07500000 </v>
   <v>      -0.27500000       0.22500000       0.07500000 </v>
   <v>      -0.22500000       0.22500000       0.07500000 </v>
   <v>      -0.17500000       0.22500000       0.07500000 </v>
   <v>      -0.12500000       0.22500000       0.07500000 </v>
   <v>      -0.07500000       0.22500000       0.07500000 </v>
   <v>       0.27500000       0.27500000       0.07500000 </v>
   <v>       0.32500000       0.27500000       0.07500000 </v>
   <v>       0.37500000       0.27500000       0.07500000 </v>
   <v>       0.42500000       0.27500000       0.07500000 </v>
   <v>       0.47500000       0.27500000       0.07500000 </v>
   <v>      -0.47500000       0.27500000       0.07500000 </v>
   <v>      -0.42500000       0.27500000       0.07500000 </v>
   <v>      -0.37500000       0.27500000       0.07500000 </v>
   <v>      -0.32500000       0.27500000       0.07500000 </v>
   <v>      -0.27500000       0.27500000       0.07500000 </v>
   <v>      -0.22500000       0.27500000       0.07500000 </v>
   <v>      -0.17500000       0.27500000       0.07500000 </v>
   <v>      -0.12500000       0.27500000       0.07500000 </v>
   <v>      -0.07500000       0.27500000       0.07500000 </v>
   <v>       0.32500000       0.32500000       0.07500000 </v>
   <v>       0.37500000       0.32500000       0.07500000 </v>
   <v>       0.42500000       0.32500000       0.07500000 </v>
   <v>       0.47500000       0.32500000       0.07500000 </v>
   <v>      -0.47500000       0.32500000       0.07500000 </v>
   <v>      -0.42500000       0.32500000       0.07500000 </v>
   <v>      -0.37500000       0.32500000       0.07500000 </v>
   <v>      -0.32500000       0.32500000       0.07500000 </v>
   <v>      -0.27500000       0.32500000       0.07500000 </v>
   <v>      -0.22500000       0.32500000       0.07500000 </v>
   <v>      -0.17500000       0.32500000       0.07500000 </v>
   <v>      -0.12500000       0.32500000       0.07500000 </v>
   <v>      -0.07500000       0.32500000       0.07500000 </v>
   <v>       0.37500000       0.37500000       0.07500000 </v>
   <v>       0.42500000       0.37500000       0.07500000 </v>
   <v>       0.47500000       0.37500000       0.07500000 </v>
   <v>      -0.47500000       0.37500000       0.07500000 </v>
   <v>      -0.42500000       0.37500000       0.07500000 </v>
   <v>      -0.37500000       0.37500000       0.07500000 </v>
   <v>      -0.32500000       0.37500000       0.07500000 </v>
   <v>      -0.27500000       0.37500000       0.07500000 </v>
   <v>      -0.22500000       0.37500000       0.07500000 </v>
   <v>      -0.17500000       0.37500000       0.07500000 </v>
   <v>      -0.12500000       0.37500000       0.07500000 </v>
   <v>      -0.07500000       0.37500000       0.07500000 </v>
   <v>       0.42500000       0.42500000       0.07500000 </v>
   <v>       0.47500000       0.42500000       0.07500000 </v>
   <v>      -0.47500000       0.42500000       0.07500000 </v>
   <v>      -0.42500000       0.42500000       0.07500000 </v>
   <v>      -0.37500000       0.42500000       0.07500000 </v>
   <v>      -0.32500000       0.42500000       0.07500000 </v>
   <v>      -0.27500000       0.42500000       0.07500000 </v>
   <v>      -0.22500000       0.42500000       0.07500000 </v>
   <v>      -0.17500000       0.42500000       0.07500000 </v>
   <v>      -0.12500000       0.42500000       0.07500000 </v>
   <v>      -0.07500000       0.42500000       0.07500000 </v>
   <v>       0.47500000       0.47500000       0.07500000 </v>
   <v>      -0.47500000       0.47500000       0.07500000 </v>
   <v>      -0.42500000       0.47500000       0.07500000 </v>
   <v>      -0.37500000       0.47500000       0.07500000 </v>
   <v>      -0.32500000       0.47500000       0.07500000 </v>
   <v>      -0.27500000       0.47500000       0.07500000 </v>
   <v>      -0.22500000       0.47500000       0.07500000 </v>
   <v>      -0.17500000       0.47500000       0.07500000 </v>
   <v>      -0.12500000       0.47500000       0.07500000 </v>
   <v>      -0.07500000       0.47500000       0.07500000 </v>
   <v>      -0.47500000      -0.47500000       0.07500000 </v>
   <v>      -0.42500000      -0.47500000       0.07500000 </v>
   <v>      -0.37500000      -0.47500000       0.07500000 </v>
   <v>      -0.32500000      -0.47500000       0.07500000 </v>
   <v>      -0.27500000      -0.47500000       0.07500000 </v>
   <v>      -0.22500000      -0.47500000       0.07500000 </v>
   <v>      -0.17500000      -0.47500000       0.07500000 </v>
   <v>      -0.12500000      -0.47500000       0.07500000 </v>
   <v>      -0.42500000      -0.42500000       0.07500000 </v>
   <v>      -0.37500000      -0.42500000       0.07500000 </v>
   <v>      -0.32500000      -0.42500000       0.07500000 </v>
   <v>      -0.27500000      -0.42500000       0.07500000 </v>
   <v>      -0.22500000      -0.42500000       0.07500000 </v>
   <v>      -0.17500000      -0.42500000       0.07500000 </v>
   <v>      -0.12500000      -0.42500000       0.07500000 </v>
   <v>      -0.37500000      -0.37500000       0.07500000 </v>
   <v>      -0.32500000      -0.37500000       0.07500000 </v>
   <v>      -0.27500000      -0.37500000       0.07500000 </v>
   <v>      -0.22500000      -0.37500000       0.07500000 </v>
   <v>      -0.17500000      -0.37500000       0.07500000 </v>
   <v>      -0.12500000      -0.37500000       0.07500000 </v>
   <v>      -0.32500000      -0.32500000       0.07500000 </v>
   <v>      -0.27500000      -0.32500000       0.07500000 </v>
   <v>      -0.22500000      -0.32500000       0.07500000 </v>
   <v>      -0.17500000      -0.32500000       0.07500000 </v>
   <v>      -0.12500000      -0.32500000       0.07500000 </v>
   <v>      -0.27500000      -0.27500000       0.07500000 </v>
   <v>      -0.22500000      -0.27500000       0.07500000 </v>
   <v>      -0.17500000      -0.27500000       0.07500000 </v>
   <v>      -0.12500000      -0.27500000       0.07500000 </v>
   <v>      -0.22500000      -0.22500000       0.07500000 </v>
   <v>      -0.17500000      -0.22500000       0.07500000 </v>
   <v>      -0.12500000      -0.22500000       0.07500000 </v>
   <v>      -0.17500000      -0.17500000       0.07500000 </v>
   <v>      -0.12500000      -0.17500000       0.07500000 </v>
   <v>      -0.12500000      -0.12500000       0.07500000 </v>
   <v>       0.12500000       0.12500000       0.12500000 </v>
   <v>       0.17500000       0.12500000       0.12500000 </v>
   <v>       0.22500000       0.12500000       0.12500000 </v>
   <v>       0.27500000       0.12500000       0.12500000 </v>
   <v>       0.32500000       0.12500000       0.12500000 </v>
   <v>       0.37500000       0.12500000       0.12500000 </v>
   <v>       0.42500000       0.12500000       0.12500000 </v>
   <v>       0.47500000       0.12500000       0.12500000 </v>
   <v>      -0.47500000       0.12500000       0.12500000 </v>
   <v>      -0.42500000       0.12500000       0.12500000 </v>
   <v>      -0.37500000       0.12500000       0.12500000 </v>
   <v>      -0.32500000       0.12500000       0.12500000 </v>
   <v>      -0.27500000       0.12500000       0.12500000 </v>
   <v>      -0.22500000       0.12500000       0.12500000 </v>
   <v>      -0.17500000       0.12500000       0.12500000 </v>
   <v>      -0.12500000       0.12500000       0.12500000 </v>
   <v>       0.17500000       0.17500000       0.12500000 </v>
   <v>       0.22500000       0.17500000       0.12500000 </v>
   <v>       0.27500000       0.17500000       0.12500000 </v>
   <v>       0.32500000       0.17500000       0.12500000 </v>
   <v>       0.37500000       0.17500000       0.12500000 </v>
   <v>       0.42500000       0.17500000       0.12500000 </v>
   <v>       0.47500000       0.17500000       0.12500000 </v>
   <v>      -0.47500000       0.17500000       0.12500000 </v>
   <v>      -0.42500000       0.17500000       0.12500000 </v>
   <v>      -0.37500000       0.17500000       0.12500000 </v>
   <v>      -0.32500000       0.17500000       0.12500000 </v>
   <v>      -0.27500000       0.17500000       0.12500000 </v>
   <v>      -0.22500000       0.17500000       0.12500000 </v>
   <v>      -0.17500000       0.17500000       0.12500000 </v>
   <v>      -0.12500000       0.17500000       0.12500000 </v>
   <v>       0.22500000       0.22500000       0.12500000 </v>
   <v>       0.27500000       0.22500000       0.12500000 </v>
   <v>       0.32500000       0.22500000       0.12500000 </v>
   <v>       0.37500000       0.22500000       0.12500000 </v>
   <v>       0.42500000       0.22500000       0.12500000 </v>
   <v>       0.47500000       0.22500000       0.12500000 </v>
   <v>      -0.47500000       0.22500000       0.12500000 </v>
   <v>      -0.42500000       0.22500000       0.12500000 </v>
   <v>      -0.37500000       0.22500000       0.12500000 </v>
   <v>      -0.32500000       0.22500000       0.12500000 </v>
   <v>      -0.27500000       0.22500000       0.12500000 </v>
   <v>      -0.22500000       0.22500000       0.12500000 </v>
   <v>      -0.17500000       0.22500000       0.12500000 </v>
   <v>      -0.12500000       0.22500000       0.12500000 </v>
   <v>       0.27500000       0.27500000       0.12500000 </v>
   <v>       0.32500000       0.27500000       0.12500000 </v>
   <v>       0.37500000       0.27500000       0.12500000 </v>
   <v>       0.42500000       0.27500000       0.12500000 </v>
   <v>       0.47500000       0.27500000       0.12500000 </v>
   <v>      -0.47500000       0.27500000       0.12500000 </v>
   <v>      -0.42500000       0.27500000       0.12500000 </v>
   <v>      -0.37500000       0.27500000       0.12500000 </v>
   <v>      -0.32500000       0.27500000       0.12500000 </v>
   <v>      -0.27500000       0.27500000       0.12500000 </v>
   <v>      -0.22500000       0.27500000       0.12500000 </v>
   <v>      -0.17500000       0.27500000       0.12500000 </v>
   <v>      -0.12500000       0.27500000       0.12500000 </v>
   <v>       0.32500000       0.32500000       0.12500000 </v>
   <v>       0.37500000       0.32500000       0.12500000 </v>
   <v>       0.42500000       0.32500000       0.12500000 </v>
   <v>       0.47500000       0.32500000       0.12500000 </v>
   <v>      -0.47500000       0.32500000       0.12500000 </v>
   <v>      -0.42500000       0.32500000       0.12500000 </v>
   <v>      -0.37500000       0.32500000       0.12500000 </v>
   <v>      -0.32500000       0.32500000       0.12500000 </v>
   <v>      -0.27500000       0.32500000       0.12500000 </v>
   <v>      -0.22500000       0.32500000       0.12500000 </v>
   <v>      -0.17500000       0.32500000       0.12500000 </v>
   <v>      -0.12500000       0.32500000       0.12500000 </v>
   <v>       0.37500000       0.37500000       0.12500000 </v>
   <v>       0.42500000       0.37500000       0.12500000 </v>
   <v>       0.47500000       0.37500000       0.12500000 </v>
   <v>      -0.47500000       0.37500000       0.12500000 </v>
   <v>      -0.42500000       0.37500000       0.12500000 </v>
   <v>      -0.37500000       0.37500000       0.12500000 </v>
   <v>      -0.32500000       0.37500000       0.12500000 </v>
   <v>      -0.27500000       0.37500000       0.12500000 </v>
   <v>      -0.22500000       0.37500000       0.12500000 </v>
   <v>      -0.17500000       0.37500000       0.12500000 </v>
   <v>      -0.12500000       0.37500000       0.12500000 </v>
   <v>       0.42500000       0.42500000       0.12500000 </v>
   <v>       0.47500000       0.42500000       0.12500000 </v>
   <v>      -0.47500000       0.42500000       0.12500000 </v>
   <v>      -0.42500000       0.42500000       0.12500000 </v>
   <v>      -0.37500000       0.42500000       0.12500000 </v>
   <v>      -0.32500000       0.42500000       0.12500000 </v>
   <v>      -0.27500000       0.42500000       0.12500000 </v>
   <v>      -0.22500000       0.42500000       0.12500000 </v>
   <v>      -0.17500000       0.42500000       0.12500000 </v>
   <v>      -0.12500000       0.42500000       0.12500000 </v>
   <v>       0.47500000       0.47500000       0.12500000 </v>
   <v>      -0.47500000       0.47500000       0.12500000 </v>
   <v>      -0.42500000       0.47500000       0.12500000 </v>
   <v>      -0.37500000       0.47500000       0.12500000 </v>
   <v>      -0.32500000       0.47500000       0.12500000 </v>
   <v>      -0.27500000       0.47500000       0.12500000 </v>
   <v>      -0.22500000       0.47500000       0.12500000 </v>
   <v>      -0.17500000       0.47500000       0.12500000 </v>
   <v>      -0.12500000       0.47500000       0.12500000 </v>
   <v>      -0.47500000      -0.47500000       0.12500000 </v>
   <v>      -0.42500000      -0.47500000       0.12500000 </v>
   <v>      -0.37500000      -0.47500000       0.12500000 </v>
   <v>      -0.32500000      -0.47500000       0.12500000 </v>
   <v>      -0.27500000      -0.47500000       0.12500000 </v>
   <v>      -0.22500000      -0.47500000       0.12500000 </v>
   <v>      -0.17500000      -0.47500000       0.12500000 </v>
   <v>      -0.42500000      -0.42500000       0.12500000 </v>
   <v>      -0.37500000      -0.42500000       0.12500000 </v>
   <v>      -0.32500000      -0.42500000       0.12500000 </v>
   <v>      -0.27500000      -0.42500000       0.12500000 </v>
   <v>      -0.22500000      -0.42500000       0.12500000 </v>
   <v>      -0.17500000      -0.42500000       0.12500000 </v>
   <v>      -0.37500000      -0.37500000       0.12500000 </v>
   <v>      -0.32500000      -0.37500000       0.12500000 </v>
   <v>      -0.27500000      -0.37500000       0.12500000 </v>
   <v>      -0.22500000      -0.37500000       0.12500000 </v>
   <v>      -0.17500000      -0.37500000       0.12500000 </v>
   <v>      -0.32500000      -0.32500000       0.12500000 </v>
   <v>      -0.27500000      -0.32500000       0.12500000 </v>
   <v>      -0.22500000      -0.32500000       0.12500000 </v>
   <v>      -0.17500000      -0.32500000       0.12500000 </v>
   <v>      -0.27500000      -0.27500000       0.12500000 </v>
   <v>      -0.22500000      -0.27500000       0.12500000 </v>
   <v>      -0.17500000      -0.27500000       0.12500000 </v>
   <v>      -0.22500000      -0.22500000       0.12500000 </v>
   <v>      -0.17500000      -0.22500000       0.12500000 </v>
   <v>      -0.17500000      -0.17500000       0.12500000 </v>
   <v>       0.17500000       0.17500000       0.17500000 </v>
   <v>       0.22500000       0.17500000       0.17500000 </v>
   <v>       0.27500000       0.17500000       0.17500000 </v>
   <v>       0.32500000       0.17500000       0.17500000 </v>
   <v>       0.37500000       0.17500000       0.17500000 </v>
   <v>       0.42500000       0.17500000       0.17500000 </v>
   <v>       0.47500000       0.17500000       0.17500000 </v>
   <v>      -0.47500000       0.17500000       0.17500000 </v>
   <v>      -0.42500000       0.17500000       0.17500000 </v>
   <v>      -0.37500000       0.17500000       0.17500000 </v>
   <v>      -0.32500000       0.17500000       0.17500000 </v>
   <v>      -0.27500000       0.17500000       0.17500000 </v>
   <v>      -0.22500000       0.17500000       0.17500000 </v>
   <v>      -0.17500000       0.17500000       0.17500000 </v>
   <v>       0.22500000       0.22500000       0.17500000 </v>
   <v>       0.27500000       0.22500000       0.17500000 </v>
   <v>       0.32500000       0.22500000       0.17500000 </v>
   <v>       0.37500000       0.22500000       0.17500000 </v>
   <v>       0.42500000       0.22500000       0.17500000 </v>
   <v>       0.47500000       0.22500000       0.17500000 </v>
   <v>      -0.47500000       0.22500000       0.17500000 </v>
   <v>      -0.42500000       0.22500000       0.17500000 </v>
   <v>      -0.37500000       0.22500000       0.17500000 </v>
   <v>      -0.32500000       0.22500000       0.17500000 </v>
   <v>      -0.27500000       0.22500000       0.17500000 </v>
   <v>      -0.22500000       0.22500000       0.17500000 </v>
   <v>      -0.17500000       0.22500000       0.17500000 </v>
   <v>       0.27500000       0.27500000       0.17500000 </v>
   <v>       0.32500000       0.27500000       0.17500000 </v>
   <v>       0.37500000       0.27500000       0.17500000 </v>
   <v>       0.42500000       0.27500000       0.17500000 </v>
   <v>       0.47500000       0.27500000       0.17500000 </v>
   <v>      -0.47500000       0.27500000       0.17500000 </v>
   <v>      -0.42500000       0.27500000       0.17500000 </v>
   <v>      -0.37500000       0.27500000       0.17500000 </v>
   <v>      -0.32500000       0.27500000       0.17500000 </v>
   <v>      -0.27500000       0.27500000       0.17500000 </v>
   <v>      -0.22500000       0.27500000       0.17500000 </v>
   <v>      -0.17500000       0.27500000       0.17500000 </v>
   <v>       0.32500000       0.32500000       0.17500000 </v>
   <v>       0.37500000       0.32500000       0.17500000 </v>
   <v>       0.42500000       0.32500000       0.17500000 </v>
   <v>       0.47500000       0.32500000       0.17500000 </v>
   <v>      -0.47500000       0.32500000       0.17500000 </v>
   <v>      -0.42500000       0.32500000       0.17500000 </v>
   <v>      -0.37500000       0.32500000       0.17500000 </v>
   <v>      -0.32500000       0.32500000       0.17500000 </v>
   <v>      -0.27500000       0.32500000       0.17500000 </v>
   <v>      -0.22500000       0.32500000       0.17500000 </v>
   <v>      -0.17500000       0.32500000       0.17500000 </v>
   <v>       0.37500000       0.37500000       0.17500000 </v>
   <v>       0.42500000       0.37500000       0.17500000 </v>
   <v>       0.47500000       0.37500000       0.17500000 </v>
   <v>      -0.47500000       0.37500000       0.17500000 </v>
   <v>      -0.42500000       0.37500000       0.17500000 </v>
   <v>      -0.37500000       0.37500000       0.17500000 </v>
   <v>      -0.32500000       0.37500000       0.17500000 </v>
   <v>      -0.27500000       0.37500000       0.17500000 </v>
   <v>      -0.22500000       0.37500000       0.17500000 </v>
   <v>      -0.17500000       0.37500000       0.17500000 </v>
   <v>       0.42500000       0.42500000       0.17500000 </v>
   <v>       0.47500000       0.42500000       0.17500000 </v>
   <v>      -0.47500000       0.42500000       0.17500000 </v>
   <v>      -0.42500000       0.42500000       0.17500000 </v>
   <v>      -0.37500000       0.42500000       0.17500000 </v>
   <v>      -0.32500000       0.42500000       0.17500000 </v>
   <v>      -0.27500000       0.42500000       0.17500000 </v>
   <v>      -0.22500000       0.42500000       0.17500000 </v>
   <v>      -0.17500000       0.42500000       0.17500000 </v>
   <v>       0.47500000       0.47500000       0.17500000 </v>
   <v>      -0.47500000       0.47500000       0.17500000 </v>
   <v>      -0.42500000       0.47500000       0.17500000 </v>
   <v>      -0.37500000       0.47500000       0.17500000 </v>
   <v>      -0.32500000       0.47500000       0.17500000 </v>
   <v>      -0.27500000       0.47500000       0.17500000 </v>
   <v>      -0.22500000       0.47500000       0.17500000 </v>
   <v>      -0.17500000       0.47500000       0.17500000 </v>
   <v>      -0.47500000      -0.47500000       0.17500000 </v>
   <v>      -0.42500000      -0.47500000       0.17500000 </v>
   <v>      -0.37500000      -0.47500000       0.17500000 </v>
   <v>      -0.32500000      -0.47500000       0.17500000 </v>
   <v>      -0.27500000      -0.47500000       0.17500000 </v>
   <v>      -0.22500000      -0.47500000       0.17500000 </v>
   <v>      -0.42500000      -0.42500000       0.17500000 </v>
   <v>      -0.37500000      -0.42500000       0.17500000 </v>
   <v>      -0.32500000      -0.42500000       0.17500000 </v>
   <v>      -0.27500000      -0.42500000       0.17500000 </v>
   <v>      -0.22500000      -0.42500000       0.17500000 </v>
   <v>      -0.37500000      -0.37500000       0.17500000 </v>
   <v>      -0.32500000      -0.37500000       0.17500000 </v>
   <v>      -0.27500000      -0.37500000       0.17500000 </v>
   <v>      -0.22500000      -0.37500000       0.17500000 </v>
   <v>      -0.32500000      -0.32500000       0.17500000 </v>
   <v>      -0.27500000      -0.32500000       0.17500000 </v>
   <v>      -0.22500000      -0.32500000       0.17500000 </v>
   <v>      -0.27500000      -0.27500000       0.17500000 </v>
   <v>      -0.22500000      -0.27500000       0.17500000 </v>
   <v>      -0.22500000      -0.22500000       0.17500000 </v>
   <v>       0.22500000       0.22500000       0.22500000 </v>
   <v>       0.27500000       0.22500000       0.22500000 </v>
   <v>       0.32500000       0.22500000       0.22500000 </v>
   <v>       0.37500000       0.22500000       0.22500000 </v>
   <v>       0.42500000       0.22500000       0.22500000 </v>
   <v>       0.47500000       0.22500000       0.22500000 </v>
   <v>      -0.47500000       0.22500000       0.22500000 </v>
   <v>      -0.42500000       0.22500000       0.22500000 </v>
   <v>      -0.37500000       0.22500000       0.22500000 </v>
   <v>      -0.32500000       0.22500000       0.22500000 </v>
   <v>      -0.27500000       0.22500000       0.22500000 </v>
   <v>      -0.22500000       0.22500000       0.22500000 </v>
   <v>       0.27500000       0.27500000       0.22500000 </v>
   <v>       0.32500000       0.27500000       0.22500000 </v>
   <v>       0.37500000       0.27500000       0.22500000 </v>
   <v>       0.42500000       0.27500000       0.22500000 </v>
   <v>       0.47500000       0.27500000       0.22500000 </v>
   <v>      -0.47500000       0.27500000       0.22500000 </v>
   <v>      -0.42500000       0.27500000       0.22500000 </v>
   <v>      -0.37500000       0.27500000       0.22500000 </v>
   <v>      -0.32500000       0.27500000       0.22500000 </v>
   <v>      -0.27500000       0.27500000       0.22500000 </v>
   <v>      -0.22500000       0.27500000       0.22500000 </v>
   <v>       0.32500000       0.32500000       0.22500000 </v>
   <v>       0.37500000       0.32500000       0.22500000 </v>
   <v>       0.42500000       0.32500000       0.22500000 </v>
   <v>       0.47500000       0.32500000       0.22500000 </v>
   <v>      -0.47500000       0.32500000       0.22500000 </v>
   <v>      -0.42500000       0.32500000       0.22500000 </v>
   <v>      -0.37500000       0.32500000       0.22500000 </v>
   <v>      -0.32500000       0.32500000       0.22500000 </v>
   <v>      -0.27500000       0.32500000       0.22500000 </v>
   <v>      -0.22500000       0.32500000       0.22500000 </v>
   <v>       0.37500000       0.37500000       0.22500000 </v>
   <v>       0.42500000       0.37500000       0.22500000 </v>
   <v>       0.47500000       0.37500000       0.22500000 </v>
   <v>      -0.47500000       0.37500000       0.22500000 </v>
   <v>      -0.42500000       0.37500000       0.22500000 </v>
   <v>      -0.37500000       0.37500000       0.22500000 </v>
   <v>      -0.32500000       0.37500000       0.22500000 </v>
   <v>      -0.27500000       0.37500000       0.22500000 </v>
   <v>      -0.22500000       0.37500000       0.22500000 </v>
   <v>       0.42500000       0.42500000       0.22500000 </v>
   <v>       0.47500000       0.42500000       0.22500000 </v>
   <v>      -0.47500000       0.42500000       0.22500000 </v>
   <v>      -0.42500000       0.42500000       0.22500000 </v>
   <v>      -0.37500000       0.42500000       0.22500000 </v>
   <v>      -0.32500000       0.42500000       0.22500000 </v>
   <v>      -0.27500000       0.42500000       0.22500000 </v>
   <v>      -0.22500000       0.42500000       0.22500000 </v>
   <v>       0.47500000       0.47500000       0.22500000 </v>
   <v>      -0.47500000       0.47500000       0.22500000 </v>
   <v>      -0.42500000       0.47500000       0.22500000 </v>
   <v>      -0.37500000       0.47500000       0.22500000 </v>
   <v>      -0.32500000       0.47500000       0.22500000 </v>
   <v>      -0.27500000       0.47500000       0.22500000 </v>
   <v>      -0.22500000       0.47500000       0.22500000 </v>
   <v>      -0.47500000      -0.47500000       0.22500000 </v>
   <v>      -0.42500000      -0.47500000       0.22500000 </v>
   <v>      -0.37500000      -0.47500000       0.22500000 </v>
   <v>      -0.32500000      -0.47500000       0.22500000 </v>
   <v>      -0.27500000      -0.47500000       0.22500000 </v>
   <v>      -0.42500000      -0.42500000       0.22500000 </v>
   <v>      -0.37500000      -0.42500000       0.22500000 </v>
   <v>      -0.32500000      -0.42500000       0.22500000 </v>
   <v>      -0.27500000      -0.42500000       0.22500000 </v>
   <v>      -0.37500000      -0.37500000       0.22500000 </v>
   <v>      -0.32500000      -0.37500000       0.22500000 </v>
   <v>      -0.27500000      -0.37500000       0.22500000 </v>
   <v>      -0.32500000      -0.32500000       0.22500000 </v>
   <v>      -0.27500000      -0.32500000       0.22500000 </v>
   <v>      -0.27500000      -0.27500000       0.22500000 </v>
   <v>       0.27500000       0.27500000       0.27500000 </v>
   <v>       0.32500000       0.27500000       0.27500000 </v>
   <v>       0.37500000       0.27500000       0.27500000 </v>
   <v>       0.42500000       0.27500000       0.27500000 </v>
   <v>       0.47500000       0.27500000       0.27500000 </v>
   <v>      -0.47500000       0.27500000       0.27500000 </v>
   <v>      -0.42500000       0.27500000       0.27500000 </v>
   <v>      -0.37500000       0.27500000       0.27500000 </v>
   <v>      -0.32500000       0.27500000       0.27500000 </v>
   <v>      -0.27500000       0.27500000       0.27500000 </v>
   <v>       0.32500000       0.32500000       0.27500000 </v>
   <v>       0.37500000       0.32500000       0.27500000 </v>
   <v>       0.42500000       0.32500000       0.27500000 </v>
   <v>       0.47500000       0.32500000       0.27500000 </v>
   <v>      -0.47500000       0.32500000       0.27500000 </v>
   <v>      -0.42500000       0.32500000       0.27500000 </v>
   <v>      -0.37500000       0.32500000       0.27500000 </v>
   <v>      -0.32500000       0.32500000       0.27500000 </v>
   <v>      -0.27500000       0.32500000       0.27500000 </v>
   <v>       0.37500000       0.37500000       0.27500000 </v>
   <v>       0.42500000       0.37500000       0.27500000 </v>
   <v>       0.47500000       0.37500000       0.27500000 </v>
   <v>      -0.47500000       0.37500000       0.27500000 </v>
   <v>      -0.42500000       0.37500000       0.27500000 </v>
   <v>      -0.37500000       0.37500000       0.27500000 </v>
   <v>      -0.32500000       0.37500000       0.27500000 </v>
   <v>      -0.27500000       0.37500000       0.27500000 </v>
   <v>       0.42500000       0.42500000       0.27500000 </v>
   <v>       0.47500000       0.42500000       0.27500000 </v>
   <v>      -0.47500000       0.42500000       0.27500000 </v>
   <v>      -0.42500000       0.42500000       0.27500000 </v>
   <v>      -0.37500000       0.42500000       0.27500000 </v>
   <v>      -0.32500000       0.42500000       0.27500000 </v>
   <v>      -0.27500000       0.42500000       0.27500000 </v>
   <v>       0.47500000       0.47500000       0.27500000 </v>
   <v>      -0.47500000       0.47500000       0.27500000 </v>
   <v>      -0.42500000       0.47500000       0.27500000 </v>
   <v>      -0.37500000       0.47500000       0.27500000 </v>
   <v>      -0.32500000       0.47500000       0.27500000 </v>
   <v>      -0.27500000       0.47500000       0.27500000 </v>
   <v>      -0.47500000      -0.47500000       0.27500000 </v>
   <v>      -0.42500000      -0.47500000       0.27500000 </v>
   <v>      -0.37500000      -0.47500000       0.27500000 </v>
   <v>      -0.32500000      -0.47500000       0.27500000 </v>
   <v>      -0.42500000      -0.42500000       0.27500000 </v>
   <v>      -0.37500000      -0.42500000       0.27500000 </v>
   <v>      -0.32500000      -0.42500000       0.27500000 </v>
   <v>      -0.37500000      -0.37500000       0.27500000 </v>
   <v>      -0.32500000      -0.37500000       0.27500000 </v>
   <v>      -0.32500000      -0.32500000       0.27500000 </v>
   <v>       0.32500000       0.32500000       0.32500000 </v>
   <v>       0.37500000       0.32500000       0.32500000 </v>
   <v>       0.42500000       0.32500000       0.32500000 </v>
   <v>       0.47500000       0.32500000       0.32500000 </v>
   <v>      -0.47500000       0.32500000       0.32500000 </v>
   <v>      -0.42500000       0.32500000       0.32500000 </v>
   <v>      -0.37500000       0.32500000       0.32500000 </v>
   <v>      -0.32500000       0.32500000       0.32500000 </v>
   <v>       0.37500000       0.37500000       0.32500000 </v>
   <v>       0.42500000       0.37500000       0.32500000 </v>
   <v>       0.47500000       0.37500000       0.32500000 </v>
   <v>      -0.47500000       0.37500000       0.32500000 </v>
   <v>      -0.42500000       0.37500000       0.32500000 </v>
   <v>      -0.37500000       0.37500000       0.32500000 </v>
   <v>      -0.32500000       0.37500000       0.32500000 </v>
   <v>       0.42500000       0.42500000       0.32500000 </v>
   <v>       0.47500000       0.42500000       0.32500000 </v>
   <v>      -0.47500000       0.42500000       0.32500000 </v>
   <v>      -0.42500000       0.42500000       0.32500000 </v>
   <v>      -0.37500000       0.42500000       0.32500000 </v>
   <v>      -0.32500000       0.42500000       0.32500000 </v>
   <v>       0.47500000       0.47500000       0.32500000 </v>
   <v>      -0.47500000       0.47500000       0.32500000 </v>
   <v>      -0.42500000       0.47500000       0.32500000 </v>
   <v>      -0.37500000       0.47500000       0.32500000 </v>
   <v>      -0.32500000       0.47500000       0.32500000 </v>
   <v>      -0.47500000      -0.47500000       0.32500000 </v>
   <v>      -0.42500000      -0.47500000       0.32500000 </v>
   <v>      -0.37500000      -0.47500000       0.32500000 </v>
   <v>      -0.42500000      -0.42500000       0.32500000 </v>
   <v>      -0.37500000      -0.42500000       0.32500000 </v>
   <v>      -0.37500000      -0.37500000       0.32500000 </v>
   <v>       0.37500000       0.37500000       0.37500000 </v>
   <v>       0.42500000       0.37500000       0.37500000 </v>
   <v>       0.47500000       0.37500000       0.37500000 </v>
   <v>      -0.47500000       0.37500000       0.37500000 </v>
   <v>      -0.42500000       0.37500000       0.37500000 </v>
   <v>      -0.37500000       0.37500000       0.37500000 </v>
   <v>       0.42500000       0.42500000       0.37500000 </v>
   <v>       0.47500000       0.42500000       0.37500000 </v>
   <v>      -0.47500000       0.42500000       0.37500000 </v>
   <v>      -0.42500000       0.42500000       0.37500000 </v>
   <v>      -0.37500000       0.42500000       0.37500000 </v>
   <v>       0.47500000       0.47500000       0.37500000 </v>
   <v>      -0.47500000       0.47500000       0.37500000 </v>
   <v>      -0.42500000       0.47500000       0.37500000 </v>
   <v>      -0.37500000       0.47500000       0.37500000 </v>
   <v>      -0.47500000      -0.47500000       0.37500000 </v>
   <v>      -0.42500000      -0.47500000       0.37500000 </v>
   <v>      -0.42500000      -0.42500000       0.37500000 </v>
   <v>       0.42500000       0.42500000       0.42500000 </v>
   <v>       0.47500000       0.42500000       0.42500000 </v>
   <v>      -0.47500000       0.42500000       0.42500000 </v>
   <v>      -0.42500000       0.42500000       0.42500000 </v>
   <v>       0.47500000       0.47500000       0.42500000 </v>
   <v>      -0.47500000       0.47500000       0.42500000 </v>
   <v>      -0.42500000       0.47500000       0.42500000 </v>
   <v>      -0.47500000      -0.47500000       0.42500000 </v>
   <v>       0.47500000       0.47500000       0.47500000 </v>
   <v>      -0.47500000       0.47500000       0.47500000 </v>
  </varray>
  <varray name="weights" >
   <v>       0.00025000 </v>
   <v>       0.00075000 </v>
   <v>       0.00075000 </v>
   <v>       0.00075000 </v>
   <v>       0.00075000 </v>
   <v>       0.00075000 </v>
   <v>       0.00075000 </v>
   <v>       0.00075000 </v>
   <v>       0.00075000 </v>
   <v>       0.00075000 </v>
   <v>       0.00075000 </v>
   <v>       0.00075000 </v>
   <v>       0.00075000 </v>
   <v>       0.00075000 </v>
   <v>       0.00075000 </v>
   <v>       0.00075000 </v>
   <v>       0.00075000 </v>
   <v>       0.00075000 </v>
   <v>       0.00075000 </v>
   <v>       0.00075000 </v>
   <v>       0.00075000 </v>
   <v>       0.00150000 </v>
   <v>       0.00150000 </v>
   <v>       0.00150000 </v>
   <v>       0.00150000 </v>
   <v>       0.00150000 </v>
   <v>       0.00150000 </v>
   <v>       0.00150000 </v>
   <v>       0.00150000 </v>
   <v>       0.00150000 </v>
   <v>       0.00150000 </v>
   <v>       0.00150000 </v>
   <v>       0.00150000 </v>
   <v>       0.00150000 </v>
   <v>       0.00150000 </v>
   <v>       0.00150000 </v>
   <v>       0.00150000 </v>
   <v>       0.00150000 </v>
   <v>       0.00150000 </v>
   <v>       0.00075000 </v>
   <v>       0.00150000 </v>
   <v>       0.00150000 </v>
   <v>       0.00150000 </v>
   <v>       0.00150000 </v>
   <v>       0.00150000 </v>
   <v>       0.00150000 </v>
   <v>       0.00150000 </v>
   <v>       0.00150000 </v>
   <v>       0.00150000 </v>
   <v>       0.00150000 </v>
   <v>       0.00150000 </v>
   <v>       0.00150000 </v>
   <v>       0.00150000 </v>
   <v>       0.00150000 </v>
   <v>       0.00150000 </v>
   <v>       0.00150000 </v>
   <v>       0.00150000 </v>
   <v>       0.00075000 </v>
   <v>       0.00150000 </v>
   <v>       0.00150000 </v>
   <v>       0.00150000 </v>
   <v>       0.00150000 </v>
   <v>       0.00150000 </v>
   <v>       0.00150000 </v>
   <v>       0.00150000 </v>
   <v>       0.00150000 </v>
   <v>       0.00150000 </v>
   <v>       0.00150000 </v>
   <v>       0.00150000 </v>
   <v>       0.00150000 </v>
   <v>       0.00150000 </v>
   <v>       0.00150000 </v>
   <v>       0.00150000 </v>
   <v>       0.00150000 </v>
   <v>       0.00075000 </v>
   <v>       0.00150000 </v>
   <v>       0.00150000 </v>
   <v>       0.00150000 </v>
   <v>       0.00150000 </v>
   <v>       0.00150000 </v>
   <v>       0.00150000 </v>
   <v>       0.00150000 </v>
   <v>       0.00150000 </v>
   <v>       0.00150000 </v>
   <v>       0.00150000 </v>
   <v>       0.00150000 </v>
   <v>       0.00150000 </v>
   <v>       0.00150000 </v>
   <v>       0.00150000 </v>
   <v>       0.00150000 </v>
   <v>       0.00075000 </v>
   <v>       0.00150000 </v>
   <v>       0.00150000 </v>
   <v>       0.00150000 </v>
   <v>       0.00150000 </v>
   <v>       0.00150000 </v>
   <v>       0.00150000 </v>
   <v>       0.00150000 </v>
   <v>       0.00150000 </v>
   <v>       0.00150000 </v>
   <v>       0.00150000 </v>
   <v>       0.00150000 </v>
   <v>       0.00150000 </v>
   <v>       0.00150000 </v>
   <v>       0.00150000 </v>
   <v>       0.00075000 </v>
   <v>       0.00150000 </v>
   <v>       0.00150000 </v>
   <v>       0.00150000 </v>
   <v>       0.00150000 </v>
   <v>       0.00150000 </v>
   <v>       0.00150000 </v>
   <v>       0.00150000 </v>
   <v>       0.00150000 </v>
   <v>       0.00150000 </v>
   <v>       0.00150000 </v>
   <v>       0.00150000 </v>
   <v>       0.00150000 </v>
   <v>       0.00150000 </v>
   <v>       0.00075000 </v>
   <v>       0.00150000 </v>
   <v>       0.00150000 </v>
   <v>       0.00150000 </v>
   <v>       0.00150000 </v>
   <v>       0.00150000 </v>
   <v>       0.00150000 </v>
   <v>       0.00150000 </v>
   <v>       0.00150000 </v>
   <v>       0.00150000 </v>
   <v>       0.00150000 </v>
   <v>       0.00150000 </v>
   <v>       0.00150000 </v>
   <v>       0.00075000 </v>
   <v>       0.00150000 </v>
   <v>       0.00150000 </v>
   <v>       0.00150000 </v>
   <v>       0.00150000 </v>
   <v>       0.00150000 </v>
   <v>       0.00150000 </v>
   <v>       0.00150000 </v>
   <v>       0.00150000 </v>
   <v>       0.00150000 </v>
   <v>       0.00150000 </v>
   <v>       0.00150000 </v>
   <v>       0.00075000 </v>
   <v>       0.00150000 </v>
   <v>       0.00150000 </v>
   <v>       0.00150000 </v>
   <v>       0.00150000 </v>
   <v>       0.00150000 </v>
   <v>       0.00150000 </v>
   <v>       0.00150000 </v>
   <v>       0.00150000 </v>
   <v>       0.00150000 </v>
   <v>       0.00150000 </v>
   <v>       0.00075000 </v>
   <v>       0.00150000 </v>
   <v>       0.00150000 </v>
   <v>       0.00150000 </v>
   <v>       0.00150000 </v>
   <v>       0.00150000 </v>
   <v>       0.00150000 </v>
   <v>       0.00150000 </v>
   <v>       0.00150000 </v>
   <v>       0.00075000 </v>
   <v>       0.00150000 </v>
   <v>       0.00150000 </v>
   <v>       0.00150000 </v>
   <v>       0.00150000 </v>
   <v>       0.00150000 </v>
   <v>       0.00150000 </v>
   <v>       0.00150000 </v>
   <v>       0.00075000 </v>
   <v>       0.00150000 </v>
   <v>       0.00150000 </v>
   <v>       0.00150000 </v>
   <v>       0.00150000 </v>
   <v>       0.00150000 </v>
   <v>       0.00150000 </v>
   <v>       0.00075000 </v>
   <v>       0.00150000 </v>
   <v>       0.00150000 </v>
   <v>       0.00150000 </v>
   <v>       0.00150000 </v>
   <v>       0.00150000 </v>
   <v>       0.00075000 </v>
   <v>       0.00150000 </v>
   <v>       0.00150000 </v>
   <v>       0.00150000 </v>
   <v>       0.00150000 </v>
   <v>       0.00075000 </v>
   <v>       0.00150000 </v>
   <v>       0.00150000 </v>
   <v>       0.00150000 </v>
   <v>       0.00075000 </v>
   <v>       0.00150000 </v>
   <v>       0.00150000 </v>
   <v>       0.00075000 </v>
   <v>       0.00150000 </v>
   <v>       0.00075000 </v>
   <v>       0.00025000 </v>
   <v>       0.00075000 </v>
   <v>       0.00075000 </v>
   <v>       0.00075000 </v>
   <v>       0.00075000 </v>
   <v>       0.00075000 </v>
   <v>       0.00075000 </v>
   <v>       0.00075000 </v>
   <v>       0.00075000 </v>
   <v>       0.00075000 </v>
   <v>       0.00075000 </v>
   <v>       0.00075000 </v>
   <v>       0.00075000 </v>
   <v>       0.00075000 </v>
   <v>       0.00075000 </v>
   <v>       0.00075000 </v>
   <v>       0.00075000 </v>
   <v>       0.00075000 </v>
   <v>       0.00075000 </v>
   <v>       0.00150000 </v>
   <v>       0.00150000 </v>
   <v>       0.00150000 </v>
   <v>       0.00150000 </v>
   <v>       0.00150000 </v>
   <v>       0.00150000 </v>
   <v>       0.00150000 </v>
   <v>       0.00150000 </v>
   <v>       0.00150000 </v>
   <v>       0.00150000 </v>
   <v>       0.00150000 </v>
   <v>       0.00150000 </v>
   <v>       0.00150000 </v>
   <v>       0.00150000 </v>
   <v>       0.00150000 </v>
   <v>       0.00150000 </v>
   <v>       0.00075000 </v>
   <v>       0.00150000 </v>
   <v>       0.00150000 </v>
   <v>       0.00150000 </v>
   <v>       0.00150000 </v>
   <v>       0.00150000 </v>
   <v>       0.00150000 </v>
   <v>       0.00150000 </v>
   <v>       0.00150000 </v>
   <v>       0.00150000 </v>
   <v>       0.00150000 </v>
   <v>       0.00150000 </v>
   <v>       0.00150000 </v>
   <v>       0.00150000 </v>
   <v>       0.00150000 </v>
   <v>       0.00150000 </v>
   <v>       0.00075000 </v>
   <v>       0.00150000 </v>
   <v>       0.00150000 </v>
   <v>       0.00150000 </v>
   <v>       0.00150000 </v>
   <v>       0.00150000 </v>
   <v>       0.00150000 </v>
   <v>       0.00150000 </v>
   <v>       0.00150000 </v>
   <v>       0.00150000 </v>
   <v>       0.00150000 </v>
   <v>       0.00150000 </v>
   <v>       0.00150000 </v>
   <v>       0.00150000 </v>
   <v>       0.00150000 </v>
   <v>       0.00075000 </v>
   <v>       0.00150000 </v>
   <v>       0.00150000 </v>
   <v>       0.00150000 </v>
   <v>       0.00150000 </v>
   <v>       0.00150000 </v>
   <v>       0.00150000 </v>
   <v>       0.00150000 </v>
   <v>       0.00150000 </v>
   <v>       0.00150000 </v>
   <v>       0.00150000 </v>
   <v>       0.00150000 </v>
   <v>       0.00150000 </v>
   <v>       0.00150000 </v>
   <v>       0.00075000 </v>
   <v>       0.00150000 </v>
   <v>       0.00150000 </v>
   <v>       0.00150000 </v>
   <v>       0.00150000 </v>
   <v>       0.00150000 </v>
   <v>       0.00150000 </v>
   <v>       0.00150000 </v>
   <v>       0.00150000 </v>
   <v>       0.00150000 </v>
   <v>       0.00150000 </v>
   <v>       0.00150000 </v>
   <v>       0.00150000 </v>
   <v>       0.00075000 </v>
   <v>       0.00150000 </v>
   <v>       0.00150000 </v>
   <v>       0.00150000 </v>
   <v>       0.00150000 </v>
   <v>       0.00150000 </v>
   <v>       0.00150000 </v>
   <v>       0.00150000 </v>
   <v>       0.00150000 </v>
   <v>       0.00150000 </v>
   <v>       0.00150000 </v>
   <v>       0.00150000 </v>
   <v>       0.00075000 </v>
   <v>       0.00150000 </v>
   <v>       0.00150000 </v>
   <v>       0.00150000 </v>
   <v>       0.00150000 </v>
   <v>       0.00150000 </v>
   <v>       0.00150000 </v>
   <v>       0.00150000 </v>
   <v>       0.00150000 </v>
   <v>       0.00150000 </v>
   <v>       0.00150000 </v>
   <v>       0.00075000 </v>
   <v>       0.00150000 </v>
   <v>       0.00150000 </v>
   <v>       0.00150000 </v>
   <v>       0.00150000 </v>
   <v>       0.00150000 </v>
   <v>       0.00150000 </v>
   <v>       0.00150000 </v>
   <v>       0.00150000 </v>
   <v>       0.00150000 </v>
   <v>       0.00075000 </v>
   <v>       0.00150000 </v>
   <v>       0.00150000 </v>
   <v>       0.00150000 </v>
   <v>       0.00150000 </v>
   <v>       0.00150000 </v>
   <v>       0.00150000 </v>
   <v>       0.00150000 </v>
   <v>       0.00075000 </v>
   <v>       0.00150000 </v>
   <v>       0.00150000 </v>
   <v>       0.00150000 </v>
   <v>       0.00150000 </v>
   <v>       0.00150000 </v>
   <v>       0.00150000 </v>
   <v>       0.00075000 </v>
   <v>       0.00150000 </v>
   <v>       0.00150000 </v>
   <v>       0.00150000 </v>
   <v>       0.00150000 </v>
   <v>       0.00150000 </v>
   <v>       0.00075000 </v>
   <v>       0.00150000 </v>
   <v>       0.00150000 </v>
   <v>       0.00150000 </v>
   <v>       0.00150000 </v>
   <v>       0.00075000 </v>
   <v>       0.00150000 </v>
   <v>       0.00150000 </v>
   <v>       0.00150000 </v>
   <v>       0.00075000 </v>
   <v>       0.00150000 </v>
   <v>       0.00150000 </v>
   <v>       0.00075000 </v>
   <v>       0.00150000 </v>
   <v>       0.00075000 </v>
   <v>       0.00025000 </v>
   <v>       0.00075000 </v>
   <v>       0.00075000 </v>
   <v>       0.00075000 </v>
   <v>       0.00075000 </v>
   <v>       0.00075000 </v>
   <v>       0.00075000 </v>
   <v>       0.00075000 </v>
   <v>       0.00075000 </v>
   <v>       0.00075000 </v>
   <v>       0.00075000 </v>
   <v>       0.00075000 </v>
   <v>       0.00075000 </v>
   <v>       0.00075000 </v>
   <v>       0.00075000 </v>
   <v>       0.00075000 </v>
   <v>       0.00075000 </v>
   <v>       0.00150000 </v>
   <v>       0.00150000 </v>
   <v>       0.00150000 </v>
   <v>       0.00150000 </v>
   <v>       0.00150000 </v>
   <v>       0.00150000 </v>
   <v>       0.00150000 </v>
   <v>       0.00150000 </v>
   <v>       0.00150000 </v>
   <v>       0.00150000 </v>
   <v>       0.00150000 </v>
   <v>       0.00150000 </v>
   <v>       0.00150000 </v>
   <v>       0.00150000 </v>
   <v>       0.00075000 </v>
   <v>       0.00150000 </v>
   <v>       0.00150000 </v>
   <v>       0.00150000 </v>
   <v>       0.00150000 </v>
   <v>       0.00150000 </v>
   <v>       0.00150000 </v>
   <v>       0.00150000 </v>
   <v>       0.00150000 </v>
   <v>       0.00150000 </v>
   <v>       0.00150000 </v>
   <v>       0.00150000 </v>
   <v>       0.00150000 </v>
   <v>       0.00150000 </v>
   <v>       0.00075000 </v>
   <v>       0.00150000 </v>
   <v>       0.00150000 </v>
   <v>       0.00150000 </v>
   <v>       0.00150000 </v>
   <v>       0.00150000 </v>
   <v>       0.00150000 </v>
   <v>       0.00150000 </v>
   <v>       0.00150000 </v>
   <v>       0.00150000 </v>
   <v>       0.00150000 </v>
   <v>       0.00150000 </v>
   <v>       0.00150000 </v>
   <v>       0.00075000 </v>
   <v>       0.00150000 </v>
   <v>       0.00150000 </v>
   <v>       0.00150000 </v>
   <v>       0.00150000 </v>
   <v>       0.00150000 </v>
   <v>       0.00150000 </v>
   <v>       0.00150000 </v>
   <v>       0.00150000 </v>
   <v>       0.00150000 </v>
   <v>       0.00150000 </v>
   <v>       0.00150000 </v>
   <v>       0.00075000 </v>
   <v>       0.00150000 </v>
   <v>       0.00150000 </v>
   <v>       0.00150000 </v>
   <v>       0.00150000 </v>
   <v>       0.00150000 </v>
   <v>       0.00150000 </v>
   <v>       0.00150000 </v>
   <v>       0.00150000 </v>
   <v>       0.00150000 </v>
   <v>       0.00150000 </v>
   <v>       0.00075000 </v>
   <v>       0.00150000 </v>
   <v>       0.00150000 </v>
   <v>       0.00150000 </v>
   <v>       0.00150000 </v>
   <v>       0.00150000 </v>
   <v>       0.00150000 </v>
   <v>       0.00150000 </v>
   <v>       0.00150000 </v>
   <v>       0.00150000 </v>
   <v>       0.00075000 </v>
   <v>       0.00150000 </v>
   <v>       0.00150000 </v>
   <v>       0.00150000 </v>
   <v>       0.00150000 </v>
   <v>       0.00150000 </v>
   <v>       0.00150000 </v>
   <v>       0.00150000 </v>
   <v>       0.00150000 </v>
   <v>       0.00075000 </v>
   <v>       0.00150000 </v>
   <v>       0.00150000 </v>
   <v>       0.00150000 </v>
   <v>       0.00150000 </v>
   <v>       0.00150000 </v>
   <v>       0.00150000 </v>
   <v>       0.00075000 </v>
   <v>       0.00150000 </v>
   <v>       0.00150000 </v>
   <v>       0.00150000 </v>
   <v>       0.00150000 </v>
   <v>       0.00150000 </v>
   <v>       0.00075000 </v>
   <v>       0.00150000 </v>
   <v>       0.00150000 </v>
   <v>       0.00150000 </v>
   <v>       0.00150000 </v>
   <v>       0.00075000 </v>
   <v>       0.00150000 </v>
   <v>       0.00150000 </v>
   <v>       0.00150000 </v>
   <v>       0.00075000 </v>
   <v>       0.00150000 </v>
   <v>       0.00150000 </v>
   <v>       0.00075000 </v>
   <v>       0.00150000 </v>
   <v>       0.00075000 </v>
   <v>       0.00025000 </v>
   <v>       0.00075000 </v>
   <v>       0.00075000 </v>
   <v>       0.00075000 </v>
   <v>       0.00075000 </v>
   <v>       0.00075000 </v>
   <v>       0.00075000 </v>
   <v>       0.00075000 </v>
   <v>       0.00075000 </v>
   <v>       0.00075000 </v>
   <v>       0.00075000 </v>
   <v>       0.00075000 </v>
   <v>       0.00075000 </v>
   <v>       0.00075000 </v>
   <v>       0.00075000 </v>
   <v>       0.00150000 </v>
   <v>       0.00150000 </v>
   <v>       0.00150000 </v>
   <v>       0.00150000 </v>
   <v>       0.00150000 </v>
   <v>       0.00150000 </v>
   <v>       0.00150000 </v>
   <v>       0.00150000 </v>
   <v>       0.00150000 </v>
   <v>       0.00150000 </v>
   <v>       0.00150000 </v>
   <v>       0.00150000 </v>
   <v>       0.00075000 </v>
   <v>       0.00150000 </v>
   <v>       0.00150000 </v>
   <v>       0.00150000 </v>
   <v>       0.00150000 </v>
   <v>       0.00150000 </v>
   <v>       0.00150000 </v>
   <v>       0.00150000 </v>
   <v>       0.00150000 </v>
   <v>       0.00150000 </v>
   <v>       0.00150000 </v>
   <v>       0.00150000 </v>
   <v>       0.00075000 </v>
   <v>       0.00150000 </v>
   <v>       0.00150000 </v>
   <v>       0.00150000 </v>
   <v>       0.00150000 </v>
   <v>       0.00150000 </v>
   <v>       0.00150000 </v>
   <v>       0.00150000 </v>
   <v>       0.00150000 </v>
   <v>       0.00150000 </v>
   <v>       0.00150000 </v>
   <v>       0.00075000 </v>
   <v>       0.00150000 </v>
   <v>       0.00150000 </v>
   <v>       0.00150000 </v>
   <v>       0.00150000 </v>
   <v>       0.00150000 </v>
   <v>       0.00150000 </v>
   <v>       0.00150000 </v>
   <v>       0.00150000 </v>
   <v>       0.00150000 </v>
   <v>       0.00075000 </v>
   <v>       0.00150000 </v>
   <v>       0.00150000 </v>
   <v>       0.00150000 </v>
   <v>       0.00150000 </v>
   <v>       0.00150000 </v>
   <v>       0.00150000 </v>
   <v>       0.00150000 </v>
   <v>       0.00150000 </v>
   <v>       0.00075000 </v>
   <v>       0.00150000 </v>
   <v>       0.00150000 </v>
   <v>       0.00150000 </v>
   <v>       0.00150000 </v>
   <v>       0.00150000 </v>
   <v>       0.00150000 </v>
   <v>       0.00150000 </v>
   <v>       0.00075000 </v>
   <v>       0.00150000 </v>
   <v>       0.00150000 </v>
   <v>       0.00150000 </v>
   <v>       0.00150000 </v>
   <v>       0.00150000 </v>
   <v>       0.00075000 </v>
   <v>       0.00150000 </v>
   <v>       0.00150000 </v>
   <v>       0.00150000 </v>
   <v>       0.00150000 </v>
   <v>       0.00075000 </v>
   <v>       0.00150000 </v>
   <v>       0.00150000 </v>
   <v>       0.00150000 </v>
   <v>       0.00075000 </v>
   <v>       0.00150000 </v>
   <v>       0.00150000 </v>
   <v>       0.00075000 </v>
   <v>       0.00150000 </v>
   <v>       0.00075000 </v>
   <v>       0.00025000 </v>
   <v>       0.00075000 </v>
   <v>       0.00075000 </v>
   <v>       0.00075000 </v>
   <v>       0.00075000 </v>
   <v>       0.00075000 </v>
   <v>       0.00075000 </v>
   <v>       0.00075000 </v>
   <v>       0.00075000 </v>
   <v>       0.00075000 </v>
   <v>       0.00075000 </v>
   <v>       0.00075000 </v>
   <v>       0.00075000 </v>
   <v>       0.00150000 </v>
   <v>       0.00150000 </v>
   <v>       0.00150000 </v>
   <v>       0.00150000 </v>
   <v>       0.00150000 </v>
   <v>       0.00150000 </v>
   <v>       0.00150000 </v>
   <v>       0.00150000 </v>
   <v>       0.00150000 </v>
   <v>       0.00150000 </v>
   <v>       0.00075000 </v>
   <v>       0.00150000 </v>
   <v>       0.00150000 </v>
   <v>       0.00150000 </v>
   <v>       0.00150000 </v>
   <v>       0.00150000 </v>
   <v>       0.00150000 </v>
   <v>       0.00150000 </v>
   <v>       0.00150000 </v>
   <v>       0.00150000 </v>
   <v>       0.00075000 </v>
   <v>       0.00150000 </v>
   <v>       0.00150000 </v>
   <v>       0.00150000 </v>
   <v>       0.00150000 </v>
   <v>       0.00150000 </v>
   <v>       0.00150000 </v>
   <v>       0.00150000 </v>
   <v>       0.00150000 </v>
   <v>       0.00075000 </v>
   <v>       0.00150000 </v>
   <v>       0.00150000 </v>
   <v>       0.00150000 </v>
   <v>       0.00150000 </v>
   <v>       0.00150000 </v>
   <v>       0.00150000 </v>
   <v>       0.00150000 </v>
   <v>       0.00075000 </v>
   <v>       0.00150000 </v>
   <v>       0.00150000 </v>
   <v>       0.00150000 </v>
   <v>       0.00150000 </v>
   <v>       0.00150000 </v>
   <v>       0.00150000 </v>
   <v>       0.00075000 </v>
   <v>       0.00150000 </v>
   <v>       0.00150000 </v>
   <v>       0.00150000 </v>
   <v>       0.00150000 </v>
   <v>       0.00075000 </v>
   <v>       0.00150000 </v>
   <v>       0.00150000 </v>
   <v>       0.00150000 </v>
   <v>       0.00075000 </v>
   <v>       0.00150000 </v>
   <v>       0.00150000 </v>
   <v>       0.00075000 </v>
   <v>       0.00150000 </v>
   <v>       0.00075000 </v>
   <v>       0.00025000 </v>
   <v>       0.00075000 </v>
   <v>       0.00075000 </v>
   <v>       0.00075000 </v>
   <v>       0.00075000 </v>
   <v>       0.00075000 </v>
   <v>       0.00075000 </v>
   <v>       0.00075000 </v>
   <v>       0.00075000 </v>
   <v>       0.00075000 </v>
   <v>       0.00075000 </v>
   <v>       0.00150000 </v>
   <v>       0.00150000 </v>
   <v>       0.00150000 </v>
   <v>       0.00150000 </v>
   <v>       0.00150000 </v>
   <v>       0.00150000 </v>
   <v>       0.00150000 </v>
   <v>       0.00150000 </v>
   <v>       0.00075000 </v>
   <v>       0.00150000 </v>
   <v>       0.00150000 </v>
   <v>       0.00150000 </v>
   <v>       0.00150000 </v>
   <v>       0.00150000 </v>
   <v>       0.00150000 </v>
   <v>       0.00150000 </v>
   <v>       0.00075000 </v>
   <v>       0.00150000 </v>
   <v>       0.00150000 </v>
   <v>       0.00150000 </v>
   <v>       0.00150000 </v>
   <v>       0.00150000 </v>
   <v>       0.00150000 </v>
   <v>       0.00075000 </v>
   <v>       0.00150000 </v>
   <v>       0.00150000 </v>
   <v>       0.00150000 </v>
   <v>       0.00150000 </v>
   <v>       0.00150000 </v>
   <v>       0.00075000 </v>
   <v>       0.00150000 </v>
   <v>       0.00150000 </v>
   <v>       0.00150000 </v>
   <v>       0.00075000 </v>
   <v>       0.00150000 </v>
   <v>       0.00150000 </v>
   <v>       0.00075000 </v>
   <v>       0.00150000 </v>
   <v>       0.00075000 </v>
   <v>       0.00025000 </v>
   <v>       0.00075000 </v>
   <v>       0.00075000 </v>
   <v>       0.00075000 </v>
   <v>       0.00075000 </v>
   <v>       0.00075000 </v>
   <v>       0.00075000 </v>
   <v>       0.00075000 </v>
   <v>       0.00075000 </v>
   <v>       0.00150000 </v>
   <v>       0.00150000 </v>
   <v>       0.00150000 </v>
   <v>       0.00150000 </v>
   <v>       0.00150000 </v>
   <v>       0.00150000 </v>
   <v>       0.00075000 </v>
   <v>       0.00150000 </v>
   <v>       0.00150000 </v>
   <v>       0.00150000 </v>
   <v>       0.00150000 </v>
   <v>       0.00150000 </v>
   <v>       0.00075000 </v>
   <v>       0.00150000 </v>
   <v>       0.00150000 </v>
   <v>       0.00150000 </v>
   <v>       0.00150000 </v>
   <v>       0.00075000 </v>
   <v>       0.00150000 </v>
   <v>       0.00150000 </v>
   <v>       0.00075000 </v>
   <v>       0.00150000 </v>
   <v>       0.00075000 </v>
   <v>       0.00025000 </v>
   <v>       0.00075000 </v>
   <v>       0.00075000 </v>
   <v>       0.00075000 </v>
   <v>       0.00075000 </v>
   <v>       0.00075000 </v>
   <v>       0.00075000 </v>
   <v>       0.00150000 </v>
   <v>       0.00150000 </v>
   <v>       0.00150000 </v>
   <v>       0.00150000 </v>
   <v>       0.00075000 </v>
   <v>       0.00150000 </v>
   <v>       0.00150000 </v>
   <v>       0.00150000 </v>
   <v>       0.00075000 </v>
   <v>       0.00150000 </v>
   <v>       0.00075000 </v>
   <v>       0.00025000 </v>
   <v>       0.00075000 </v>
   <v>       0.00075000 </v>
   <v>       0.00075000 </v>
   <v>       0.00075000 </v>
   <v>       0.00150000 </v>
   <v>       0.00150000 </v>
   <v>       0.00075000 </v>
   <v>       0.00025000 </v>
   <v>       0.00075000 </v>
  </varray>
 </kpoints>
 <parameters>
  <separator name="general" >
   <i type="string" name="SYSTEM">fcc Ni</i>
   <i type="logical" name="LCOMPAT"> F  </i>
  </separator>
  <separator name="electronic" >
   <i type="string" name="PREC">normal</i>
   <i name="ENMAX">    500.00000000</i>
   <i name="ENAUG">    544.56500000</i>
   <i name="EDIFF">      0.00000010</i>
   <i type="int" name="IALGO">    38</i>
   <i type="int" name="IWAVPR">    10</i>
   <i type="int" name="NBANDS">    10</i>
   <i name="NELECT">     10.00000000</i>
   <i type="int" name="TURBO">     0</i>
   <i type="int" name="IRESTART">     0</i>
   <i type="int" name="NREBOOT">     0</i>
   <i type="int" name="NMIN">     0</i>
   <i name="EREF">      0.00000000</i>
   <separator name="electronic smearing" >
    <i type="int" name="ISMEAR">     1</i>
    <i name="SIGMA">      0.20000000</i>
    <i name="KSPACING">      0.50000000</i>
    <i type="logical" name="KGAMMA"> T  </i>
   </separator>
   <separator name="electronic projectors" >
    <i type="logical" name="LREAL"> F  </i>
    <v name="ROPT">      0.00000000</v>
    <i type="int" name="LMAXPAW">  -100</i>
    <i type="int" name="LMAXMIX">     2</i>
    <i type="logical" name="NLSPLINE"> F  </i>
   </separator>
   <separator name="electronic startup" >
    <i type="int" name="ISTART">     0</i>
    <i type="int" name="ICHARG">     2</i>
    <i type="int" name="INIWAV">     1</i>
   </separator>
   <separator name="electronic spin" >
    <i type="int" name="ISPIN">     2</i>
    <i type="logical" name="LNONCOLLINEAR"> F  </i>
    <v name="MAGMOM">      1.00000000</v>
    <i name="NUPDOWN">     -1.00000000</i>
    <i type="logical" name="LSORBIT"> F  </i>
    <v name="SAXIS">      0.00000000      0.00000000      1.00000000</v>
    <i type="logical" name="LSPIRAL"> F  </i>
    <v name="QSPIRAL">      0.00000000      0.00000000      0.00000000</v>
    <i type="logical" name="LZEROZ"> F  </i>
   </separator>
   <separator name="electronic exchange-correlation" >
    <i type="logical" name="LASPH"> F  </i>
    <i type="logical" name="LMETAGGA"> F  </i>
   </separator>
   <separator name="electronic convergence" >
    <i type="int" name="NELM">    60</i>
    <i type="int" name="NELMDL">    -5</i>
    <i type="int" name="NELMIN">     2</i>
    <i name="ENINI">    500.00000000</i>
    <separator name="electronic convergence detail" >
     <i type="logical" name="LDIAG"> T  </i>
     <i type="logical" name="LSUBROT"> F  </i>
     <i name="WEIMIN">      0.00000000</i>
     <i name="EBREAK">      0.00000000</i>
     <i name="DEPER">      0.30000000</i>
     <i type="int" name="NRMM">     4</i>
     <i name="TIME">      0.40000000</i>
    </separator>
   </separator>
   <separator name="electronic mixer" >
    <i name="AMIX">      0.40000000</i>
    <i name="BMIX">      1.00000000</i>
    <i name="AMIN">      0.10000000</i>
    <i name="AMIX_MAG">      1.60000000</i>
    <i name="BMIX_MAG">      1.00000000</i>
    <separator name="electronic mixer details" >
     <i type="int" name="IMIX">     4</i>
     <i type="logical" name="MIXFIRST"> F  </i>
     <i type="int" name="MAXMIX">   -45</i>
     <i name="WC">    100.00000000</i>
     <i type="int" name="INIMIX">     1</i>
     <i type="int" name="MIXPRE">     1</i>
     <i type="int" name="MREMOVE">     5</i>
    </separator>
   </separator>
   <separator name="electronic dipolcorrection" >
    <i type="logical" name="LDIPOL"> F  </i>
    <i type="logical" name="LMONO"> F  </i>
    <i type="int" name="IDIPOL">     0</i>
    <i name="EPSILON">      1.00000000</i>
    <v name="DIPOL">   -100.00000000   -100.00000000   -100.00000000</v>
    <i name="EFIELD">      0.00000000</i>
   </separator>
  </separator>
  <separator name="grids" >
   <i type="int" name="NGX">    14</i>
   <i type="int" name="NGY">    14</i>
   <i type="int" name="NGZ">    14</i>
   <i type="int" name="NGXF">    28</i>
   <i type="int" name="NGYF">    28</i>
   <i type="int" name="NGZF">    28</i>
   <i type="logical" name="ADDGRID"> F  </i>
  </separator>
  <separator name="ionic" >
   <i type="int" name="NSW">     0</i>
   <i type="int" name="IBRION">    -1</i>
   <i type="int" name="MDALGO">     0</i>
   <i type="int" name="ISIF">     2</i>
   <i name="PSTRESS">      0.00000000</i>
   <i name="EDIFFG">      0.00000100</i>
   <i type="int" name="NFREE">     0</i>
   <i name="POTIM">      0.50000000</i>
   <i name="SMASS">     -3.00000000</i>
   <i name="SCALEE">      1.00000000</i>
  </separator>
  <separator name="ionic md" >
   <i name="TEBEG">      0.00010000</i>
   <i name="TEEND">      0.00010000</i>
   <i type="int" name="NBLOCK">     1</i>
   <i type="int" name="KBLOCK">     1</i>
   <i type="int" name="NPACO">   256</i>
   <i name="APACO">     16.00000000</i>
  </separator>
  <separator name="symmetry" >
   <i type="int" name="ISYM">     2</i>
   <i name="SYMPREC">      0.00001000</i>
  </separator>
  <separator name="dos" >
   <i type="int" name="LORBIT">    11</i>
   <v name="RWIGS">      1.37000000</v>
   <i type="int" name="NEDOS">   301</i>
   <i name="EMIN">     10.00000000</i>
   <i name="EMAX">    -10.00000000</i>
   <i name="EFERMI">      0.00000000</i>
  </separator>
  <separator name="writing" >
   <i type="int" name="NWRITE">     2</i>
   <i type="logical" name="LWAVE"> F  </i>
   <i type="logical" name="LDOWNSAMPLE"> F  </i>
   <i type="logical" name="LCHARG"> T  </i>
   <i type="logical" name="LPARD"> F  </i>
   <i type="logical" name="LVTOT"> F  </i>
   <i type="logical" name="LVHAR"> F  </i>
   <i type="logical" name="LELF"> F  </i>
   <i type="logical" name="LOPTICS"> F  </i>
   <v name="STM">      0.00000000      0.00000000      0.00000000      0.00000000      0.00000000      0.00000000      0.00000000</v>
  </separator>
  <separator name="performance" >
   <i type="int" name="NPAR">     1</i>
   <i type="int" name="NSIM">     4</i>
   <i type="int" name="NBLK">    -1</i>
   <i type="logical" name="LPLANE"> T  </i>
   <i type="logical" name="LSCALAPACK"> T  </i>
   <i type="logical" name="LSCAAWARE"> F  </i>
   <i type="logical" name="LSCALU"> F  </i>
   <i type="logical" name="LASYNC"> F  </i>
   <i type="logical" name="LORBITALREAL"> F  </i>
  </separator>
  <separator name="miscellaneous" >
   <i type="int" name="IDIOT">     3</i>
   <i type="int" name="ISPECIAL">     0</i>
   <i type="logical" name="LMUSIC"> F  </i>
   <v name="POMASS">     58.69000000</v>
   <v name="DARWINR">      0.00000000</v>
   <v name="DARWINV">      1.00000000</v>
   <i type="logical" name="LCORR"> T  </i>
  </separator>
  <i type="logical" name="GGA_COMPAT"> T  </i>
  <i type="logical" name="LBERRY"> F  </i>
  <i type="int" name="ICORELEVEL">     0</i>
  <i type="logical" name="LDAU"> F  </i>
[...]
        <r>  0.1008  0.0285  0.0242  0.0013  0.3634  0.1244  0.0026  0.2555  0.0037 </r>
       </set>
       <set comment="band 2">
        <r>  0.0000  0.0240  0.0147  0.0576  0.0037  0.0001  0.6516  0.0036  0.1285 </r>
       </set>
       <set comment="band 3">
        <r>  0.0000  0.0412  0.0592  0.0208  0.3670  0.0144  0.0037  0.4156  0.0009 </r>
       </set>
       <set comment="band 4">
        <r>  0.0002  0.0052  0.0033  0.0001  0.0052  0.2148  0.1168  0.0233  0.6012 </r>
       </set>
       <set comment="band 5">
        <r>  0.0013  0.0000  0.0001  0.0000  0.0511  0.5648  0.0389  0.1304  0.2040 </r>
       </set>
       <set comment="band 6">
        <r>  0.0057  0.1631  0.1378  0.1211  0.1321  0.0003  0.1625  0.0640  0.0315 </r>
       </set>
       <set comment="band 7">
        <r>  0.3856  0.0262  0.0825  0.0001  0.1245  0.1049  0.0026  0.1528  0.0003 </r>
       </set>
       <set comment="band 8">
        <r>  0.0715  0.0000  0.2136  0.0801  0.0299  0.0139  0.2439  0.0662  0.0077 </r>
       </set>
       <set comment="band 9">
        <r>  0.1373  0.2892  0.0467  0.0400  0.0471  0.0245  0.0090  0.0013  0.1572 </r>
       </set>
       <set comment="band 10">
        <r>  0.0124  0.0287  0.0282  0.2659  0.1028  0.0008  0.0215  0.0058  0.0120 </r>
       </set>
      </set>
      <set comment="kpoint 758">
       <set comment="band 1">
        <r>  0.1484  0.0296  0.0014  0.0014  0.1962  0.1962  0.0028  0.3101  0.0083 </r>
       </set>
       <set comment="band 2">
        <r>  0.0001  0.0112  0.0367  0.0367  0.0307  0.0307  0.1874  0.0076  0.5621 </r>
       </set>
       <set comment="band 3">
        <r>  0.0045  0.0779  0.0501  0.0501  0.1198  0.1198  0.0000  0.4777  0.0001 </r>
       </set>
       <set comment="band 4">
        <r>  0.0000  0.0000  0.0019  0.0019  0.1728  0.1728  0.4652  0.0000  0.1551 </r>
       </set>
       <set comment="band 5">
        <r>  0.0000  0.0000  0.0000  0.0000  0.3199  0.3199  0.2648  0.0000  0.0883 </r>
       </set>
       <set comment="band 6">
        <r>  0.0120  0.1564  0.1063  0.1063  0.0772  0.0772  0.0539  0.0847  0.1616 </r>
       </set>
       <set comment="band 7">
        <r>  0.4052  0.0047  0.0320  0.0320  0.1207  0.1207  0.0004  0.1728  0.0011 </r>
       </set>
       <set comment="band 8">
        <r>  0.0538  0.2280  0.0158  0.0158  0.0329  0.0329  0.0648  0.0281  0.1943 </r>
       </set>
       <set comment="band 9">
        <r>  0.0000  0.0000  0.2589  0.2589  0.0310  0.0310  0.1409  0.0000  0.0470 </r>
       </set>
       <set comment="band 10">
        <r>  0.0964  0.1016  0.0571  0.0571  0.0016  0.0016  0.0048  0.1608  0.0145 </r>
       </set>
      </set>
      <set comment="kpoint 759">
       <set comment="band 1">
        <r>  0.1258  0.0269  0.0113  0.0011  0.2162  0.1602  0.0012  0.3486  0.0087 </r>
       </set>
       <set comment="band 2">
        <r>  0.0000  0.0122  0.0330  0.0501  0.0223  0.0073  0.3640  0.0027  0.4001 </r>
       </set>
       <set comment="band 3">
        <r>  0.0014  0.0706  0.0446  0.0335  0.3031  0.0462  0.0021  0.4115  0.0000 </r>
       </set>
       <set comment="band 4">
        <r>  0.0000  0.0020  0.0025  0.0015  0.0683  0.2307  0.3438  0.0083  0.3127 </r>
       </set>
       <set comment="band 5">
        <r>  0.0004  0.0000  0.0000  0.0001  0.2121  0.4479  0.1642  0.0201  0.1471 </r>
       </set>
       <set comment="band 6">
        <r>  0.0012  0.1614  0.1280  0.1194  0.0880  0.0188  0.1002  0.0999  0.1058 </r>
       </set>
       <set comment="band 7">
        <r>  0.4108  0.0274  0.0327  0.0089  0.1297  0.1200  0.0004  0.1596  0.0000 </r>
       </set>
       <set comment="band 8">
        <r>  0.0708  0.2301  0.0043  0.0455  0.0526  0.0222  0.0837  0.0269  0.1685 </r>
       </set>
       <set comment="band 9">
        <r>  0.0683  0.0347  0.3088  0.0764  0.0075  0.0305  0.1522  0.0442  0.0154 </r>
       </set>
       <set comment="band 10">
        <r>  0.0447  0.0434  0.0108  0.2318  0.0021  0.0020  0.0048  0.1285  0.0497 </r>
       </set>
      </set>
      <set comment="kpoint 760">
       <set comment="band 1">
        <r>  0.1128  0.0227  0.0109  0.0109  0.1598  0.1598  0.0024  0.4163  0.0071 </r>
       </set>
       <set comment="band 2">
        <r>  0.0000  0.0096  0.0461  0.0461  0.0074  0.0074  0.1919  0.0013  0.5756 </r>
       </set>
       <set comment="band 3">
        <r>  0.0005  0.0769  0.0290  0.0290  0.2141  0.2141  0.0006  0.3526  0.0019 </r>
       </set>
       <set comment="band 4">
        <r>  0.0000  0.0000  0.0027  0.0027  0.1394  0.1394  0.5148  0.0000  0.1716 </r>
       </set>
       <set comment="band 5">
        <r>  0.0000  0.0000  0.0001  0.0001  0.3537  0.3537  0.2124  0.0000  0.0708 </r>
       </set>
       <set comment="band 6">
        <r>  0.0073  0.1396  0.1361  0.1361  0.0264  0.0264  0.0494  0.1500  0.1483 </r>
       </set>
       <set comment="band 7">
        <r>  0.3940  0.0804  0.0059  0.0059  0.1337  0.1337  0.0006  0.1294  0.0018 </r>
       </set>
       <set comment="band 8">
        <r>  0.1130  0.2348  0.0260  0.0260  0.0389  0.0389  0.0580  0.0227  0.1741 </r>
       </set>
       <set comment="band 9">
        <r>  0.0000  0.0000  0.2602  0.2602  0.0150  0.0150  0.1644  0.0000  0.0548 </r>
       </set>
       <set comment="band 10">
        <r>  0.1113  0.0436  0.0483  0.0483  0.0003  0.0003  0.0162  0.2120  0.0486 </r>
       </set>
      </set>
      <set comment="kpoint 761">
       <set comment="band 1">
        <r>  0.2399  0.0116  0.0116  0.0116  0.1966  0.1966  0.0000  0.1966  0.0000 </r>
       </set>
       <set comment="band 2">
        <r>  0.0000  0.0001  0.0001  0.0000  0.2039  0.0002  0.4429  0.1919  0.1306 </r>
       </set>
       <set comment="band 3">
        <r>  0.0000  0.0000  0.0000  0.0001  0.0601  0.2637  0.1306  0.0721  0.4429 </r>
       </set>
       <set comment="band 4">
        <r>  0.0503  0.1667  0.1667  0.1667  0.0631  0.0631  0.0000  0.0631  0.0000 </r>
       </set>
       <set comment="band 5">
        <r>  0.0000  0.0000  0.0003  0.0001  0.3736  0.1625  0.3836  0.0523  0.0192 </r>
       </set>
       <set comment="band 6">
        <r>  0.0000  0.0003  0.0000  0.0002  0.0187  0.2298  0.0192  0.3400  0.3836 </r>
       </set>
       <set comment="band 7">
        <r>  0.3500  0.0402  0.0402  0.0402  0.1349  0.1349  0.0000  0.1349  0.0000 </r>
       </set>
       <set comment="band 8">
        <r>  0.0021  0.0084  0.0084  0.0084  0.0039  0.0039  0.0000  0.0039  0.0000 </r>
       </set>
       <set comment="band 9">
        <r>  0.0000  0.0426  0.3465  0.2076  0.0504  0.0302  0.0192  0.0062  0.0028 </r>
       </set>
       <set comment="band 10">
        <r>  0.0000  0.3552  0.0513  0.1902  0.0075  0.0276  0.0028  0.0516  0.0192 </r>
       </set>
      </set>
      <set comment="kpoint 762">
       <set comment="band 1">
        <r>  0.2145  0.0121  0.0009  0.0121  0.2222  0.2066  0.0006  0.2066  0.0000 </r>
       </set>
       <set comment="band 2">
        <r>  0.0001  0.0035  0.0005  0.0035  0.2611  0.0467  0.6005  0.0467  0.0000 </r>
       </set>
       <set comment="band 3">
        <r>  0.0000  0.0001  0.0000  0.0001  0.0000  0.1878  0.0000  0.1878  0.5935 </r>
       </set>
       <set comment="band 4">
        <r>  0.0249  0.1346  0.1361  0.1346  0.0427  0.1319  0.0530  0.1319  0.0000 </r>
       </set>
       <set comment="band 5">
        <r>  0.0000  0.0002  0.0000  0.0002  0.0000  0.3048  0.0000  0.3048  0.3812 </r>
       </set>
       <set comment="band 6">
        <r>  0.0160  0.0506  0.0407  0.0506  0.3948  0.0260  0.3225  0.0260  0.0000 </r>
       </set>
       <set comment="band 7">
        <r>  0.3755  0.0208  0.0491  0.0208  0.1266  0.1458  0.0011  0.1458  0.0000 </r>
       </set>
       <set comment="band 8">
        <r>  0.0074  0.0028  0.1147  0.0028  0.0288  0.0326  0.1009  0.0326  0.0000 </r>
       </set>
       <set comment="band 9">
        <r>  0.0147  0.1092  0.2362  0.1092  0.0077  0.0121  0.0157  0.0121  0.0000 </r>
       </set>
       <set comment="band 10">
        <r>  0.0000  0.2953  0.0000  0.2953  0.0000  0.0007  0.0000  0.0007  0.1104 </r>
       </set>
      </set>
      <set comment="kpoint 763">
       <set comment="band 1">
        <r>  0.1838  0.0124  0.0018  0.0124  0.2587  0.2078  0.0005  0.2078  0.0000 </r>
       </set>
       <set comment="band 2">
        <r>  0.0002  0.0143  0.0035  0.0143  0.1774  0.0279  0.6757  0.0279  0.0000 </r>
       </set>
       <set comment="band 3">
        <r>  0.0000  0.0007  0.0000  0.0007  0.0000  0.1752  0.0000  0.1752  0.6175 </r>
       </set>
       <set comment="band 4">
        <r>  0.0078  0.0942  0.1021  0.0942  0.1975  0.1535  0.0441  0.1535  0.0000 </r>
       </set>
       <set comment="band 5">
        <r>  0.0000  0.0002  0.0000  0.0002  0.0000  0.3176  0.0000  0.3176  0.3554 </r>
       </set>
       <set comment="band 6">
        <r>  0.0237  0.0962  0.0802  0.0962  0.2920  0.0134  0.2558  0.0134  0.0000 </r>
       </set>
       <set comment="band 7">
        <r>  0.3922  0.0070  0.0599  0.0070  0.1205  0.1506  0.0035  0.1506  0.0000 </r>
       </set>
       <set comment="band 8">
        <r>  0.0302  0.0188  0.2050  0.0188  0.0410  0.0476  0.1817  0.0476  0.0000 </r>
       </set>
       <set comment="band 9">
        <r>  0.0439  0.0894  0.1259  0.0894  0.0233  0.0032  0.0051  0.0032  0.0000 </r>
       </set>
       <set comment="band 10">
        <r>  0.0000  0.2549  0.0000  0.2549  0.0000  0.0135  0.0000  0.0135  0.2305 </r>
       </set>
      </set>
      <set comment="kpoint 764">
       <set comment="band 1">
        <r>  0.1493  0.0123  0.0113  0.0123  0.3168  0.1959  0.0001  0.1959  0.0000 </r>
       </set>
       <set comment="band 2">
        <r>  0.0001  0.0318  0.0085  0.0318  0.0620  0.0130  0.7496  0.0130  0.0000 </r>
       </set>
       <set comment="band 3">
        <r>  0.0010  0.0584  0.0822  0.0584  0.3328  0.1759  0.0065  0.1759  0.0000 </r>
       </set>
       <set comment="band 4">
        <r>  0.0000  0.0016  0.0000  0.0016  0.0000  0.1594  0.0000  0.1594  0.6474 </r>
       </set>
       <set comment="band 5">
        <r>  0.0000  0.0002  0.0000  0.0002  0.0000  0.3335  0.0000  0.3335  0.3236 </r>
       </set>
       <set comment="band 6">
        <r>  0.0197  0.1235  0.1065  0.1235  0.2158  0.0151  0.2199  0.0151  0.0000 </r>
       </set>
       <set comment="band 7">
        <r>  0.3994  0.0002  0.0721  0.0002  0.1194  0.1478  0.0048  0.1478  0.0000 </r>
       </set>
       <set comment="band 8">
        <r>  0.0653  0.0254  0.2335  0.0254  0.0319  0.0464  0.2118  0.0464  0.0000 </r>
       </set>
       <set comment="band 9">
        <r>  0.0000  0.2519  0.0000  0.2519  0.0000  0.0169  0.0000  0.0169  0.2418 </r>
       </set>
       <set comment="band 10">
        <r>  0.0793  0.0683  0.0751  0.0683  0.1086  0.0010  0.0354  0.0010  0.0000 </r>
       </set>
      </set>
      <set comment="kpoint 765">
       <set comment="band 1">
        <r>  0.2004  0.0123  0.0011  0.0011  0.2204  0.2204  0.0002  0.2270  0.0005 </r>
       </set>
       <set comment="band 2">
        <r>  0.0000  0.0013  0.0031  0.0031  0.0691  0.0691  0.1552  0.1955  0.4655 </r>
       </set>
       <set comment="band 3">
        <r>  0.0000  0.0000  0.0004  0.0004  0.1929  0.1929  0.4371  0.0000  0.1457 </r>
       </set>
       <set comment="band 4">
        <r>  0.0137  0.1314  0.1313  0.1313  0.0099  0.0099  0.0176  0.3008  0.0527 </r>
       </set>
       <set comment="band 5">
        <r>  0.0000  0.0000  0.0000  0.0000  0.2999  0.2999  0.2951  0.0000  0.0984 </r>
       </set>
       <set comment="band 6">
        <r>  0.0113  0.0782  0.0636  0.0636  0.1148  0.1148  0.0709  0.1687  0.2128 </r>
       </set>
       <set comment="band 7">
        <r>  0.4041  0.0060  0.0242  0.0242  0.1399  0.1399  0.0001  0.1585  0.0004 </r>
       </set>
       <set comment="band 8">
        <r>  0.0000  0.0350  0.0024  0.0024  0.0043  0.0043  0.0229  0.0404  0.0686 </r>
       </set>
       <set comment="band 9">
        <r>  0.0000  0.0000  0.2707  0.2707  0.0428  0.0428  0.0854  0.0000  0.0285 </r>
       </set>
       <set comment="band 10">
        <r>  0.0294  0.3681  0.0963  0.0963  0.0083  0.0083  0.0118  0.0092  0.0354 </r>
       </set>
      </set>
      <set comment="kpoint 766">
       <set comment="band 1">
        <r>  0.1802  0.0123  0.0017  0.0013  0.2431  0.2108  0.0002  0.2396  0.0006 </r>
       </set>
       <set comment="band 2">
        <r>  0.0000  0.0052  0.0049  0.0138  0.1432  0.0009  0.4864  0.1109  0.1822 </r>
       </set>
       <set comment="band 3">
        <r>  0.0000  0.0005  0.0010  0.0000  0.0617  0.2585  0.1582  0.0459  0.4432 </r>
       </set>
       <set comment="band 4">
        <r>  0.0037  0.1049  0.1042  0.1004  0.1634  0.0017  0.0476  0.2997  0.0141 </r>
       </set>
       <set comment="band 5">
        <r>  0.0000  0.0004  0.0001  0.0000  0.0955  0.4235  0.0931  0.1005  0.2792 </r>
       </set>
       <set comment="band 6">
        <r>  0.0084  0.1133  0.0972  0.0976  0.2008  0.0028  0.1911  0.0903  0.0552 </r>
       </set>
       <set comment="band 7">
        <r>  0.4217  0.0000  0.0278  0.0072  0.1382  0.1452  0.0008  0.1621  0.0001 </r>
       </set>
       <set comment="band 8">
        <r>  0.0020  0.0185  0.0884  0.0355  0.0471  0.0041  0.1593  0.0578  0.0333 </r>
       </set>
       <set comment="band 9">
        <r>  0.0529  0.2636  0.2182  0.0012  0.0013  0.0610  0.0114  0.0005  0.1185 </r>
       </set>
       <set comment="band 10">
        <r>  0.0013  0.0789  0.0348  0.3595  0.0020  0.0001  0.0124  0.0018  0.0097 </r>
       </set>
      </set>
      <set comment="kpoint 767">
       <set comment="band 1">
        <r>  0.1550  0.0122  0.0119  0.0014  0.2814  0.1923  0.0003  0.2398  0.0006 </r>
       </set>
       <set comment="band 2">
        <r>  0.0000  0.0171  0.0094  0.0321  0.0713  0.0031  0.6548  0.0490  0.0831 </r>
       </set>
       <set comment="band 3">
        <r>  0.0000  0.0016  0.0014  0.0004  0.0204  0.2481  0.0683  0.0709  0.5581 </r>
       </set>
       <set comment="band 4">
        <r>  0.0001  0.0758  0.0830  0.0664  0.3332  0.0187  0.0169  0.2849  0.0006 </r>
       </set>
       <set comment="band 5">
        <r>  0.0002  0.0002  0.0000  0.0000  0.0409  0.4328  0.0374  0.1733  0.3073 </r>
       </set>
       <set comment="band 6">
        <r>  0.0022  0.1315  0.1263  0.1170  0.1562  0.0029  0.2002  0.0730  0.0233 </r>
       </set>
       <set comment="band 7">
        <r>  0.4268  0.0062  0.0300  0.0000  0.1438  0.1400  0.0007  0.1542  0.0000 </r>
       </set>
       <set comment="band 8">
        <r>  0.0273  0.0000  0.1912  0.0507  0.0417  0.0183  0.2274  0.0609  0.0083 </r>
       </set>
       <set comment="band 9">
        <r>  0.0701  0.3122  0.0872  0.0253  0.0259  0.0442  0.0007  0.0024  0.1565 </r>
       </set>
       <set comment="band 10">
        <r>  0.0115  0.0232  0.0528  0.3079  0.0315  0.0008  0.0023  0.0004  0.0249 </r>
       </set>
      </set>
      <set comment="kpoint 768">
       <set comment="band 1">
        <r>  0.1705  0.0122  0.0015  0.0015  0.2204  0.2204  0.0002  0.2654  0.0007 </r>
       </set>
       <set comment="band 2">
        <r>  0.0000  0.0043  0.0147  0.0147  0.0464  0.0464  0.1736  0.1187  0.5208 </r>
       </set>
       <set comment="band 3">
        <r>  0.0000  0.0000  0.0009  0.0009  0.1810  0.1810  0.4539  0.0000  0.1513 </r>
       </set>
       <set comment="band 4">
        <r>  0.0007  0.0992  0.0910  0.0910  0.0829  0.0829  0.0122  0.3573  0.0366 </r>
       </set>
       <set comment="band 5">
        <r>  0.0000  0.0000  0.0000  0.0000  0.3119  0.3119  0.2768  0.0000  0.0923 </r>
       </set>
       <set comment="band 6">
        <r>  0.0007  0.1271  0.1115  0.1115  0.0547  0.0547  0.0583  0.1474  0.1748 </r>
       </set>
       <set comment="band 7">
        <r>  0.4344  0.0064  0.0071  0.0071  0.1458  0.1458  0.0000  0.1605  0.0000 </r>
       </set>
       <set comment="band 8">
        <r>  0.0203  0.1817  0.0093  0.0093  0.0310  0.0310  0.0542  0.0401  0.1625 </r>
       </set>
       <set comment="band 9">
        <r>  0.0000  0.0000  0.2581  0.2581  0.0299  0.0299  0.1404  0.0000  0.0468 </r>
       </set>
       <set comment="band 10">
        <r>  0.0607  0.1703  0.0835  0.0835  0.0050  0.0050  0.0000  0.0536  0.0001 </r>
       </set>
      </set>
      <set comment="kpoint 769">
       <set comment="band 1">
        <r>  0.1969  0.0012  0.0012  0.0012  0.2291  0.2291  0.0000  0.2291  0.0000 </r>
       </set>
       <set comment="band 2">
        <r>  0.0000  0.0000  0.0000  0.0000  0.0208  0.2384  0.0480  0.1223  0.5394 </r>
       </set>
       <set comment="band 3">
        <r>  0.0000  0.0000  0.0000  0.0000  0.2336  0.0159  0.5394  0.1320  0.0480 </r>
       </set>
       <set comment="band 4">
        <r>  0.0096  0.2167  0.2167  0.2167  0.0081  0.0081  0.0000  0.0081  0.0000 </r>
       </set>
       <set comment="band 5">
        <r>  0.0000  0.0000  0.0000  0.0000  0.4025  0.1064  0.3881  0.0956  0.0004 </r>
       </set>
       <set comment="band 6">
        <r>  0.0000  0.0000  0.0000  0.0000  0.0005  0.2966  0.0004  0.3074  0.3881 </r>
       </set>
       <set comment="band 7">
        <r>  0.4292  0.0064  0.0064  0.0064  0.1536  0.1536  0.0000  0.1536  0.0000 </r>
       </set>
       <set comment="band 8">
        <r>  0.0002  0.0096  0.0096  0.0096  0.0004  0.0004  0.0000  0.0004  0.0000 </r>
       </set>
       <set comment="band 9">
        <r>  0.0000  0.3794  0.0159  0.2484  0.0003  0.0042  0.0001  0.0065  0.0028 </r>
       </set>
       <set comment="band 10">
        <r>  0.0000  0.0498  0.4132  0.1807  0.0070  0.0031  0.0028  0.0008  0.0001 </r>
       </set>
      </set>
      <set comment="kpoint 770">
       <set comment="band 1">
        <r>  0.1868  0.0014  0.0016  0.0014  0.2407  0.2295  0.0000  0.2295  0.0000 </r>
       </set>
       <set comment="band 2">
        <r>  0.0000  0.0030  0.0007  0.0030  0.2262  0.0570  0.6155  0.0570  0.0000 </r>
       </set>
       <set comment="band 3">
        <r>  0.0000  0.0002  0.0000  0.0002  0.0000  0.1869  0.0000  0.1869  0.5947 </r>
       </set>
       <set comment="band 4">
        <r>  0.0005  0.1306  0.1309  0.1306  0.1852  0.0638  0.0983  0.0638  0.0000 </r>
       </set>
       <set comment="band 5">
        <r>  0.0000  0.0000  0.0000  0.0000  0.0000  0.3062  0.0000  0.3062  0.3806 </r>
       </set>
       <set comment="band 6">
        <r>  0.0008  0.0902  0.0910  0.0902  0.2418  0.0473  0.2627  0.0473  0.0000 </r>
       </set>
       <set comment="band 7">
        <r>  0.4399  0.0000  0.0067  0.0000  0.1537  0.1562  0.0001  0.1562  0.0000 </r>
       </set>
       <set comment="band 8">
        <r>  0.0020  0.0000  0.0732  0.0000  0.0298  0.0148  0.0995  0.0148  0.0000 </r>
       </set>
       <set comment="band 9">
        <r>  0.0232  0.1075  0.3047  0.1075  0.0000  0.0125  0.0303  0.0125  0.0000 </r>
       </set>
       <set comment="band 10">
        <r>  0.0000  0.2832  0.0000  0.2832  0.0000  0.0157  0.0000  0.0157  0.1190 </r>
       </set>
      </set>
     </set>
    </set>
   </array>
  </projected>
 </calculation>
 <structure name="finalpos" >
  <crystal>
   <varray name="basis" >
    <v>       1.76475000       1.76475000       0.00000000 </v>
    <v>       0.00000000       1.76475000       1.76475000 </v>
    <v>       1.76475000       0.00000000       1.76475000 </v>
   </varray>
   <i name="volume">     10.99207207 </i>
   <varray name="rec_basis" >
    <v>       0.28332625       0.28332625      -0.28332625 </v>
    <v>      -0.28332625       0.28332625       0.28332625 </v>
    <v>       0.28332625      -0.28332625       0.28332625 </v>
   </varray>
  </crystal>
  <varray name="positions" >
   <v>       0.00000000       0.00000000       0.00000000 </v>
  </varray>
 </structure>
</modeling>
