Nb                                      
   3.30080000000000     
    -0.500000    0.500000    0.500000
     0.500000   -0.500000    0.500000
     0.500000    0.500000   -0.500000
   Nb
     1
Direct
  0.000000  0.000000  0.000000
 
   24   24   24
 0.84430176334E+02 0.82791421942E+02 0.77880960292E+02 0.69784802091E+02 0.58883266067E+02
 0.46131640329E+02 0.33141748701E+02 0.21805240064E+02 0.13548296679E+02 0.86971318635E+01
 0.64256926472E+01 0.54151011230E+01 0.51057609642E+01 0.54151011230E+01 0.64256926472E+01
 0.86971318635E+01 0.13548296679E+02 0.21805240064E+02 0.33141748701E+02 0.46131640329E+02
 0.58883266067E+02 0.69784802091E+02 0.77880960292E+02 0.82791421942E+02 0.82791421942E+02
 0.82226532085E+02 0.78358694411E+02 0.71268420422E+02 0.61259395701E+02 0.49112504893E+02
 0.36242689723E+02 0.24476994073E+02 0.15411132184E+02 0.97107099216E+01 0.68642475683E+01
 0.56016500844E+01 0.50946180403E+01 0.51931394629E+01 0.59248146861E+01 0.75702832469E+01
 0.11251820061E+02 0.18078535543E+02 0.28184388426E+02 0.40534715137E+02 0.53367475116E+02
 0.64933565035E+02 0.74023804742E+02 0.80043481491E+02 0.77880960292E+02 0.78358694411E+02
 0.75460510338E+02 0.69323365879E+02 0.60291088877E+02 0.49084051679E+02 0.36944921392E+02
 0.25522665881E+02 0.16377965086E+02 0.10337745918E+02 0.71485602498E+01 0.57080101070E+01
 0.50549711354E+01 0.49693448407E+01 0.54264037297E+01 0.65559154647E+01 0.90311082025E+01
 0.14071536755E+02 0.22276073665E+02 0.33165034037E+02 0.45340040514E+02 0.57080783298E+02
 0.66943850379E+02 0.74023804742E+02 0.69784802091E+02 0.71268420422E+02 0.69323365879E+02
 0.64140789019E+02 0.56160303383E+02 0.46130174412E+02 0.35179577304E+02 0.24742450680E+02
 0.16204562569E+02 0.10384182122E+02 0.71837483457E+01 0.56946653974E+01 0.49727525457E+01
 0.47591049685E+01 0.49877305427E+01 0.57301725586E+01 0.72530440332E+01 0.10518541538E+02
 0.16459028210E+02 0.25181371596E+02 0.35840907871E+02 0.46982747778E+02 0.57080783298E+02
 0.64933565035E+02 0.58883266067E+02 0.61259395701E+02 0.60291088877E+02 0.56160303383E+02
 0.49379711203E+02 0.40749409506E+02 0.31328696381E+02 0.22345263846E+02 0.14945661725E+02
 0.98228403306E+01 0.69349112624E+01 0.55452703726E+01 0.48367631447E+01 0.45632909543E+01
 0.46340754345E+01 0.50737390935E+01 0.60148704164E+01 0.78815071984E+01 0.11625438826E+02
 0.17812888946E+02 0.26210363734E+02 0.35840907871E+02 0.45340040514E+02 0.53367475116E+02
 0.46131640329E+02 0.49112504893E+02 0.49084051679E+02 0.46130174412E+02 0.40749409506E+02
 0.33743800542E+02 0.26100292327E+02 0.18858403047E+02 0.12919555153E+02 0.88019506009E+01
 0.64533047602E+01 0.52761610061E+01 0.46486160521E+01 0.43774665054E+01 0.43635374080E+01
 0.45963445632E+01 0.51609597740E+01 0.62172006862E+01 0.82567131936E+01 0.12033155189E+02
 0.17812888946E+02 0.25181371596E+02 0.33165034037E+02 0.40534715137E+02 0.33141748701E+02
 0.36242689723E+02 0.36944921392E+02 0.35179577304E+02 0.31328696381E+02 0.26100292327E+02
 0.20359938928E+02 0.14961929084E+02 0.10585456233E+02 0.75780088184E+01 0.58526925227E+01
 0.49322321257E+01 0.44259143875E+01 0.41999385691E+01 0.41600787363E+01 0.42757051102E+01
 0.45897681868E+01 0.52113374780E+01 0.62915130246E+01 0.82567131936E+01 0.11625438826E+02
 0.16459028210E+02 0.22276073665E+02 0.28184388426E+02 0.21805240064E+02 0.24476994073E+02
 0.25522665881E+02 0.24742450680E+02 0.22345263846E+02 0.18858403047E+02 0.14961929084E+02
 0.11312010684E+02 0.83928909884E+01 0.64117272101E+01 0.52522356456E+01 0.45715379938E+01
 0.41971778199E+01 0.40348932243E+01 0.40050455524E+01 0.40698574495E+01 0.42430411972E+01
 0.45895091499E+01 0.52113374780E+01 0.62172006862E+01 0.78815071984E+01 0.10518541538E+02
 0.14071536755E+02 0.18078535543E+02 0.13548296679E+02 0.15411132184E+02 0.16377965086E+02
 0.16204562569E+02 0.14945661725E+02 0.12919555153E+02 0.10585456233E+02 0.83928909884E+01
 0.66552045127E+01 0.54730841215E+01 0.47214469941E+01 0.42464876702E+01 0.39917731328E+01
 0.38908021425E+01 0.38842132803E+01 0.39368253940E+01 0.40458654496E+01 0.42430411972E+01
 0.45897681868E+01 0.51609597740E+01 0.60148704164E+01 0.72530440332E+01 0.90311082025E+01
 0.11251820061E+02 0.86971318635E+01 0.97107099216E+01 0.10337745918E+02 0.10384182122E+02
 0.98228403306E+01 0.88019506009E+01 0.75780088184E+01 0.64117272101E+01 0.54730841215E+01
 0.47862765182E+01 0.42977185336E+01 0.39901690863E+01 0.38303770392E+01 0.37765576448E+01
 0.37908749699E+01 0.38473336105E+01 0.39368253940E+01 0.40698574495E+01 0.42757051102E+01
 0.45963445632E+01 0.50737390935E+01 0.57301725586E+01 0.65559154647E+01 0.75702832469E+01
 0.64256926472E+01 0.68642475683E+01 0.71485602498E+01 0.71837483457E+01 0.69349112624E+01
 0.64533047602E+01 0.58526925227E+01 0.52522356456E+01 0.47214469941E+01 0.42977185336E+01
 0.39977975572E+01 0.38126931111E+01 0.37206189819E+01 0.36982068038E+01 0.37262123073E+01
 0.37908749699E+01 0.38842132803E+01 0.40050455524E+01 0.41600787363E+01 0.43635374080E+01
 0.46340754345E+01 0.49877305427E+01 0.54264037297E+01 0.59248146861E+01 0.54151011230E+01
 0.56016500844E+01 0.57080101070E+01 0.56946653974E+01 0.55452703726E+01 0.52761610061E+01
 0.49322321257E+01 0.45715379938E+01 0.42464876702E+01 0.39901690863E+01 0.38126931111E+01
 0.37070285946E+01 0.36594489215E+01 0.36584527731E+01 0.36982068038E+01 0.37765576448E+01
 0.38908021425E+01 0.40348932243E+01 0.41999385691E+01 0.43774665054E+01 0.45632909543E+01
 0.47591049685E+01 0.49693448407E+01 0.51931394629E+01 0.51057609642E+01 0.50946180403E+01
 0.50549711354E+01 0.49727525457E+01 0.48367631447E+01 0.46486160521E+01 0.44259143875E+01
 0.41971778199E+01 0.39917731328E+01 0.38303770392E+01 0.37206189819E+01 0.36594489215E+01
 0.36401383084E+01 0.36594489215E+01 0.37206189819E+01 0.38303770392E+01 0.39917731328E+01
 0.41971778199E+01 0.44259143875E+01 0.46486160521E+01 0.48367631447E+01 0.49727525457E+01
 0.50549711354E+01 0.50946180403E+01 0.54151011230E+01 0.51931394629E+01 0.49693448407E+01
 0.47591049685E+01 0.45632909543E+01 0.43774665054E+01 0.41999385691E+01 0.40348932243E+01
 0.38908021425E+01 0.37765576448E+01 0.36982068038E+01 0.36584527731E+01 0.36594489215E+01
 0.37070285946E+01 0.38126931111E+01 0.39901690863E+01 0.42464876702E+01 0.45715379938E+01
 0.49322321257E+01 0.52761610061E+01 0.55452703726E+01 0.56946653974E+01 0.57080101070E+01
 0.56016500844E+01 0.64256926472E+01 0.59248146861E+01 0.54264037297E+01 0.49877305427E+01
 0.46340754345E+01 0.43635374080E+01 0.41600787363E+01 0.40050455524E+01 0.38842132803E+01
 0.37908749699E+01 0.37262123073E+01 0.36982068038E+01 0.37206189819E+01 0.38126931111E+01
 0.39977975572E+01 0.42977185336E+01 0.47214469941E+01 0.52522356456E+01 0.58526925227E+01
 0.64533047602E+01 0.69349112624E+01 0.71837483457E+01 0.71485602498E+01 0.68642475683E+01
 0.86971318635E+01 0.75702832469E+01 0.65559154647E+01 0.57301725586E+01 0.50737390935E+01
 0.45963445632E+01 0.42757051102E+01 0.40698574495E+01 0.39368253940E+01 0.38473336105E+01
 0.37908749699E+01 0.37765576448E+01 0.38303770392E+01 0.39901690863E+01 0.42977185336E+01
 0.47862765182E+01 0.54730841215E+01 0.64117272101E+01 0.75780088184E+01 0.88019506009E+01
 0.98228403306E+01 0.10384182122E+02 0.10337745918E+02 0.97107099216E+01 0.13548296679E+02
 0.11251820061E+02 0.90311082025E+01 0.72530440332E+01 0.60148704164E+01 0.51609597740E+01
 0.45897681868E+01 0.42430411972E+01 0.40458654496E+01 0.39368253940E+01 0.38842132803E+01
 0.38908021425E+01 0.39917731328E+01 0.42464876702E+01 0.47214469941E+01 0.54730841215E+01
 0.66552045127E+01 0.83928909884E+01 0.10585456233E+02 0.12919555153E+02 0.14945661725E+02
 0.16204562569E+02 0.16377965086E+02 0.15411132184E+02 0.21805240064E+02 0.18078535543E+02
 0.14071536755E+02 0.10518541538E+02 0.78815071984E+01 0.62172006862E+01 0.52113374780E+01
 0.45895091499E+01 0.42430411972E+01 0.40698574495E+01 0.40050455524E+01 0.40348932243E+01
 0.41971778199E+01 0.45715379938E+01 0.52522356456E+01 0.64117272101E+01 0.83928909884E+01
 0.11312010684E+02 0.14961929084E+02 0.18858403047E+02 0.22345263846E+02 0.24742450680E+02
 0.25522665881E+02 0.24476994073E+02 0.33141748701E+02 0.28184388426E+02 0.22276073665E+02
 0.16459028210E+02 0.11625438826E+02 0.82567131936E+01 0.62915130246E+01 0.52113374780E+01
 0.45897681868E+01 0.42757051102E+01 0.41600787363E+01 0.41999385691E+01 0.44259143875E+01
 0.49322321257E+01 0.58526925227E+01 0.75780088184E+01 0.10585456233E+02 0.14961929084E+02
 0.20359938928E+02 0.26100292327E+02 0.31328696381E+02 0.35179577304E+02 0.36944921392E+02
 0.36242689723E+02 0.46131640329E+02 0.40534715137E+02 0.33165034037E+02 0.25181371596E+02
 0.17812888946E+02 0.12033155189E+02 0.82567131936E+01 0.62172006862E+01 0.51609597740E+01
 0.45963445632E+01 0.43635374080E+01 0.43774665054E+01 0.46486160521E+01 0.52761610061E+01
 0.64533047602E+01 0.88019506009E+01 0.12919555153E+02 0.18858403047E+02 0.26100292327E+02
 0.33743800542E+02 0.40749409506E+02 0.46130174412E+02 0.49084051679E+02 0.49112504893E+02
 0.58883266067E+02 0.53367475116E+02 0.45340040514E+02 0.35840907871E+02 0.26210363734E+02
 0.17812888946E+02 0.11625438826E+02 0.78815071984E+01 0.60148704164E+01 0.50737390935E+01
 0.46340754345E+01 0.45632909543E+01 0.48367631447E+01 0.55452703726E+01 0.69349112624E+01
 0.98228403306E+01 0.14945661725E+02 0.22345263846E+02 0.31328696381E+02 0.40749409506E+02
 0.49379711203E+02 0.56160303383E+02 0.60291088877E+02 0.61259395701E+02 0.69784802091E+02
 0.64933565035E+02 0.57080783298E+02 0.46982747778E+02 0.35840907871E+02 0.25181371596E+02
 0.16459028210E+02 0.10518541538E+02 0.72530440332E+01 0.57301725586E+01 0.49877305427E+01
 0.47591049685E+01 0.49727525457E+01 0.56946653974E+01 0.71837483457E+01 0.10384182122E+02
 0.16204562569E+02 0.24742450680E+02 0.35179577304E+02 0.46130174412E+02 0.56160303383E+02
 0.64140789019E+02 0.69323365879E+02 0.71268420422E+02 0.77880960292E+02 0.74023804742E+02
 0.66943850379E+02 0.57080783298E+02 0.45340040514E+02 0.33165034037E+02 0.22276073665E+02
 0.14071536755E+02 0.90311082025E+01 0.65559154647E+01 0.54264037297E+01 0.49693448407E+01
 0.50549711354E+01 0.57080101070E+01 0.71485602498E+01 0.10337745918E+02 0.16377965086E+02
 0.25522665881E+02 0.36944921392E+02 0.49084051679E+02 0.60291088877E+02 0.69323365879E+02
 0.75460510338E+02 0.78358694411E+02 0.82791421942E+02 0.80043481491E+02 0.74023804742E+02
 0.64933565035E+02 0.53367475116E+02 0.40534715137E+02 0.28184388426E+02 0.18078535543E+02
 0.11251820061E+02 0.75702832469E+01 0.59248146861E+01 0.51931394629E+01 0.50946180403E+01
 0.56016500844E+01 0.68642475683E+01 0.97107099216E+01 0.15411132184E+02 0.24476994073E+02
 0.36242689723E+02 0.49112504893E+02 0.61259395701E+02 0.71268420422E+02 0.78358694411E+02
 0.82226532085E+02 0.82791421942E+02 0.82226532085E+02 0.78358694411E+02 0.71268420422E+02
 0.61259395701E+02 0.49112504893E+02 0.36242689723E+02 0.24476994073E+02 0.15411132184E+02
 0.97107099216E+01 0.68642475683E+01 0.56016500844E+01 0.50946180403E+01 0.51931394629E+01
 0.59248146861E+01 0.75702832469E+01 0.11251820061E+02 0.18078535543E+02 0.28184388426E+02
 0.40534715137E+02 0.53367475116E+02 0.64933565035E+02 0.74023804742E+02 0.80043481491E+02
 0.82226532085E+02 0.82791795490E+02 0.80043874694E+02 0.74023845072E+02 0.64933311721E+02
 0.53367280397E+02 0.40534731279E+02 0.28184423506E+02 0.18078413359E+02 0.11251668274E+02
 0.75703236058E+01 0.59249988550E+01 0.51932005088E+01 0.50944666849E+01 0.56015147035E+01
 0.68643392509E+01 0.97109115313E+01 0.15411178996E+02 0.24476873503E+02 0.36242651896E+02
 0.49112660765E+02 0.61259516222E+02 0.71268269692E+02 0.78358424006E+02 0.78358694411E+02
 0.80043874694E+02 0.78358545590E+02 0.73354714086E+02 0.65241768005E+02 0.54549916329E+02
 0.42329739886E+02 0.30162431701E+02 0.19777194661E+02 0.12381529057E+02 0.81349099573E+01
 0.61635041365E+01 0.52560717753E+01 0.49791941835E+01 0.52560826121E+01 0.61635118696E+01
 0.81348820769E+01 0.12381441033E+02 0.19777081232E+02 0.30162394584E+02 0.42329873367E+02
 0.54550216101E+02 0.65242125025E+02 0.73355000687E+02 0.71268420422E+02 0.74023845072E+02
 0.73354714086E+02 0.69323075653E+02 0.62205595517E+02 0.52566537633E+02 0.41377412665E+02
 0.30037627160E+02 0.20111079103E+02 0.12789762389E+02 0.83905238715E+01 0.62589650673E+01
 0.52562479851E+01 0.48528207330E+01 0.49342008782E+01 0.55257774574E+01 0.68098760914E+01
 0.95982387032E+01 0.14983686537E+02 0.23326255603E+02 0.33975017502E+02 0.45525047533E+02
 0.56381821121E+02 0.65242162371E+02 0.61259395701E+02 0.64933311721E+02 0.65241768005E+02
 0.62205595517E+02 0.56160496679E+02 0.47742634704E+02 0.37902990493E+02 0.27882415657E+02
 0.19019402046E+02 0.12358028802E+02 0.82400956201E+01 0.61738274088E+01 0.51716492357E+01
 0.47109166425E+01 0.46571404598E+01 0.49915446230E+01 0.58189695753E+01 0.74657996307E+01
 0.10893914354E+02 0.16852648130E+02 0.25285085158E+02 0.35301428840E+02 0.45524880368E+02
 0.54550070489E+02 0.49112504893E+02 0.53367280397E+02 0.54549916329E+02 0.52566537633E+02
 0.47742634704E+02 0.40749592727E+02 0.32522224363E+02 0.24163694067E+02 0.16778862244E+02
 0.11201785478E+02 0.77091101868E+01 0.59103208877E+01 0.49979814789E+01 0.45482367688E+01
 0.44264275676E+01 0.45841630853E+01 0.50793379020E+01 0.60581541671E+01 0.79659931144E+01
 0.11650811563E+02 0.17527577997E+02 0.25284848201E+02 0.33974719247E+02 0.42329667043E+02
 0.36242689723E+02 0.40534731279E+02 0.42329739886E+02 0.41377412665E+02 0.37902990493E+02
 0.32522224363E+02 0.26100305676E+02 0.19596210427E+02 0.13894988896E+02 0.96158847662E+01
 0.69341238103E+01 0.55180870494E+01 0.47541309632E+01 0.43668122224E+01 0.42340705205E+01
 0.42936032883E+01 0.45649234914E+01 0.51469906641E+01 0.61943999254E+01 0.81531369976E+01
 0.11650630578E+02 0.16852388871E+02 0.23326101789E+02 0.30162389986E+02 0.24476994073E+02
 0.28184423506E+02 0.30162431701E+02 0.30037627160E+02 0.27882415657E+02 0.24163694067E+02
 0.19596210427E+02 0.14961944393E+02 0.10939434246E+02 0.79587873501E+01 0.60989278139E+01
 0.50697320002E+01 0.44770186484E+01 0.41784401079E+01 0.40714832074E+01 0.40929608405E+01
 0.42377176016E+01 0.45616995327E+01 0.51712550756E+01 0.61943216493E+01 0.79658720500E+01
 0.10893883210E+02 0.14983810460E+02 0.19777270024E+02 0.15411132184E+02 0.18078413359E+02
 0.19777194661E+02 0.20111079103E+02 0.19019402046E+02 0.16778862244E+02 0.13894988896E+02
 0.10939434246E+02 0.83928133548E+01 0.65286932192E+01 0.53533272730E+01 0.46348942353E+01
 0.42088507784E+01 0.40011040470E+01 0.39340313250E+01 0.39530100958E+01 0.40408437012E+01
 0.42223579929E+01 0.45616998924E+01 0.51469919221E+01 0.60582146923E+01 0.74659579911E+01
 0.95984314633E+01 0.12381542662E+02 0.97107099216E+01 0.11251668274E+02 0.12381529057E+02
 0.12789762389E+02 0.12358028802E+02 0.11201785478E+02 0.96158847662E+01 0.79587873501E+01
 0.65286932192E+01 0.54730168861E+01 0.47522424581E+01 0.42671888134E+01 0.39834205765E+01
 0.38522216470E+01 0.38217077161E+01 0.38516909582E+01 0.39227483119E+01 0.40408741161E+01
 0.42377720561E+01 0.45650045543E+01 0.50794424024E+01 0.58190552083E+01 0.68098706397E+01
 0.81347501845E+01 0.68642475683E+01 0.75703236058E+01 0.81349099573E+01 0.83905238715E+01
 0.82400956201E+01 0.77091101868E+01 0.69341238103E+01 0.60989278139E+01 0.53533272730E+01
 0.47522424581E+01 0.42977221748E+01 0.39928020327E+01 0.38178669856E+01 0.37427939586E+01
 0.37377440713E+01 0.37789331356E+01 0.38517165366E+01 0.39530594891E+01 0.40930142628E+01
 0.42936299647E+01 0.45841317344E+01 0.49914379649E+01 0.55256108701E+01 0.61633427956E+01
 0.56016500844E+01 0.59249988550E+01 0.61635041365E+01 0.62589650673E+01 0.61738274088E+01
 0.59103208877E+01 0.55180870494E+01 0.50697320002E+01 0.46348942353E+01 0.42671888134E+01
 0.39928020327E+01 0.38126952495E+01 0.37128328158E+01 0.36756169741E+01 0.36869848967E+01
 0.37377554990E+01 0.38217313601E+01 0.39340487744E+01 0.40714616927E+01 0.42339878381E+01
 0.44262970440E+01 0.46570122134E+01 0.49341363073E+01 0.52561205499E+01 0.50946180403E+01
 0.51932005088E+01 0.52560717753E+01 0.52562479851E+01 0.51716492357E+01 0.49979814789E+01
 0.47541309632E+01 0.44770186484E+01 0.42088507784E+01 0.39834205765E+01 0.38178669856E+01
 0.37128328158E+01 0.36594487960E+01 0.36483577343E+01 0.36756202410E+01 0.37428001039E+01
 0.38522196917E+01 0.40010743134E+01 0.41783739094E+01 0.43667326001E+01 0.45481948595E+01
 0.47109593744E+01 0.48529543525E+01 0.49793734892E+01 0.51931394629E+01 0.50944666849E+01
 0.49791941835E+01 0.48528207330E+01 0.47109166425E+01 0.45482367688E+01 0.43668122224E+01
 0.41784401079E+01 0.40011040470E+01 0.38522216470E+01 0.37427939586E+01 0.36756169741E+01
 0.36483577343E+01 0.36594502488E+01 0.37128343779E+01 0.38178636040E+01 0.39834053127E+01
 0.42088274640E+01 0.44770111652E+01 0.47541724582E+01 0.49980869866E+01 0.51717947882E+01
 0.52563759347E+01 0.52561205499E+01 0.59248146861E+01 0.56015147035E+01 0.52560826121E+01
 0.49342008782E+01 0.46571404598E+01 0.44264275676E+01 0.42340705205E+01 0.40714832074E+01
 0.39340313250E+01 0.38217077161E+01 0.37377440713E+01 0.36869848967E+01 0.36756202410E+01
 0.37128343779E+01 0.38126943366E+01 0.39928014917E+01 0.42671994439E+01 0.46349354883E+01
 0.50698177576E+01 0.55182036767E+01 0.59104211938E+01 0.61738539264E+01 0.62588877369E+01
 0.61633427956E+01 0.75702832469E+01 0.68643392509E+01 0.61635118696E+01 0.55257774574E+01
 0.49915446230E+01 0.45841630853E+01 0.42936032883E+01 0.40929608405E+01 0.39530100958E+01
 0.38516909582E+01 0.37789331356E+01 0.37377554990E+01 0.37428001039E+01 0.38178636040E+01
 0.39928014917E+01 0.42977447001E+01 0.47523022845E+01 0.53534204733E+01 0.60990249129E+01
 0.69341738701E+01 0.77090647130E+01 0.82399457505E+01 0.83903223211E+01 0.81347501845E+01
 0.11251820061E+02 0.97109115313E+01 0.81348820769E+01 0.68098760914E+01 0.58189695753E+01
 0.50793379020E+01 0.45649234914E+01 0.42377176016E+01 0.40408437012E+01 0.39227483119E+01
 0.38517165366E+01 0.38217313601E+01 0.38522196917E+01 0.39834053127E+01 0.42671994439E+01
 0.47523022845E+01 0.54731074916E+01 0.65287699680E+01 0.79588091113E+01 0.96158283403E+01
 0.11201652737E+02 0.12357861855E+02 0.12789645235E+02 0.12381542662E+02 0.18078535543E+02
 0.15411178996E+02 0.12381441033E+02 0.95982387032E+01 0.74657996307E+01 0.60581541671E+01
 0.51469906641E+01 0.45616995327E+01 0.42223579929E+01 0.40408741161E+01 0.39530594891E+01
 0.39340487744E+01 0.40010743134E+01 0.42088274640E+01 0.46349354883E+01 0.53534204733E+01
 0.65287699680E+01 0.83928273443E+01 0.10939394643E+02 0.13894921197E+02 0.16778776596E+02
 0.19019319858E+02 0.20111056139E+02 0.19777270024E+02 0.28184388426E+02 0.24476873503E+02
 0.19777081232E+02 0.14983686537E+02 0.10893914354E+02 0.79659931144E+01 0.61943999254E+01
 0.51712550756E+01 0.45616998924E+01 0.42377720561E+01 0.40930142628E+01 0.40714616927E+01
 0.41783739094E+01 0.44770111652E+01 0.50698177576E+01 0.60990249129E+01 0.79588091113E+01
 0.10939394643E+02 0.14961911200E+02 0.19596191191E+02 0.24163632793E+02 0.27882298510E+02
 0.30037522400E+02 0.30162389986E+02 0.40534715137E+02 0.36242651896E+02 0.30162394584E+02
 0.23326255603E+02 0.16852648130E+02 0.11650811563E+02 0.81531369976E+01 0.61943216493E+01
 0.51469919221E+01 0.45650045543E+01 0.42936299647E+01 0.42339878381E+01 0.43667326001E+01
 0.47541724582E+01 0.55182036767E+01 0.69341738701E+01 0.96158283403E+01 0.13894921197E+02
 0.19596191191E+02 0.26100251370E+02 0.32522031807E+02 0.37902708242E+02 0.41377199760E+02
 0.42329667043E+02 0.53367475116E+02 0.49112660765E+02 0.42329873367E+02 0.33975017502E+02
 0.25285085158E+02 0.17527577997E+02 0.11650630578E+02 0.79658720500E+01 0.60582146923E+01
 0.50794424024E+01 0.45841317344E+01 0.44262970440E+01 0.45481948595E+01 0.49980869866E+01
 0.59104211938E+01 0.77090647130E+01 0.11201652737E+02 0.16778776596E+02 0.24163632793E+02
 0.32522031807E+02 0.40749237971E+02 0.47742317267E+02 0.52566467409E+02 0.54550070489E+02
 0.64933565035E+02 0.61259516222E+02 0.54550216101E+02 0.45525047533E+02 0.35301428840E+02
 0.25284848201E+02 0.16852388871E+02 0.10893883210E+02 0.74659579911E+01 0.58190552083E+01
 0.49914379649E+01 0.46570122134E+01 0.47109593744E+01 0.51717947882E+01 0.61738539264E+01
 0.82399457505E+01 0.12357861855E+02 0.19019319858E+02 0.27882298510E+02 0.37902708242E+02
 0.47742317267E+02 0.56160434145E+02 0.62205876477E+02 0.65242162371E+02 0.74023804742E+02
 0.71268269692E+02 0.65242125025E+02 0.56381821121E+02 0.45524880368E+02 0.33974719247E+02
 0.23326101789E+02 0.14983810460E+02 0.95984314633E+01 0.68098706397E+01 0.55256108701E+01
 0.49341363073E+01 0.48529543525E+01 0.52563759347E+01 0.62588877369E+01 0.83903223211E+01
 0.12789645235E+02 0.20111056139E+02 0.30037522400E+02 0.41377199760E+02 0.52566467409E+02
 0.62205876477E+02 0.69323546991E+02 0.73355000687E+02 0.80043481491E+02 0.78358424006E+02
 0.73355000687E+02 0.65242162371E+02 0.54550070489E+02 0.42329667043E+02 0.30162389986E+02
 0.19777270024E+02 0.12381542662E+02 0.81347501845E+01 0.61633427956E+01 0.52561205499E+01
 0.49793734892E+01 0.52561205499E+01 0.61633427956E+01 0.81347501845E+01 0.12381542662E+02
 0.19777270024E+02 0.30162389986E+02 0.42329667043E+02 0.54550070489E+02 0.65242162371E+02
 0.73355000687E+02 0.78358424006E+02 0.77880960292E+02 0.78358694411E+02 0.75460510338E+02
 0.69323365879E+02 0.60291088877E+02 0.49084051679E+02 0.36944921392E+02 0.25522665881E+02
 0.16377965086E+02 0.10337745918E+02 0.71485602498E+01 0.57080101070E+01 0.50549711354E+01
 0.49693448407E+01 0.54264037297E+01 0.65559154647E+01 0.90311082025E+01 0.14071536755E+02
 0.22276073665E+02 0.33165034037E+02 0.45340040514E+02 0.57080783298E+02 0.66943850379E+02
 0.74023804742E+02 0.78358694411E+02 0.80043874694E+02 0.78358545590E+02 0.73354714086E+02
 0.65241768005E+02 0.54549916329E+02 0.42329739886E+02 0.30162431701E+02 0.19777194661E+02
 0.12381529057E+02 0.81349099573E+01 0.61635041365E+01 0.52560717753E+01 0.49791941835E+01
 0.52560826121E+01 0.61635118696E+01 0.81348820769E+01 0.12381441033E+02 0.19777081232E+02
 0.30162394584E+02 0.42329873367E+02 0.54550216101E+02 0.65242125025E+02 0.73355000687E+02
 0.75460510338E+02 0.78358545590E+02 0.77880706896E+02 0.74023491234E+02 0.66943555362E+02
 0.57080615852E+02 0.45340065546E+02 0.33165205746E+02 0.22276266713E+02 0.14071650435E+02
 0.90311324299E+01 0.65559012274E+01 0.54263945317E+01 0.49693494169E+01 0.50549810462E+01
 0.57080136525E+01 0.71485411735E+01 0.10337699996E+02 0.16377934914E+02 0.25522737198E+02
 0.36945151574E+02 0.49084395553E+02 0.60291413216E+02 0.69323546991E+02 0.69323365879E+02
 0.73354714086E+02 0.74023491234E+02 0.71267991498E+02 0.65241952526E+02 0.56381824154E+02
 0.45525065478E+02 0.33974992178E+02 0.23326324916E+02 0.14983908059E+02 0.95984310330E+01
 0.68098456083E+01 0.55256036654E+01 0.49341434653E+01 0.48529610205E+01 0.52563764822E+01
 0.62588789225E+01 0.83903084780E+01 0.12789662783E+02 0.20111166733E+02 0.30037749754E+02
 0.41377473271E+02 0.52566652874E+02 0.62205876477E+02 0.60291088877E+02 0.65241768005E+02
 0.66943555362E+02 0.65241952526E+02 0.60291405259E+02 0.52566823674E+02 0.42896951569E+02
 0.32472507916E+02 0.22708267415E+02 0.14880110123E+02 0.96599610165E+01 0.68459224111E+01
 0.55175393620E+01 0.48606997697E+01 0.46633725116E+01 0.48606911323E+01 0.55175425954E+01
 0.68459588280E+01 0.96600257585E+01 0.14880158818E+02 0.22708232583E+02 0.32472339819E+02
 0.42896655785E+02 0.52566467409E+02 0.49084051679E+02 0.54549916329E+02 0.57080615852E+02
 0.56381824154E+02 0.52566823674E+02 0.46130527680E+02 0.37902986151E+02 0.28980996846E+02
 0.20585763069E+02 0.13791802668E+02 0.91836256199E+01 0.66329763722E+01 0.53864485234E+01
 0.47386084094E+01 0.44865784543E+01 0.45423912747E+01 0.49266930803E+01 0.57612715625E+01
 0.73704609627E+01 0.10609436412E+02 0.16070053541E+02 0.23630086760E+02 0.32472210768E+02
 0.41377199760E+02 0.36944921392E+02 0.42329739886E+02 0.45340065546E+02 0.45525065478E+02
 0.42896951569E+02 0.37902986151E+02 0.31328700827E+02 0.24163625791E+02 0.17435539479E+02
 0.11997787535E+02 0.82950802189E+01 0.62133333684E+01 0.51459858685E+01 0.45690134800E+01
 0.43183908484E+01 0.42988999335E+01 0.44988059578E+01 0.49948622547E+01 0.59294085221E+01
 0.76832056757E+01 0.10959880251E+02 0.16070003180E+02 0.22708087555E+02 0.30037522400E+02
 0.25522665881E+02 0.30162431701E+02 0.33165205746E+02 0.33974992178E+02 0.32472507916E+02
 0.28980996846E+02 0.24163625791E+02 0.18858347203E+02 0.13894850599E+02 0.99155660085E+01
 0.72203490998E+01 0.56835405097E+01 0.48360614672E+01 0.43676847384E+01 0.41573923953E+01
 0.41155463429E+01 0.42121993259E+01 0.44852191128E+01 0.50338454338E+01 0.59899064676E+01
 0.76832021900E+01 0.10609402470E+02 0.14880075068E+02 0.20111056139E+02 0.16377965086E+02
 0.19777194661E+02 0.22276266713E+02 0.23326324916E+02 0.22708267415E+02 0.20585763069E+02
 0.17435539479E+02 0.13894850599E+02 0.10585276926E+02 0.79586800425E+01 0.61908185341E+01
 0.51437647559E+01 0.45092648509E+01 0.41605724315E+01 0.40077321663E+01 0.39757816977E+01
 0.40287249210E+01 0.41779664338E+01 0.44819601741E+01 0.50338496484E+01 0.59294141674E+01
 0.73704555153E+01 0.96600037833E+01 0.12789645235E+02 0.10337745918E+02 0.12381529057E+02
 0.14071650435E+02 0.14983908059E+02 0.14880110123E+02 0.13791802668E+02 0.11997787535E+02
 0.99155660085E+01 0.79586800425E+01 0.64115974116E+01 0.53533577862E+01 0.46571271196E+01
 0.42136999850E+01 0.39746249214E+01 0.38775328411E+01 0.38672420640E+01 0.39107993669E+01
 0.40049451335E+01 0.41779663859E+01 0.44852216633E+01 0.49948672410E+01 0.57612749433E+01
 0.68459609964E+01 0.83903223211E+01 0.71485602498E+01 0.81349099573E+01 0.90311324299E+01
 0.95984310330E+01 0.96599610165E+01 0.91836256199E+01 0.82950802189E+01 0.72203490998E+01
 0.61908185341E+01 0.53533577862E+01 0.47214774373E+01 0.42672194794E+01 0.39800686865E+01
 0.38288803680E+01 0.37751643730E+01 0.37842863169E+01 0.38323670220E+01 0.39107998404E+01
 0.40287249121E+01 0.42121994413E+01 0.44988066377E+01 0.49266942513E+01 0.55175455561E+01
 0.62588877369E+01 0.57080101070E+01 0.61635041365E+01 0.65559012274E+01 0.68098456083E+01
 0.68459224111E+01 0.66329763722E+01 0.62133333684E+01 0.56835405097E+01 0.51437647559E+01
 0.46571271196E+01 0.42672194794E+01 0.39901925487E+01 0.38178717330E+01 0.37302487126E+01
 0.37060971469E+01 0.37281849114E+01 0.37842891006E+01 0.38672465516E+01 0.39757861167E+01
 0.41155492949E+01 0.42989014704E+01 0.45423923995E+01 0.48606920467E+01 0.52563759347E+01
 0.50549711354E+01 0.52560717753E+01 0.54263945317E+01 0.55256036654E+01 0.55175393620E+01
 0.53864485234E+01 0.51459858685E+01 0.48360614672E+01 0.45092648509E+01 0.42136999850E+01
 0.39800686865E+01 0.38178717330E+01 0.37206202622E+01 0.36756201409E+01 0.36724307759E+01
 0.37060997769E+01 0.37751700705E+01 0.38775403369E+01 0.40077386656E+01 0.41573957588E+01
 0.43183911918E+01 0.44865769362E+01 0.46633690504E+01 0.48529543525E+01 0.49693448407E+01
 0.49791941835E+01 0.49693494169E+01 0.49341434653E+01 0.48606997697E+01 0.47386084094E+01
 0.45690134800E+01 0.43676847384E+01 0.41605724315E+01 0.39746249214E+01 0.38288803680E+01
 0.37302487126E+01 0.36756201409E+01 0.36584555877E+01 0.36756216964E+01 0.37302517322E+01
 0.38288836997E+01 0.39746263256E+01 0.41605702298E+01 0.43676792476E+01 0.45690063555E+01
 0.47386008448E+01 0.48606920467E+01 0.49341363073E+01 0.54264037297E+01 0.52560826121E+01
 0.50549810462E+01 0.48529610205E+01 0.46633725116E+01 0.44865784543E+01 0.43183908484E+01
 0.41573923953E+01 0.40077321663E+01 0.38775328411E+01 0.37751643730E+01 0.37060971469E+01
 0.36724307759E+01 0.36756216964E+01 0.37206217434E+01 0.38178703557E+01 0.39800616814E+01
 0.42136876345E+01 0.45092517462E+01 0.48360534053E+01 0.51459851531E+01 0.53864528988E+01
 0.55175455561E+01 0.55256108701E+01 0.65559154647E+01 0.61635118696E+01 0.57080136525E+01
 0.52563764822E+01 0.48606911323E+01 0.45423912747E+01 0.42988999335E+01 0.41155463429E+01
 0.39757816977E+01 0.38672420640E+01 0.37842863169E+01 0.37281849114E+01 0.37060997769E+01
 0.37302517322E+01 0.38178703557E+01 0.39901819983E+01 0.42672006411E+01 0.46571099316E+01
 0.51437636401E+01 0.56835637515E+01 0.62133759925E+01 0.66330237386E+01 0.68459609964E+01
 0.68098706397E+01 0.90311082025E+01 0.81348820769E+01 0.71485411735E+01 0.62588789225E+01
 0.55175425954E+01 0.49266930803E+01 0.44988059578E+01 0.42121993259E+01 0.40287249210E+01
 0.39107993669E+01 0.38323670220E+01 0.37842891006E+01 0.37751700705E+01 0.38288836997E+01
 0.39800616814E+01 0.42672006411E+01 0.47214594630E+01 0.53533640816E+01 0.61908676961E+01
 0.72204388192E+01 0.82951848380E+01 0.91837106833E+01 0.96600037833E+01 0.95984314633E+01
 0.14071536755E+02 0.12381441033E+02 0.10337699996E+02 0.83903084780E+01 0.68459588280E+01
 0.57612715625E+01 0.49948622547E+01 0.44852191128E+01 0.41779664338E+01 0.40049451335E+01
 0.39107998404E+01 0.38672465516E+01 0.38775403369E+01 0.39746263256E+01 0.42136876345E+01
 0.46571099316E+01 0.53533640816E+01 0.64116571870E+01 0.79587990809E+01 0.99157138988E+01
 0.11997910745E+02 0.13791854095E+02 0.14880075068E+02 0.14983810460E+02 0.22276073665E+02
 0.19777081232E+02 0.16377934914E+02 0.12789662783E+02 0.96600257585E+01 0.73704609627E+01
 0.59294085221E+01 0.50338454338E+01 0.44819601741E+01 0.41779663859E+01 0.40287249121E+01
 0.39757861167E+01 0.40077386656E+01 0.41605702298E+01 0.45092517462E+01 0.51437636401E+01
 0.61908676961E+01 0.79587990809E+01 0.10585439455E+02 0.13894990828E+02 0.17435588623E+02
 0.20585687994E+02 0.22708087555E+02 0.23326101789E+02 0.33165034037E+02 0.30162394584E+02
 0.25522737198E+02 0.20111166733E+02 0.14880158818E+02 0.10609436412E+02 0.76832056757E+01
 0.59899064676E+01 0.50338496484E+01 0.44852216633E+01 0.42121994413E+01 0.41155492949E+01
 0.41573957588E+01 0.43676792476E+01 0.48360534053E+01 0.56835637515E+01 0.72204388192E+01
 0.99157138988E+01 0.13894990828E+02 0.18858393280E+02 0.24163526384E+02 0.28980765007E+02