   1   1   0   0
  0.1798157E+02  0.2858577E-09  0.2858577E-09  0.2858577E-09  0.5000000E-15
  1.000000000000000E-004
  CAR 
 Nb gaussian                             
    102.43978371    -32.18052237  301      4.85203517      1.00000000
    -32.181  0.0000E+00  0.0000E+00
    -31.732  0.0000E+00  0.0000E+00
    -31.283  0.0000E+00  0.0000E+00
    -30.834  0.0000E+00  0.0000E+00
    -30.386  0.0000E+00  0.0000E+00
    -29.937  0.0000E+00  0.0000E+00
    -29.488  0.0000E+00  0.0000E+00
    -29.039  0.0000E+00  0.0000E+00
    -28.591  0.0000E+00  0.0000E+00
    -28.142  0.0000E+00  0.0000E+00
    -27.693  0.0000E+00  0.0000E+00
    -27.244  0.7248E-18  0.3253E-18
    -26.796  0.8390E-08  0.3765E-08
    -26.347  0.4208E-02  0.1888E-02
    -25.898  0.1121E+01  0.5047E+00
    -25.450  0.3610E+01  0.2125E+01
    -25.001  0.4464E+01  0.4128E+01
    -24.552  0.4007E+01  0.5926E+01
    -24.103  0.1656E+00  0.6000E+01
    -23.655  0.5824E-05  0.6000E+01
    -23.206  0.2163E-13  0.6000E+01
    -22.757  0.0000E+00  0.6000E+01
    -22.308  0.0000E+00  0.6000E+01
    -21.860  0.0000E+00  0.6000E+01
    -21.411  0.0000E+00  0.6000E+01
    -20.962  0.0000E+00  0.6000E+01
    -20.513  0.0000E+00  0.6000E+01
    -20.065  0.0000E+00  0.6000E+01
    -19.616  0.0000E+00  0.6000E+01
    -19.167  0.0000E+00  0.6000E+01
    -18.718  0.0000E+00  0.6000E+01
    -18.270  0.0000E+00  0.6000E+01
    -17.821  0.0000E+00  0.6000E+01
    -17.372  0.0000E+00  0.6000E+01
    -16.924  0.0000E+00  0.6000E+01
    -16.475  0.0000E+00  0.6000E+01
    -16.026  0.0000E+00  0.6000E+01
    -15.577  0.0000E+00  0.6000E+01
    -15.129  0.0000E+00  0.6000E+01
    -14.680  0.0000E+00  0.6000E+01
    -14.231  0.0000E+00  0.6000E+01
    -13.782  0.0000E+00  0.6000E+01
    -13.334  0.0000E+00  0.6000E+01
    -12.885  0.0000E+00  0.6000E+01
    -12.436  0.0000E+00  0.6000E+01
    -11.987  0.0000E+00  0.6000E+01
    -11.539  0.0000E+00  0.6000E+01
    -11.090  0.0000E+00  0.6000E+01
    -10.641  0.0000E+00  0.6000E+01
    -10.193  0.0000E+00  0.6000E+01
     -9.744  0.0000E+00  0.6000E+01
     -9.295  0.0000E+00  0.6000E+01
     -8.846  0.0000E+00  0.6000E+01
     -8.398  0.0000E+00  0.6000E+01
     -7.949  0.0000E+00  0.6000E+01
     -7.500  0.0000E+00  0.6000E+01
     -7.051  0.0000E+00  0.6000E+01
     -6.603  0.0000E+00  0.6000E+01
     -6.154  0.0000E+00  0.6000E+01
     -5.705  0.0000E+00  0.6000E+01
     -5.256  0.0000E+00  0.6000E+01
     -4.808  0.0000E+00  0.6000E+01
     -4.359  0.0000E+00  0.6000E+01
     -3.910  0.0000E+00  0.6000E+01
     -3.462  0.0000E+00  0.6000E+01
     -3.013  0.0000E+00  0.6000E+01
     -2.564  0.0000E+00  0.6000E+01
     -2.115  0.1413E-16  0.6000E+01
     -1.667  0.9747E-08  0.6000E+01
     -1.218  0.4756E-03  0.6000E+01
     -0.769  0.1935E-01  0.6009E+01
     -0.320  0.5298E-01  0.6033E+01
      0.128  0.7751E-01  0.6067E+01
      0.577  0.1184E+00  0.6121E+01
      1.026  0.1999E+00  0.6210E+01
      1.475  0.6719E+00  0.6512E+01
      1.923  0.1074E+01  0.6994E+01
      2.372  0.1349E+01  0.7599E+01
      2.821  0.1090E+01  0.8088E+01
      3.269  0.9560E+00  0.8517E+01
      3.718  0.1830E+01  0.9338E+01
      4.167  0.1243E+01  0.9896E+01
      4.616  0.1510E+01  0.1057E+02
      5.064  0.1549E+01  0.1127E+02
      5.513  0.7520E+00  0.1161E+02
      5.962  0.4450E+00  0.1181E+02
      6.411  0.5183E+00  0.1204E+02
      6.859  0.8296E+00  0.1241E+02
      7.308  0.8881E+00  0.1281E+02
      7.757  0.1267E+01  0.1338E+02
      8.206  0.1420E+01  0.1401E+02
      8.654  0.1442E+01  0.1466E+02
      9.103  0.2156E+01  0.1563E+02
      9.552  0.1007E+01  0.1608E+02
     10.001  0.5749E+00  0.1634E+02
     10.449  0.7849E+00  0.1669E+02
     10.898  0.2924E+00  0.1682E+02
     11.347  0.3893E+00  0.1700E+02
     11.795  0.3967E+00  0.1718E+02
     12.244  0.2478E+00  0.1729E+02
     12.693  0.2838E+00  0.1741E+02
     13.142  0.3425E+00  0.1757E+02
     13.590  0.2301E+00  0.1767E+02
     14.039  0.2184E+00  0.1777E+02
     14.488  0.2469E+00  0.1788E+02
     14.937  0.1770E+00  0.1796E+02
     15.385  0.2421E+00  0.1807E+02
     15.834  0.3830E+00  0.1824E+02
     16.283  0.4729E+00  0.1845E+02
     16.732  0.5864E+00  0.1871E+02
     17.180  0.5448E+00  0.1896E+02
     17.629  0.6317E+00  0.1924E+02
     18.078  0.7096E+00  0.1956E+02
     18.526  0.7948E+00  0.1992E+02
     18.975  0.9025E+00  0.2032E+02
     19.424  0.7014E+00  0.2064E+02
     19.873  0.7142E+00  0.2096E+02
     20.321  0.6607E+00  0.2125E+02
     20.770  0.5317E+00  0.2149E+02
     21.219  0.8430E+00  0.2187E+02
     21.668  0.7872E+00  0.2222E+02
     22.116  0.8825E+00  0.2262E+02
     22.565  0.7548E+00  0.2296E+02
     23.014  0.6467E+00  0.2325E+02
     23.463  0.4639E+00  0.2346E+02
     23.911  0.4384E+00  0.2365E+02
     24.360  0.6001E+00  0.2392E+02
     24.809  0.6906E+00  0.2423E+02
     25.257  0.9521E+00  0.2466E+02
     25.706  0.6785E+00  0.2497E+02
     26.155  0.6494E+00  0.2526E+02
     26.604  0.4630E+00  0.2546E+02
     27.052  0.5064E+00  0.2569E+02
     27.501  0.5845E+00  0.2595E+02
     27.950  0.5508E+00  0.2620E+02
     28.399  0.6721E+00  0.2650E+02
     28.847  0.5150E+00  0.2673E+02
     29.296  0.9949E+00  0.2718E+02
     29.745  0.6506E+00  0.2747E+02
     30.194  0.7112E+00  0.2779E+02
     30.642  0.7384E+00  0.2812E+02
     31.091  0.5363E+00  0.2836E+02
     31.540  0.7326E+00  0.2869E+02
     31.988  0.7136E+00  0.2901E+02
     32.437  0.7924E+00  0.2937E+02
     32.886  0.8443E+00  0.2975E+02
     33.335  0.9262E+00  0.3016E+02
     33.783  0.8524E+00  0.3054E+02
     34.232  0.9410E+00  0.3097E+02
     34.681  0.7820E+00  0.3132E+02
     35.130  0.6433E+00  0.3161E+02
     35.578  0.7882E+00  0.3196E+02
     36.027  0.5649E+00  0.3221E+02
     36.476  0.6250E+00  0.3249E+02
     36.925  0.6610E+00  0.3279E+02
     37.373  0.8175E+00  0.3316E+02
     37.822  0.1101E+01  0.3365E+02
     38.271  0.9889E+00  0.3410E+02
     38.720  0.8135E+00  0.3446E+02
     39.168  0.6035E+00  0.3473E+02
     39.617  0.6397E+00  0.3502E+02
     40.066  0.1082E+01  0.3550E+02
     40.514  0.9100E+00  0.3591E+02
     40.963  0.7168E+00  0.3623E+02
     41.412  0.7684E+00  0.3658E+02
     41.861  0.1520E+01  0.3726E+02
     42.309  0.3244E+01  0.3872E+02
     42.758  0.1827E+01  0.3954E+02
     43.207  0.1069E+01  0.4002E+02
     43.656  0.1133E+01  0.4052E+02
     44.104  0.9088E+00  0.4093E+02
     44.553  0.1141E+01  0.4144E+02
     45.002  0.1031E+01  0.4191E+02
     45.451  0.8352E+00  0.4228E+02
     45.899  0.9618E+00  0.4271E+02
     46.348  0.7473E+00  0.4305E+02
     46.797  0.5618E+00  0.4330E+02
     47.245  0.5386E+00  0.4354E+02
     47.694  0.9773E+00  0.4398E+02
     48.143  0.8708E+00  0.4437E+02
     48.592  0.6440E+00  0.4466E+02
     49.040  0.9084E+00  0.4507E+02
     49.489  0.8073E+00  0.4543E+02
     49.938  0.5649E+00  0.4568E+02
     50.387  0.8824E+00  0.4608E+02
     50.835  0.1096E+01  0.4657E+02
     51.284  0.8960E+00  0.4697E+02
     51.733  0.8921E+00  0.4737E+02
     52.182  0.1076E+01  0.4786E+02
     52.630  0.9386E+00  0.4828E+02
     53.079  0.8739E+00  0.4867E+02
     53.528  0.8215E+00  0.4904E+02
     53.976  0.8055E+00  0.4940E+02
     54.425  0.9239E+00  0.4982E+02
     54.874  0.7781E+00  0.5016E+02
     55.323  0.9995E+00  0.5061E+02
     55.771  0.1056E+01  0.5109E+02
     56.220  0.8826E+00  0.5148E+02
     56.669  0.9607E+00  0.5191E+02
     57.118  0.1085E+01  0.5240E+02
     57.566  0.9587E+00  0.5283E+02
     58.015  0.9309E+00  0.5325E+02
     58.464  0.1148E+01  0.5376E+02
     58.913  0.1035E+01  0.5423E+02
     59.361  0.1038E+01  0.5469E+02
     59.810  0.1059E+01  0.5517E+02
     60.259  0.8758E+00  0.5556E+02
     60.707  0.1290E+01  0.5614E+02
     61.156  0.1129E+01  0.5665E+02
     61.605  0.9108E+00  0.5706E+02
     62.054  0.9411E+00  0.5748E+02
     62.502  0.8008E+00  0.5784E+02
     62.951  0.1179E+01  0.5837E+02
     63.400  0.8078E+00  0.5873E+02
     63.849  0.8150E+00  0.5910E+02
     64.297  0.1253E+01  0.5966E+02
     64.746  0.9761E+00  0.6010E+02
     65.195  0.8916E+00  0.6050E+02
     65.644  0.7511E+00  0.6083E+02
     66.092  0.1194E+01  0.6137E+02
     66.541  0.8473E+00  0.6175E+02
     66.990  0.9746E+00  0.6219E+02
     67.439  0.9717E+00  0.6262E+02
     67.887  0.1105E+01  0.6312E+02
     68.336  0.1054E+01  0.6359E+02
     68.785  0.1243E+01  0.6415E+02
     69.233  0.8272E+00  0.6452E+02
     69.682  0.8822E+00  0.6492E+02
     70.131  0.1234E+01  0.6547E+02
     70.580  0.9028E+00  0.6588E+02
     71.028  0.8781E+00  0.6627E+02
     71.477  0.8836E+00  0.6667E+02
     71.926  0.9388E+00  0.6709E+02
     72.375  0.1301E+01  0.6767E+02
     72.823  0.1160E+01  0.6819E+02
     73.272  0.1113E+01  0.6869E+02
     73.721  0.1244E+01  0.6925E+02
     74.170  0.1091E+01  0.6974E+02
     74.618  0.9988E+00  0.7019E+02
     75.067  0.7918E+00  0.7054E+02
     75.516  0.1146E+01  0.7106E+02
     75.964  0.8369E+00  0.7143E+02
     76.413  0.1073E+01  0.7191E+02
     76.862  0.9380E+00  0.7233E+02
     77.311  0.1336E+01  0.7293E+02
     77.759  0.1124E+01  0.7344E+02
     78.208  0.1055E+01  0.7391E+02
     78.657  0.1296E+01  0.7449E+02
     79.106  0.1161E+01  0.7501E+02
     79.554  0.9767E+00  0.7545E+02
     80.003  0.9728E+00  0.7589E+02
     80.452  0.9210E+00  0.7630E+02
     80.901  0.8389E+00  0.7668E+02
     81.349  0.1267E+01  0.7725E+02
     81.798  0.9316E+00  0.7767E+02
     82.247  0.1143E+01  0.7818E+02
     82.695  0.8583E+00  0.7856E+02
     83.144  0.9019E+00  0.7897E+02
     83.593  0.6391E+00  0.7925E+02
     84.042  0.5033E+00  0.7948E+02
     84.490  0.3525E+00  0.7964E+02
     84.939  0.2723E+00  0.7976E+02
     85.388  0.1509E+00  0.7983E+02
     85.837  0.1370E+00  0.7989E+02
     86.285  0.9920E-02  0.7989E+02
     86.734  0.1391E-03  0.7989E+02
     87.183  0.8070E-02  0.7990E+02
     87.632  0.2618E-01  0.7991E+02
     88.080  0.4808E-01  0.7993E+02
     88.529  0.5729E-02  0.7993E+02
     88.978  0.2642E-01  0.7995E+02
     89.426  0.1154E-01  0.7995E+02
     89.875  0.5519E-03  0.7995E+02
     90.324  0.3347E-01  0.7997E+02
     90.773  0.1956E-01  0.7998E+02
     91.221  0.3055E-01  0.7999E+02
     91.670  0.2998E-02  0.7999E+02
     92.119  0.1080E-06  0.7999E+02
     92.568  0.2745E-15  0.7999E+02
     93.016  0.0000E+00  0.7999E+02
     93.465  0.0000E+00  0.7999E+02
     93.914  0.0000E+00  0.7999E+02
     94.363  0.0000E+00  0.7999E+02
     94.811  0.0000E+00  0.7999E+02
     95.260  0.1236E-10  0.7999E+02
     95.709  0.2468E-04  0.7999E+02
     96.158  0.7333E-02  0.7999E+02
     96.606  0.1412E-01  0.8000E+02
     97.055  0.2824E-03  0.8000E+02
     97.504  0.1326E-08  0.8000E+02
     97.952  0.0000E+00  0.8000E+02
     98.401  0.0000E+00  0.8000E+02
     98.850  0.0000E+00  0.8000E+02
     99.299  0.0000E+00  0.8000E+02
     99.747  0.0000E+00  0.8000E+02
    100.196  0.0000E+00  0.8000E+02
    100.645  0.0000E+00  0.8000E+02
    101.094  0.0000E+00  0.8000E+02
    101.542  0.0000E+00  0.8000E+02
    101.991  0.0000E+00  0.8000E+02
    102.440  0.0000E+00  0.8000E+02
