       N       E                     dE             d eps       ncg     rms          rms(c)
DAV:   1    -0.100572820819E+02   -0.10057E+02   -0.55137E+03 15120   0.185E+02
DAV:   2    -0.111510708709E+02   -0.10938E+01   -0.10588E+01 12320   0.962E+00
DAV:   3    -0.111513752558E+02   -0.30438E-03   -0.30435E-03 18680   0.150E-01
DAV:   4    -0.111513752573E+02   -0.14559E-08   -0.10713E-08 12760   0.185E-04
DAV:   5    -0.111513752571E+02    0.17576E-09   -0.26712E-12 18560   0.118E-06
DAV:   6    -0.111513752566E+02    0.52705E-09    0.97397E-13 11080   0.423E-08
   1 F= -.11151375E+02 E0= -.11135617E+02  d E =-.315164E-01
