<?xml version="1.0" encoding="ISO-8859-1"?>
<modeling>
 <generator>
  <i name="program" type="string">vasp </i>
  <i name="version" type="string">5.4.4.18Apr17-6-g9f103f2a35  </i>
  <i name="subversion" type="string">(build May 20 2018 16:52:39) complex            parallel </i>
  <i name="platform" type="string">LinuxIFC </i>
  <i name="date" type="string">2022 11 17 </i>
  <i name="time" type="string">22:01:40 </i>
 </generator>
 <incar>
  <i type="string" name="SYSTEM"> Nb gaussian</i>
  <i type="string" name="PREC">normal</i>
  <i type="int" name="ICHARG">    11</i>
  <i name="EDIFF">      0.00000010</i>
  <i name="ENCUT">    300.00000000</i>
  <i type="int" name="ISMEAR">     0</i>
  <i type="logical" name="LCHARG"> F  </i>
  <v type="int" name="KPOINT_BSE">    -1     0     0     0</v>
 </incar>
 <structure name="primitive_cell" >
  <crystal>
   <varray name="basis" >
    <v>      -1.65040000       1.65040000       1.65040000 </v>
    <v>       1.65040000      -1.65040000       1.65040000 </v>
    <v>       1.65040000       1.65040000      -1.65040000 </v>
   </varray>
   <i name="volume">     17.98157117 </i>
   <varray name="rec_basis" >
    <v>       0.00000000       0.30295686       0.30295686 </v>
    <v>       0.30295686       0.00000000       0.30295686 </v>
    <v>       0.30295686       0.30295686       0.00000000 </v>
   </varray>
  </crystal>
  <varray name="positions" >
   <v>       0.00000000       0.00000000       0.00000000 </v>
  </varray>
 </structure>
 <varray name="primitive_index" >
  <v type="int" >        1 </v>
 </varray>
 <kpoints>
  <generation param="Monkhorst-Pack">
   <v type="int" name="divisions">      16       16       16 </v>
   <v name="usershift">      0.00000000       0.00000000       0.00000000 </v>
   <v name="genvec1">      0.06250000       0.00000000       0.00000000 </v>
   <v name="genvec2">      0.00000000       0.06250000       0.00000000 </v>
   <v name="genvec3">      0.00000000       0.00000000       0.06250000 </v>
   <v name="shift">      0.50000000       0.50000000       0.50000000 </v>
  </generation>
  <varray name="kpointlist" >
   <v>       0.03125000       0.03125000       0.03125000 </v>
   <v>       0.09375000       0.03125000       0.03125000 </v>
   <v>       0.15625000       0.03125000       0.03125000 </v>
   <v>       0.21875000       0.03125000       0.03125000 </v>
   <v>       0.28125000       0.03125000       0.03125000 </v>
   <v>       0.34375000       0.03125000       0.03125000 </v>
   <v>       0.40625000       0.03125000       0.03125000 </v>
   <v>       0.46875000       0.03125000       0.03125000 </v>
   <v>      -0.03125000       0.03125000       0.03125000 </v>
   <v>       0.09375000       0.09375000       0.03125000 </v>
   <v>       0.15625000       0.09375000       0.03125000 </v>
   <v>       0.21875000       0.09375000       0.03125000 </v>
   <v>       0.28125000       0.09375000       0.03125000 </v>
   <v>       0.34375000       0.09375000       0.03125000 </v>
   <v>       0.40625000       0.09375000       0.03125000 </v>
   <v>      -0.09375000       0.09375000       0.03125000 </v>
   <v>       0.15625000       0.15625000       0.03125000 </v>
   <v>       0.21875000       0.15625000       0.03125000 </v>
   <v>       0.28125000       0.15625000       0.03125000 </v>
   <v>       0.34375000       0.15625000       0.03125000 </v>
   <v>       0.40625000       0.15625000       0.03125000 </v>
   <v>      -0.15625000       0.15625000       0.03125000 </v>
   <v>      -0.09375000       0.15625000       0.03125000 </v>
   <v>       0.21875000       0.21875000       0.03125000 </v>
   <v>       0.28125000       0.21875000       0.03125000 </v>
   <v>       0.34375000       0.21875000       0.03125000 </v>
   <v>      -0.21875000       0.21875000       0.03125000 </v>
   <v>      -0.15625000       0.21875000       0.03125000 </v>
   <v>       0.28125000       0.28125000       0.03125000 </v>
   <v>       0.34375000       0.28125000       0.03125000 </v>
   <v>      -0.28125000       0.28125000       0.03125000 </v>
   <v>      -0.21875000       0.28125000       0.03125000 </v>
   <v>      -0.15625000       0.28125000       0.03125000 </v>
   <v>      -0.34375000       0.34375000       0.03125000 </v>
   <v>      -0.28125000       0.34375000       0.03125000 </v>
   <v>      -0.21875000       0.34375000       0.03125000 </v>
   <v>      -0.40625000       0.40625000       0.03125000 </v>
   <v>      -0.34375000       0.40625000       0.03125000 </v>
   <v>      -0.28125000       0.40625000       0.03125000 </v>
   <v>      -0.21875000       0.40625000       0.03125000 </v>
   <v>      -0.46875000       0.46875000       0.03125000 </v>
   <v>      -0.40625000       0.46875000       0.03125000 </v>
   <v>      -0.34375000       0.46875000       0.03125000 </v>
   <v>      -0.28125000       0.46875000       0.03125000 </v>
   <v>      -0.46875000      -0.46875000       0.03125000 </v>
   <v>      -0.40625000      -0.46875000       0.03125000 </v>
   <v>      -0.34375000      -0.46875000       0.03125000 </v>
   <v>      -0.28125000      -0.46875000       0.03125000 </v>
   <v>      -0.40625000      -0.40625000       0.03125000 </v>
   <v>      -0.34375000      -0.40625000       0.03125000 </v>
   <v>      -0.34375000      -0.34375000       0.03125000 </v>
   <v>       0.09375000       0.09375000       0.09375000 </v>
   <v>       0.15625000       0.09375000       0.09375000 </v>
   <v>       0.21875000       0.09375000       0.09375000 </v>
   <v>       0.28125000       0.09375000       0.09375000 </v>
   <v>       0.34375000       0.09375000       0.09375000 </v>
   <v>       0.40625000       0.09375000       0.09375000 </v>
   <v>      -0.09375000       0.09375000       0.09375000 </v>
   <v>       0.15625000       0.15625000       0.09375000 </v>
   <v>       0.21875000       0.15625000       0.09375000 </v>
   <v>       0.28125000       0.15625000       0.09375000 </v>
   <v>       0.34375000       0.15625000       0.09375000 </v>
   <v>      -0.15625000       0.15625000       0.09375000 </v>
   <v>       0.21875000       0.21875000       0.09375000 </v>
   <v>       0.28125000       0.21875000       0.09375000 </v>
   <v>       0.34375000       0.21875000       0.09375000 </v>
   <v>      -0.21875000       0.21875000       0.09375000 </v>
   <v>      -0.15625000       0.21875000       0.09375000 </v>
   <v>       0.28125000       0.28125000       0.09375000 </v>
   <v>      -0.28125000       0.28125000       0.09375000 </v>
   <v>      -0.21875000       0.28125000       0.09375000 </v>
   <v>      -0.34375000       0.34375000       0.09375000 </v>
   <v>      -0.28125000       0.34375000       0.09375000 </v>
   <v>      -0.21875000       0.34375000       0.09375000 </v>
   <v>      -0.40625000       0.40625000       0.09375000 </v>
   <v>      -0.34375000       0.40625000       0.09375000 </v>
   <v>      -0.28125000       0.40625000       0.09375000 </v>
   <v>      -0.46875000       0.46875000       0.09375000 </v>
   <v>      -0.40625000       0.46875000       0.09375000 </v>
   <v>      -0.34375000       0.46875000       0.09375000 </v>
   <v>      -0.28125000       0.46875000       0.09375000 </v>
   <v>      -0.46875000      -0.46875000       0.09375000 </v>
   <v>      -0.40625000      -0.46875000       0.09375000 </v>
   <v>      -0.34375000      -0.46875000       0.09375000 </v>
   <v>      -0.40625000      -0.40625000       0.09375000 </v>
   <v>      -0.34375000      -0.40625000       0.09375000 </v>
   <v>       0.15625000       0.15625000       0.15625000 </v>
   <v>       0.21875000       0.15625000       0.15625000 </v>
   <v>       0.28125000       0.15625000       0.15625000 </v>
   <v>       0.34375000       0.15625000       0.15625000 </v>
   <v>      -0.15625000       0.15625000       0.15625000 </v>
   <v>       0.21875000       0.21875000       0.15625000 </v>
   <v>       0.28125000       0.21875000       0.15625000 </v>
   <v>      -0.21875000       0.21875000       0.15625000 </v>
   <v>       0.28125000       0.28125000       0.15625000 </v>
   <v>      -0.28125000       0.28125000       0.15625000 </v>
   <v>      -0.21875000       0.28125000       0.15625000 </v>
   <v>      -0.34375000       0.34375000       0.15625000 </v>
   <v>      -0.28125000       0.34375000       0.15625000 </v>
   <v>      -0.40625000       0.40625000       0.15625000 </v>
   <v>      -0.34375000       0.40625000       0.15625000 </v>
   <v>      -0.28125000       0.40625000       0.15625000 </v>
   <v>      -0.46875000       0.46875000       0.15625000 </v>
   <v>      -0.40625000       0.46875000       0.15625000 </v>
   <v>      -0.34375000       0.46875000       0.15625000 </v>
   <v>      -0.46875000      -0.46875000       0.15625000 </v>
   <v>      -0.40625000      -0.46875000       0.15625000 </v>
   <v>      -0.34375000      -0.46875000       0.15625000 </v>
   <v>      -0.40625000      -0.40625000       0.15625000 </v>
   <v>       0.21875000       0.21875000       0.21875000 </v>
   <v>       0.28125000       0.21875000       0.21875000 </v>
   <v>      -0.21875000       0.21875000       0.21875000 </v>
   <v>      -0.28125000       0.28125000       0.21875000 </v>
   <v>      -0.34375000       0.34375000       0.21875000 </v>
   <v>      -0.28125000       0.34375000       0.21875000 </v>
   <v>      -0.40625000       0.40625000       0.21875000 </v>
   <v>      -0.34375000       0.40625000       0.21875000 </v>
   <v>      -0.46875000       0.46875000       0.21875000 </v>
   <v>      -0.40625000       0.46875000       0.21875000 </v>
   <v>      -0.34375000       0.46875000       0.21875000 </v>
   <v>      -0.46875000      -0.46875000       0.21875000 </v>
   <v>      -0.40625000      -0.46875000       0.21875000 </v>
   <v>      -0.40625000      -0.40625000       0.21875000 </v>
   <v>      -0.28125000       0.28125000       0.28125000 </v>
   <v>      -0.34375000       0.34375000       0.28125000 </v>
   <v>      -0.40625000       0.40625000       0.28125000 </v>
   <v>      -0.34375000       0.40625000       0.28125000 </v>
   <v>      -0.46875000       0.46875000       0.28125000 </v>
   <v>      -0.40625000       0.46875000       0.28125000 </v>
   <v>      -0.46875000      -0.46875000       0.28125000 </v>
   <v>      -0.40625000      -0.46875000       0.28125000 </v>
   <v>      -0.34375000       0.34375000       0.34375000 </v>
   <v>      -0.40625000       0.40625000       0.34375000 </v>
   <v>      -0.46875000       0.46875000       0.34375000 </v>
   <v>      -0.40625000       0.46875000       0.34375000 </v>
   <v>      -0.46875000      -0.46875000       0.34375000 </v>
   <v>      -0.40625000       0.40625000       0.40625000 </v>
   <v>      -0.46875000       0.46875000       0.40625000 </v>
   <v>      -0.46875000      -0.46875000       0.40625000 </v>
   <v>      -0.46875000       0.46875000       0.46875000 </v>
  </varray>
  <varray name="weights" >
   <v>       0.00195312 </v>
   <v>       0.00585938 </v>
   <v>       0.00585938 </v>
   <v>       0.00585938 </v>
   <v>       0.00585938 </v>
   <v>       0.00585938 </v>
   <v>       0.00585938 </v>
   <v>       0.00292969 </v>
   <v>       0.00146484 </v>
   <v>       0.00585938 </v>
   <v>       0.01171875 </v>
   <v>       0.01171875 </v>
   <v>       0.01171875 </v>
   <v>       0.01171875 </v>
   <v>       0.01171875 </v>
   <v>       0.00585938 </v>
   <v>       0.00585938 </v>
   <v>       0.01171875 </v>
   <v>       0.01171875 </v>
   <v>       0.01171875 </v>
   <v>       0.00585938 </v>
   <v>       0.00585938 </v>
   <v>       0.00585938 </v>
   <v>       0.00585938 </v>
   <v>       0.01171875 </v>
   <v>       0.01171875 </v>
   <v>       0.00585938 </v>
   <v>       0.01171875 </v>
   <v>       0.00585938 </v>
   <v>       0.00585938 </v>
   <v>       0.00585938 </v>
   <v>       0.01171875 </v>
   <v>       0.00585938 </v>
   <v>       0.00585938 </v>
   <v>       0.01171875 </v>
   <v>       0.01171875 </v>
   <v>       0.00585938 </v>
   <v>       0.01171875 </v>
   <v>       0.01171875 </v>
   <v>       0.00585938 </v>
   <v>       0.00585938 </v>
   <v>       0.01171875 </v>
   <v>       0.01171875 </v>
   <v>       0.01171875 </v>
   <v>       0.00585938 </v>
   <v>       0.01171875 </v>
   <v>       0.01171875 </v>
   <v>       0.00585938 </v>
   <v>       0.00585938 </v>
   <v>       0.01171875 </v>
   <v>       0.00195312 </v>
   <v>       0.00195312 </v>
   <v>       0.00585938 </v>
   <v>       0.00585938 </v>
   <v>       0.00585938 </v>
   <v>       0.00585938 </v>
   <v>       0.00292969 </v>
   <v>       0.00146484 </v>
   <v>       0.00585938 </v>
   <v>       0.01171875 </v>
   <v>       0.01171875 </v>
   <v>       0.01171875 </v>
   <v>       0.00585938 </v>
   <v>       0.00585938 </v>
   <v>       0.01171875 </v>
   <v>       0.00585938 </v>
   <v>       0.00585938 </v>
   <v>       0.00585938 </v>
   <v>       0.00585938 </v>
   <v>       0.00585938 </v>
   <v>       0.01171875 </v>
   <v>       0.00585938 </v>
   <v>       0.01171875 </v>
   <v>       0.00585938 </v>
   <v>       0.00585938 </v>
   <v>       0.01171875 </v>
   <v>       0.01171875 </v>
   <v>       0.00585938 </v>
   <v>       0.01171875 </v>
   <v>       0.01171875 </v>
   <v>       0.00585938 </v>
   <v>       0.00585938 </v>
   <v>       0.01171875 </v>
   <v>       0.01171875 </v>
   <v>       0.00585938 </v>
   <v>       0.00585938 </v>
   <v>       0.00195312 </v>
   <v>       0.00585938 </v>
   <v>       0.00585938 </v>
   <v>       0.00292969 </v>
   <v>       0.00146484 </v>
   <v>       0.00585938 </v>
   <v>       0.01171875 </v>
   <v>       0.00585938 </v>
   <v>       0.00195312 </v>
   <v>       0.00585938 </v>
   <v>       0.00585938 </v>
   <v>       0.00585938 </v>
   <v>       0.01171875 </v>
   <v>       0.00585938 </v>
   <v>       0.01171875 </v>
   <v>       0.00585938 </v>
   <v>       0.00585938 </v>
   <v>       0.01171875 </v>
   <v>       0.01171875 </v>
   <v>       0.00585938 </v>
   <v>       0.01171875 </v>
   <v>       0.00585938 </v>
   <v>       0.00585938 </v>
   <v>       0.00195312 </v>
   <v>       0.00292969 </v>
   <v>       0.00146484 </v>
   <v>       0.00585938 </v>
   <v>       0.00585938 </v>
   <v>       0.00585938 </v>
   <v>       0.00585938 </v>
   <v>       0.01171875 </v>
   <v>       0.00585938 </v>
   <v>       0.01171875 </v>
   <v>       0.00585938 </v>
   <v>       0.00585938 </v>
   <v>       0.01171875 </v>
   <v>       0.00195312 </v>
   <v>       0.00146484 </v>
   <v>       0.00585938 </v>
   <v>       0.00585938 </v>
   <v>       0.00585938 </v>
   <v>       0.00585938 </v>
   <v>       0.01171875 </v>
   <v>       0.00585938 </v>
   <v>       0.00585938 </v>
   <v>       0.00146484 </v>
   <v>       0.00585938 </v>
   <v>       0.00585938 </v>
   <v>       0.00585938 </v>
   <v>       0.00585938 </v>
   <v>       0.00146484 </v>
   <v>       0.00585938 </v>
   <v>       0.00195312 </v>
   <v>       0.00146484 </v>
  </varray>
 </kpoints>
 <parameters>
  <separator name="general" >
   <i type="string" name="SYSTEM">Nb gaussian</i>
   <i type="logical" name="LCOMPAT"> F  </i>
  </separator>
  <separator name="electronic" >
   <i type="string" name="PREC">normal</i>
   <i name="ENMAX">    300.00000000</i>
   <i name="ENAUG">    352.74500000</i>
   <i name="EDIFF">      0.00000010</i>
   <i type="int" name="IALGO">    38</i>
   <i type="int" name="IWAVPR">    10</i>
   <i type="int" name="NBANDS">    40</i>
   <i name="NELECT">     11.00000000</i>
   <i type="int" name="TURBO">     0</i>
   <i type="int" name="IRESTART">     0</i>
   <i type="int" name="NREBOOT">     0</i>
   <i type="int" name="NMIN">     0</i>
   <i name="EREF">      0.00000000</i>
   <separator name="electronic smearing" >
    <i type="int" name="ISMEAR">     0</i>
    <i name="SIGMA">      0.20000000</i>
    <i name="KSPACING">      0.50000000</i>
    <i type="logical" name="KGAMMA"> T  </i>
   </separator>
   <separator name="electronic projectors" >
    <i type="logical" name="LREAL"> F  </i>
    <v name="ROPT">      0.00000000</v>
    <i type="int" name="LMAXPAW">  -100</i>
    <i type="int" name="LMAXMIX">     2</i>
    <i type="logical" name="NLSPLINE"> F  </i>
   </separator>
   <separator name="electronic startup" >
    <i type="int" name="ISTART">     0</i>
    <i type="int" name="ICHARG">    11</i>
    <i type="int" name="INIWAV">     1</i>
   </separator>
   <separator name="electronic spin" >
    <i type="int" name="ISPIN">     1</i>
    <i type="logical" name="LNONCOLLINEAR"> F  </i>
    <v name="MAGMOM">      1.00000000</v>
    <i name="NUPDOWN">     -1.00000000</i>
    <i type="logical" name="LSORBIT"> F  </i>
    <v name="SAXIS">      0.00000000      0.00000000      1.00000000</v>
    <i type="logical" name="LSPIRAL"> F  </i>
    <v name="QSPIRAL">      0.00000000      0.00000000      0.00000000</v>
    <i type="logical" name="LZEROZ"> F  </i>
   </separator>
   <separator name="electronic exchange-correlation" >
    <i type="logical" name="LASPH"> F  </i>
    <i type="logical" name="LMETAGGA"> F  </i>
   </separator>
   <separator name="electronic convergence" >
    <i type="int" name="NELM">    60</i>
    <i type="int" name="NELMDL">    -5</i>
    <i type="int" name="NELMIN">     2</i>
    <i name="ENINI">    300.00000000</i>
    <separator name="electronic convergence detail" >
     <i type="logical" name="LDIAG"> T  </i>
     <i type="logical" name="LSUBROT"> F  </i>
     <i name="WEIMIN">      0.00000000</i>
     <i name="EBREAK">      0.00000000</i>
     <i name="DEPER">      0.30000000</i>
     <i type="int" name="NRMM">     4</i>
     <i name="TIME">      0.40000000</i>
    </separator>
   </separator>
   <separator name="electronic mixer" >
    <i name="AMIX">      0.40000000</i>
    <i name="BMIX">      1.00000000</i>
    <i name="AMIN">      0.10000000</i>
    <i name="AMIX_MAG">      1.60000000</i>
    <i name="BMIX_MAG">      1.00000000</i>
    <separator name="electronic mixer details" >
     <i type="int" name="IMIX">     4</i>
     <i type="logical" name="MIXFIRST"> F  </i>
     <i type="int" name="MAXMIX">   -45</i>
     <i name="WC">    100.00000000</i>
     <i type="int" name="INIMIX">     1</i>
     <i type="int" name="MIXPRE">     1</i>
     <i type="int" name="MREMOVE">     5</i>
    </separator>
   </separator>
   <separator name="electronic dipolcorrection" >
    <i type="logical" name="LDIPOL"> F  </i>
    <i type="logical" name="LMONO"> F  </i>
    <i type="int" name="IDIPOL">     0</i>
    <i name="EPSILON">      1.00000000</i>
    <v name="DIPOL">   -100.00000000   -100.00000000   -100.00000000</v>
    <i name="EFIELD">      0.00000000</i>
   </separator>
  </separator>
  <separator name="grids" >
   <i type="int" name="NGX">    12</i>
   <i type="int" name="NGY">    12</i>
   <i type="int" name="NGZ">    12</i>
   <i type="int" name="NGXF">    24</i>
   <i type="int" name="NGYF">    24</i>
   <i type="int" name="NGZF">    24</i>
   <i type="logical" name="ADDGRID"> F  </i>
  </separator>
  <separator name="ionic" >
   <i type="int" name="NSW">     0</i>
   <i type="int" name="IBRION">    -1</i>
   <i type="int" name="MDALGO">     0</i>
   <i type="int" name="ISIF">     2</i>
   <i name="PSTRESS">      0.00000000</i>
   <i name="EDIFFG">      0.00000100</i>
   <i type="int" name="NFREE">     0</i>
   <i name="POTIM">      0.50000000</i>
   <i name="SMASS">     -3.00000000</i>
   <i name="SCALEE">      1.00000000</i>
  </separator>
  <separator name="ionic md" >
   <i name="TEBEG">      0.00010000</i>
   <i name="TEEND">      0.00010000</i>
   <i type="int" name="NBLOCK">     1</i>
   <i type="int" name="KBLOCK">     1</i>
   <i type="int" name="NPACO">   256</i>
   <i name="APACO">     16.00000000</i>
  </separator>
  <separator name="symmetry" >
   <i type="int" name="ISYM">     2</i>
   <i name="SYMPREC">      0.00001000</i>
  </separator>
  <separator name="dos" >
   <i type="int" name="LORBIT">     0</i>
   <v name="RWIGS">     -1.00000000</v>
   <i type="int" name="NEDOS">   301</i>
   <i name="EMIN">     10.00000000</i>
   <i name="EMAX">    -10.00000000</i>
   <i name="EFERMI">      0.00000000</i>
  </separator>
  <separator name="writing" >
   <i type="int" name="NWRITE">     2</i>
   <i type="logical" name="LWAVE"> T  </i>
   <i type="logical" name="LDOWNSAMPLE"> F  </i>
   <i type="logical" name="LCHARG"> F  </i>
   <i type="logical" name="LPARD"> F  </i>
   <i type="logical" name="LVTOT"> F  </i>
   <i type="logical" name="LVHAR"> F  </i>
   <i type="logical" name="LELF"> F  </i>
   <i type="logical" name="LOPTICS"> F  </i>
   <v name="STM">      0.00000000      0.00000000      0.00000000      0.00000000      0.00000000      0.00000000      0.00000000</v>
  </separator>
  <separator name="performance" >
   <i type="int" name="NPAR">    40</i>
   <i type="int" name="NSIM">     4</i>
   <i type="int" name="NBLK">    -1</i>
   <i type="logical" name="LPLANE"> T  </i>
   <i type="logical" name="LSCALAPACK"> T  </i>
   <i type="logical" name="LSCAAWARE"> T  </i>
   <i type="logical" name="LSCALU"> F  </i>
   <i type="logical" name="LASYNC"> F  </i>
   <i type="logical" name="LORBITALREAL"> F  </i>
  </separator>
  <separator name="miscellaneous" >
   <i type="int" name="IDIOT">     3</i>
   <i type="int" name="ISPECIAL">     0</i>
   <i type="logical" name="LMUSIC"> F  </i>
   <v name="POMASS">     92.91000000</v>
   <v name="DARWINR">      0.00000000</v>
   <v name="DARWINV">      1.00000000</v>
   <i type="logical" name="LCORR"> T  </i>
  </separator>
  <i type="logical" name="GGA_COMPAT"> T  </i>
  <i type="logical" name="LBERRY"> F  </i>
  <i type="int" name="ICORELEVEL">     0</i>
  <i type="logical" name="LDAU"> F  </i>
  <i type="int" name="I_CONSTRAINED_M">     0</i>
  <separator name="electronic exchange-correlation" >
   <i type="string" name="GGA">--</i>
   <i type="int" name="VOSKOWN">     0</i>
   <i type="logical" name="LHFCALC"> F  </i>
   <i type="string" name="PRECFOCK"></i>
   <i type="logical" name="LSYMGRAD"> F  </i>
   <i type="logical" name="LHFONE"> F  </i>
   <i type="logical" name="LRHFCALC"> F  </i>
   <i type="logical" name="LTHOMAS"> F  </i>
   <i type="logical" name="LMODELHF"> F  </i>
   <i name="ENCUT4O">     -1.00000000</i>
   <i type="int" name="EXXOEP">     0</i>
   <i type="int" name="FOURORBIT">     0</i>
   <i name="AEXX">      0.00000000</i>
   <i name="HFALPHA">      0.00000000</i>
   <i name="MCALPHA">      0.00000000</i>
   <i name="ALDAX">      1.00000000</i>
   <i name="AGGAX">      1.00000000</i>
   <i name="ALDAC">      1.00000000</i>
   <i name="AGGAC">      1.00000000</i>
   <i type="int" name="NKREDX">     1</i>
   <i type="int" name="NKREDY">     1</i>
   <i type="int" name="NKREDZ">     1</i>
   <i type="logical" name="SHIFTRED"> F  </i>
   <i type="logical" name="ODDONLY"> F  </i>
   <i type="logical" name="EVENONLY"> F  </i>
   <i type="int" name="LMAXFOCK">     0</i>
   <i type="int" name="NMAXFOCKAE">     0</i>
   <i type="logical" name="LFOCKAEDFT"> F  </i>
   <i name="HFSCREEN">      0.00000000</i>
   <i name="HFSCREENC">      0.00000000</i>
   <i type="int" name="NBANDSGWLOW">     0</i>
  </separator>
  <separator name="vdW DFT" >
   <i type="logical" name="LUSE_VDW"> F  </i>
   <i name="Zab_VDW">     -0.84910000</i>
   <i name="PARAM1">      0.12340000</i>
   <i name="PARAM2">      1.00000000</i>
   <i name="PARAM3">      0.00000000</i>
  </separator>
  <separator name="model GW" >
   <i type="int" name="MODEL_GW">     0</i>
   <i name="MODEL_EPS0">     10.78894270</i>
   <i name="MODEL_ALPHA">      1.00000000</i>
  </separator>
  <separator name="linear response parameters" >
   <i type="logical" name="LEPSILON"> F  </i>
   <i type="logical" name="LRPA"> F  </i>
   <i type="logical" name="LNABLA"> F  </i>
   <i type="logical" name="LVEL"> F  </i>
   <i type="int" name="KINTER">     0</i>
   <i name="CSHIFT">      0.10000000</i>
   <i name="OMEGAMAX">     -1.00000000</i>
   <i name="DEG_THRESHOLD">      0.00200000</i>
   <i name="RTIME">     -0.10000000</i>
   <i name="WPLASMAI">      0.00000000</i>
   <v name="DFIELD">      0.00000000      0.00000000      0.00000000</v>
   <v name="WPLASMA">      0.00000000      0.00000000      0.00000000      0.00000000      0.00000000      0.00000000      0.00000000      0.00000000      0.00000000</v>
  </separator>
  <separator name="orbital magnetization" >
   <i type="logical" name="NUCIND"> F  </i>
   <v name="MAGPOS">      0.00000000      0.00000000      0.00000000</v>
   <i type="logical" name="LNICSALL"> T  </i>
   <i type="logical" name="ORBITALMAG"> F  </i>
   <i type="logical" name="LMAGBLOCH"> F  </i>
   <i type="logical" name="LCHIMAG"> F  </i>
   <i type="logical" name="LGAUGE"> T  </i>
   <i type="int" name="MAGATOM">     0</i>
   <v name="MAGDIPOL">      0.00000000      0.00000000      0.00000000</v>
   <v name="AVECCONST">      0.00000000      0.00000000      0.00000000</v>
  </separator>
  <separator name="response functions" >
   <i type="logical" name="LADDER"> F  </i>
   <i type="logical" name="LRPAFORCE"> F  </i>
   <i type="logical" name="LFXC"> F  </i>
   <i type="logical" name="LHARTREE"> T  </i>
   <i type="int" name="IBSE">     0</i>
   <v type="int" name="KPOINT">    -1     0     0     0</v>
   <i type="logical" name="LTCTE"> F  </i>
   <i type="logical" name="LTETE"> F  </i>
   <i type="logical" name="LTRIPLET"> F  </i>
   <i type="logical" name="LFXCEPS"> F  </i>
   <i type="logical" name="LFXHEG"> F  </i>
   <i type="int" name="NATURALO">     2</i>
   <i type="logical" name="L2ORDER"> F  </i>
   <i type="logical" name="LMP2LT"> F  </i>
   <i type="logical" name="LUSEW"> F  </i>
   <i name="ENCUTGW">     -2.00000000</i>
   <i name="ENCUTGWSOFT">     -2.00000000</i>
   <i name="ENCUTLF">     -1.00000000</i>
   <i type="int" name="LMAXMP2">    -1</i>
   <i name="SCISSOR">      0.00000000</i>
   <i type="int" name="NOMEGA">     0</i>
   <i type="int" name="NOMEGAR">     0</i>
   <i type="int" name="NBANDSGW">    -1</i>
   <i type="int" name="NBANDSO">    -1</i>
   <i type="int" name="NBANDSV">    -1</i>
   <i type="int" name="NELM">     1</i>
   <i type="int" name="NELMHF">     1</i>
   <i type="int" name="DIM">     3</i>
   <i type="int" name="ANTIRES">     0</i>
   <i name="OMEGAMAX">    -30.00000000</i>
   <i name="OMEGAMIN">    -30.00000000</i>
   <i name="OMEGATL">   -200.00000000</i>
   <i type="int" name="OMEGAGRID">   140</i>
   <i name="CSHIFT">     -0.10000000</i>
   <i type="logical" name="SELFENERGY"> F  </i>
   <i type="logical" name="LSPECTRAL"> F  </i>
   <i type="logical" name="LSPECTRALGW"> F  </i>
   <i type="logical" name="LSINGLES"> F  </i>
   <i type="logical" name="LFERMIGW"> F  </i>
   <i type="logical" name="ODDONLYGW"> F  </i>
   <i type="logical" name="EVENONLYGW"> F  </i>
   <i type="int" name="NKREDLFX">     1</i>
   <i type="int" name="NKREDLFY">     1</i>
   <i type="int" name="NKREDLFZ">     1</i>
   <i type="int" name="MAXMEM">  2800</i>
   <i type="int" name="TELESCOPE">     0</i>
   <i type="int" name="TAUPAR">     1</i>
   <i type="int" name="OMEGAPAR">    -1</i>
   <i name="LAMBDA">      1.00000000</i>
  </separator>
  <separator name="External order field" >
   <i name="OFIELD_KAPPA">      0.00000000</i>
   <v name="OFIELD_K">      0.00000000      0.00000000      0.00000000</v>
   <i name="OFIELD_Q6_NEAR">      0.00000000</i>
   <i name="OFIELD_Q6_FAR">      0.00000000</i>
   <i name="OFIELD_A">      0.00000000</i>
  </separator>
 </parameters>
 <atominfo>
  <atoms>       1 </atoms>
  <types>       1 </types>
  <array name="atoms" >
   <dimension dim="1">ion</dimension>
   <field type="string">element</field>
   <field type="int">atomtype</field>
   <set>
    <rc><c>Nb</c><c>   1</c></rc>
   </set>
  </array>
  <array name="atomtypes" >
   <dimension dim="1">type</dimension>
   <field type="int">atomspertype</field>
   <field type="string">element</field>
   <field>mass</field>
   <field>valence</field>
   <field type="string">pseudopotential</field>
   <set>
    <rc><c>   1</c><c>Nb</c><c>     92.91000000</c><c>     11.00000000</c><c>  PAW Nb_pv 09Jan2002                   </c></rc>
   </set>
  </array>
 </atominfo>
 <structure name="initialpos" >
  <crystal>
   <varray name="basis" >
    <v>      -1.65040000       1.65040000       1.65040000 </v>
    <v>       1.65040000      -1.65040000       1.65040000 </v>
    <v>       1.65040000       1.65040000      -1.65040000 </v>
   </varray>
   <i name="volume">     17.98157117 </i>
   <varray name="rec_basis" >
    <v>       0.00000000       0.30295686       0.30295686 </v>
    <v>       0.30295686       0.00000000       0.30295686 </v>
    <v>       0.30295686       0.30295686       0.00000000 </v>
   </varray>
  </crystal>
  <varray name="positions" >
   <v>       0.00000000       0.00000000       0.00000000 </v>
  </varray>
 </structure>
 <calculation>
  <scstep>
   <time name="dav">    2.06    2.08</time>
   <time name="total">    2.08    2.12</time>
   <energy>
    <i name="alphaZ">    124.80261925 </i>
    <i name="ewald">   -960.51057943 </i>
    <i name="hartreedc">   -120.12100212 </i>
    <i name="XCdc">     26.43668385 </i>
    <i name="pawpsdc">   1498.93283437 </i>
    <i name="pawaedc">  -1490.61690634 </i>
    <i name="eentropy">     -0.02715289 </i>
    <i name="bandstr">   -135.31691802 </i>
    <i name="atom">   1046.36313925 </i>
    <i name="e_fr_energy">    -10.05728208 </i>
    <i name="e_wo_entrp">    -10.03012919 </i>
    <i name="e_0_energy">    -10.04370564 </i>
   </energy>
  </scstep>
  <scstep>
   <time name="dav">    1.48    1.49</time>
   <time name="total">    1.48    1.49</time>
   <energy>
    <i name="e_fr_energy">    -11.15107087 </i>
    <i name="e_wo_entrp">    -11.11956015 </i>
    <i name="e_0_energy">    -11.13531551 </i>
   </energy>
  </scstep>
  <scstep>
   <time name="dav">    3.07    3.08</time>
   <time name="total">    3.07    3.09</time>
   <energy>
    <i name="e_fr_energy">    -11.15137526 </i>
    <i name="e_wo_entrp">    -11.11985884 </i>
    <i name="e_0_energy">    -11.13561705 </i>
   </energy>
  </scstep>
  <scstep>
   <time name="dav">    1.58    1.59</time>
   <time name="total">    1.59    1.60</time>
   <energy>
    <i name="e_fr_energy">    -11.15137526 </i>
    <i name="e_wo_entrp">    -11.11985884 </i>
    <i name="e_0_energy">    -11.13561705 </i>
   </energy>
  </scstep>
  <scstep>
   <time name="dav">    2.99    3.00</time>
   <time name="total">    2.99    3.00</time>
   <energy>
    <i name="e_fr_energy">    -11.15137526 </i>
    <i name="e_wo_entrp">    -11.11985884 </i>
    <i name="e_0_energy">    -11.13561705 </i>
   </energy>
  </scstep>
  <scstep>
   <time name="dav">    1.36    1.37</time>
   <time name="total">    1.36    1.37</time>
   <energy>
    <i name="alphaZ">    124.80261925 </i>
    <i name="ewald">   -960.51057943 </i>
    <i name="hartreedc">   -120.12100212 </i>
    <i name="XCdc">     26.43668385 </i>
    <i name="pawpsdc">   1498.93283437 </i>
    <i name="pawaedc">  -1490.61690634 </i>
    <i name="eentropy">     -0.03151642 </i>
    <i name="bandstr">   -136.40664767 </i>
    <i name="atom">   1046.36313925 </i>
    <i name="e_fr_energy">    -11.15137526 </i>
    <i name="e_wo_entrp">    -11.11985884 </i>
    <i name="e_0_energy">    -11.13561705 </i>
   </energy>
  </scstep>
  <structure>
   <crystal>
    <varray name="basis" >
     <v>      -1.65040000       1.65040000       1.65040000 </v>
     <v>       1.65040000      -1.65040000       1.65040000 </v>
     <v>       1.65040000       1.65040000      -1.65040000 </v>
    </varray>
    <i name="volume">     17.98157117 </i>
    <varray name="rec_basis" >
     <v>       0.00000000       0.30295686       0.30295686 </v>
     <v>       0.30295686       0.00000000       0.30295686 </v>
     <v>       0.30295686       0.30295686       0.00000000 </v>
    </varray>
   </crystal>
   <varray name="positions" >
    <v>       0.00000000       0.00000000       0.00000000 </v>
   </varray>
  </structure>
  <varray name="forces" >
   <v>      -0.00000000       0.00000000      -0.00000000 </v>
  </varray>
  <varray name="stress" >
   <v>     -63.66528234      -0.00000000       0.00000000 </v>
   <v>      -0.00000000     -63.66528234       0.00000000 </v>
   <v>       0.00000000      -0.00000000     -63.66528234 </v>
  </varray>
  <energy>
   <i name="e_fr_energy">    -11.15137526 </i>
   <i name="e_wo_entrp">    -11.13561705 </i>
   <i name="e_0_energy">     -0.03151642 </i>
  </energy>
  <time name="totalsc">   12.90   13.01</time>
  <eigenvalues>
   <array>
    <dimension dim="1">band</dimension>
    <dimension dim="2">kpoint</dimension>
    <dimension dim="3">spin</dimension>
    <field>eigene</field>
    <field>occ</field>
    <set>
     <set comment="spin 1">
      <set comment="kpoint 1">
       <r>  -24.7847    1.0000 </r>
       <r>  -24.7010    1.0000 </r>
       <r>  -24.7010    1.0000 </r>
       <r>   -0.8452    1.0000 </r>
       <r>    5.0516    0.0791 </r>
       <r>    5.0516    0.0791 </r>
       <r>    5.4446    0.0000 </r>
       <r>    7.9804    0.0000 </r>
       <r>    7.9804    0.0000 </r>
       <r>   20.5656    0.0000 </r>
       <r>   20.8620    0.0000 </r>
       <r>   20.8620    0.0000 </r>
       <r>   29.4108    0.0000 </r>
       <r>   29.4108    0.0000 </r>
       <r>   32.8239    0.0000 </r>
       <r>   35.5946    0.0000 </r>
       <r>   35.5946    0.0000 </r>
       <r>   39.8147    0.0000 </r>
       <r>   40.8849    0.0000 </r>
       <r>   40.8849    0.0000 </r>
       <r>   41.9361    0.0000 </r>
       <r>   44.3574    0.0000 </r>
       <r>   53.7285    0.0000 </r>
       <r>   53.7285    0.0000 </r>
       <r>   54.1438    0.0000 </r>
       <r>   62.7908    0.0000 </r>
       <r>   62.7908    0.0000 </r>
       <r>   64.4835    0.0000 </r>
       <r>   67.4393    0.0000 </r>
       <r>   67.9767    0.0000 </r>
       <r>   67.9767    0.0000 </r>
       <r>   68.8982    0.0000 </r>
       <r>   70.4486    0.0000 </r>
       <r>   70.4486    0.0000 </r>
       <r>   71.4503    0.0000 </r>
       <r>   73.3835    0.0000 </r>
       <r>   73.3835    0.0000 </r>
       <r>   74.5255    0.0000 </r>
       <r>   75.5382    0.0000 </r>
       <r>   75.5382    0.0000 </r>
      </set>
      <set comment="kpoint 2">
       <r>  -24.9457    1.0000 </r>
       <r>  -24.7458    1.0000 </r>
       <r>  -24.7028    1.0000 </r>
       <r>   -0.3900    1.0000 </r>
       <r>    4.7745    0.7082 </r>
       <r>    4.9242    0.3049 </r>
       <r>    5.9539    0.0000 </r>
       <r>    7.6995    0.0000 </r>
       <r>    8.0386    0.0000 </r>
       <r>   20.8677    0.0000 </r>
       <r>   21.5357    0.0000 </r>
       <r>   21.5773    0.0000 </r>
       <r>   27.7999    0.0000 </r>
       <r>   28.9919    0.0000 </r>
       <r>   31.2789    0.0000 </r>
       <r>   35.3077    0.0000 </r>
       <r>   38.0448    0.0000 </r>
       <r>   38.2078    0.0000 </r>
       <r>   40.6070    0.0000 </r>
       <r>   41.0394    0.0000 </r>
       <r>   42.1179    0.0000 </r>
       <r>   46.2649    0.0000 </r>
       <r>   52.8973    0.0000 </r>
       <r>   54.1113    0.0000 </r>
       <r>   55.4182    0.0000 </r>
       <r>   59.8073    0.0000 </r>
       <r>   60.3724    0.0000 </r>
       <r>   64.2276    0.0000 </r>
       <r>   64.5468    0.0000 </r>
       <r>   66.6678    0.0000 </r>
       <r>   67.7978    0.0000 </r>
       <r>   68.6502    0.0000 </r>
       <r>   69.7609    0.0000 </r>
       <r>   71.0308    0.0000 </r>
       <r>   72.5507    0.0000 </r>
       <r>   73.3638    0.0000 </r>
       <r>   74.1148    0.0000 </r>
       <r>   76.8773    0.0000 </r>
       <r>   76.9169    0.0000 </r>
       <r>   78.1462    0.0000 </r>
      </set>
      <set comment="kpoint 3">
       <r>  -25.1722    1.0000 </r>
       <r>  -24.8207    1.0000 </r>
       <r>  -24.7056    1.0000 </r>
       <r>    0.2684    1.0000 </r>
       <r>    4.4010    0.9993 </r>
       <r>    4.7271    0.8115 </r>
       <r>    6.7284    0.0000 </r>
       <r>    7.5401    0.0000 </r>
       <r>    8.1290    0.0000 </r>
       <r>   20.9498    0.0000 </r>
       <r>   22.0008    0.0000 </r>
       <r>   22.5471    0.0000 </r>
       <r>   26.9881    0.0000 </r>
       <r>   28.1925    0.0000 </r>
       <r>   30.2756    0.0000 </r>
       <r>   34.2734    0.0000 </r>
       <r>   36.7280    0.0000 </r>
       <r>   39.7258    0.0000 </r>
       <r>   40.6483    0.0000 </r>
       <r>   42.1730    0.0000 </r>
       <r>   42.1801    0.0000 </r>
       <r>   48.8513    0.0000 </r>
       <r>   51.1478    0.0000 </r>
       <r>   54.3032    0.0000 </r>
       <r>   56.6200    0.0000 </r>
       <r>   57.0556    0.0000 </r>
       <r>   58.1104    0.0000 </r>
       <r>   60.4189    0.0000 </r>
       <r>   62.9246    0.0000 </r>
       <r>   66.3970    0.0000 </r>
       <r>   67.6994    0.0000 </r>
       <r>   68.7895    0.0000 </r>
       <r>   71.9447    0.0000 </r>
       <r>   72.4006    0.0000 </r>
       <r>   74.0482    0.0000 </r>
       <r>   74.1406    0.0000 </r>
       <r>   75.6947    0.0000 </r>
       <r>   77.3696    0.0000 </r>
       <r>   78.5900    0.0000 </r>
       <r>   78.7737    0.0000 </r>
      </set>
      <set comment="kpoint 4">
       <r>  -25.4291    1.0000 </r>
       <r>  -24.9098    1.0000 </r>
       <r>  -24.7090    1.0000 </r>
       <r>    0.9328    1.0000 </r>
       <r>    4.0066    1.0000 </r>
       <r>    4.6147    0.9533 </r>
       <r>    7.5724    0.0000 </r>
       <r>    7.7722    0.0000 </r>
       <r>    8.2555    0.0000 </r>
       <r>   20.3298    0.0000 </r>
       <r>   21.4003    0.0000 </r>
       <r>   23.9224    0.0000 </r>
       <r>   27.2454    0.0000 </r>
       <r>   27.4528    0.0000 </r>
       <r>   29.8082    0.0000 </r>
       <r>   32.7951    0.0000 </r>
       <r>   36.4116    0.0000 </r>
       <r>   39.9135    0.0000 </r>
       <r>   41.1235    0.0000 </r>
       <r>   42.1919    0.0000 </r>
       <r>   44.6349    0.0000 </r>
       <r>   48.4317    0.0000 </r>
       <r>   50.9047    0.0000 </r>
       <r>   54.2078    0.0000 </r>
       <r>   54.7430    0.0000 </r>
       <r>   56.1559    0.0000 </r>
       <r>   57.8202    0.0000 </r>
       <r>   58.2156    0.0000 </r>
       <r>   60.6025    0.0000 </r>
       <r>   66.6174    0.0000 </r>
       <r>   67.9475    0.0000 </r>
       <r>   69.7439    0.0000 </r>
       <r>   71.6793    0.0000 </r>
       <r>   72.6732    0.0000 </r>
       <r>   75.1210    0.0000 </r>
       <r>   75.4839    0.0000 </r>
       <r>   76.0816    0.0000 </r>
       <r>   79.0644    0.0000 </r>
       <r>   80.4817    0.0000 </r>
       <r>   81.2342    0.0000 </r>
      </set>
      <set comment="kpoint 5">
       <r>  -25.6771    1.0000 </r>
       <r>  -24.9981    1.0000 </r>
       <r>  -24.7125    1.0000 </r>
       <r>    1.3079    1.0000 </r>
       <r>    3.6500    1.0000 </r>
       <r>    4.9287    0.2939 </r>
       <r>    7.8123    0.0000 </r>
       <r>    8.4175    0.0000 </r>
       <r>    8.9140    0.0000 </r>
       <r>   19.3070    0.0000 </r>
       <r>   20.0112    0.0000 </r>
       <r>   25.5939    0.0000 </r>
       <r>   25.6821    0.0000 </r>
       <r>   28.8699    0.0000 </r>
       <r>   30.1885    0.0000 </r>
       <r>   31.0056    0.0000 </r>
       <r>   37.6934    0.0000 </r>
       <r>   39.6178    0.0000 </r>
       <r>   41.9065    0.0000 </r>
       <r>   42.2258    0.0000 </r>
       <r>   44.9722    0.0000 </r>
       <r>   47.2130    0.0000 </r>
       <r>   51.2377    0.0000 </r>
       <r>   52.2296    0.0000 </r>
       <r>   52.6893    0.0000 </r>
       <r>   57.2353    0.0000 </r>
       <r>   57.2641    0.0000 </r>
       <r>   58.6979    0.0000 </r>
       <r>   59.6685    0.0000 </r>
       <r>   64.8998    0.0000 </r>
       <r>   67.9129    0.0000 </r>
       <r>   68.4180    0.0000 </r>
       <r>   72.4304    0.0000 </r>
       <r>   73.3850    0.0000 </r>
       <r>   76.2148    0.0000 </r>
       <r>   76.5353    0.0000 </r>
       <r>   78.7252    0.0000 </r>
       <r>   79.9778    0.0000 </r>
       <r>   81.4842    0.0000 </r>
       <r>   81.9920    0.0000 </r>
      </set>
      <set comment="kpoint 6">
       <r>  -25.8813    1.0000 </r>
       <r>  -25.0722    1.0000 </r>
       <r>  -24.7154    1.0000 </r>
       <r>    1.3265    1.0000 </r>
       <r>    3.3706    1.0000 </r>
       <r>    5.7224    0.0000 </r>
       <r>    8.0439    0.0000 </r>
       <r>    8.5953    0.0000 </r>
       <r>   10.0950    0.0000 </r>
       <r>   18.3361    0.0000 </r>
       <r>   18.4869    0.0000 </r>
       <r>   23.9728    0.0000 </r>
       <r>   27.4092    0.0000 </r>
       <r>   29.3841    0.0000 </r>
       <r>   30.7698    0.0000 </r>
       <r>   30.8203    0.0000 </r>
       <r>   38.9436    0.0000 </r>
       <r>   39.8714    0.0000 </r>
       <r>   42.0558    0.0000 </r>
       <r>   42.1784    0.0000 </r>
       <r>   43.0851    0.0000 </r>
       <r>   47.7927    0.0000 </r>
       <r>   50.0426    0.0000 </r>
       <r>   50.8351    0.0000 </r>
       <r>   51.8474    0.0000 </r>
       <r>   55.9836    0.0000 </r>
       <r>   58.3118    0.0000 </r>
       <r>   58.7782    0.0000 </r>
       <r>   60.2430    0.0000 </r>
       <r>   63.2100    0.0000 </r>
       <r>   68.4515    0.0000 </r>
       <r>   69.0091    0.0000 </r>
       <r>   73.6624    0.0000 </r>
       <r>   74.0704    0.0000 </r>
       <r>   75.6483    0.0000 </r>
       <r>   75.7035    0.0000 </r>
       <r>   80.3397    0.0000 </r>
       <r>   81.2684    0.0000 </r>
       <r>   82.4231    0.0000 </r>
       <r>   82.8483    0.0000 </r>
      </set>
      <set comment="kpoint 7">
       <r>  -26.0150    1.0000 </r>
       <r>  -25.1212    1.0000 </r>
       <r>  -24.7174    1.0000 </r>
       <r>    1.2236    1.0000 </r>
       <r>    3.1936    1.0000 </r>
       <r>    6.6092    0.0000 </r>
       <r>    8.1536    0.0000 </r>
       <r>    8.7397    0.0000 </r>
       <r>   11.0523    0.0000 </r>
       <r>   17.2959    0.0000 </r>
       <r>   17.6642    0.0000 </r>
       <r>   22.6467    0.0000 </r>
       <r>   28.3233    0.0000 </r>
       <r>   29.0400    0.0000 </r>
       <r>   31.2367    0.0000 </r>
       <r>   32.8460    0.0000 </r>
       <r>   37.6743    0.0000 </r>
       <r>   39.7529    0.0000 </r>
       <r>   41.8732    0.0000 </r>
       <r>   42.1946    0.0000 </r>
       <r>   44.8639    0.0000 </r>
       <r>   46.8719    0.0000 </r>
       <r>   48.7659    0.0000 </r>
       <r>   50.6956    0.0000 </r>
       <r>   50.9112    0.0000 </r>
       <r>   55.0156    0.0000 </r>
       <r>   56.7967    0.0000 </r>
       <r>   58.8887    0.0000 </r>
       <r>   60.1056    0.0000 </r>
       <r>   66.8792    0.0000 </r>
       <r>   69.3234    0.0000 </r>
       <r>   69.4362    0.0000 </r>
       <r>   73.8398    0.0000 </r>
       <r>   73.9793    0.0000 </r>
       <r>   74.8219    0.0000 </r>
       <r>   75.4374    0.0000 </r>
       <r>   77.7309    0.0000 </r>
       <r>   79.7661    0.0000 </r>
       <r>   81.4832    0.0000 </r>
       <r>   82.4957    0.0000 </r>
      </set>
      <set comment="kpoint 8">
       <r>  -26.0614    1.0000 </r>
       <r>  -25.1383    1.0000 </r>
       <r>  -24.7181    1.0000 </r>
       <r>    1.1731    1.0000 </r>
       <r>    3.1335    1.0000 </r>
       <r>    7.0437    0.0000 </r>
       <r>    8.1363    0.0000 </r>
       <r>    8.7961    0.0000 </r>
       <r>   11.4395    0.0000 </r>
       <r>   16.8333    0.0000 </r>
       <r>   17.4246    0.0000 </r>
       <r>   22.1320    0.0000 </r>
       <r>   27.9496    0.0000 </r>
       <r>   29.7780    0.0000 </r>
       <r>   31.3855    0.0000 </r>
       <r>   34.3191    0.0000 </r>
       <r>   36.3589    0.0000 </r>
       <r>   38.9148    0.0000 </r>
       <r>   42.1812    0.0000 </r>
       <r>   42.6163    0.0000 </r>
       <r>   46.4205    0.0000 </r>
       <r>   46.8001    0.0000 </r>
       <r>   48.0689    0.0000 </r>
       <r>   49.2273    0.0000 </r>
       <r>   51.0191    0.0000 </r>
       <r>   55.0971    0.0000 </r>
       <r>   55.2045    0.0000 </r>
       <r>   58.8645    0.0000 </r>
       <r>   61.0601    0.0000 </r>
       <r>   68.7908    0.0000 </r>
       <r>   69.4550    0.0000 </r>
       <r>   70.3019    0.0000 </r>
       <r>   73.5769    0.0000 </r>
       <r>   73.8072    0.0000 </r>
       <r>   73.9621    0.0000 </r>
       <r>   75.9025    0.0000 </r>
       <r>   76.1425    0.0000 </r>
       <r>   78.1593    0.0000 </r>
       <r>   80.9952    0.0000 </r>
       <r>   81.8350    0.0000 </r>
      </set>
      <set comment="kpoint 9">
       <r>  -24.7122    1.0000 </r>
       <r>  -24.7003    1.0000 </r>
       <r>  -24.7003    1.0000 </r>
       <r>   -1.0058    1.0000 </r>
       <r>    5.1551    0.0160 </r>
       <r>    5.1551    0.0160 </r>
       <r>    5.2010    0.0068 </r>
       <r>    7.9591    0.0000 </r>
       <r>    8.1204    0.0000 </r>
       <r>   20.5087    0.0000 </r>
       <r>   20.5444    0.0000 </r>
       <r>   20.5444    0.0000 </r>
       <r>   29.4962    0.0000 </r>
       <r>   30.5699    0.0000 </r>
       <r>   34.1525    0.0000 </r>
       <r>   34.1525    0.0000 </r>
       <r>   35.0015    0.0000 </r>
       <r>   40.8456    0.0000 </r>
       <r>   40.8456    0.0000 </r>
       <r>   40.8600    0.0000 </r>
       <r>   41.6856    0.0000 </r>
       <r>   43.7050    0.0000 </r>
       <r>   53.1615    0.0000 </r>
       <r>   53.9702    0.0000 </r>
       <r>   53.9702    0.0000 </r>
       <r>   63.8788    0.0000 </r>
       <r>   64.1143    0.0000 </r>
       <r>   64.3336    0.0000 </r>
       <r>   66.6421    0.0000 </r>
       <r>   69.5315    0.0000 </r>
       <r>   69.5315    0.0000 </r>
       <r>   70.6334    0.0000 </r>
       <r>   70.6334    0.0000 </r>
       <r>   70.7316    0.0000 </r>
       <r>   71.5427    0.0000 </r>
       <r>   72.2356    0.0000 </r>
       <r>   72.9828    0.0000 </r>
       <r>   74.2126    0.0000 </r>
       <r>   74.2127    0.0000 </r>
       <r>   75.1327    0.0000 </r>
      </set>
      <set comment="kpoint 10">
       <r>  -25.1356    1.0000 </r>
       <r>  -24.7762    1.0000 </r>
       <r>  -24.7292    1.0000 </r>
       <r>    0.1610    1.0000 </r>
       <r>    4.5184    0.9908 </r>
       <r>    4.5991    0.9631 </r>
       <r>    6.6904    0.0000 </r>
       <r>    7.5780    0.0000 </r>
       <r>    8.0966    0.0000 </r>
       <r>   21.2677    0.0000 </r>
       <r>   21.8078    0.0000 </r>
       <r>   22.1013    0.0000 </r>
       <r>   27.2717    0.0000 </r>
       <r>   28.8897    0.0000 </r>
       <r>   29.2918    0.0000 </r>
       <r>   35.8588    0.0000 </r>
       <r>   36.2999    0.0000 </r>
       <r>   38.3385    0.0000 </r>
       <r>   41.7587    0.0000 </r>
       <r>   41.8014    0.0000 </r>
       <r>   42.1965    0.0000 </r>
       <r>   48.0908    0.0000 </r>
       <r>   52.2399    0.0000 </r>
       <r>   54.8432    0.0000 </r>
       <r>   55.0883    0.0000 </r>
       <r>   57.2032    0.0000 </r>
       <r>   57.5403    0.0000 </r>
       <r>   63.3512    0.0000 </r>
       <r>   64.0371    0.0000 </r>
       <r>   65.7669    0.0000 </r>
       <r>   66.7935    0.0000 </r>
       <r>   69.1263    0.0000 </r>
       <r>   69.1938    0.0000 </r>
       <r>   71.9125    0.0000 </r>
       <r>   74.1424    0.0000 </r>
       <r>   74.6934    0.0000 </r>
       <r>   76.9691    0.0000 </r>
       <r>   77.9319    0.0000 </r>
       <r>   79.5782    0.0000 </r>
       <r>   80.4078    0.0000 </r>
      </set>
      <set comment="kpoint 11">
       <r>  -25.3584    1.0000 </r>
       <r>  -24.8563    1.0000 </r>
       <r>  -24.7421    1.0000 </r>
       <r>    0.8517    1.0000 </r>
       <r>    4.1511    1.0000 </r>
       <r>    4.3455    0.9998 </r>
       <r>    7.5024    0.0000 </r>
       <r>    7.6766    0.0000 </r>
       <r>    8.2714    0.0000 </r>
       <r>   21.0514    0.0000 </r>
       <r>   21.6651    0.0000 </r>
       <r>   22.7684    0.0000 </r>
       <r>   26.5056    0.0000 </r>
       <r>   27.8887    0.0000 </r>
       <r>   30.3505    0.0000 </r>
       <r>   34.5921    0.0000 </r>
       <r>   35.0611    0.0000 </r>
       <r>   38.5433    0.0000 </r>
       <r>   42.1305    0.0000 </r>
       <r>   42.6694    0.0000 </r>
       <r>   43.8768    0.0000 </r>
       <r>   49.3653    0.0000 </r>
       <r>   50.5713    0.0000 </r>
       <r>   53.6457    0.0000 </r>
       <r>   55.1397    0.0000 </r>
       <r>   55.4945    0.0000 </r>
       <r>   57.3527    0.0000 </r>
       <r>   60.7222    0.0000 </r>
       <r>   63.0598    0.0000 </r>
       <r>   65.2448    0.0000 </r>
       <r>   67.5909    0.0000 </r>
       <r>   68.1656    0.0000 </r>
       <r>   70.8142    0.0000 </r>
       <r>   73.0625    0.0000 </r>
       <r>   74.4871    0.0000 </r>
       <r>   75.7598    0.0000 </r>
       <r>   77.5609    0.0000 </r>
       <r>   78.0474    0.0000 </r>
       <r>   79.1936    0.0000 </r>
       <r>   80.3087    0.0000 </r>
      </set>
      <set comment="kpoint 12">
       <r>  -25.5839    1.0000 </r>
       <r>  -24.9575    1.0000 </r>
       <r>  -24.7496    1.0000 </r>
       <r>    1.4336    1.0000 </r>
       <r>    3.7825    1.0000 </r>
       <r>    4.3557    0.9998 </r>
       <r>    7.6289    0.0000 </r>
       <r>    8.4520    0.0000 </r>
       <r>    8.8288    0.0000 </r>
       <r>   19.9988    0.0000 </r>
       <r>   20.7623    0.0000 </r>
       <r>   24.0287    0.0000 </r>
       <r>   24.9176    0.0000 </r>
       <r>   28.9987    0.0000 </r>
       <r>   31.2377    0.0000 </r>
       <r>   32.7397    0.0000 </r>
       <r>   35.4278    0.0000 </r>
       <r>   38.5218    0.0000 </r>
       <r>   42.1538    0.0000 </r>
       <r>   43.4520    0.0000 </r>
       <r>   45.3232    0.0000 </r>
       <r>   47.9144    0.0000 </r>
       <r>   50.0148    0.0000 </r>
       <r>   51.8284    0.0000 </r>
       <r>   53.6236    0.0000 </r>
       <r>   57.1233    0.0000 </r>
       <r>   57.8244    0.0000 </r>
       <r>   59.6124    0.0000 </r>
       <r>   61.7339    0.0000 </r>
       <r>   64.3210    0.0000 </r>
       <r>   67.4524    0.0000 </r>
       <r>   68.8931    0.0000 </r>
       <r>   70.2264    0.0000 </r>
       <r>   72.6764    0.0000 </r>
       <r>   74.7912    0.0000 </r>
       <r>   76.8607    0.0000 </r>
       <r>   77.0639    0.0000 </r>
       <r>   78.4781    0.0000 </r>
       <r>   80.5823    0.0000 </r>
       <r>   81.1018    0.0000 </r>
      </set>
      <set comment="kpoint 13">
       <r>  -25.7830    1.0000 </r>
       <r>  -25.0547    1.0000 </r>
       <r>  -24.7555    1.0000 </r>
       <r>    1.6276    1.0000 </r>
       <r>    3.4839    1.0000 </r>
       <r>    4.8804    0.4206 </r>
       <r>    7.8638    0.0000 </r>
       <r>    8.6196    0.0000 </r>
       <r>   10.0648    0.0000 </r>
       <r>   18.8199    0.0000 </r>
       <r>   19.3665    0.0000 </r>
       <r>   23.4973    0.0000 </r>
       <r>   25.6830    0.0000 </r>
       <r>   29.9581    0.0000 </r>
       <r>   31.3997    0.0000 </r>
       <r>   31.7531    0.0000 </r>
       <r>   37.5022    0.0000 </r>
       <r>   38.2452    0.0000 </r>
       <r>   42.1619    0.0000 </r>
       <r>   43.5812    0.0000 </r>
       <r>   44.2578    0.0000 </r>
       <r>   47.4143    0.0000 </r>
       <r>   48.7767    0.0000 </r>
       <r>   51.8615    0.0000 </r>
       <r>   51.9615    0.0000 </r>
       <r>   57.5061    0.0000 </r>
       <r>   59.2081    0.0000 </r>
       <r>   59.5127    0.0000 </r>
       <r>   61.5158    0.0000 </r>
       <r>   63.3950    0.0000 </r>
       <r>   65.0477    0.0000 </r>
       <r>   68.2262    0.0000 </r>
       <r>   71.1115    0.0000 </r>
       <r>   73.5291    0.0000 </r>
       <r>   76.1457    0.0000 </r>
       <r>   76.8131    0.0000 </r>
       <r>   78.4664    0.0000 </r>
       <r>   79.5962    0.0000 </r>
       <r>   81.7662    0.0000 </r>
       <r>   82.3348    0.0000 </r>
      </set>
      <set comment="kpoint 14">
       <r>  -25.9307    1.0000 </r>
       <r>  -25.1299    1.0000 </r>
       <r>  -24.7598    1.0000 </r>
       <r>    1.5497    1.0000 </r>
       <r>    3.2760    1.0000 </r>
       <r>    5.7156    0.0000 </r>
       <r>    8.0774    0.0000 </r>
       <r>    8.7731    0.0000 </r>
       <r>   11.1958    0.0000 </r>
       <r>   17.5672    0.0000 </r>
       <r>   18.3157    0.0000 </r>
       <r>   22.3392    0.0000 </r>
       <r>   27.3615    0.0000 </r>
       <r>   29.0885    0.0000 </r>
       <r>   31.5431    0.0000 </r>
       <r>   32.9389    0.0000 </r>
       <r>   37.6567    0.0000 </r>
       <r>   40.1547    0.0000 </r>
       <r>   41.5928    0.0000 </r>
       <r>   42.1666    0.0000 </r>
       <r>   44.9831    0.0000 </r>
       <r>   45.9557    0.0000 </r>
       <r>   47.4994    0.0000 </r>
       <r>   50.9320    0.0000 </r>
       <r>   52.6583    0.0000 </r>
       <r>   57.0130    0.0000 </r>
       <r>   58.5467    0.0000 </r>
       <r>   59.5715    0.0000 </r>
       <r>   60.5523    0.0000 </r>
       <r>   64.4000    0.0000 </r>
       <r>   66.0745    0.0000 </r>
       <r>   68.4839    0.0000 </r>
       <r>   70.6251    0.0000 </r>
       <r>   73.4894    0.0000 </r>
       <r>   76.2794    0.0000 </r>
       <r>   77.6624    0.0000 </r>
       <r>   79.2232    0.0000 </r>
       <r>   80.4740    0.0000 </r>
       <r>   81.7234    0.0000 </r>
       <r>   83.4941    0.0000 </r>
      </set>
      <set comment="kpoint 15">
       <r>  -26.0091    1.0000 </r>
       <r>  -25.1708    1.0000 </r>
       <r>  -24.7621    1.0000 </r>
       <r>    1.4560    1.0000 </r>
       <r>    3.1695    1.0000 </r>
       <r>    6.3617    0.0000 </r>
       <r>    8.1462    0.0000 </r>
       <r>    8.9072    0.0000 </r>
       <r>   11.9222    0.0000 </r>
       <r>   16.6709    0.0000 </r>
       <r>   17.8246    0.0000 </r>
       <r>   21.6208    0.0000 </r>
       <r>   28.1002    0.0000 </r>
       <r>   28.9283    0.0000 </r>
       <r>   31.7396    0.0000 </r>
       <r>   33.7544    0.0000 </r>
       <r>   37.2770    0.0000 </r>
       <r>   40.2976    0.0000 </r>
       <r>   42.1206    0.0000 </r>
       <r>   42.4356    0.0000 </r>
       <r>   44.4253    0.0000 </r>
       <r>   45.4854    0.0000 </r>
       <r>   47.5433    0.0000 </r>
       <r>   49.7651    0.0000 </r>
       <r>   52.4988    0.0000 </r>
       <r>   55.5283    0.0000 </r>
       <r>   58.6242    0.0000 </r>
       <r>   59.8483    0.0000 </r>
       <r>   60.3523    0.0000 </r>
       <r>   65.1300    0.0000 </r>
       <r>   68.3157    0.0000 </r>
       <r>   68.5164    0.0000 </r>
       <r>   71.2731    0.0000 </r>
       <r>   73.7120    0.0000 </r>
       <r>   74.3164    0.0000 </r>
       <r>   76.2468    0.0000 </r>
       <r>   78.6351    0.0000 </r>
       <r>   81.3839    0.0000 </r>
       <r>   82.5154    0.0000 </r>
       <r>   83.0639    0.0000 </r>
      </set>
      <set comment="kpoint 16">
       <r>  -24.8206    1.0000 </r>
       <r>  -24.7342    1.0000 </r>
       <r>  -24.7044    1.0000 </r>
       <r>   -0.6874    1.0000 </r>
       <r>    4.9822    0.1787 </r>
       <r>    5.1131    0.0325 </r>
       <r>    5.5027    0.0000 </r>
       <r>    7.6529    0.0000 </r>
       <r>    8.1807    0.0000 </r>
       <r>   20.7473    0.0000 </r>
       <r>   21.0873    0.0000 </r>
       <r>   21.1540    0.0000 </r>
       <r>   27.7681    0.0000 </r>
       <r>   30.2314    0.0000 </r>
       <r>   33.4885    0.0000 </r>
       <r>   33.6928    0.0000 </r>
       <r>   36.9108    0.0000 </r>
       <r>   40.0249    0.0000 </r>
       <r>   40.1604    0.0000 </r>
       <r>   40.8090    0.0000 </r>
       <r>   42.0473    0.0000 </r>
       <r>   44.8445    0.0000 </r>
       <r>   52.4118    0.0000 </r>
       <r>   54.6308    0.0000 </r>
       <r>   55.2912    0.0000 </r>
       <r>   61.9450    0.0000 </r>
       <r>   62.6450    0.0000 </r>
       <r>   64.1555    0.0000 </r>
       <r>   65.8584    0.0000 </r>
       <r>   67.0791    0.0000 </r>
       <r>   67.7592    0.0000 </r>
       <r>   68.2289    0.0000 </r>
       <r>   69.8087    0.0000 </r>
       <r>   70.0034    0.0000 </r>
       <r>   72.5128    0.0000 </r>
       <r>   72.5217    0.0000 </r>
       <r>   74.0166    0.0000 </r>
       <r>   74.4781    0.0000 </r>
       <r>   77.1322    0.0000 </r>
       <r>   77.3892    0.0000 </r>
      </set>
      <set comment="kpoint 17">
       <r>  -25.5464    1.0000 </r>
       <r>  -24.9316    1.0000 </r>
       <r>  -24.7795    1.0000 </r>
       <r>    1.5178    1.0000 </r>
       <r>    3.9121    1.0000 </r>
       <r>    4.0235    1.0000 </r>
       <r>    7.5172    0.0000 </r>
       <r>    8.5032    0.0000 </r>
       <r>    8.8259    0.0000 </r>
       <r>   20.4080    0.0000 </r>
       <r>   21.1806    0.0000 </r>
       <r>   23.3150    0.0000 </r>
       <r>   24.3924    0.0000 </r>
       <r>   28.9982    0.0000 </r>
       <r>   32.2770    0.0000 </r>
       <r>   33.9021    0.0000 </r>
       <r>   34.0992    0.0000 </r>
       <r>   37.5386    0.0000 </r>
       <r>   42.1499    0.0000 </r>
       <r>   44.4780    0.0000 </r>
       <r>   44.9411    0.0000 </r>
       <r>   48.5286    0.0000 </r>
       <r>   49.3437    0.0000 </r>
       <r>   51.2592    0.0000 </r>
       <r>   55.1340    0.0000 </r>
       <r>   56.8306    0.0000 </r>
       <r>   56.9107    0.0000 </r>
       <r>   60.9614    0.0000 </r>
       <r>   61.7299    0.0000 </r>
       <r>   65.9225    0.0000 </r>
       <r>   66.7159    0.0000 </r>
       <r>   69.0919    0.0000 </r>
       <r>   69.9710    0.0000 </r>
       <r>   71.6818    0.0000 </r>
       <r>   72.1193    0.0000 </r>
       <r>   75.8088    0.0000 </r>
       <r>   77.0301    0.0000 </r>
       <r>   79.8411    0.0000 </r>
       <r>   80.4408    0.0000 </r>
       <r>   82.9511    0.0000 </r>
      </set>
      <set comment="kpoint 18">
       <r>  -25.7124    1.0000 </r>
       <r>  -25.0412    1.0000 </r>
       <r>  -24.8005    1.0000 </r>
       <r>    1.9784    1.0000 </r>
       <r>    3.6057    1.0000 </r>
       <r>    4.1599    1.0000 </r>
       <r>    7.6647    0.0000 </r>
       <r>    8.6897    0.0000 </r>
       <r>   10.1183    0.0000 </r>
       <r>   19.1938    0.0000 </r>
       <r>   20.3328    0.0000 </r>
       <r>   22.7578    0.0000 </r>
       <r>   24.3947    0.0000 </r>
       <r>   29.8877    0.0000 </r>
       <r>   32.9287    0.0000 </r>
       <r>   33.2751    0.0000 </r>
       <r>   35.3732    0.0000 </r>
       <r>   37.1150    0.0000 </r>
       <r>   42.1438    0.0000 </r>
       <r>   44.0329    0.0000 </r>
       <r>   44.8079    0.0000 </r>
       <r>   47.7893    0.0000 </r>
       <r>   48.8935    0.0000 </r>
       <r>   50.7048    0.0000 </r>
       <r>   53.7863    0.0000 </r>
       <r>   56.4296    0.0000 </r>
       <r>   58.8302    0.0000 </r>
       <r>   61.6542    0.0000 </r>
       <r>   61.8233    0.0000 </r>
       <r>   63.8897    0.0000 </r>
       <r>   66.9080    0.0000 </r>
       <r>   67.7189    0.0000 </r>
       <r>   69.2921    0.0000 </r>
       <r>   71.6463    0.0000 </r>
       <r>   72.2749    0.0000 </r>
       <r>   76.1381    0.0000 </r>
       <r>   76.9591    0.0000 </r>
       <r>   81.3054    0.0000 </r>
       <r>   82.0038    0.0000 </r>
       <r>   83.4076    0.0000 </r>
      </set>
      <set comment="kpoint 19">
       <r>  -25.8398    1.0000 </r>
       <r>  -25.1500    1.0000 </r>
       <r>  -24.8124    1.0000 </r>
       <r>    2.0307    1.0000 </r>
       <r>    3.3971    1.0000 </r>
       <r>    4.7570    0.7493 </r>
       <r>    7.9059    0.0000 </r>
       <r>    8.8129    0.0000 </r>
       <r>   11.4112    0.0000 </r>
       <r>   17.8526    0.0000 </r>
       <r>   19.2039    0.0000 </r>
       <r>   21.7482    0.0000 </r>
       <r>   25.7801    0.0000 </r>
       <r>   29.6234    0.0000 </r>
       <r>   32.2935    0.0000 </r>
       <r>   33.8801    0.0000 </r>
       <r>   37.2125    0.0000 </r>
       <r>   38.3446    0.0000 </r>
       <r>   41.8648    0.0000 </r>
       <r>   42.2551    0.0000 </r>
       <r>   44.2105    0.0000 </r>
       <r>   46.2195    0.0000 </r>
       <r>   48.8357    0.0000 </r>
       <r>   51.9113    0.0000 </r>
       <r>   52.5658    0.0000 </r>
       <r>   56.4150    0.0000 </r>
       <r>   59.4921    0.0000 </r>
       <r>   60.1540    0.0000 </r>
       <r>   62.8575    0.0000 </r>
       <r>   64.0649    0.0000 </r>
       <r>   64.8297    0.0000 </r>
       <r>   66.9993    0.0000 </r>
       <r>   69.4313    0.0000 </r>
       <r>   72.8268    0.0000 </r>
       <r>   74.4160    0.0000 </r>
       <r>   76.8642    0.0000 </r>
       <r>   77.1418    0.0000 </r>
       <r>   80.4487    0.0000 </r>
       <r>   83.8180    0.0000 </r>
       <r>   84.1668    0.0000 </r>
      </set>
      <set comment="kpoint 20">
       <r>  -25.9190    1.0000 </r>
       <r>  -25.2282    1.0000 </r>
       <r>  -24.8192    1.0000 </r>
       <r>    1.9260    1.0000 </r>
       <r>    3.2785    1.0000 </r>
       <r>    5.4190    0.0000 </r>
       <r>    8.0976    0.0000 </r>
       <r>    8.9321    0.0000 </r>
       <r>   12.4727    0.0000 </r>
       <r>   16.6272    0.0000 </r>
       <r>   18.4264    0.0000 </r>
       <r>   21.1117    0.0000 </r>
       <r>   27.1262    0.0000 </r>
       <r>   28.7759    0.0000 </r>
       <r>   32.3414    0.0000 </r>
       <r>   34.0500    0.0000 </r>
       <r>   37.8859    0.0000 </r>
       <r>   40.5980    0.0000 </r>
       <r>   41.4007    0.0000 </r>
       <r>   42.2296    0.0000 </r>
       <r>   43.4579    0.0000 </r>
       <r>   44.1907    0.0000 </r>
       <r>   48.9432    0.0000 </r>
       <r>   50.6544    0.0000 </r>
       <r>   53.3780    0.0000 </r>
       <r>   56.1853    0.0000 </r>
       <r>   58.3289    0.0000 </r>
       <r>   60.5575    0.0000 </r>
       <r>   62.4633    0.0000 </r>
       <r>   63.0148    0.0000 </r>
       <r>   65.8529    0.0000 </r>
       <r>   68.1839    0.0000 </r>
       <r>   69.6567    0.0000 </r>
       <r>   73.4327    0.0000 </r>
       <r>   74.2281    0.0000 </r>
       <r>   77.0953    0.0000 </r>
       <r>   78.7931    0.0000 </r>
       <r>   81.1825    0.0000 </r>
       <r>   82.6764    0.0000 </r>
       <r>   84.9757    0.0000 </r>
      </set>
      <set comment="kpoint 21">
       <r>  -25.9458    1.0000 </r>
       <r>  -25.2565    1.0000 </r>
       <r>  -24.8213    1.0000 </r>
       <r>    1.8737    1.0000 </r>
       <r>    3.2398    1.0000 </r>
       <r>    5.7036    0.0000 </r>
       <r>    8.1468    0.0000 </r>
       <r>    9.0149    0.0000 </r>
       <r>   12.9206    0.0000 </r>
       <r>   16.1015    0.0000 </r>
       <r>   18.1439    0.0000 </r>
       <r>   20.8788    0.0000 </r>
       <r>   27.9394    0.0000 </r>
       <r>   28.1859    0.0000 </r>
       <r>   32.5417    0.0000 </r>
       <r>   33.7721    0.0000 </r>
       <r>   38.1913    0.0000 </r>
       <r>   41.5773    0.0000 </r>
       <r>   41.6287    0.0000 </r>
       <r>   42.5767    0.0000 </r>
       <r>   42.8258    0.0000 </r>
       <r>   43.2986    0.0000 </r>
       <r>   49.4976    0.0000 </r>
       <r>   49.6044    0.0000 </r>
       <r>   52.8732    0.0000 </r>
       <r>   56.0642    0.0000 </r>
       <r>   58.7096    0.0000 </r>
       <r>   60.6018    0.0000 </r>
       <r>   61.9307    0.0000 </r>
       <r>   63.0864    0.0000 </r>
       <r>   66.1547    0.0000 </r>
       <r>   68.5464    0.0000 </r>
       <r>   70.3126    0.0000 </r>
       <r>   72.2809    0.0000 </r>
       <r>   75.5713    0.0000 </r>
       <r>   77.2403    0.0000 </r>
       <r>   79.5864    0.0000 </r>
       <r>   80.9599    0.0000 </r>
       <r>   81.1574    0.0000 </r>
       <r>   83.6161    0.0000 </r>
      </set>
      <set comment="kpoint 22">
       <r>  -25.0222    1.0000 </r>
       <r>  -24.7962    1.0000 </r>
       <r>  -24.7059    1.0000 </r>
       <r>   -0.1106    1.0000 </r>
       <r>    4.6584    0.9145 </r>
       <r>    4.9734    0.1954 </r>
       <r>    6.1183    0.0000 </r>
       <r>    7.3731    0.0000 </r>
       <r>    8.2393    0.0000 </r>
       <r>   20.9724    0.0000 </r>
       <r>   21.9008    0.0000 </r>
       <r>   22.1125    0.0000 </r>
       <r>   26.4097    0.0000 </r>
       <r>   29.2190    0.0000 </r>
       <r>   32.0233    0.0000 </r>
       <r>   33.4862    0.0000 </r>
       <r>   38.1015    0.0000 </r>
       <r>   39.6676    0.0000 </r>
       <r>   40.0127    0.0000 </r>
       <r>   40.7233    0.0000 </r>
       <r>   42.1729    0.0000 </r>
       <r>   47.1427    0.0000 </r>
       <r>   51.5482    0.0000 </r>
       <r>   54.8485    0.0000 </r>
       <r>   56.8555    0.0000 </r>
       <r>   59.2576    0.0000 </r>
       <r>   60.4710    0.0000 </r>
       <r>   61.1963    0.0000 </r>
       <r>   63.0529    0.0000 </r>
       <r>   65.6182    0.0000 </r>
       <r>   67.6476    0.0000 </r>
       <r>   69.8460    0.0000 </r>
       <r>   70.2405    0.0000 </r>
       <r>   71.2567    0.0000 </r>
       <r>   72.9072    0.0000 </r>
       <r>   73.8898    0.0000 </r>
       <r>   74.4048    0.0000 </r>
       <r>   76.0526    0.0000 </r>
       <r>   78.9910    0.0000 </r>
       <r>   79.9911    0.0000 </r>
      </set>
      <set comment="kpoint 23">
       <r>  -24.9607    1.0000 </r>
       <r>  -24.7705    1.0000 </r>
       <r>  -24.7315    1.0000 </r>
       <r>   -0.2406    1.0000 </r>
       <r>    4.8525    0.4987 </r>
       <r>    4.9627    0.2171 </r>
       <r>    5.9250    0.0000 </r>
       <r>    7.2593    0.0000 </r>
       <r>    8.3284    0.0000 </r>
       <r>   21.1255    0.0000 </r>
       <r>   21.6847    0.0000 </r>
       <r>   21.8759    0.0000 </r>
       <r>   26.1691    0.0000 </r>
       <r>   30.4340    0.0000 </r>
       <r>   31.4154    0.0000 </r>
       <r>   34.3331    0.0000 </r>
       <r>   37.5485    0.0000 </r>
       <r>   39.3714    0.0000 </r>
       <r>   40.2756    0.0000 </r>
       <r>   40.6890    0.0000 </r>
       <r>   42.1746    0.0000 </r>
       <r>   46.1510    0.0000 </r>
       <r>   51.5983    0.0000 </r>
       <r>   55.9272    0.0000 </r>
       <r>   56.3351    0.0000 </r>
       <r>   59.9225    0.0000 </r>
       <r>   60.5095    0.0000 </r>
       <r>   62.7923    0.0000 </r>
       <r>   64.8511    0.0000 </r>
       <r>   65.8583    0.0000 </r>
       <r>   66.2524    0.0000 </r>
       <r>   67.6024    0.0000 </r>
       <r>   69.5285    0.0000 </r>
       <r>   71.0292    0.0000 </r>
       <r>   72.0283    0.0000 </r>
       <r>   73.0463    0.0000 </r>
       <r>   76.6448    0.0000 </r>
       <r>   77.0780    0.0000 </r>
       <r>   78.4094    0.0000 </r>
       <r>   81.4114    0.0000 </r>
      </set>
      <set comment="kpoint 24">
       <r>  -25.7978    1.0000 </r>
       <r>  -25.1628    1.0000 </r>
       <r>  -24.8358    1.0000 </r>
       <r>    2.3325    1.0000 </r>
       <r>    3.4809    1.0000 </r>
       <r>    4.2537    1.0000 </r>
       <r>    7.8166    0.0000 </r>
       <r>    8.8254    0.0000 </r>
       <r>   11.5088    0.0000 </r>
       <r>   18.0058    0.0000 </r>
       <r>   19.6800    0.0000 </r>
       <r>   21.4407    0.0000 </r>
       <r>   25.0672    0.0000 </r>
       <r>   29.7572    0.0000 </r>
       <r>   32.9069    0.0000 </r>
       <r>   34.6422    0.0000 </r>
       <r>   36.7426    0.0000 </r>
       <r>   37.2995    0.0000 </r>
       <r>   41.8406    0.0000 </r>
       <r>   42.3188    0.0000 </r>
       <r>   43.5081    0.0000 </r>
       <r>   46.8738    0.0000 </r>
       <r>   50.5185    0.0000 </r>
       <r>   51.1220    0.0000 </r>
       <r>   53.9432    0.0000 </r>
       <r>   54.2808    0.0000 </r>
       <r>   58.9271    0.0000 </r>
       <r>   62.3268    0.0000 </r>
       <r>   62.6058    0.0000 </r>
       <r>   63.7378    0.0000 </r>
       <r>   64.8541    0.0000 </r>
       <r>   69.0617    0.0000 </r>
       <r>   69.1513    0.0000 </r>
       <r>   71.2143    0.0000 </r>
       <r>   72.5404    0.0000 </r>
       <r>   74.8596    0.0000 </r>
       <r>   77.2790    0.0000 </r>
       <r>   80.8720    0.0000 </r>
       <r>   83.2550    0.0000 </r>
       <r>   84.1318    0.0000 </r>
      </set>
      <set comment="kpoint 25">
       <r>  -25.8374    1.0000 </r>
       <r>  -25.2888    1.0000 </r>
       <r>  -24.8555    1.0000 </r>
       <r>    2.3809    1.0000 </r>
       <r>    3.4279    1.0000 </r>
       <r>    4.6309    0.9411 </r>
       <r>    8.0510    0.0000 </r>
       <r>    8.8815    0.0000 </r>
       <r>   12.8480    0.0000 </r>
       <r>   16.7082    0.0000 </r>
       <r>   18.6871    0.0000 </r>
       <r>   21.0219    0.0000 </r>
       <r>   25.9846    0.0000 </r>
       <r>   28.9780    0.0000 </r>
       <r>   32.9870    0.0000 </r>
       <r>   34.6670    0.0000 </r>
       <r>   38.1552    0.0000 </r>
       <r>   39.6206    0.0000 </r>
       <r>   40.1646    0.0000 </r>
       <r>   42.2269    0.0000 </r>
       <r>   42.4234    0.0000 </r>
       <r>   45.7072    0.0000 </r>
       <r>   50.8830    0.0000 </r>
       <r>   51.8289    0.0000 </r>
       <r>   53.0460    0.0000 </r>
       <r>   54.3637    0.0000 </r>
       <r>   58.7162    0.0000 </r>
       <r>   59.5068    0.0000 </r>
       <r>   62.1722    0.0000 </r>
       <r>   64.0385    0.0000 </r>
       <r>   67.2628    0.0000 </r>
       <r>   67.4768    0.0000 </r>
       <r>   71.0829    0.0000 </r>
       <r>   72.2658    0.0000 </r>
       <r>   73.7251    0.0000 </r>
       <r>   74.0085    0.0000 </r>
       <r>   77.5268    0.0000 </r>
       <r>   81.1831    0.0000 </r>
       <r>   83.7414    0.0000 </r>
       <r>   84.7853    0.0000 </r>
      </set>
      <set comment="kpoint 26">
       <r>  -25.8454    1.0000 </r>
       <r>  -25.3721    1.0000 </r>
       <r>  -24.8642    1.0000 </r>
       <r>    2.3325    1.0000 </r>
       <r>    3.4138    1.0000 </r>
       <r>    4.9469    0.2512 </r>
       <r>    8.2213    0.0000 </r>
       <r>    8.9351    0.0000 </r>
       <r>   13.8487    0.0000 </r>
       <r>   15.7586    0.0000 </r>
       <r>   17.9381    0.0000 </r>
       <r>   20.9316    0.0000 </r>
       <r>   26.9574    0.0000 </r>
       <r>   27.9898    0.0000 </r>
       <r>   33.4300    0.0000 </r>
       <r>   34.3811    0.0000 </r>
       <r>   38.2652    0.0000 </r>
       <r>   40.0647    0.0000 </r>
       <r>   40.4149    0.0000 </r>
       <r>   42.3456    0.0000 </r>
       <r>   43.6952    0.0000 </r>
       <r>   44.3423    0.0000 </r>
       <r>   50.2926    0.0000 </r>
       <r>   50.5486    0.0000 </r>
       <r>   53.0636    0.0000 </r>
       <r>   55.8232    0.0000 </r>
       <r>   57.4832    0.0000 </r>
       <r>   58.3395    0.0000 </r>
       <r>   62.7397    0.0000 </r>
       <r>   64.5389    0.0000 </r>
       <r>   66.5019    0.0000 </r>
       <r>   68.3866    0.0000 </r>
       <r>   69.6725    0.0000 </r>
       <r>   73.0514    0.0000 </r>
       <r>   75.2600    0.0000 </r>
       <r>   76.4222    0.0000 </r>
       <r>   79.3310    0.0000 </r>
       <r>   80.2714    0.0000 </r>
       <r>   81.2612    0.0000 </r>
       <r>   84.0192    0.0000 </r>
      </set>
      <set comment="kpoint 27">
       <r>  -25.2779    1.0000 </r>
       <r>  -24.8761    1.0000 </r>
       <r>  -24.7078    1.0000 </r>
       <r>    0.5817    1.0000 </r>
       <r>    4.2697    1.0000 </r>
       <r>    4.7744    0.7085 </r>
       <r>    6.9992    0.0000 </r>
       <r>    7.3339    0.0000 </r>
       <r>    8.3300    0.0000 </r>
       <r>   20.6884    0.0000 </r>
       <r>   21.8723    0.0000 </r>
       <r>   23.5195    0.0000 </r>
       <r>   26.2585    0.0000 </r>
       <r>   28.6934    0.0000 </r>
       <r>   29.9408    0.0000 </r>
       <r>   33.0676    0.0000 </r>
       <r>   37.2675    0.0000 </r>
       <r>   39.6905    0.0000 </r>
       <r>   40.6032    0.0000 </r>
       <r>   42.1184    0.0000 </r>
       <r>   42.8690    0.0000 </r>
       <r>   48.4814    0.0000 </r>
       <r>   50.8480    0.0000 </r>
       <r>   54.8973    0.0000 </r>
       <r>   56.6450    0.0000 </r>
       <r>   57.5622    0.0000 </r>
       <r>   58.4653    0.0000 </r>
       <r>   58.5165    0.0000 </r>
       <r>   60.0315    0.0000 </r>
       <r>   66.3626    0.0000 </r>
       <r>   67.8801    0.0000 </r>
       <r>   70.6858    0.0000 </r>
       <r>   70.9167    0.0000 </r>
       <r>   73.2596    0.0000 </r>
       <r>   74.6637    0.0000 </r>
       <r>   74.7425    0.0000 </r>
       <r>   75.2106    0.0000 </r>
       <r>   76.7198    0.0000 </r>
       <r>   77.9911    0.0000 </r>
       <r>   81.1060    0.0000 </r>
      </set>
      <set comment="kpoint 28">
       <r>  -25.1777    1.0000 </r>
       <r>  -24.8416    1.0000 </r>
       <r>  -24.7419    1.0000 </r>
       <r>    0.4065    1.0000 </r>
       <r>    4.5322    0.9881 </r>
       <r>    4.7477    0.7697 </r>
       <r>    6.6821    0.0000 </r>
       <r>    7.0361    0.0000 </r>
       <r>    8.4704    0.0000 </r>
       <r>   21.2641    0.0000 </r>
       <r>   21.9434    0.0000 </r>
       <r>   22.8126    0.0000 </r>
       <r>   25.7168    0.0000 </r>
       <r>   29.2007    0.0000 </r>
       <r>   30.5741    0.0000 </r>
       <r>   33.9728    0.0000 </r>
       <r>   36.7982    0.0000 </r>
       <r>   39.5312    0.0000 </r>
       <r>   40.7165    0.0000 </r>
       <r>   41.6529    0.0000 </r>
       <r>   42.3292    0.0000 </r>
       <r>   47.2574    0.0000 </r>
       <r>   51.4467    0.0000 </r>
       <r>   55.6087    0.0000 </r>
       <r>   56.8784    0.0000 </r>
       <r>   57.9346    0.0000 </r>
       <r>   58.5451    0.0000 </r>
       <r>   60.6342    0.0000 </r>
       <r>   62.9300    0.0000 </r>
       <r>   64.3694    0.0000 </r>
       <r>   66.7140    0.0000 </r>
       <r>   68.2637    0.0000 </r>
       <r>   70.5517    0.0000 </r>
       <r>   72.6100    0.0000 </r>
       <r>   73.8295    0.0000 </r>
       <r>   74.2519    0.0000 </r>
       <r>   76.9550    0.0000 </r>
       <r>   78.2463    0.0000 </r>
       <r>   78.6730    0.0000 </r>
       <r>   80.8543    0.0000 </r>
      </set>
      <set comment="kpoint 29">
       <r>  -25.7807    1.0000 </r>
       <r>  -25.4433    1.0000 </r>
       <r>  -24.8787    1.0000 </r>
       <r>    2.5424    1.0000 </r>
       <r>    3.6187    1.0000 </r>
       <r>    4.4900    0.9948 </r>
       <r>    8.2951    0.0000 </r>
       <r>    8.8427    0.0000 </r>
       <r>   14.2515    0.0000 </r>
       <r>   15.7210    0.0000 </r>
       <r>   17.5980    0.0000 </r>
       <r>   21.2114    0.0000 </r>
       <r>   26.3583    0.0000 </r>
       <r>   28.0021    0.0000 </r>
       <r>   33.9366    0.0000 </r>
       <r>   34.8914    0.0000 </r>
       <r>   37.9971    0.0000 </r>
       <r>   38.8629    0.0000 </r>
       <r>   40.1063    0.0000 </r>
       <r>   42.3387    0.0000 </r>
       <r>   43.8946    0.0000 </r>
       <r>   45.5337    0.0000 </r>
       <r>   50.8145    0.0000 </r>
       <r>   51.2304    0.0000 </r>
       <r>   52.9609    0.0000 </r>
       <r>   54.0626    0.0000 </r>
       <r>   57.2562    0.0000 </r>
       <r>   59.0421    0.0000 </r>
       <r>   60.9800    0.0000 </r>
       <r>   65.2155    0.0000 </r>
       <r>   67.5638    0.0000 </r>
       <r>   69.5038    0.0000 </r>
       <r>   71.0713    0.0000 </r>
       <r>   71.0751    0.0000 </r>
       <r>   74.9253    0.0000 </r>
       <r>   75.7703    0.0000 </r>
       <r>   78.8459    0.0000 </r>
       <r>   79.4486    0.0000 </r>
       <r>   82.5730    0.0000 </r>
       <r>   84.5459    0.0000 </r>
      </set>
      <set comment="kpoint 30">
       <r>  -25.7236    1.0000 </r>
       <r>  -25.5359    1.0000 </r>
       <r>  -24.8859    1.0000 </r>
       <r>    2.5720    1.0000 </r>
       <r>    3.7666    1.0000 </r>
       <r>    4.3911    0.9994 </r>
       <r>    8.4613    0.0000 </r>
       <r>    8.7775    0.0000 </r>
       <r>   15.2113    0.0000 </r>
       <r>   15.2212    0.0000 </r>
       <r>   16.8158    0.0000 </r>
       <r>   21.3950    0.0000 </r>
       <r>   26.8432    0.0000 </r>
       <r>   27.2159    0.0000 </r>
       <r>   34.7220    0.0000 </r>
       <r>   35.1240    0.0000 </r>
       <r>   36.9344    0.0000 </r>
       <r>   38.0494    0.0000 </r>
       <r>   40.8051    0.0000 </r>
       <r>   42.4962    0.0000 </r>
       <r>   45.4325    0.0000 </r>
       <r>   45.6564    0.0000 </r>
       <r>   49.9440    0.0000 </r>
       <r>   50.0869    0.0000 </r>
       <r>   53.1553    0.0000 </r>
       <r>   54.3055    0.0000 </r>
       <r>   56.7059    0.0000 </r>
       <r>   58.8314    0.0000 </r>
       <r>   61.1044    0.0000 </r>
       <r>   65.9136    0.0000 </r>
       <r>   67.4073    0.0000 </r>
       <r>   68.1848    0.0000 </r>
       <r>   70.5025    0.0000 </r>
       <r>   73.8648    0.0000 </r>
       <r>   75.0566    0.0000 </r>
       <r>   76.6982    0.0000 </r>
       <r>   78.4137    0.0000 </r>
       <r>   81.2720    0.0000 </r>
       <r>   82.1493    0.0000 </r>
       <r>   82.2586    0.0000 </r>
      </set>
      <set comment="kpoint 31">
       <r>  -25.5454    1.0000 </r>
       <r>  -24.9613    1.0000 </r>
       <r>  -24.7099    1.0000 </r>
       <r>    1.1267    1.0000 </r>
       <r>    3.8851    1.0000 </r>
       <r>    4.8135    0.6075 </r>
       <r>    7.5301    0.0000 </r>
       <r>    8.0865    0.0000 </r>
       <r>    8.4576    0.0000 </r>
       <r>   19.7629    0.0000 </r>
       <r>   20.8502    0.0000 </r>
       <r>   25.1568    0.0000 </r>
       <r>   27.2421    0.0000 </r>
       <r>   27.6810    0.0000 </r>
       <r>   29.1380    0.0000 </r>
       <r>   31.8510    0.0000 </r>
       <r>   37.9292    0.0000 </r>
       <r>   39.9400    0.0000 </r>
       <r>   40.5987    0.0000 </r>
       <r>   42.1689    0.0000 </r>
       <r>   45.5405    0.0000 </r>
       <r>   46.3320    0.0000 </r>
       <r>   51.5335    0.0000 </r>
       <r>   53.4634    0.0000 </r>
       <r>   54.9683    0.0000 </r>
       <r>   56.6968    0.0000 </r>
       <r>   56.9665    0.0000 </r>
       <r>   58.5438    0.0000 </r>
       <r>   59.0170    0.0000 </r>
       <r>   66.9588    0.0000 </r>
       <r>   67.3962    0.0000 </r>
       <r>   69.7256    0.0000 </r>
       <r>   71.6265    0.0000 </r>
       <r>   72.1482    0.0000 </r>
       <r>   75.3171    0.0000 </r>
       <r>   76.4126    0.0000 </r>
       <r>   78.8116    0.0000 </r>
       <r>   79.6594    0.0000 </r>
       <r>   79.8772    0.0000 </r>
       <r>   82.0319    0.0000 </r>
      </set>
      <set comment="kpoint 32">
       <r>  -25.4273    1.0000 </r>
       <r>  -24.9310    1.0000 </r>
       <r>  -24.7458    1.0000 </r>
       <r>    1.0653    1.0000 </r>
       <r>    4.1447    1.0000 </r>
       <r>    4.5856    0.9702 </r>
       <r>    7.1025    0.0000 </r>
       <r>    7.6978    0.0000 </r>
       <r>    8.6153    0.0000 </r>
       <r>   20.4120    0.0000 </r>
       <r>   21.5140    0.0000 </r>
       <r>   24.0292    0.0000 </r>
       <r>   26.7075    0.0000 </r>
       <r>   27.4457    0.0000 </r>
       <r>   30.3441    0.0000 </r>
       <r>   33.1298    0.0000 </r>
       <r>   36.5003    0.0000 </r>
       <r>   39.3009    0.0000 </r>
       <r>   41.3702    0.0000 </r>
       <r>   42.1455    0.0000 </r>
       <r>   44.2062    0.0000 </r>
       <r>   46.8358    0.0000 </r>
       <r>   50.8502    0.0000 </r>
       <r>   54.5824    0.0000 </r>
       <r>   55.0413    0.0000 </r>
       <r>   56.8720    0.0000 </r>
       <r>   58.3269    0.0000 </r>
       <r>   60.2659    0.0000 </r>
       <r>   60.7541    0.0000 </r>
[...]
       <r>   25.6593    0.0000 </r>
       <r>   25.9014    0.0000 </r>
       <r>   30.6073    0.0000 </r>
       <r>   39.4101    0.0000 </r>
       <r>   40.2028    0.0000 </r>
       <r>   42.0383    0.0000 </r>
       <r>   42.8675    0.0000 </r>
       <r>   44.9852    0.0000 </r>
       <r>   45.8028    0.0000 </r>
       <r>   47.1919    0.0000 </r>
       <r>   52.8316    0.0000 </r>
       <r>   53.0442    0.0000 </r>
       <r>   53.7269    0.0000 </r>
       <r>   54.4960    0.0000 </r>
       <r>   55.3223    0.0000 </r>
       <r>   55.5950    0.0000 </r>
       <r>   57.2315    0.0000 </r>
       <r>   58.5090    0.0000 </r>
       <r>   59.3762    0.0000 </r>
       <r>   60.2478    0.0000 </r>
       <r>   62.5811    0.0000 </r>
       <r>   62.8333    0.0000 </r>
       <r>   64.4364    0.0000 </r>
       <r>   66.0073    0.0000 </r>
       <r>   66.9106    0.0000 </r>
       <r>   70.3199    0.0000 </r>
       <r>   90.3444    0.0000 </r>
       <r>   91.0374    0.0000 </r>
      </set>
      <set comment="kpoint 139">
       <r>  -25.6457    1.0000 </r>
       <r>  -25.6457    1.0000 </r>
       <r>  -25.5710    1.0000 </r>
       <r>    1.2551    1.0000 </r>
       <r>    1.2551    1.0000 </r>
       <r>    9.2002    0.0000 </r>
       <r>   10.1738    0.0000 </r>
       <r>   10.1738    0.0000 </r>
       <r>   14.5589    0.0000 </r>
       <r>   14.5589    0.0000 </r>
       <r>   14.9043    0.0000 </r>
       <r>   24.0812    0.0000 </r>
       <r>   25.7232    0.0000 </r>
       <r>   25.7232    0.0000 </r>
       <r>   30.3925    0.0000 </r>
       <r>   39.7341    0.0000 </r>
       <r>   41.9252    0.0000 </r>
       <r>   41.9252    0.0000 </r>
       <r>   42.2412    0.0000 </r>
       <r>   45.5042    0.0000 </r>
       <r>   45.5043    0.0000 </r>
       <r>   46.8162    0.0000 </r>
       <r>   52.4105    0.0000 </r>
       <r>   53.4331    0.0000 </r>
       <r>   54.6220    0.0000 </r>
       <r>   54.6220    0.0000 </r>
       <r>   55.1885    0.0000 </r>
       <r>   55.1885    0.0000 </r>
       <r>   58.0902    0.0000 </r>
       <r>   58.6258    0.0000 </r>
       <r>   60.2893    0.0000 </r>
       <r>   60.2893    0.0000 </r>
       <r>   61.8266    0.0000 </r>
       <r>   61.8266    0.0000 </r>
       <r>   62.1944    0.0000 </r>
       <r>   65.8722    0.0000 </r>
       <r>   65.8722    0.0000 </r>
       <r>   68.2974    0.0000 </r>
       <r>   90.9948    0.0000 </r>
       <r>   96.1002    0.0000 </r>
      </set>
      <set comment="kpoint 140">
       <r>  -25.6391    1.0000 </r>
       <r>  -25.6285    1.0000 </r>
       <r>  -25.6285    1.0000 </r>
       <r>    1.1266    1.0000 </r>
       <r>    1.1535    1.0000 </r>
       <r>   10.1448    0.0000 </r>
       <r>   10.1448    0.0000 </r>
       <r>   10.3738    0.0000 </r>
       <r>   13.9831    0.0000 </r>
       <r>   14.6084    0.0000 </r>
       <r>   14.6084    0.0000 </r>
       <r>   23.5817    0.0000 </r>
       <r>   25.8439    0.0000 </r>
       <r>   25.8911    0.0000 </r>
       <r>   30.1703    0.0000 </r>
       <r>   41.5075    0.0000 </r>
       <r>   41.5075    0.0000 </r>
       <r>   41.6928    0.0000 </r>
       <r>   42.3896    0.0000 </r>
       <r>   45.8793    0.0000 </r>
       <r>   45.9042    0.0000 </r>
       <r>   45.9042    0.0000 </r>
       <r>   51.5821    0.0000 </r>
       <r>   54.1466    0.0000 </r>
       <r>   54.4974    0.0000 </r>
       <r>   54.4974    0.0000 </r>
       <r>   56.7698    0.0000 </r>
       <r>   56.7698    0.0000 </r>
       <r>   57.2949    0.0000 </r>
       <r>   59.3256    0.0000 </r>
       <r>   59.6539    0.0000 </r>
       <r>   60.4935    0.0000 </r>
       <r>   60.4935    0.0000 </r>
       <r>   61.4264    0.0000 </r>
       <r>   62.8698    0.0000 </r>
       <r>   63.7545    0.0000 </r>
       <r>   63.7545    0.0000 </r>
       <r>   66.4719    0.0000 </r>
       <r>   96.3195    0.0000 </r>
       <r>   96.3207    0.0000 </r>
      </set>
     </set>
    </set>
   </array>
  </eigenvalues>
  <separator name="orbital magnetization" >
   <v name="MAGDIPOLOUT">      0.00000000      0.00000000      0.00000000</v>
  </separator>
  <dos>
   <i name="efermi">      4.85203517 </i>
   <total>
    <array>
     <dimension dim="1">gridpoints</dimension>
     <dimension dim="2">spin</dimension>
     <field>energy</field>
     <field>total</field>
     <field>integrated</field>
     <set>
      <set comment="spin 1">
       <r>   -32.1805     0.0000     0.0000 </r>
       <r>   -31.7318     0.0000     0.0000 </r>
       <r>   -31.2831     0.0000     0.0000 </r>
       <r>   -30.8343     0.0000     0.0000 </r>
       <r>   -30.3856     0.0000     0.0000 </r>
       <r>   -29.9369     0.0000     0.0000 </r>
       <r>   -29.4881     0.0000     0.0000 </r>
       <r>   -29.0394     0.0000     0.0000 </r>
       <r>   -28.5906     0.0000     0.0000 </r>
       <r>   -28.1419     0.0000     0.0000 </r>
       <r>   -27.6932     0.0000     0.0000 </r>
       <r>   -27.2444     0.0000     0.0000 </r>
       <r>   -26.7957     0.0000     0.0000 </r>
       <r>   -26.3470     0.0042     0.0019 </r>
       <r>   -25.8982     1.1206     0.5047 </r>
       <r>   -25.4495     3.6098     2.1246 </r>
       <r>   -25.0008     4.4639     4.1277 </r>
       <r>   -24.5520     4.0068     5.9257 </r>
       <r>   -24.1033     0.1656     6.0000 </r>
       <r>   -23.6546     0.0000     6.0000 </r>
       <r>   -23.2058     0.0000     6.0000 </r>
       <r>   -22.7571     0.0000     6.0000 </r>
       <r>   -22.3084     0.0000     6.0000 </r>
       <r>   -21.8596     0.0000     6.0000 </r>
       <r>   -21.4109     0.0000     6.0000 </r>
       <r>   -20.9622     0.0000     6.0000 </r>
       <r>   -20.5134     0.0000     6.0000 </r>
       <r>   -20.0647     0.0000     6.0000 </r>
       <r>   -19.6160     0.0000     6.0000 </r>
       <r>   -19.1672     0.0000     6.0000 </r>
       <r>   -18.7185     0.0000     6.0000 </r>
       <r>   -18.2698     0.0000     6.0000 </r>
       <r>   -17.8210     0.0000     6.0000 </r>
       <r>   -17.3723     0.0000     6.0000 </r>
       <r>   -16.9236     0.0000     6.0000 </r>
       <r>   -16.4748     0.0000     6.0000 </r>
       <r>   -16.0261     0.0000     6.0000 </r>
       <r>   -15.5774     0.0000     6.0000 </r>
       <r>   -15.1286     0.0000     6.0000 </r>
       <r>   -14.6799     0.0000     6.0000 </r>
       <r>   -14.2311     0.0000     6.0000 </r>
       <r>   -13.7824     0.0000     6.0000 </r>
       <r>   -13.3337     0.0000     6.0000 </r>
       <r>   -12.8849     0.0000     6.0000 </r>
       <r>   -12.4362     0.0000     6.0000 </r>
       <r>   -11.9875     0.0000     6.0000 </r>
       <r>   -11.5387     0.0000     6.0000 </r>
       <r>   -11.0900     0.0000     6.0000 </r>
       <r>   -10.6413     0.0000     6.0000 </r>
       <r>   -10.1925     0.0000     6.0000 </r>
       <r>    -9.7438     0.0000     6.0000 </r>
       <r>    -9.2951     0.0000     6.0000 </r>
       <r>    -8.8463     0.0000     6.0000 </r>
       <r>    -8.3976     0.0000     6.0000 </r>
       <r>    -7.9489     0.0000     6.0000 </r>
       <r>    -7.5001     0.0000     6.0000 </r>
       <r>    -7.0514     0.0000     6.0000 </r>
       <r>    -6.6027     0.0000     6.0000 </r>
       <r>    -6.1539     0.0000     6.0000 </r>
       <r>    -5.7052     0.0000     6.0000 </r>
       <r>    -5.2565     0.0000     6.0000 </r>
       <r>    -4.8077     0.0000     6.0000 </r>
       <r>    -4.3590     0.0000     6.0000 </r>
       <r>    -3.9103     0.0000     6.0000 </r>
       <r>    -3.4615     0.0000     6.0000 </r>
       <r>    -3.0128     0.0000     6.0000 </r>
       <r>    -2.5641     0.0000     6.0000 </r>
       <r>    -2.1153     0.0000     6.0000 </r>
       <r>    -1.6666     0.0000     6.0000 </r>
       <r>    -1.2179     0.0005     6.0002 </r>
       <r>    -0.7691     0.0194     6.0089 </r>
       <r>    -0.3204     0.0530     6.0327 </r>
       <r>     0.1284     0.0775     6.0675 </r>
       <r>     0.5771     0.1184     6.1206 </r>
       <r>     1.0258     0.1999     6.2103 </r>
       <r>     1.4746     0.6719     6.5118 </r>
       <r>     1.9233     1.0745     6.9939 </r>
       <r>     2.3720     1.3487     7.5991 </r>
       <r>     2.8208     1.0898     8.0882 </r>
       <r>     3.2695     0.9560     8.5172 </r>
       <r>     3.7182     1.8300     9.3383 </r>
       <r>     4.1670     1.2430     9.8961 </r>
       <r>     4.6157     1.5100    10.5737 </r>
       <r>     5.0644     1.5490    11.2688 </r>
       <r>     5.5132     0.7520    11.6063 </r>
       <r>     5.9619     0.4450    11.8060 </r>
       <r>     6.4106     0.5183    12.0385 </r>
       <r>     6.8594     0.8296    12.4108 </r>
       <r>     7.3081     0.8881    12.8093 </r>
       <r>     7.7568     1.2665    13.3777 </r>
       <r>     8.2056     1.4197    14.0148 </r>
       <r>     8.6543     1.4418    14.6617 </r>
       <r>     9.1030     2.1560    15.6292 </r>
       <r>     9.5518     1.0070    16.0811 </r>
       <r>    10.0005     0.5749    16.3391 </r>
       <r>    10.4492     0.7849    16.6913 </r>
       <r>    10.8980     0.2924    16.8225 </r>
       <r>    11.3467     0.3893    16.9972 </r>
       <r>    11.7954     0.3967    17.1752 </r>
       <r>    12.2442     0.2478    17.2864 </r>
       <r>    12.6929     0.2838    17.4137 </r>
       <r>    13.1416     0.3425    17.5674 </r>
       <r>    13.5904     0.2301    17.6707 </r>
       <r>    14.0391     0.2184    17.7687 </r>
       <r>    14.4879     0.2469    17.8795 </r>
       <r>    14.9366     0.1770    17.9589 </r>
       <r>    15.3853     0.2421    18.0675 </r>
       <r>    15.8341     0.3830    18.2394 </r>
       <r>    16.2828     0.4729    18.4516 </r>
       <r>    16.7315     0.5864    18.7148 </r>
       <r>    17.1803     0.5448    18.9592 </r>
       <r>    17.6290     0.6317    19.2427 </r>
       <r>    18.0777     0.7096    19.5611 </r>
       <r>    18.5265     0.7948    19.9178 </r>
       <r>    18.9752     0.9025    20.3228 </r>
       <r>    19.4239     0.7014    20.6375 </r>
       <r>    19.8727     0.7142    20.9580 </r>
       <r>    20.3214     0.6607    21.2545 </r>
       <r>    20.7701     0.5317    21.4930 </r>
       <r>    21.2189     0.8430    21.8713 </r>
       <r>    21.6676     0.7872    22.2246 </r>
       <r>    22.1163     0.8825    22.6206 </r>
       <r>    22.5651     0.7548    22.9593 </r>
       <r>    23.0138     0.6467    23.2495 </r>
       <r>    23.4625     0.4639    23.4577 </r>
       <r>    23.9113     0.4384    23.6544 </r>
       <r>    24.3600     0.6001    23.9237 </r>
       <r>    24.8087     0.6906    24.2336 </r>
       <r>    25.2575     0.9521    24.6608 </r>
       <r>    25.7062     0.6785    24.9653 </r>
       <r>    26.1549     0.6494    25.2567 </r>
       <r>    26.6037     0.4630    25.4644 </r>
       <r>    27.0524     0.5064    25.6917 </r>
       <r>    27.5011     0.5845    25.9540 </r>
       <r>    27.9499     0.5508    26.2011 </r>
       <r>    28.3986     0.6721    26.5027 </r>
       <r>    28.8473     0.5150    26.7338 </r>
       <r>    29.2961     0.9949    27.1803 </r>
       <r>    29.7448     0.6506    27.4722 </r>
       <r>    30.1936     0.7112    27.7914 </r>
       <r>    30.6423     0.7384    28.1227 </r>
       <r>    31.0910     0.5363    28.3634 </r>
       <r>    31.5398     0.7326    28.6921 </r>
       <r>    31.9885     0.7136    29.0124 </r>
       <r>    32.4372     0.7924    29.3679 </r>
       <r>    32.8860     0.8443    29.7468 </r>
       <r>    33.3347     0.9262    30.1624 </r>
       <r>    33.7834     0.8524    30.5449 </r>
       <r>    34.2322     0.9410    30.9672 </r>
       <r>    34.6809     0.7820    31.3181 </r>
       <r>    35.1296     0.6433    31.6068 </r>
       <r>    35.5784     0.7882    31.9605 </r>
       <r>    36.0271     0.5649    32.2140 </r>
       <r>    36.4758     0.6250    32.4944 </r>
       <r>    36.9246     0.6610    32.7910 </r>
       <r>    37.3733     0.8175    33.1579 </r>
       <r>    37.8220     1.1007    33.6518 </r>
       <r>    38.2708     0.9889    34.0955 </r>
       <r>    38.7195     0.8135    34.4606 </r>
       <r>    39.1682     0.6035    34.7314 </r>
       <r>    39.6170     0.6397    35.0185 </r>
       <r>    40.0657     1.0822    35.5041 </r>
       <r>    40.5144     0.9100    35.9124 </r>
       <r>    40.9632     0.7168    36.2340 </r>
       <r>    41.4119     0.7684    36.5788 </r>
       <r>    41.8606     1.5201    37.2609 </r>
       <r>    42.3094     3.2439    38.7166 </r>
       <r>    42.7581     1.8270    39.5364 </r>
       <r>    43.2068     1.0687    40.0160 </r>
       <r>    43.6556     1.1329    40.5243 </r>
       <r>    44.1043     0.9088    40.9321 </r>
       <r>    44.5531     1.1411    41.4442 </r>
       <r>    45.0018     1.0313    41.9069 </r>
       <r>    45.4505     0.8352    42.2817 </r>
       <r>    45.8993     0.9618    42.7133 </r>
       <r>    46.3480     0.7473    43.0487 </r>
       <r>    46.7967     0.5618    43.3008 </r>
       <r>    47.2455     0.5386    43.5425 </r>
       <r>    47.6942     0.9773    43.9810 </r>
       <r>    48.1429     0.8708    44.3718 </r>
       <r>    48.5917     0.6440    44.6608 </r>
       <r>    49.0404     0.9084    45.0684 </r>
       <r>    49.4891     0.8073    45.4307 </r>
       <r>    49.9379     0.5649    45.6842 </r>
       <r>    50.3866     0.8824    46.0801 </r>
       <r>    50.8353     1.0964    46.5721 </r>
       <r>    51.2841     0.8960    46.9742 </r>
       <r>    51.7328     0.8921    47.3745 </r>
       <r>    52.1815     1.0764    47.8575 </r>
       <r>    52.6303     0.9386    48.2787 </r>
       <r>    53.0790     0.8739    48.6708 </r>
       <r>    53.5277     0.8215    49.0395 </r>
       <r>    53.9765     0.8055    49.4009 </r>
       <r>    54.4252     0.9239    49.8155 </r>
       <r>    54.8739     0.7781    50.1647 </r>
       <r>    55.3227     0.9995    50.6132 </r>
       <r>    55.7714     1.0559    51.0871 </r>
       <r>    56.2201     0.8826    51.4831 </r>
       <r>    56.6689     0.9607    51.9142 </r>
       <r>    57.1176     1.0852    52.4012 </r>
       <r>    57.5663     0.9587    52.8314 </r>
       <r>    58.0151     0.9309    53.2491 </r>
       <r>    58.4638     1.1475    53.7640 </r>
       <r>    58.9126     1.0349    54.2284 </r>
       <r>    59.3613     1.0376    54.6941 </r>
       <r>    59.8100     1.0589    55.1692 </r>
       <r>    60.2588     0.8758    55.5622 </r>
       <r>    60.7075     1.2900    56.1411 </r>
       <r>    61.1562     1.1293    56.6479 </r>
       <r>    61.6050     0.9108    57.0566 </r>
       <r>    62.0537     0.9411    57.4789 </r>
       <r>    62.5024     0.8008    57.8382 </r>
       <r>    62.9512     1.1793    58.3674 </r>
       <r>    63.3999     0.8078    58.7299 </r>
       <r>    63.8486     0.8150    59.0956 </r>
       <r>    64.2974     1.2534    59.6581 </r>
       <r>    64.7461     0.9761    60.0961 </r>
       <r>    65.1948     0.8916    60.4961 </r>
       <r>    65.6436     0.7511    60.8332 </r>
       <r>    66.0923     1.1940    61.3690 </r>
       <r>    66.5410     0.8473    61.7492 </r>
       <r>    66.9898     0.9746    62.1865 </r>
       <r>    67.4385     0.9717    62.6226 </r>
       <r>    67.8872     1.1051    63.1185 </r>
       <r>    68.3360     1.0539    63.5914 </r>
       <r>    68.7847     1.2433    64.1493 </r>
       <r>    69.2334     0.8272    64.5205 </r>
       <r>    69.6822     0.8822    64.9163 </r>
       <r>    70.1309     1.2337    65.4699 </r>
       <r>    70.5796     0.9028    65.8751 </r>
       <r>    71.0284     0.8781    66.2691 </r>
       <r>    71.4771     0.8836    66.6656 </r>
       <r>    71.9258     0.9388    67.0869 </r>
       <r>    72.3746     1.3009    67.6707 </r>
       <r>    72.8233     1.1605    68.1914 </r>
       <r>    73.2721     1.1130    68.6909 </r>
       <r>    73.7208     1.2437    69.2489 </r>
       <r>    74.1695     1.0909    69.7385 </r>
       <r>    74.6183     0.9988    70.1867 </r>
       <r>    75.0670     0.7918    70.5419 </r>
       <r>    75.5157     1.1464    71.0564 </r>
       <r>    75.9645     0.8369    71.4319 </r>
       <r>    76.4132     1.0728    71.9133 </r>
       <r>    76.8619     0.9380    72.3343 </r>
       <r>    77.3107     1.3357    72.9337 </r>
       <r>    77.7594     1.1244    73.4382 </r>
       <r>    78.2081     1.0548    73.9115 </r>
       <r>    78.6569     1.2962    74.4932 </r>
       <r>    79.1056     1.1612    75.0143 </r>
       <r>    79.5543     0.9767    75.4525 </r>
       <r>    80.0031     0.9728    75.8891 </r>
       <r>    80.4518     0.9210    76.3024 </r>
       <r>    80.9005     0.8389    76.6788 </r>
       <r>    81.3493     1.2666    77.2472 </r>
       <r>    81.7980     0.9316    77.6652 </r>
       <r>    82.2467     1.1428    78.1780 </r>
       <r>    82.6955     0.8583    78.5632 </r>
       <r>    83.1442     0.9019    78.9679 </r>
       <r>    83.5929     0.6391    79.2547 </r>
       <r>    84.0417     0.5033    79.4805 </r>
       <r>    84.4904     0.3525    79.6387 </r>
       <r>    84.9391     0.2723    79.7609 </r>
       <r>    85.3879     0.1509    79.8286 </r>
       <r>    85.8366     0.1370    79.8901 </r>
       <r>    86.2853     0.0099    79.8945 </r>
       <r>    86.7341     0.0001    79.8946 </r>
       <r>    87.1828     0.0081    79.8982 </r>
       <r>    87.6316     0.0262    79.9100 </r>
       <r>    88.0803     0.0481    79.9315 </r>
       <r>    88.5290     0.0057    79.9341 </r>
       <r>    88.9778     0.0264    79.9460 </r>
       <r>    89.4265     0.0115    79.9511 </r>
       <r>    89.8752     0.0006    79.9514 </r>
       <r>    90.3240     0.0335    79.9664 </r>
       <r>    90.7727     0.0196    79.9752 </r>
       <r>    91.2214     0.0305    79.9889 </r>
       <r>    91.6702     0.0030    79.9902 </r>
       <r>    92.1189     0.0000    79.9902 </r>
       <r>    92.5676     0.0000    79.9902 </r>
       <r>    93.0164     0.0000    79.9902 </r>
       <r>    93.4651     0.0000    79.9902 </r>
       <r>    93.9138     0.0000    79.9902 </r>
       <r>    94.3626     0.0000    79.9902 </r>
       <r>    94.8113     0.0000    79.9902 </r>
       <r>    95.2600     0.0000    79.9902 </r>
       <r>    95.7088     0.0000    79.9902 </r>
       <r>    96.1575     0.0073    79.9935 </r>
       <r>    96.6062     0.0141    79.9999 </r>
       <r>    97.0550     0.0003    80.0000 </r>
       <r>    97.5037     0.0000    80.0000 </r>
       <r>    97.9524     0.0000    80.0000 </r>
       <r>    98.4012     0.0000    80.0000 </r>
       <r>    98.8499     0.0000    80.0000 </r>
       <r>    99.2986     0.0000    80.0000 </r>
       <r>    99.7474     0.0000    80.0000 </r>
       <r>   100.1961     0.0000    80.0000 </r>
       <r>   100.6448     0.0000    80.0000 </r>
       <r>   101.0936     0.0000    80.0000 </r>
       <r>   101.5423     0.0000    80.0000 </r>
       <r>   101.9910     0.0000    80.0000 </r>
       <r>   102.4398     0.0000    80.0000 </r>
      </set>
     </set>
    </array>
   </total>
  </dos>
 </calculation>
 <structure name="finalpos" >
  <crystal>
   <varray name="basis" >
    <v>      -1.65040000       1.65040000       1.65040000 </v>
    <v>       1.65040000      -1.65040000       1.65040000 </v>
    <v>       1.65040000       1.65040000      -1.65040000 </v>
   </varray>
   <i name="volume">     17.98157117 </i>
   <varray name="rec_basis" >
    <v>       0.00000000       0.30295686       0.30295686 </v>
    <v>       0.30295686       0.00000000       0.30295686 </v>
    <v>       0.30295686       0.30295686       0.00000000 </v>
   </varray>
  </crystal>
  <varray name="positions" >
   <v>       0.00000000       0.00000000       0.00000000 </v>
  </varray>
 </structure>
</modeling>
