   2   2   0   0
  0.2001288E+02  0.3839590E-09  0.3839590E-09  0.3839590E-09  0.5000000E-15
  1.000000000000000E-004
  CAR 
 Si tetrahedron                          
     17.96023336     -8.13056653  301      5.87693166      1.00000000
     -8.131  0.0000E+00  0.0000E+00
     -8.044  0.0000E+00  0.0000E+00
     -7.957  0.0000E+00  0.0000E+00
     -7.870  0.0000E+00  0.0000E+00
     -7.783  0.0000E+00  0.0000E+00
     -7.696  0.0000E+00  0.0000E+00
     -7.609  0.0000E+00  0.0000E+00
     -7.522  0.0000E+00  0.0000E+00
     -7.435  0.0000E+00  0.0000E+00
     -7.348  0.0000E+00  0.0000E+00
     -7.261  0.0000E+00  0.0000E+00
     -7.174  0.0000E+00  0.0000E+00
     -7.087  0.0000E+00  0.0000E+00
     -7.000  0.0000E+00  0.0000E+00
     -6.913  0.0000E+00  0.0000E+00
     -6.826  0.0000E+00  0.0000E+00
     -6.739  0.0000E+00  0.0000E+00
     -6.652  0.0000E+00  0.0000E+00
     -6.565  0.0000E+00  0.0000E+00
     -6.478  0.0000E+00  0.0000E+00
     -6.391  0.0000E+00  0.0000E+00
     -6.304  0.0000E+00  0.0000E+00
     -6.217  0.0000E+00  0.0000E+00
     -6.130  0.5557E-05  0.5458E-09
     -6.043  0.9741E-01  0.4798E-02
     -5.956  0.1393E+00  0.1512E-01
     -5.869  0.1725E+00  0.2888E-01
     -5.782  0.2051E+00  0.4523E-01
     -5.695  0.2276E+00  0.6405E-01
     -5.608  0.2532E+00  0.8492E-01
     -5.521  0.2742E+00  0.1079E+00
     -5.435  0.2952E+00  0.1327E+00
     -5.348  0.3178E+00  0.1593E+00
     -5.261  0.3353E+00  0.1877E+00
     -5.174  0.3546E+00  0.2177E+00
     -5.087  0.3752E+00  0.2494E+00
     -5.000  0.3926E+00  0.2828E+00
     -4.913  0.4110E+00  0.3178E+00
     -4.826  0.4309E+00  0.3544E+00
     -4.739  0.4502E+00  0.3927E+00
     -4.652  0.4692E+00  0.4327E+00
     -4.565  0.4896E+00  0.4744E+00
     -4.478  0.5115E+00  0.5179E+00
     -4.391  0.5339E+00  0.5634E+00
     -4.304  0.5577E+00  0.6108E+00
     -4.217  0.5847E+00  0.6605E+00
     -4.130  0.6151E+00  0.7126E+00
     -4.043  0.6508E+00  0.7676E+00
     -3.956  0.6961E+00  0.8261E+00
     -3.869  0.7650E+00  0.8893E+00
     -3.782  0.8873E+00  0.9628E+00
     -3.695  0.8535E+00  0.1039E+01
     -3.608  0.8432E+00  0.1115E+01
     -3.521  0.8175E+00  0.1187E+01
     -3.434  0.7777E+00  0.1256E+01
     -3.347  0.7609E+00  0.1323E+01
     -3.260  0.7237E+00  0.1388E+01
     -3.173  0.6971E+00  0.1450E+01
     -3.086  0.6691E+00  0.1509E+01
     -2.999  0.6344E+00  0.1566E+01
     -2.912  0.6081E+00  0.1620E+01
     -2.825  0.5779E+00  0.1671E+01
     -2.738  0.5422E+00  0.1720E+01
     -2.651  0.5107E+00  0.1766E+01
     -2.565  0.4810E+00  0.1809E+01
     -2.478  0.4459E+00  0.1849E+01
     -2.391  0.4112E+00  0.1886E+01
     -2.304  0.3843E+00  0.1921E+01
     -2.217  0.3413E+00  0.1953E+01
     -2.130  0.2224E+00  0.1979E+01
     -2.043  0.1019E+00  0.1993E+01
     -1.956  0.3722E-01  0.1998E+01
     -1.869  0.3450E-01  0.2001E+01
     -1.782  0.9131E-01  0.2006E+01
     -1.695  0.1743E+00  0.2018E+01
     -1.608  0.2601E+00  0.2037E+01
     -1.521  0.3274E+00  0.2062E+01
     -1.434  0.3709E+00  0.2092E+01
     -1.347  0.4240E+00  0.2126E+01
     -1.260  0.4761E+00  0.2165E+01
     -1.173  0.5522E+00  0.2210E+01
     -1.086  0.8280E+00  0.2265E+01
     -0.999  0.1305E+01  0.2354E+01
     -0.912  0.1687E+01  0.2508E+01
     -0.825  0.1133E+01  0.2624E+01
     -0.738  0.9482E+00  0.2714E+01
     -0.651  0.8353E+00  0.2791E+01
     -0.564  0.7494E+00  0.2860E+01
     -0.477  0.6836E+00  0.2922E+01
     -0.390  0.6379E+00  0.2979E+01
     -0.303  0.5965E+00  0.3033E+01
     -0.216  0.5587E+00  0.3083E+01
     -0.129  0.5194E+00  0.3130E+01
     -0.042  0.4924E+00  0.3174E+01
      0.045  0.4691E+00  0.3216E+01
      0.132  0.4463E+00  0.3256E+01
      0.218  0.4214E+00  0.3293E+01
      0.305  0.3951E+00  0.3329E+01
      0.392  0.3786E+00  0.3363E+01
      0.479  0.3636E+00  0.3395E+01
      0.566  0.3477E+00  0.3426E+01
      0.653  0.3313E+00  0.3455E+01
      0.740  0.3125E+00  0.3483E+01
      0.827  0.2964E+00  0.3510E+01
      0.914  0.2857E+00  0.3535E+01
      1.001  0.2749E+00  0.3559E+01
      1.088  0.2640E+00  0.3583E+01
      1.175  0.2508E+00  0.3605E+01
      1.262  0.2379E+00  0.3627E+01
      1.349  0.2245E+00  0.3647E+01
      1.436  0.2397E+00  0.3666E+01
      1.523  0.5890E+00  0.3705E+01
      1.610  0.8329E+00  0.3768E+01
      1.697  0.1158E+01  0.3853E+01
      1.784  0.1222E+01  0.3964E+01
      1.871  0.1153E+01  0.4067E+01
      1.958  0.1094E+01  0.4165E+01
      2.045  0.1023E+01  0.4256E+01
      2.132  0.1007E+01  0.4345E+01
      2.219  0.1040E+01  0.4433E+01
      2.306  0.1030E+01  0.4523E+01
      2.393  0.1035E+01  0.4613E+01
      2.480  0.1044E+01  0.4704E+01
      2.567  0.1089E+01  0.4798E+01
      2.654  0.1154E+01  0.4895E+01
      2.741  0.1177E+01  0.4997E+01
      2.828  0.1220E+01  0.5101E+01
      2.915  0.1411E+01  0.5215E+01
      3.002  0.1595E+01  0.5342E+01
      3.088  0.1551E+01  0.5476E+01
      3.175  0.1488E+01  0.5607E+01
      3.262  0.1471E+01  0.5736E+01
      3.349  0.1438E+01  0.5862E+01
      3.436  0.1428E+01  0.5987E+01
      3.523  0.1403E+01  0.6110E+01
      3.610  0.1364E+01  0.6231E+01
      3.697  0.1344E+01  0.6348E+01
      3.784  0.1322E+01  0.6464E+01
      3.871  0.1302E+01  0.6578E+01
      3.958  0.1282E+01  0.6691E+01
      4.045  0.1267E+01  0.6801E+01
      4.132  0.1235E+01  0.6910E+01
      4.219  0.1217E+01  0.7017E+01
      4.306  0.1213E+01  0.7123E+01
      4.393  0.1197E+01  0.7227E+01
      4.480  0.1180E+01  0.7330E+01
      4.567  0.1149E+01  0.7431E+01
      4.654  0.9440E+00  0.7526E+01
      4.741  0.7864E+00  0.7601E+01
      4.828  0.6821E+00  0.7664E+01
      4.915  0.6013E+00  0.7720E+01
      5.002  0.5285E+00  0.7769E+01
      5.089  0.4704E+00  0.7813E+01
      5.176  0.4150E+00  0.7851E+01
      5.263  0.3638E+00  0.7885E+01
      5.350  0.3147E+00  0.7914E+01
      5.437  0.2658E+00  0.7940E+01
      5.524  0.2355E+00  0.7961E+01
      5.611  0.1780E+00  0.7979E+01
      5.698  0.1152E+00  0.7992E+01
      5.785  0.3196E-01  0.8000E+01
      5.871  0.0000E+00  0.8000E+01
      5.958  0.0000E+00  0.8000E+01
      6.045  0.0000E+00  0.8000E+01
      6.132  0.0000E+00  0.8000E+01
      6.219  0.0000E+00  0.8000E+01
      6.306  0.0000E+00  0.8000E+01
      6.393  0.0000E+00  0.8000E+01
      6.480  0.5276E-01  0.8001E+01
      6.567  0.1561E+00  0.8011E+01
      6.654  0.2254E+00  0.8027E+01
      6.741  0.3025E+00  0.8050E+01
      6.828  0.3653E+00  0.8080E+01
      6.915  0.4056E+00  0.8113E+01
      7.002  0.4468E+00  0.8150E+01
      7.089  0.4922E+00  0.8191E+01
      7.176  0.5401E+00  0.8236E+01
      7.263  0.5908E+00  0.8285E+01
      7.350  0.6417E+00  0.8339E+01
      7.437  0.7100E+00  0.8397E+01
      7.524  0.7899E+00  0.8462E+01
      7.611  0.8925E+00  0.8536E+01
      7.698  0.9686E+00  0.8616E+01
      7.785  0.1063E+01  0.8704E+01
      7.872  0.1169E+01  0.8801E+01
      7.959  0.1316E+01  0.8909E+01
      8.046  0.1626E+01  0.9038E+01
      8.133  0.1694E+01  0.9184E+01
      8.220  0.1719E+01  0.9331E+01
      8.307  0.1563E+01  0.9472E+01
      8.394  0.1518E+01  0.9608E+01
      8.481  0.1350E+01  0.9733E+01
      8.568  0.1310E+01  0.9849E+01
      8.655  0.1153E+01  0.9956E+01
      8.741  0.1072E+01  0.1005E+02
      8.828  0.1075E+01  0.1015E+02
      8.915  0.1025E+01  0.1024E+02
      9.002  0.9305E+00  0.1032E+02
      9.089  0.1506E+01  0.1041E+02
      9.176  0.2412E+01  0.1060E+02
      9.263  0.2031E+01  0.1079E+02
      9.350  0.1840E+01  0.1096E+02
      9.437  0.1765E+01  0.1111E+02
      9.524  0.1914E+01  0.1127E+02
      9.611  0.1858E+01  0.1144E+02
      9.698  0.1583E+01  0.1159E+02
      9.785  0.1380E+01  0.1172E+02
      9.872  0.1321E+01  0.1183E+02
      9.959  0.1182E+01  0.1194E+02
     10.046  0.1097E+01  0.1204E+02
     10.133  0.1139E+01  0.1214E+02
     10.220  0.1118E+01  0.1224E+02
     10.307  0.1295E+01  0.1234E+02
     10.394  0.1533E+01  0.1247E+02
     10.481  0.1129E+01  0.1258E+02
     10.568  0.1113E+01  0.1268E+02
     10.655  0.1212E+01  0.1278E+02
     10.742  0.1224E+01  0.1289E+02
     10.829  0.1381E+01  0.1300E+02
     10.916  0.1173E+01  0.1311E+02
     11.003  0.1171E+01  0.1321E+02
     11.090  0.1187E+01  0.1331E+02
     11.177  0.1191E+01  0.1342E+02
     11.264  0.1140E+01  0.1352E+02
     11.351  0.1192E+01  0.1362E+02
     11.438  0.1161E+01  0.1372E+02
     11.525  0.1134E+01  0.1382E+02
     11.611  0.1144E+01  0.1392E+02
     11.698  0.1094E+01  0.1402E+02
     11.785  0.1056E+01  0.1411E+02
     11.872  0.1016E+01  0.1420E+02
     11.959  0.9530E+00  0.1429E+02
     12.046  0.9470E+00  0.1437E+02
     12.133  0.9565E+00  0.1445E+02
     12.220  0.8312E+00  0.1453E+02
     12.307  0.8337E+00  0.1460E+02
     12.394  0.9237E+00  0.1468E+02
     12.481  0.1018E+01  0.1476E+02
     12.568  0.1081E+01  0.1485E+02
     12.655  0.1122E+01  0.1495E+02
     12.742  0.8238E+00  0.1504E+02
     12.829  0.7523E+00  0.1510E+02
     12.916  0.7099E+00  0.1517E+02
     13.003  0.6784E+00  0.1523E+02
     13.090  0.6537E+00  0.1529E+02
     13.177  0.6318E+00  0.1534E+02
     13.264  0.6062E+00  0.1540E+02
     13.351  0.5801E+00  0.1545E+02
     13.438  0.5581E+00  0.1550E+02
     13.525  0.5322E+00  0.1554E+02
     13.612  0.5771E+00  0.1559E+02
     13.699  0.7574E+00  0.1565E+02
     13.786  0.5239E+00  0.1571E+02
     13.873  0.4054E+00  0.1575E+02
     13.960  0.2795E+00  0.1578E+02
     14.047  0.2352E+00  0.1580E+02
     14.134  0.2181E+00  0.1582E+02
     14.221  0.2096E+00  0.1584E+02
     14.308  0.2005E+00  0.1585E+02
     14.394  0.1911E+00  0.1587E+02
     14.481  0.1809E+00  0.1589E+02
     14.568  0.1681E+00  0.1590E+02
     14.655  0.1444E+00  0.1592E+02
     14.742  0.1330E+00  0.1593E+02
     14.829  0.1161E+00  0.1594E+02
     14.916  0.1012E+00  0.1595E+02
     15.003  0.8838E-01  0.1596E+02
     15.090  0.7761E-01  0.1596E+02
     15.177  0.6952E-01  0.1597E+02
     15.264  0.6529E-01  0.1598E+02
     15.351  0.6566E-01  0.1598E+02
     15.438  0.6541E-01  0.1599E+02
     15.525  0.6439E-01  0.1599E+02
     15.612  0.2464E-01  0.1600E+02
     15.699  0.1384E-01  0.1600E+02
     15.786  0.6128E-02  0.1600E+02
     15.873  0.1516E-02  0.1600E+02
     15.960  0.1026E-07  0.1600E+02
     16.047  0.0000E+00  0.1600E+02
     16.134  0.0000E+00  0.1600E+02
     16.221  0.0000E+00  0.1600E+02
     16.308  0.0000E+00  0.1600E+02
     16.395  0.0000E+00  0.1600E+02
     16.482  0.0000E+00  0.1600E+02
     16.569  0.0000E+00  0.1600E+02
     16.656  0.0000E+00  0.1600E+02
     16.743  0.0000E+00  0.1600E+02
     16.830  0.0000E+00  0.1600E+02
     16.917  0.0000E+00  0.1600E+02
     17.004  0.0000E+00  0.1600E+02
     17.091  0.0000E+00  0.1600E+02
     17.178  0.0000E+00  0.1600E+02
     17.264  0.0000E+00  0.1600E+02
     17.351  0.0000E+00  0.1600E+02
     17.438  0.0000E+00  0.1600E+02
     17.525  0.0000E+00  0.1600E+02
     17.612  0.0000E+00  0.1600E+02
     17.699  0.0000E+00  0.1600E+02
     17.786  0.0000E+00  0.1600E+02
     17.873  0.0000E+00  0.1600E+02
     17.960  0.0000E+00  0.1600E+02
