    2    2    1    1
  0.2001288E+02  0.3839590E-09  0.3839590E-09  0.3839590E-09  0.5000000E-15
  1.000000000000000E-004
  CAR 
 Si tetrahedron                          
      8    256      8
 
  0.0000000E+00  0.0000000E+00  0.0000000E+00  0.1250000E-03
    1       -6.130567   1.000000
    2        5.833043   1.000000
    3        5.833075   1.000000
    4        5.833075   1.000000
    5        8.401202   0.000000
    6        8.401230   0.000000
    7        8.401230   0.000000
    8        9.207953   0.000000
 
  0.5000000E-01  0.0000000E+00  0.0000000E+00  0.1000000E-02
    1       -6.097824   1.000000
    2        5.474207   1.000000
    3        5.776363   1.000000
    4        5.776394   1.000000
    5        8.459786   0.000000
    6        8.480745   0.000000
    7        8.480774   0.000000
    8        9.448201   0.000000
 
  0.1000000E+00  0.0000000E+00  0.0000000E+00  0.1000000E-02
    1       -5.999661   1.000000
    2        4.686954   1.000000
    3        5.633224   1.000000
    4        5.633255   1.000000
    5        8.411357   0.000000
    6        8.691986   0.000000
    7        8.692019   0.000000
    8       10.129354   0.000000
 
  0.1500000E+00  0.0000000E+00  0.0000000E+00  0.1000000E-02
    1       -5.837287   1.000000
    2        3.766658   1.000000
    3        5.446707   1.000000
    4        5.446738   1.000000
    5        8.252281   0.000000
    6        8.960192   0.000000
    7        8.960233   0.000000
    8       10.994722   0.000000
 
  0.2000000E+00  0.0000000E+00  0.0000000E+00  0.1000000E-02
    1       -5.612887   1.000000
    2        2.824265   1.000000
    3        5.252821   1.000000
    4        5.252853   1.000000
    5        8.058278   0.000000
    6        9.200902   0.000000
    7        9.200952   0.000000
    8       11.892669   0.000000
 
  0.2500000E+00  0.0000000E+00  0.0000000E+00  0.1000000E-02
    1       -5.330510   1.000000
    2        1.905696   1.000000
    3        5.072463   1.000000
    4        5.072496   1.000000
    5        7.866885   0.000000
    6        9.343513   0.000000
    7        9.343573   0.000000
    8       12.761744   0.000000
 
  0.3000000E+00  0.0000000E+00  0.0000000E+00  0.1000000E-02
    1       -4.997220   1.000000
    2        1.037446   1.000000
    3        4.917673   1.000000
    4        4.917706   1.000000
    5        7.697145   0.000000
    6        9.371597   0.000000
    7        9.371664   0.000000
    8       13.445341   0.000000
 
  0.3500000E+00  0.0000000E+00  0.0000000E+00  0.1000000E-02
    1       -4.627062   1.000000
    2        0.243785   1.000000
    3        4.794550   1.000000
    4        4.794583   1.000000
    5        7.558835   0.000000
    6        9.324325   0.000000
    7        9.324394   0.000000
    8       13.735864   0.000000
 
  0.4000000E+00  0.0000000E+00  0.0000000E+00  0.1000000E-02
    1       -4.249870   1.000000
    2       -0.439281   1.000000
    3        4.705381   1.000000
    4        4.705414   1.000000
    5        7.457572   0.000000
    6        9.254088   0.000000
    7        9.254158   0.000000
    8       13.676320   0.000000
 
  0.4500000E+00  0.0000000E+00  0.0000000E+00  0.1000000E-02
    1       -3.932319   1.000000
    2       -0.941500   1.000000
    3        4.651668   1.000000
    4        4.651700   1.000000
    5        7.396088   0.000000
    6        9.198782   0.000000
    7        9.198852   0.000000
    8       13.595181   0.000000
 
  0.5000000E+00  0.0000000E+00  0.0000000E+00  0.5000000E-03
    1       -3.798078   1.000000
    2       -1.137566   1.000000
    3        4.633595   1.000000
    4        4.633628   1.000000
    5        7.375438   0.000000
    6        9.177323   0.000000
    7        9.177393   0.000000
    8       13.563554   0.000000
 
  0.5000000E-01  0.5000000E-01  0.0000000E+00  0.7500000E-03
    1       -6.086843   1.000000
    2        5.552746   1.000000
    3        5.656061   1.000000
    4        5.656082   1.000000
    5        8.294864   0.000000
    6        8.629630   0.000000
    7        8.629650   0.000000
    8        9.477543   0.000000
 
  0.1000000E+00  0.5000000E-01  0.0000000E+00  0.3000000E-02
    1       -6.010409   1.000000
    2        4.923771   1.000000
    3        5.469645   1.000000
    4        5.603174   1.000000
    5        8.286798   0.000000
    6        8.737529   0.000000
    7        8.890366   0.000000
    8        9.965717   0.000000
 
  0.1500000E+00  0.5000000E-01  0.0000000E+00  0.3000000E-02
    1       -5.869297   1.000000
    2        4.054793   1.000000
    3        5.261410   1.000000
    4        5.476403   1.000000
    5        8.363555   0.000000
    6        8.733718   0.000000
    7        9.194427   0.000000
    8       10.720136   0.000000
 
  0.2000000E+00  0.5000000E-01  0.0000000E+00  0.3000000E-02
    1       -5.665366   1.000000
    2        3.128370   1.000000
    3        5.060109   1.000000
    4        5.292580   1.000000
    5        8.296025   0.000000
    6        8.874634   0.000000
    7        9.464737   0.000000
    8       11.416741   0.000000
 
  0.2500000E+00  0.5000000E-01  0.0000000E+00  0.3000000E-02
    1       -5.401833   1.000000
    2        2.208162   1.000000
    3        4.883677   1.000000
    4        5.092043   1.000000
    5        8.136302   0.000000
    6        9.058291   0.000000
    7        9.631781   0.000000
    8       11.861632   0.000000
 
  0.3000000E+00  0.5000000E-01  0.0000000E+00  0.3000000E-02
    1       -5.084519   1.000000
    2        1.326775   1.000000
    3        4.741021   1.000000
    4        4.898749   1.000000
    5        7.971867   0.000000
    6        9.155770   0.000000
    7        9.667278   0.000000
    8       12.261159   0.000000
 
  0.3500000E+00  0.5000000E-01  0.0000000E+00  0.3000000E-02
    1       -4.724479   1.000000
    2        0.509239   1.000000
    3        4.636974   1.000000
    4        4.726509   1.000000
    5        7.829163   0.000000
    6        9.164823   0.000000
    7        9.603808   0.000000
    8       12.790841   0.000000
 
  0.4000000E+00  0.5000000E-01  0.0000000E+00  0.3000000E-02
    1       -4.344625   1.000000
    2       -0.213703   1.000000
    3        4.573256   1.000000
    4        4.582130   1.000000
    5        7.717858   0.000000
    6        9.135640   0.000000
    7        9.496310   0.000000
    8       13.361891   0.000000
 
  0.4500000E+00  0.5000000E-01  0.0000000E+00  0.3000000E-02
    1       -3.995961   1.000000
    2       -0.786157   1.000000
    3        4.470181   1.000000
    4        4.550156   1.000000
    5        7.643958   0.000000
    6        9.113746   0.000000
    7        9.389591   0.000000
    8       13.646990   0.000000
 
  0.5000000E+00  0.5000000E-01  0.0000000E+00  0.3000000E-02
    1       -3.784789   1.000000
    2       -1.099510   1.000000
    3        4.393373   1.000000
    4        4.566412   1.000000
    5        7.609243   0.000000
    6        9.124538   0.000000
    7        9.309442   0.000000
    8       13.685504   0.000000
 
 -0.4500000E+00  0.5000000E-01  0.0000000E+00  0.3000000E-02
    1       -3.831164   1.000000
    2       -1.032568   1.000000
    3        4.354168   1.000000
    4        4.620571   1.000000
    5        7.614822   0.000000
    6        9.177401   0.000000
    7        9.267420   0.000000
    8       13.701643   0.000000
 
 -0.4000000E+00  0.5000000E-01  0.0000000E+00  0.3000000E-02
    1       -4.103827   1.000000
    2       -0.616863   1.000000
    3        4.354443   1.000000
    4        4.710368   1.000000
    5        7.660598   0.000000
    6        9.262728   0.000000
    7        9.268916   0.000000
    8       13.710863   0.000000
 
 -0.3500000E+00  0.5000000E-01  0.0000000E+00  0.3000000E-02
    1       -4.471442   1.000000
    2        0.014805   1.000000
    3        4.395667   1.000000
    4        4.832990   1.000000
    5        7.745784   0.000000
    6        9.281645   0.000000
    7        9.383065   0.000000
    8       13.584925   0.000000
 
 -0.3000000E+00  0.5000000E-01  0.0000000E+00  0.3000000E-02
    1       -4.848461   1.000000
    2        0.773718   1.000000
    3        4.478595   1.000000
    4        4.985098   1.000000
    5        7.868011   0.000000
    6        9.292807   0.000000
    7        9.486606   0.000000
    8       13.138157   0.000000
 
 -0.2500000E+00  0.5000000E-01  0.0000000E+00  0.3000000E-02
    1       -5.195964   1.000000
    2        1.615021   1.000000
    3        4.603425   1.000000
    4        5.161240   1.000000
    5        8.022682   0.000000
    6        9.248527   0.000000
    7        9.525421   0.000000
    8       12.558713   0.000000
 
 -0.2000000E+00  0.5000000E-01  0.0000000E+00  0.3000000E-02
    1       -5.496181   1.000000
    2        2.510960   1.000000
    3        4.768206   1.000000
    4        5.352160   1.000000
    5        8.200903   0.000000
    6        9.107511   0.000000
    7        9.436986   0.000000
    8       11.974040   0.000000
 
 -0.1500000E+00  0.5000000E-01  0.0000000E+00  0.3000000E-02
    1       -5.740315   1.000000
    2        3.433617   1.000000
    3        4.969118   1.000000
    4        5.541298   1.000000
    5        8.386120   0.000000
    6        8.882407   0.000000
    7        9.206101   0.000000
    8       11.291031   0.000000
 
 -0.1000000E+00  0.5000000E-01  0.0000000E+00  0.3000000E-02
    1       -5.923520   1.000000
    2        4.336120   1.000000
    3        5.201816   1.000000
    4        5.701750   1.000000
    5        8.543942   0.000000
    6        8.646442   0.000000
    7        8.894286   0.000000
    8       10.523718   0.000000
 
 -0.5000000E-01  0.5000000E-01  0.0000000E+00  0.1500000E-02
    1       -6.043194   1.000000
    2        5.094284   1.000000
    3        5.480072   1.000000
    4        5.791958   1.000000
    5        8.489794   0.000000
    6        8.564505   0.000000
    7        8.640431   0.000000
    8        9.825332   0.000000
 
  0.1000000E+00  0.1000000E+00  0.0000000E+00  0.7500000E-03
    1       -5.955727   1.000000
    2        4.894579   1.000000
    3        5.255030   1.000000
    4        5.255053   1.000000
    5        8.020143   0.000000
    6        9.191145   0.000000
    7        9.191167   0.000000
    8       10.033138   0.000000
 
  0.1500000E+00  0.1000000E+00  0.0000000E+00  0.3000000E-02
    1       -5.836067   1.000000
    2        4.235296   1.000000
    3        5.030344   1.000000
    4        5.141485   1.000000
    5        7.969350   0.000000
    6        9.311801   0.000000
    7        9.533573   0.000000
    8       10.469109   0.000000
 
  0.2000000E+00  0.1000000E+00  0.0000000E+00  0.3000000E-02
    1       -5.652971   1.000000
    2        3.381940   1.000000
    3        4.820547   1.000000
    4        4.992326   1.000000
    5        8.080582   0.000000
    6        9.249472   0.000000
    7        9.847193   0.000000
    8       10.828304   0.000000
 
  0.2500000E+00  0.1000000E+00  0.0000000E+00  0.3000000E-02
    1       -5.409112   1.000000
    2        2.493311   1.000000
    3        4.641578   1.000000
    4        4.784458   1.000000
    5        8.199704   0.000000
    6        9.213756   0.000000
    7       10.059553   0.000000
    8       10.957863   0.000000
 
  0.3000000E+00  0.1000000E+00  0.0000000E+00  0.3000000E-02
    1       -5.109141   1.000000
    2        1.620547   1.000000
    3        4.501588   1.000000
    4        4.558860   1.000000
    5        8.214890   0.000000
    6        9.228134   0.000000
    7       10.127965   0.000000
    8       11.163892   0.000000
 
  0.3500000E+00  0.1000000E+00  0.0000000E+00  0.3000000E-02
    1       -4.761795   1.000000
    2        0.795045   1.000000
    3        4.341927   1.000000
    4        4.405205   1.000000
    5        8.152041   0.000000
    6        9.222747   0.000000
    7       10.072427   0.000000
    8       11.600919   0.000000
 
  0.4000000E+00  0.1000000E+00  0.0000000E+00  0.3000000E-02
    1       -4.384769   1.000000
    2        0.046540   1.000000
    3        4.147384   1.000000
    4        4.354179   1.000000
    5        8.073014   0.000000
    6        9.185820   0.000000
    7        9.948281   0.000000
    8       12.233474   0.000000
 
  0.4500000E+00  0.1000000E+00  0.0000000E+00  0.3000000E-02
    1       -4.016767   1.000000
    2       -0.578805   1.000000
    3        3.983689   1.000000
    4        4.348431   1.000000
    5        8.013614   0.000000
    6        9.153779   0.000000
    7        9.806202   0.000000
    8       12.967870   0.000000
 
  0.5000000E+00  0.1000000E+00  0.0000000E+00  0.3000000E-02
    1       -3.743598   1.000000
    2       -0.991194   1.000000
    3        3.856653   1.000000
    4        4.387025   1.000000
    5        7.987775   0.000000
    6        9.153176   0.000000
    7        9.679889   0.000000
    8       13.644196   0.000000
 
 -0.4500000E+00  0.1000000E+00  0.0000000E+00  0.3000000E-02
    1       -3.697960   1.000000
    2       -1.056097   1.000000
    3        3.770347   1.000000
    4        4.467619   1.000000
    5        8.000113   0.000000
    6        9.196253   0.000000
    7        9.584825   0.000000
    8       13.968453   0.000000
 
 -0.4000000E+00  0.1000000E+00  0.0000000E+00  0.3000000E-02
    1       -3.910961   1.000000
    2       -0.742261   1.000000
    3        3.728082   1.000000
    4        4.586928   1.000000
    5        8.050608   0.000000
    6        9.284386   0.000000
    7        9.524528   0.000000
    8       13.898090   0.000000
 
 -0.3500000E+00  0.1000000E+00  0.0000000E+00  0.3000000E-02
    1       -4.260530   1.000000
    2       -0.173287   1.000000
    3        3.732987   1.000000
    4        4.740483   1.000000
    5        8.137144   0.000000
    6        9.406779   0.000000
    7        9.489683   0.000000
    8       13.482684   0.000000
 
 -0.3000000E+00  0.1000000E+00  0.0000000E+00  0.3000000E-02
    1       -4.640426   1.000000
    2        0.540672   1.000000
    3        3.787701   1.000000
    4        4.921942   1.000000
    5        8.256039   0.000000
    6        9.454423   0.000000
    7        9.535425   0.000000
    8       12.889884   0.000000
 
 -0.2500000E+00  0.1000000E+00  0.0000000E+00  0.3000000E-02
    1       -4.999974   1.000000
    2        1.341410   1.000000
    3        3.895482   1.000000
    4        5.122556   1.000000
    5        8.402520   0.000000
    6        9.374492   0.000000
    7        9.612030   0.000000
    8       12.266623   0.000000
 
 -0.2000000E+00  0.1000000E+00  0.0000000E+00  0.3000000E-02
    1       -5.316663   1.000000
    2        2.190922   1.000000
    3        4.062572   1.000000
    4        5.328360   1.000000
    5        8.566267   0.000000
    6        9.210512   0.000000
    7        9.548125   0.000000
    8       11.808399   0.000000
 
 -0.1500000E+00  0.1000000E+00  0.0000000E+00  0.3000000E-02
    1       -5.579542   1.000000
    2        3.043226   1.000000
    3        4.304596   1.000000
    4        5.517198   1.000000
    5        8.728792   0.000000
    6        8.978328   0.000000
    7        9.292488   0.000000
    8       11.460726   0.000000
 
 -0.1000000E+00  0.1000000E+00  0.0000000E+00  0.1500000E-02
    1       -5.782909   1.000000
    2        3.802561   1.000000
    3        4.671742   1.000000
    4        5.655248   1.000000
    5        8.759380   0.000000
    6        8.822635   0.000000
    7        8.950456   0.000000
    8       11.041988   0.000000
 
  0.1500000E+00  0.1500000E+00  0.0000000E+00  0.7500000E-03
    1       -5.737908   1.000000
    2        4.081827   1.000000
    3        4.792397   1.000000
    4        4.792418   1.000000
    5        7.664009   0.000000
    6        9.919780   0.000000
    7        9.919803   0.000000
    8       10.254361   0.000000
 
  0.2000000E+00  0.1500000E+00  0.0000000E+00  0.3000000E-02
    1       -5.575844   1.000000
    2        3.469302   1.000000
    3        4.573278   1.000000
    4        4.612856   1.000000
    5        7.605262   0.000000
    6        9.910983   0.000000
    7       10.289892   0.000000
    8       10.384915   0.000000
 
  0.2500000E+00  0.1500000E+00  0.0000000E+00  0.3000000E-02
    1       -5.352123   1.000000
    2        2.687092   1.000000
    3        4.387190   1.000000
    4        4.403210   1.000000
    5        7.730157   0.000000
    6        9.788194   0.000000
    7       10.405575   0.000000
    8       10.569080   0.000000
 
  0.3000000E+00  0.1500000E+00  0.0000000E+00  0.3000000E-02
    1       -5.070499   1.000000
    2        1.867580   1.000000
    3        4.148891   1.000000
    4        4.242918   1.000000
    5        7.881800   0.000000
    6        9.824250   0.000000
    7       10.347556   0.000000
    8       10.698293   0.000000
 
  0.3500000E+00  0.1500000E+00  0.0000000E+00  0.3000000E-02
    1       -4.737946   1.000000
    2        1.063850   1.000000
    3        3.886643   1.000000
    4        4.145034   1.000000
    5        7.949718   0.000000
    6        9.897222   0.000000
    7       10.505138   0.000000
    8       10.675817   0.000000
 
  0.4000000E+00  0.1500000E+00  0.0000000E+00  0.3000000E-02
    1       -4.367992   1.000000
    2        0.312578   1.000000
    3        3.641214   1.000000
    4        4.096114   1.000000
    5        7.950765   0.000000
    6        9.834436   0.000000
    7       10.556392   0.000000
    8       11.047398   0.000000
 
  0.4500000E+00  0.1500000E+00  0.0000000E+00  0.3000000E-02
    1       -3.990077   1.000000
    2       -0.344019   1.000000
    3        3.426446   1.000000
    4        4.095848   1.000000
    5        7.942332   0.000000
    6        9.747644   0.000000
    7       10.398144   0.000000
    8       11.796826   0.000000
 
  0.5000000E+00  0.1500000E+00  0.0000000E+00  0.3000000E-02
    1       -3.670760   1.000000
    2       -0.831729   1.000000
    3        3.250897   1.000000
    4        4.143645   1.000000
    5        7.961618   0.000000
    6        9.686299   0.000000
    7       10.241138   0.000000
    8       12.654213   0.000000
 
 -0.4500000E+00  0.1500000E+00  0.0000000E+00  0.3000000E-02
    1       -3.537159   1.000000
    2       -1.019970   1.000000
    3        3.120451   1.000000
    4        4.237471   1.000000
    5        8.022522   0.000000
    6        9.663108   0.000000
    7       10.106698   0.000000
    8       13.551870   0.000000
 
 -0.4000000E+00  0.1500000E+00  0.0000000E+00  0.3000000E-02
    1       -3.676995   1.000000
    2       -0.820181   1.000000
    3        3.039685   1.000000
    4        4.373817   1.000000
    5        8.127334   0.000000
    6        9.680781   0.000000
    7       10.001151   0.000000
    8       14.095387   0.000000
 
 -0.3500000E+00  0.1500000E+00  0.0000000E+00  0.3000000E-02
    1       -3.998672   1.000000
    2       -0.326017   1.000000
    3        3.014231   1.000000
    4        4.547311   1.000000
    5        8.270850   0.000000
    6        9.737107   0.000000
    7        9.918322   0.000000
    8       13.415887   0.000000
 
 -0.3000000E+00  0.1500000E+00  0.0000000E+00  0.3000000E-02
    1       -4.376573   1.000000
    2        0.330683   1.000000
    3        3.050184   1.000000
    4        4.750661   1.000000
    5        8.442512   0.000000
    6        9.814716   0.000000
    7        9.833009   0.000000
    8       12.677289   0.000000
 
 -0.2500000E+00  0.1500000E+00  0.0000000E+00  0.3000000E-02
    1       -4.745490   1.000000
    2        1.070033   1.000000
    3        3.158585   1.000000
    4        4.971646   1.000000
    5        8.627148   0.000000
    6        9.698626   0.000000
    7        9.858379   0.000000
    8       12.032815   0.000000
 
 -0.2000000E+00  0.1500000E+00  0.0000000E+00  0.3000000E-02
    1       -5.076802   1.000000
    2        1.829491   1.000000
    3        3.365411   1.000000
    4        5.193103   1.000000
    5        8.800734   0.000000
    6        9.479499   0.000000
    7        9.758485   0.000000
    8       11.619793   0.000000
 
 -0.1500000E+00  0.1500000E+00  0.0000000E+00  0.1500000E-02
    1       -5.357119   1.000000
    2        2.519064   1.000000
    3        3.729969   1.000000
    4        5.387715   1.000000
    5        8.900616   0.000000
    6        9.207393   0.000000
    7        9.477761   0.000000
    8       11.491501   0.000000
 
  0.2000000E+00  0.2000000E+00  0.0000000E+00  0.7500000E-03
    1       -5.434748   1.000000
    2        3.210385   1.000000
    3        4.344109   1.000000
    4        4.344130   1.000000
    5        7.296902   0.000000
    6        9.727655   0.000000
    7       10.734142   0.000000
    8       10.734166   0.000000
 
  0.2500000E+00  0.2000000E+00  0.0000000E+00  0.3000000E-02
    1       -5.231355   1.000000
    2        2.650653   1.000000
    3        4.121169   1.000000
    4        4.148562   1.000000
    5        7.253401   0.000000
    6        9.418712   0.000000
    7       10.991922   0.000000
    8       11.105449   0.000000
 
  0.3000000E+00  0.2000000E+00  0.0000000E+00  0.3000000E-02
    1       -4.968768   1.000000
    2        1.963017   1.000000
    3        3.837101   1.000000
    4        3.995803   1.000000
    5        7.395318   0.000000
    6        9.293163   0.000000
    7       10.996742   0.000000
    8       11.326907   0.000000
 
  0.3500000E+00  0.2000000E+00  0.0000000E+00  0.3000000E-02
    1       -4.652483   1.000000
    2        1.237399   1.000000
    3        3.518989   1.000000
    4        3.890743   1.000000
    5        7.545214   0.000000
    6        9.454631   0.000000
    7       10.898348   0.000000
    8       11.369492   0.000000
 
  0.4000000E+00  0.2000000E+00  0.0000000E+00  0.3000000E-02
    1       -4.293014   1.000000
    2        0.524697   1.000000
    3        3.208932   1.000000
    4        3.836125   1.000000
    5        7.610983   0.000000
    6        9.926079   0.000000
    7       10.775616   0.000000
    8       11.278473   0.000000
 
  0.4500000E+00  0.2000000E+00  0.0000000E+00  0.3000000E-02
    1       -3.912517   1.000000
    2       -0.129536   1.000000
    3        2.931324   1.000000
    4        3.832682   1.000000
    5        7.635803   0.000000
    6       10.560762   0.000000
    7       10.723046   0.000000
    8       11.120419   0.000000
 
  0.5000000E+00  0.2000000E+00  0.0000000E+00  0.3000000E-02
    1       -3.561520   1.000000
    2       -0.660642   1.000000
    3        2.698628   1.000000
    4        3.880250   1.000000
    5        7.676711   0.000000
    6       10.541598   0.000000
    7       10.946682   0.000000
    8       11.489714   0.000000
 
 -0.4500000E+00  0.2000000E+00  0.0000000E+00  0.3000000E-02
    1       -3.350916   1.000000
    2       -0.950515   1.000000
    3        2.519265   1.000000
    4        3.976618   1.000000
    5        7.760308   0.000000
    6       10.478058   0.000000
    7       10.784216   0.000000
    8       12.426692   0.000000
 
 -0.4000000E+00  0.2000000E+00  0.0000000E+00  0.3000000E-02
    1       -3.408468   1.000000
    2       -0.869188   1.000000
    3        2.399707   1.000000
    4        4.118624   1.000000
    5        7.894315   0.000000
    6       10.445059   0.000000
    7       10.642988   0.000000
    8       13.414093   0.000000
 
 -0.3500000E+00  0.2000000E+00  0.0000000E+00  0.3000000E-02
    1       -3.692137   1.000000
    2       -0.462196   1.000000
    3        2.348276   1.000000
    4        4.301372   1.000000
    5        8.076300   0.000000
    6       10.442779   0.000000
    7       10.515664   0.000000
    8       13.360899   0.000000
 
 -0.3000000E+00  0.2000000E+00  0.0000000E+00  0.3000000E-02
    1       -4.062736   1.000000
    2        0.118539   1.000000
    3        2.378865   1.000000
    4        4.516403   1.000000
    5        8.294627   0.000000
    6       10.371218   0.000000
    7       10.451532   0.000000
    8       12.558633   0.000000
 
 -0.2500000E+00  0.2000000E+00  0.0000000E+00  0.3000000E-02
    1       -4.437694   1.000000
    2        0.758946   1.000000
    3        2.520582   1.000000
    4        4.751468   1.000000
    5        8.527739   0.000000
    6       10.152704   0.000000
    7       10.403477   0.000000
    8       11.900078   0.000000
 
 -0.2000000E+00  0.2000000E+00  0.0000000E+00  0.1500000E-02
    1       -4.781087   1.000000
    2        1.357690   1.000000
    3        2.831701   1.000000
    4        4.987222   1.000000
    5        8.732022   0.000000
    6        9.831902   0.000000
    7       10.150454   0.000000
    8       11.582214   0.000000
 
  0.2500000E+00  0.2500000E+00  0.0000000E+00  0.7500000E-03
    1       -5.048137   1.000000
    2        2.316658   1.000000
    3        3.942366   1.000000
    4        3.942386   1.000000
    5        6.965029   0.000000
    6        8.970397   0.000000
    7       11.597926   0.000000
    8       11.597950   0.000000
 
  0.3000000E+00  0.2500000E+00  0.0000000E+00  0.3000000E-02
    1       -4.804813   1.000000
    2        1.799179   1.000000
    3        3.700631   1.000000
    4        3.778558   1.000000
    5        6.950568   0.000000
    6        8.683208   0.000000
    7       11.861157   0.000000
    8       11.955821   0.000000
 
  0.3500000E+00  0.2500000E+00  0.0000000E+00  0.3000000E-02
    1       -4.505836   1.000000
    2        1.202560   1.000000
    3        3.353652   1.000000
    4        3.663010   1.000000
    5        7.108258   0.000000
    6        8.633738   0.000000
    7       11.875418   0.000000
    8       12.108532   0.000000
 
  0.4000000E+00  0.2500000E+00  0.0000000E+00  0.3000000E-02
    1       -4.159298   1.000000
    2        0.581667   1.000000
    3        2.969908   1.000000
    4        3.598594   1.000000
    5        7.242412   0.000000
    6        8.918433   0.000000
    7       11.791170   0.000000
    8       12.077686   0.000000
 
  0.4500000E+00  0.2500000E+00  0.0000000E+00  0.3000000E-02
    1       -3.781850   1.000000
    2       -0.020886   1.000000
    3        2.608221   1.000000
    4        3.586755   1.000000
    5        7.302758   0.000000
    6        9.509927   0.000000
    7       11.681157   0.000000
    8       11.939883   0.000000
 
  0.5000000E+00  0.2500000E+00  0.0000000E+00  0.3000000E-02
    1       -3.411397   1.000000
    2       -0.550103   1.000000
    3        2.298246   1.000000
    4        3.627398   1.000000
    5        7.355760   0.000000
    6       10.285906   0.000000
    7       11.586450   0.000000
    8       11.762074   0.000000
 
 -0.4500000E+00  0.2500000E+00  0.0000000E+00  0.3000000E-02
    1       -3.138765   1.000000
    2       -0.904115   1.000000
    3        2.055103   1.000000
    4        3.719189   1.000000
    5        7.446581   0.000000
    6       11.086529   0.000000
    7       11.580647   0.000000
    8       11.611949   0.000000
 
 -0.4000000E+00  0.2500000E+00  0.0000000E+00  0.3000000E-02
    1       -3.112556   1.000000
    2       -0.931204   1.000000
    3        1.889289   1.000000
    4        3.859391   1.000000
    5        7.589621   0.000000
    6       11.309672   0.000000
    7       11.408091   0.000000
    8       12.316591   0.000000
 
 -0.3500000E+00  0.2500000E+00  0.0000000E+00  0.3000000E-02
    1       -3.350664   1.000000
    2       -0.620439   1.000000
    3        1.815516   1.000000
    4        4.042769   1.000000
    5        7.785026   0.000000
    6       11.231021   0.000000
    7       11.292050   0.000000
    8       13.176762   0.000000
 
 -0.3000000E+00  0.2500000E+00  0.0000000E+00  0.3000000E-02
    1       -3.709092   1.000000
    2       -0.140918   1.000000
    3        1.861811   1.000000
    4        4.262128   1.000000
    5        8.024734   0.000000
    6       10.996965   0.000000
    7       11.231068   0.000000
    8       12.519164   0.000000
 
 -0.2500000E+00  0.2500000E+00  0.0000000E+00  0.1500000E-02
    1       -4.085898   1.000000
    2        0.352630   1.000000
    3        2.079574   1.000000
    4        4.504659   1.000000
    5        8.287429   0.000000
    6       10.628901   0.000000
    7       10.970954   0.000000
    8       11.987165   0.000000
 
  0.3000000E+00  0.3000000E+00  0.0000000E+00  0.7500000E-03
    1       -4.580554   1.000000
    2        1.417713   1.000000
    3        3.602614   1.000000
    4        3.602633   1.000000
    5        6.696616   0.000000
    6        8.249863   0.000000
    7       12.495777   0.000000
    8       12.495803   0.000000
 
  0.3500000E+00  0.3000000E+00  0.0000000E+00  0.3000000E-02
    1       -4.299287   1.000000
    2        0.933307   1.000000
    3        3.360934   1.000000
    4        3.474395   1.000000
    5        6.718204   0.000000
    6        8.022540   0.000000
    7       12.771755   0.000000
    8       12.830069   0.000000
 
  0.4000000E+00  0.3000000E+00  0.0000000E+00  0.3000000E-02
    1       -3.967342   1.000000
    2        0.411805   1.000000
    3        2.976284   1.000000
    4        3.397857   1.000000
    5        6.885570   0.000000
    6        8.081042   0.000000
    7       12.800086   0.000000
    8       12.916278   0.000000
 
  0.4500000E+00  0.3000000E+00  0.0000000E+00  0.3000000E-02
    1       -3.597157   1.000000
    2       -0.110216   1.000000
    3        2.546432   1.000000
    4        3.374387   1.000000
    5        6.997716   0.000000
    6        8.510677   0.000000
    7       12.723984   0.000000
    8       12.828187   0.000000
 
  0.5000000E+00  0.3000000E+00  0.0000000E+00  0.3000000E-02
    1       -3.216718   1.000000
    2       -0.594861   1.000000
    3        2.146978   1.000000
    4        3.404496   1.000000
    5        7.064533   0.000000
    6        9.217568   0.000000
    7       12.619544   0.000000
    8       12.661060   0.000000
 