<?xml version="1.0" encoding="ISO-8859-1"?>
<modeling>
 <generator>
  <i name="program" type="string">vasp </i>
  <i name="version" type="string">5.4.4.18Apr17-6-g9f103f2a35  </i>
  <i name="subversion" type="string">(build May 20 2018 16:52:39) complex            parallel </i>
  <i name="platform" type="string">LinuxIFC </i>
  <i name="date" type="string">2022 11 04 </i>
  <i name="time" type="string">18:26:47 </i>
 </generator>
 <incar>
  <i type="string" name="SYSTEM"> Si tetrahedron</i>
  <i type="string" name="PREC">normal</i>
  <i type="int" name="ICHARG">    11</i>
  <i name="EDIFF">      0.00000010</i>
  <i name="ENCUT">    300.00000000</i>
  <i type="int" name="ISMEAR">    -5</i>
  <i type="logical" name="LCHARG"> F  </i>
  <v type="int" name="KPOINT_BSE">    -1     0     0     0</v>
 </incar>
 <structure name="primitive_cell" >
  <crystal>
   <varray name="basis" >
    <v>       0.00000000       2.71500000       2.71500000 </v>
    <v>       2.71500000       0.00000000       2.71500000 </v>
    <v>       2.71500000       2.71500000       0.00000000 </v>
   </varray>
   <i name="volume">     40.02575175 </i>
   <varray name="rec_basis" >
    <v>      -0.18416206       0.18416206       0.18416206 </v>
    <v>       0.18416206      -0.18416206       0.18416206 </v>
    <v>       0.18416206       0.18416206      -0.18416206 </v>
   </varray>
  </crystal>
  <varray name="positions" >
   <v>       0.00000000       0.00000000       0.00000000 </v>
   <v>       0.25000000       0.25000000       0.25000000 </v>
  </varray>
 </structure>
 <varray name="primitive_index" >
  <v type="int" >        1 </v>
  <v type="int" >        2 </v>
 </varray>
 <kpoints>
  <generation param="Gamma">
   <v type="int" name="divisions">      20       20       20 </v>
   <v name="usershift">      0.00000000       0.00000000       0.00000000 </v>
   <v name="genvec1">      0.05000000       0.00000000       0.00000000 </v>
   <v name="genvec2">      0.00000000       0.05000000       0.00000000 </v>
   <v name="genvec3">      0.00000000       0.00000000       0.05000000 </v>
   <v name="shift">      0.00000000       0.00000000       0.00000000 </v>
  </generation>
  <varray name="kpointlist" >
   <v>       0.00000000       0.00000000       0.00000000 </v>
   <v>       0.05000000       0.00000000       0.00000000 </v>
   <v>       0.10000000       0.00000000       0.00000000 </v>
   <v>       0.15000000       0.00000000       0.00000000 </v>
   <v>       0.20000000       0.00000000       0.00000000 </v>
   <v>       0.25000000       0.00000000       0.00000000 </v>
   <v>       0.30000000       0.00000000       0.00000000 </v>
   <v>       0.35000000       0.00000000       0.00000000 </v>
   <v>       0.40000000       0.00000000       0.00000000 </v>
   <v>       0.45000000       0.00000000       0.00000000 </v>
   <v>       0.50000000       0.00000000       0.00000000 </v>
   <v>       0.05000000       0.05000000       0.00000000 </v>
   <v>       0.10000000       0.05000000       0.00000000 </v>
   <v>       0.15000000       0.05000000       0.00000000 </v>
   <v>       0.20000000       0.05000000       0.00000000 </v>
   <v>       0.25000000       0.05000000       0.00000000 </v>
   <v>       0.30000000       0.05000000       0.00000000 </v>
   <v>       0.35000000       0.05000000       0.00000000 </v>
   <v>       0.40000000       0.05000000       0.00000000 </v>
   <v>       0.45000000       0.05000000       0.00000000 </v>
   <v>       0.50000000       0.05000000       0.00000000 </v>
   <v>      -0.45000000       0.05000000       0.00000000 </v>
   <v>      -0.40000000       0.05000000       0.00000000 </v>
   <v>      -0.35000000       0.05000000       0.00000000 </v>
   <v>      -0.30000000       0.05000000       0.00000000 </v>
   <v>      -0.25000000       0.05000000       0.00000000 </v>
   <v>      -0.20000000       0.05000000       0.00000000 </v>
   <v>      -0.15000000       0.05000000       0.00000000 </v>
   <v>      -0.10000000       0.05000000       0.00000000 </v>
   <v>      -0.05000000       0.05000000       0.00000000 </v>
   <v>       0.10000000       0.10000000       0.00000000 </v>
   <v>       0.15000000       0.10000000       0.00000000 </v>
   <v>       0.20000000       0.10000000       0.00000000 </v>
   <v>       0.25000000       0.10000000       0.00000000 </v>
   <v>       0.30000000       0.10000000       0.00000000 </v>
   <v>       0.35000000       0.10000000       0.00000000 </v>
   <v>       0.40000000       0.10000000       0.00000000 </v>
   <v>       0.45000000       0.10000000       0.00000000 </v>
   <v>       0.50000000       0.10000000       0.00000000 </v>
   <v>      -0.45000000       0.10000000       0.00000000 </v>
   <v>      -0.40000000       0.10000000       0.00000000 </v>
   <v>      -0.35000000       0.10000000       0.00000000 </v>
   <v>      -0.30000000       0.10000000       0.00000000 </v>
   <v>      -0.25000000       0.10000000       0.00000000 </v>
   <v>      -0.20000000       0.10000000       0.00000000 </v>
   <v>      -0.15000000       0.10000000       0.00000000 </v>
   <v>      -0.10000000       0.10000000       0.00000000 </v>
   <v>       0.15000000       0.15000000       0.00000000 </v>
   <v>       0.20000000       0.15000000       0.00000000 </v>
   <v>       0.25000000       0.15000000       0.00000000 </v>
   <v>       0.30000000       0.15000000       0.00000000 </v>
   <v>       0.35000000       0.15000000       0.00000000 </v>
   <v>       0.40000000       0.15000000       0.00000000 </v>
   <v>       0.45000000       0.15000000       0.00000000 </v>
   <v>       0.50000000       0.15000000       0.00000000 </v>
   <v>      -0.45000000       0.15000000       0.00000000 </v>
   <v>      -0.40000000       0.15000000       0.00000000 </v>
   <v>      -0.35000000       0.15000000       0.00000000 </v>
   <v>      -0.30000000       0.15000000       0.00000000 </v>
   <v>      -0.25000000       0.15000000       0.00000000 </v>
   <v>      -0.20000000       0.15000000       0.00000000 </v>
   <v>      -0.15000000       0.15000000       0.00000000 </v>
   <v>       0.20000000       0.20000000       0.00000000 </v>
   <v>       0.25000000       0.20000000       0.00000000 </v>
   <v>       0.30000000       0.20000000       0.00000000 </v>
   <v>       0.35000000       0.20000000       0.00000000 </v>
   <v>       0.40000000       0.20000000       0.00000000 </v>
   <v>       0.45000000       0.20000000       0.00000000 </v>
   <v>       0.50000000       0.20000000       0.00000000 </v>
   <v>      -0.45000000       0.20000000       0.00000000 </v>
   <v>      -0.40000000       0.20000000       0.00000000 </v>
   <v>      -0.35000000       0.20000000       0.00000000 </v>
   <v>      -0.30000000       0.20000000       0.00000000 </v>
   <v>      -0.25000000       0.20000000       0.00000000 </v>
   <v>      -0.20000000       0.20000000       0.00000000 </v>
   <v>       0.25000000       0.25000000       0.00000000 </v>
   <v>       0.30000000       0.25000000       0.00000000 </v>
   <v>       0.35000000       0.25000000       0.00000000 </v>
   <v>       0.40000000       0.25000000       0.00000000 </v>
   <v>       0.45000000       0.25000000       0.00000000 </v>
   <v>       0.50000000       0.25000000       0.00000000 </v>
   <v>      -0.45000000       0.25000000       0.00000000 </v>
   <v>      -0.40000000       0.25000000       0.00000000 </v>
   <v>      -0.35000000       0.25000000       0.00000000 </v>
   <v>      -0.30000000       0.25000000       0.00000000 </v>
   <v>      -0.25000000       0.25000000       0.00000000 </v>
   <v>       0.30000000       0.30000000       0.00000000 </v>
   <v>       0.35000000       0.30000000       0.00000000 </v>
   <v>       0.40000000       0.30000000       0.00000000 </v>
   <v>       0.45000000       0.30000000       0.00000000 </v>
   <v>       0.50000000       0.30000000       0.00000000 </v>
   <v>      -0.45000000       0.30000000       0.00000000 </v>
   <v>      -0.40000000       0.30000000       0.00000000 </v>
   <v>      -0.35000000       0.30000000       0.00000000 </v>
   <v>      -0.30000000       0.30000000       0.00000000 </v>
   <v>       0.35000000       0.35000000       0.00000000 </v>
   <v>       0.40000000       0.35000000       0.00000000 </v>
   <v>       0.45000000       0.35000000       0.00000000 </v>
   <v>       0.50000000       0.35000000       0.00000000 </v>
   <v>      -0.45000000       0.35000000       0.00000000 </v>
   <v>      -0.40000000       0.35000000       0.00000000 </v>
   <v>      -0.35000000       0.35000000       0.00000000 </v>
   <v>       0.40000000       0.40000000       0.00000000 </v>
   <v>       0.45000000       0.40000000       0.00000000 </v>
   <v>       0.50000000       0.40000000       0.00000000 </v>
   <v>      -0.45000000       0.40000000       0.00000000 </v>
   <v>      -0.40000000       0.40000000       0.00000000 </v>
   <v>       0.45000000       0.45000000       0.00000000 </v>
   <v>       0.50000000       0.45000000       0.00000000 </v>
   <v>      -0.45000000       0.45000000       0.00000000 </v>
   <v>       0.50000000       0.50000000       0.00000000 </v>
   <v>       0.15000000       0.10000000       0.05000000 </v>
   <v>       0.20000000       0.10000000       0.05000000 </v>
   <v>       0.25000000       0.10000000       0.05000000 </v>
   <v>       0.30000000       0.10000000       0.05000000 </v>
   <v>       0.35000000       0.10000000       0.05000000 </v>
   <v>       0.40000000       0.10000000       0.05000000 </v>
   <v>       0.45000000       0.10000000       0.05000000 </v>
   <v>       0.50000000       0.10000000       0.05000000 </v>
   <v>      -0.45000000       0.10000000       0.05000000 </v>
   <v>       0.20000000       0.15000000       0.05000000 </v>
   <v>       0.25000000       0.15000000       0.05000000 </v>
   <v>       0.30000000       0.15000000       0.05000000 </v>
   <v>       0.35000000       0.15000000       0.05000000 </v>
   <v>       0.40000000       0.15000000       0.05000000 </v>
   <v>       0.45000000       0.15000000       0.05000000 </v>
   <v>       0.50000000       0.15000000       0.05000000 </v>
   <v>      -0.45000000       0.15000000       0.05000000 </v>
   <v>      -0.40000000       0.15000000       0.05000000 </v>
   <v>      -0.35000000       0.15000000       0.05000000 </v>
   <v>      -0.30000000       0.15000000       0.05000000 </v>
   <v>      -0.25000000       0.15000000       0.05000000 </v>
   <v>      -0.20000000       0.15000000       0.05000000 </v>
   <v>      -0.15000000       0.15000000       0.05000000 </v>
   <v>      -0.10000000       0.15000000       0.05000000 </v>
   <v>       0.25000000       0.20000000       0.05000000 </v>
   <v>       0.30000000       0.20000000       0.05000000 </v>
   <v>       0.35000000       0.20000000       0.05000000 </v>
   <v>       0.40000000       0.20000000       0.05000000 </v>
   <v>       0.45000000       0.20000000       0.05000000 </v>
   <v>       0.50000000       0.20000000       0.05000000 </v>
   <v>      -0.45000000       0.20000000       0.05000000 </v>
   <v>      -0.40000000       0.20000000       0.05000000 </v>
   <v>      -0.35000000       0.20000000       0.05000000 </v>
   <v>      -0.30000000       0.20000000       0.05000000 </v>
   <v>      -0.25000000       0.20000000       0.05000000 </v>
   <v>      -0.20000000       0.20000000       0.05000000 </v>
   <v>      -0.15000000       0.20000000       0.05000000 </v>
   <v>       0.30000000       0.25000000       0.05000000 </v>
   <v>       0.35000000       0.25000000       0.05000000 </v>
   <v>       0.40000000       0.25000000       0.05000000 </v>
   <v>       0.45000000       0.25000000       0.05000000 </v>
   <v>       0.50000000       0.25000000       0.05000000 </v>
   <v>      -0.45000000       0.25000000       0.05000000 </v>
   <v>      -0.40000000       0.25000000       0.05000000 </v>
   <v>      -0.35000000       0.25000000       0.05000000 </v>
   <v>      -0.30000000       0.25000000       0.05000000 </v>
   <v>      -0.25000000       0.25000000       0.05000000 </v>
   <v>      -0.20000000       0.25000000       0.05000000 </v>
   <v>       0.35000000       0.30000000       0.05000000 </v>
   <v>       0.40000000       0.30000000       0.05000000 </v>
   <v>       0.45000000       0.30000000       0.05000000 </v>
   <v>       0.50000000       0.30000000       0.05000000 </v>
   <v>      -0.45000000       0.30000000       0.05000000 </v>
   <v>      -0.40000000       0.30000000       0.05000000 </v>
   <v>      -0.35000000       0.30000000       0.05000000 </v>
   <v>      -0.30000000       0.30000000       0.05000000 </v>
   <v>      -0.25000000       0.30000000       0.05000000 </v>
   <v>       0.40000000       0.35000000       0.05000000 </v>
   <v>       0.45000000       0.35000000       0.05000000 </v>
   <v>       0.50000000       0.35000000       0.05000000 </v>
   <v>      -0.45000000       0.35000000       0.05000000 </v>
   <v>      -0.40000000       0.35000000       0.05000000 </v>
   <v>      -0.35000000       0.35000000       0.05000000 </v>
   <v>      -0.30000000       0.35000000       0.05000000 </v>
   <v>       0.45000000       0.40000000       0.05000000 </v>
   <v>       0.50000000       0.40000000       0.05000000 </v>
   <v>      -0.45000000       0.40000000       0.05000000 </v>
   <v>      -0.40000000       0.40000000       0.05000000 </v>
   <v>      -0.35000000       0.40000000       0.05000000 </v>
   <v>       0.50000000       0.45000000       0.05000000 </v>
   <v>      -0.45000000       0.45000000       0.05000000 </v>
   <v>      -0.40000000       0.45000000       0.05000000 </v>
   <v>      -0.45000000       0.50000000       0.05000000 </v>
   <v>       0.30000000       0.20000000       0.10000000 </v>
   <v>       0.35000000       0.20000000       0.10000000 </v>
   <v>       0.40000000       0.20000000       0.10000000 </v>
   <v>       0.45000000       0.20000000       0.10000000 </v>
   <v>       0.50000000       0.20000000       0.10000000 </v>
   <v>      -0.45000000       0.20000000       0.10000000 </v>
   <v>      -0.40000000       0.20000000       0.10000000 </v>
   <v>       0.35000000       0.25000000       0.10000000 </v>
   <v>       0.40000000       0.25000000       0.10000000 </v>
   <v>       0.45000000       0.25000000       0.10000000 </v>
   <v>       0.50000000       0.25000000       0.10000000 </v>
   <v>      -0.45000000       0.25000000       0.10000000 </v>
   <v>      -0.40000000       0.25000000       0.10000000 </v>
   <v>      -0.35000000       0.25000000       0.10000000 </v>
   <v>      -0.30000000       0.25000000       0.10000000 </v>
   <v>      -0.25000000       0.25000000       0.10000000 </v>
   <v>      -0.20000000       0.25000000       0.10000000 </v>
   <v>      -0.15000000       0.25000000       0.10000000 </v>
   <v>       0.40000000       0.30000000       0.10000000 </v>
   <v>       0.45000000       0.30000000       0.10000000 </v>
   <v>       0.50000000       0.30000000       0.10000000 </v>
   <v>      -0.45000000       0.30000000       0.10000000 </v>
   <v>      -0.40000000       0.30000000       0.10000000 </v>
   <v>      -0.35000000       0.30000000       0.10000000 </v>
   <v>      -0.30000000       0.30000000       0.10000000 </v>
   <v>      -0.25000000       0.30000000       0.10000000 </v>
   <v>      -0.20000000       0.30000000       0.10000000 </v>
   <v>       0.45000000       0.35000000       0.10000000 </v>
   <v>       0.50000000       0.35000000       0.10000000 </v>
   <v>      -0.45000000       0.35000000       0.10000000 </v>
   <v>      -0.40000000       0.35000000       0.10000000 </v>
   <v>      -0.35000000       0.35000000       0.10000000 </v>
   <v>      -0.30000000       0.35000000       0.10000000 </v>
   <v>      -0.25000000       0.35000000       0.10000000 </v>
   <v>       0.50000000       0.40000000       0.10000000 </v>
   <v>      -0.45000000       0.40000000       0.10000000 </v>
   <v>      -0.40000000       0.40000000       0.10000000 </v>
   <v>      -0.35000000       0.40000000       0.10000000 </v>
   <v>      -0.30000000       0.40000000       0.10000000 </v>
   <v>      -0.45000000       0.45000000       0.10000000 </v>
   <v>      -0.40000000       0.45000000       0.10000000 </v>
   <v>      -0.35000000       0.45000000       0.10000000 </v>
   <v>      -0.40000000       0.50000000       0.10000000 </v>
   <v>       0.45000000       0.30000000       0.15000000 </v>
   <v>       0.50000000       0.30000000       0.15000000 </v>
   <v>      -0.45000000       0.30000000       0.15000000 </v>
   <v>      -0.40000000       0.30000000       0.15000000 </v>
   <v>      -0.35000000       0.30000000       0.15000000 </v>
   <v>       0.50000000       0.35000000       0.15000000 </v>
   <v>      -0.45000000       0.35000000       0.15000000 </v>
   <v>      -0.40000000       0.35000000       0.15000000 </v>
   <v>      -0.35000000       0.35000000       0.15000000 </v>
   <v>      -0.30000000       0.35000000       0.15000000 </v>
   <v>      -0.25000000       0.35000000       0.15000000 </v>
   <v>      -0.20000000       0.35000000       0.15000000 </v>
   <v>      -0.45000000       0.40000000       0.15000000 </v>
   <v>      -0.40000000       0.40000000       0.15000000 </v>
   <v>      -0.35000000       0.40000000       0.15000000 </v>
   <v>      -0.30000000       0.40000000       0.15000000 </v>
   <v>      -0.25000000       0.40000000       0.15000000 </v>
   <v>      -0.40000000       0.45000000       0.15000000 </v>
   <v>      -0.35000000       0.45000000       0.15000000 </v>
   <v>      -0.30000000       0.45000000       0.15000000 </v>
   <v>      -0.35000000       0.50000000       0.15000000 </v>
   <v>      -0.40000000       0.40000000       0.20000000 </v>
   <v>      -0.35000000       0.40000000       0.20000000 </v>
   <v>      -0.30000000       0.40000000       0.20000000 </v>
   <v>      -0.35000000       0.45000000       0.20000000 </v>
   <v>      -0.30000000       0.45000000       0.20000000 </v>
   <v>      -0.25000000       0.45000000       0.20000000 </v>
   <v>      -0.30000000       0.50000000       0.20000000 </v>
   <v>      -0.25000000       0.50000000       0.25000000 </v>
  </varray>
  <varray name="weights" >
   <v>       0.00012500 </v>
   <v>       0.00100000 </v>
   <v>       0.00100000 </v>
   <v>       0.00100000 </v>
   <v>       0.00100000 </v>
   <v>       0.00100000 </v>
   <v>       0.00100000 </v>
   <v>       0.00100000 </v>
   <v>       0.00100000 </v>
   <v>       0.00100000 </v>
   <v>       0.00050000 </v>
   <v>       0.00075000 </v>
   <v>       0.00300000 </v>
   <v>       0.00300000 </v>
   <v>       0.00300000 </v>
   <v>       0.00300000 </v>
   <v>       0.00300000 </v>
   <v>       0.00300000 </v>
   <v>       0.00300000 </v>
   <v>       0.00300000 </v>
   <v>       0.00300000 </v>
   <v>       0.00300000 </v>
   <v>       0.00300000 </v>
   <v>       0.00300000 </v>
   <v>       0.00300000 </v>
   <v>       0.00300000 </v>
   <v>       0.00300000 </v>
   <v>       0.00300000 </v>
   <v>       0.00300000 </v>
   <v>       0.00150000 </v>
   <v>       0.00075000 </v>
   <v>       0.00300000 </v>
   <v>       0.00300000 </v>
   <v>       0.00300000 </v>
   <v>       0.00300000 </v>
   <v>       0.00300000 </v>
   <v>       0.00300000 </v>
   <v>       0.00300000 </v>
   <v>       0.00300000 </v>
   <v>       0.00300000 </v>
   <v>       0.00300000 </v>
   <v>       0.00300000 </v>
   <v>       0.00300000 </v>
   <v>       0.00300000 </v>
   <v>       0.00300000 </v>
   <v>       0.00300000 </v>
   <v>       0.00150000 </v>
   <v>       0.00075000 </v>
   <v>       0.00300000 </v>
   <v>       0.00300000 </v>
   <v>       0.00300000 </v>
   <v>       0.00300000 </v>
   <v>       0.00300000 </v>
   <v>       0.00300000 </v>
   <v>       0.00300000 </v>
   <v>       0.00300000 </v>
   <v>       0.00300000 </v>
   <v>       0.00300000 </v>
   <v>       0.00300000 </v>
   <v>       0.00300000 </v>
   <v>       0.00300000 </v>
   <v>       0.00150000 </v>
   <v>       0.00075000 </v>
   <v>       0.00300000 </v>
   <v>       0.00300000 </v>
   <v>       0.00300000 </v>
   <v>       0.00300000 </v>
   <v>       0.00300000 </v>
   <v>       0.00300000 </v>
   <v>       0.00300000 </v>
   <v>       0.00300000 </v>
   <v>       0.00300000 </v>
   <v>       0.00300000 </v>
   <v>       0.00300000 </v>
   <v>       0.00150000 </v>
   <v>       0.00075000 </v>
   <v>       0.00300000 </v>
   <v>       0.00300000 </v>
   <v>       0.00300000 </v>
   <v>       0.00300000 </v>
   <v>       0.00300000 </v>
   <v>       0.00300000 </v>
   <v>       0.00300000 </v>
   <v>       0.00300000 </v>
   <v>       0.00300000 </v>
   <v>       0.00150000 </v>
   <v>       0.00075000 </v>
   <v>       0.00300000 </v>
   <v>       0.00300000 </v>
   <v>       0.00300000 </v>
   <v>       0.00300000 </v>
   <v>       0.00300000 </v>
   <v>       0.00300000 </v>
   <v>       0.00300000 </v>
   <v>       0.00150000 </v>
   <v>       0.00075000 </v>
   <v>       0.00300000 </v>
   <v>       0.00300000 </v>
   <v>       0.00300000 </v>
   <v>       0.00300000 </v>
   <v>       0.00300000 </v>
   <v>       0.00150000 </v>
   <v>       0.00075000 </v>
   <v>       0.00300000 </v>
   <v>       0.00300000 </v>
   <v>       0.00300000 </v>
   <v>       0.00150000 </v>
   <v>       0.00075000 </v>
   <v>       0.00300000 </v>
   <v>       0.00150000 </v>
   <v>       0.00037500 </v>
   <v>       0.00300000 </v>
   <v>       0.00600000 </v>
   <v>       0.00600000 </v>
   <v>       0.00600000 </v>
   <v>       0.00600000 </v>
   <v>       0.00600000 </v>
   <v>       0.00600000 </v>
   <v>       0.00600000 </v>
   <v>       0.00300000 </v>
   <v>       0.00300000 </v>
   <v>       0.00600000 </v>
   <v>       0.00600000 </v>
   <v>       0.00600000 </v>
   <v>       0.00600000 </v>
   <v>       0.00600000 </v>
   <v>       0.00600000 </v>
   <v>       0.00600000 </v>
   <v>       0.00600000 </v>
   <v>       0.00600000 </v>
   <v>       0.00600000 </v>
   <v>       0.00600000 </v>
   <v>       0.00600000 </v>
   <v>       0.00600000 </v>
   <v>       0.00300000 </v>
   <v>       0.00300000 </v>
   <v>       0.00600000 </v>
   <v>       0.00600000 </v>
   <v>       0.00600000 </v>
   <v>       0.00600000 </v>
   <v>       0.00600000 </v>
   <v>       0.00600000 </v>
   <v>       0.00600000 </v>
   <v>       0.00600000 </v>
   <v>       0.00600000 </v>
   <v>       0.00600000 </v>
   <v>       0.00600000 </v>
   <v>       0.00300000 </v>
   <v>       0.00300000 </v>
   <v>       0.00600000 </v>
   <v>       0.00600000 </v>
   <v>       0.00600000 </v>
   <v>       0.00600000 </v>
   <v>       0.00600000 </v>
   <v>       0.00600000 </v>
   <v>       0.00600000 </v>
   <v>       0.00600000 </v>
   <v>       0.00600000 </v>
   <v>       0.00300000 </v>
   <v>       0.00300000 </v>
   <v>       0.00600000 </v>
   <v>       0.00600000 </v>
   <v>       0.00600000 </v>
   <v>       0.00600000 </v>
   <v>       0.00600000 </v>
   <v>       0.00600000 </v>
   <v>       0.00600000 </v>
   <v>       0.00300000 </v>
   <v>       0.00300000 </v>
   <v>       0.00600000 </v>
   <v>       0.00600000 </v>
   <v>       0.00600000 </v>
   <v>       0.00600000 </v>
   <v>       0.00600000 </v>
   <v>       0.00300000 </v>
   <v>       0.00300000 </v>
   <v>       0.00600000 </v>
   <v>       0.00600000 </v>
   <v>       0.00600000 </v>
   <v>       0.00300000 </v>
   <v>       0.00300000 </v>
   <v>       0.00600000 </v>
   <v>       0.00300000 </v>
   <v>       0.00150000 </v>
   <v>       0.00300000 </v>
   <v>       0.00600000 </v>
   <v>       0.00600000 </v>
   <v>       0.00600000 </v>
   <v>       0.00600000 </v>
   <v>       0.00600000 </v>
   <v>       0.00300000 </v>
   <v>       0.00300000 </v>
   <v>       0.00600000 </v>
   <v>       0.00600000 </v>
   <v>       0.00600000 </v>
   <v>       0.00600000 </v>
   <v>       0.00600000 </v>
   <v>       0.00600000 </v>
   <v>       0.00600000 </v>
   <v>       0.00600000 </v>
   <v>       0.00600000 </v>
   <v>       0.00300000 </v>
   <v>       0.00300000 </v>
   <v>       0.00600000 </v>
   <v>       0.00600000 </v>
   <v>       0.00600000 </v>
   <v>       0.00600000 </v>
   <v>       0.00600000 </v>
   <v>       0.00600000 </v>
   <v>       0.00600000 </v>
   <v>       0.00300000 </v>
   <v>       0.00300000 </v>
   <v>       0.00600000 </v>
   <v>       0.00600000 </v>
   <v>       0.00600000 </v>
   <v>       0.00600000 </v>
   <v>       0.00600000 </v>
   <v>       0.00300000 </v>
   <v>       0.00300000 </v>
   <v>       0.00600000 </v>
   <v>       0.00600000 </v>
   <v>       0.00600000 </v>
   <v>       0.00300000 </v>
   <v>       0.00300000 </v>
   <v>       0.00600000 </v>
   <v>       0.00300000 </v>
   <v>       0.00150000 </v>
   <v>       0.00300000 </v>
   <v>       0.00600000 </v>
   <v>       0.00600000 </v>
   <v>       0.00600000 </v>
   <v>       0.00300000 </v>
   <v>       0.00300000 </v>
   <v>       0.00600000 </v>
   <v>       0.00600000 </v>
   <v>       0.00600000 </v>
   <v>       0.00600000 </v>
   <v>       0.00600000 </v>
   <v>       0.00300000 </v>
   <v>       0.00300000 </v>
   <v>       0.00600000 </v>
   <v>       0.00600000 </v>
   <v>       0.00600000 </v>
   <v>       0.00300000 </v>
   <v>       0.00300000 </v>
   <v>       0.00600000 </v>
   <v>       0.00300000 </v>
   <v>       0.00150000 </v>
   <v>       0.00300000 </v>
   <v>       0.00600000 </v>
   <v>       0.00300000 </v>
   <v>       0.00300000 </v>
   <v>       0.00600000 </v>
   <v>       0.00300000 </v>
   <v>       0.00150000 </v>
   <v>       0.00075000 </v>
  </varray>
  <varray name="tetrahedronlist"  type="int" >
   <v type="int" >       24        1        2        2       12 </v>
   <v type="int" >       48        2       12       13       30 </v>
   <v type="int" >       48        2        3       13       30 </v>
   <v type="int" >       24        2        2       12       30 </v>
   <v type="int" >       48        3       13       14       29 </v>
   <v type="int" >       48        3        4       14       29 </v>
   <v type="int" >       48        3       13       29       30 </v>
   <v type="int" >       48        4       14       15       28 </v>
   <v type="int" >       48        4        5       15       28 </v>
   <v type="int" >       48        4       14       28       29 </v>
   <v type="int" >       48        5       15       16       27 </v>
   <v type="int" >       48        5        6       16       27 </v>
   <v type="int" >       48        5       15       27       28 </v>
   <v type="int" >       48        6       16       17       26 </v>
   <v type="int" >       48        6        7       17       26 </v>
   <v type="int" >       48        6       16       26       27 </v>
   <v type="int" >       48        7       17       18       25 </v>
   <v type="int" >       48        7        8       18       25 </v>
   <v type="int" >       48        7       17       25       26 </v>
   <v type="int" >       48        8       18       19       24 </v>
   <v type="int" >       48        8        9       19       24 </v>
   <v type="int" >       48        8       18       24       25 </v>
   <v type="int" >       48        9       19       20       23 </v>
   <v type="int" >       48        9       10       20       23 </v>
   <v type="int" >       48        9       19       23       24 </v>
   <v type="int" >       48       10       20       21       22 </v>
   <v type="int" >       48       10       11       21       22 </v>
   <v type="int" >       48       10       20       22       23 </v>
   <v type="int" >       48       11       21       21       22 </v>
   <v type="int" >       24       12       13       13       31 </v>
   <v type="int" >       24       12       13       13       30 </v>
   <v type="int" >       48       13       31       32      112 </v>
   <v type="int" >       48       13       14       32      112 </v>
   <v type="int" >       48       13       14       29      112 </v>
   <v type="int" >       24       13       13       31      112 </v>
   <v type="int" >       24       13       13       30      112 </v>
   <v type="int" >       48       13       29       30      112 </v>
   <v type="int" >       48       14       32       33      113 </v>
   <v type="int" >       48       14       15       33      113 </v>
   <v type="int" >       48       14       15       28      113 </v>
   <v type="int" >       48       14       32      112      113 </v>
   <v type="int" >       48       14       29      112      113 </v>
   <v type="int" >       48       14       28       29      113 </v>
   <v type="int" >       48       15       33       34      114 </v>
   <v type="int" >       48       15       16       34      114 </v>
   <v type="int" >       48       15       16       27      114 </v>
   <v type="int" >       48       15       33      113      114 </v>
   <v type="int" >       48       15       28      113      114 </v>
   <v type="int" >       48       15       27       28      114 </v>
   <v type="int" >       48       16       34       35      115 </v>
   <v type="int" >       48       16       17       35      115 </v>
   <v type="int" >       48       16       17       26      115 </v>
   <v type="int" >       48       16       34      114      115 </v>
   <v type="int" >       48       16       27      114      115 </v>
   <v type="int" >       48       16       26       27      115 </v>
   <v type="int" >       48       17       35       36      116 </v>
   <v type="int" >       48       17       18       36      116 </v>
   <v type="int" >       48       17       18       25      116 </v>
   <v type="int" >       48       17       35      115      116 </v>
   <v type="int" >       48       17       26      115      116 </v>
   <v type="int" >       48       17       25       26      116 </v>
   <v type="int" >       48       18       36       37      117 </v>
   <v type="int" >       48       18       19       37      117 </v>
   <v type="int" >       48       18       19       24      117 </v>
   <v type="int" >       48       18       36      116      117 </v>
   <v type="int" >       48       18       25      116      117 </v>
   <v type="int" >       48       18       24       25      117 </v>
   <v type="int" >       48       19       37       38      118 </v>
   <v type="int" >       48       19       20       38      118 </v>
   <v type="int" >       48       19       20       23      118 </v>
   <v type="int" >       48       19       37      117      118 </v>
   <v type="int" >       48       19       24      117      118 </v>
   <v type="int" >       48       19       23       24      118 </v>
   <v type="int" >       48       20       38       39      119 </v>
   <v type="int" >       48       20       21       39      119 </v>
   <v type="int" >       48       20       21       22      119 </v>
   <v type="int" >       48       20       38      118      119 </v>
   <v type="int" >       48       20       23      118      119 </v>
   <v type="int" >       48       20       22       23      119 </v>
   <v type="int" >       48       21       39       40      120 </v>
   <v type="int" >       48       21       22       40      120 </v>
   <v type="int" >       48       21       21       22      120 </v>
   <v type="int" >       48       21       39      119      120 </v>
   <v type="int" >       48       21       22      119      120 </v>
   <v type="int" >       48       22       40       41      119 </v>
   <v type="int" >       48       22       23       41      119 </v>
   <v type="int" >       48       22       40      119      120 </v>
   <v type="int" >       48       23       41       42      118 </v>
   <v type="int" >       48       23       24       42      118 </v>
   <v type="int" >       48       23       41      118      119 </v>
   <v type="int" >       48       24       42       43      117 </v>
   <v type="int" >       48       24       25       43      117 </v>
   <v type="int" >       48       24       42      117      118 </v>
   <v type="int" >       48       25       43       44      116 </v>
   <v type="int" >       48       25       26       44      116 </v>
   <v type="int" >       48       25       43      116      117 </v>
   <v type="int" >       48       26       44       45      115 </v>
   <v type="int" >       48       26       27       45      115 </v>
   <v type="int" >       48       26       44      115      116 </v>
   <v type="int" >       48       27       45       46      114 </v>
   <v type="int" >       48       27       28       46      114 </v>
   <v type="int" >       48       27       45      114      115 </v>
   <v type="int" >       48       28       46       47      113 </v>
   <v type="int" >       48       28       29       47      113 </v>
   <v type="int" >       48       28       46      113      114 </v>
   <v type="int" >       24       29       29       47      112 </v>
   <v type="int" >       24       29       29       30      112 </v>
   <v type="int" >       48       29       47      112      113 </v>
   <v type="int" >       24       31       32       32       48 </v>
   <v type="int" >       24       31       32       32      112 </v>
   <v type="int" >       48       32       48       49      121 </v>
   <v type="int" >       48       32       33       49      121 </v>
   <v type="int" >       48       32       33      113      121 </v>
   <v type="int" >       24       32       32       48      121 </v>
   <v type="int" >       24       32       32      112      121 </v>
   <v type="int" >       48       32      112      113      121 </v>
   <v type="int" >       48       33       49       50      122 </v>
   <v type="int" >       48       33       34       50      122 </v>
   <v type="int" >       48       33       34      114      122 </v>
   <v type="int" >       48       33       49      121      122 </v>
   <v type="int" >       48       33      113      121      122 </v>
   <v type="int" >       48       33      113      114      122 </v>
   <v type="int" >       48       34       50       51      123 </v>
   <v type="int" >       48       34       35       51      123 </v>
   <v type="int" >       48       34       35      115      123 </v>
   <v type="int" >       48       34       50      122      123 </v>
   <v type="int" >       48       34      114      122      123 </v>
   <v type="int" >       48       34      114      115      123 </v>
   <v type="int" >       48       35       51       52      124 </v>
   <v type="int" >       48       35       36       52      124 </v>
   <v type="int" >       48       35       36      116      124 </v>
   <v type="int" >       48       35       51      123      124 </v>
   <v type="int" >       48       35      115      123      124 </v>
   <v type="int" >       48       35      115      116      124 </v>
   <v type="int" >       48       36       52       53      125 </v>
   <v type="int" >       48       36       37       53      125 </v>
   <v type="int" >       48       36       37      117      125 </v>
   <v type="int" >       48       36       52      124      125 </v>
   <v type="int" >       48       36      116      124      125 </v>
   <v type="int" >       48       36      116      117      125 </v>
   <v type="int" >       48       37       53       54      126 </v>
   <v type="int" >       48       37       38       54      126 </v>
   <v type="int" >       48       37       38      118      126 </v>
   <v type="int" >       48       37       53      125      126 </v>
   <v type="int" >       48       37      117      125      126 </v>
   <v type="int" >       48       37      117      118      126 </v>
   <v type="int" >       48       38       54       55      127 </v>
   <v type="int" >       48       38       39       55      127 </v>
   <v type="int" >       48       38       39      119      127 </v>
   <v type="int" >       48       38       54      126      127 </v>
   <v type="int" >       48       38      118      126      127 </v>
   <v type="int" >       48       38      118      119      127 </v>
   <v type="int" >       48       39       55       56      128 </v>
   <v type="int" >       48       39       40       56      128 </v>
   <v type="int" >       48       39       40      120      128 </v>
   <v type="int" >       48       39       55      127      128 </v>
   <v type="int" >       48       39      119      127      128 </v>
   <v type="int" >       48       39      119      120      128 </v>
   <v type="int" >       48       40       56       57      129 </v>
   <v type="int" >       48       40       41       57      129 </v>
   <v type="int" >       48       40       41      119      129 </v>
   <v type="int" >       48       40       56      128      129 </v>
   <v type="int" >       48       40      120      128      129 </v>
   <v type="int" >       48       40      119      120      129 </v>
   <v type="int" >       48       41       57       58      130 </v>
   <v type="int" >       48       41       42       58      130 </v>
   <v type="int" >       48       41       42      118      130 </v>
   <v type="int" >       48       41       57      129      130 </v>
   <v type="int" >       48       41      119      129      130 </v>
   <v type="int" >       48       41      118      119      130 </v>
   <v type="int" >       48       42       58       59      131 </v>
   <v type="int" >       48       42       43       59      131 </v>
   <v type="int" >       48       42       43      117      131 </v>
   <v type="int" >       48       42       58      130      131 </v>
   <v type="int" >       48       42      118      130      131 </v>
   <v type="int" >       48       42      117      118      131 </v>
   <v type="int" >       48       43       59       60      132 </v>
   <v type="int" >       48       43       44       60      132 </v>
   <v type="int" >       48       43       44      116      132 </v>
   <v type="int" >       48       43       59      131      132 </v>
   <v type="int" >       48       43      117      131      132 </v>
   <v type="int" >       48       43      116      117      132 </v>
   <v type="int" >       48       44       60       61      133 </v>
   <v type="int" >       48       44       45       61      133 </v>
   <v type="int" >       48       44       45      115      133 </v>
   <v type="int" >       48       44       60      132      133 </v>
   <v type="int" >       48       44      116      132      133 </v>
   <v type="int" >       48       44      115      116      133 </v>
   <v type="int" >       48       45       61       62      134 </v>
   <v type="int" >       48       45       46       62      134 </v>
   <v type="int" >       48       45       46      114      134 </v>
   <v type="int" >       48       45       61      133      134 </v>
   <v type="int" >       48       45      115      133      134 </v>
   <v type="int" >       48       45      114      115      134 </v>
   <v type="int" >       24       46       46       62      135 </v>
   <v type="int" >       24       46       46       47      135 </v>
   <v type="int" >       48       46       47      113      135 </v>
   <v type="int" >       48       46       62      134      135 </v>
   <v type="int" >       48       46      114      134      135 </v>
   <v type="int" >       48       46      113      114      135 </v>
   <v type="int" >       24       47      113      113      135 </v>
   <v type="int" >       24       47      112      113      113 </v>
   <v type="int" >       24       48       49       49       63 </v>
   <v type="int" >       24       48       49       49      121 </v>
   <v type="int" >       48       49       63       64      136 </v>
   <v type="int" >       48       49       50       64      136 </v>
   <v type="int" >       48       49       50      122      136 </v>
   <v type="int" >       24       49       49       63      136 </v>
   <v type="int" >       24       49       49      121      136 </v>
   <v type="int" >       48       49      121      122      136 </v>
   <v type="int" >       48       50       64       65      137 </v>
   <v type="int" >       48       50       51       65      137 </v>
   <v type="int" >       48       50       51      123      137 </v>
   <v type="int" >       48       50       64      136      137 </v>
   <v type="int" >       48       50      122      136      137 </v>
   <v type="int" >       48       50      122      123      137 </v>
   <v type="int" >       48       51       65       66      138 </v>
   <v type="int" >       48       51       52       66      138 </v>
   <v type="int" >       48       51       52      124      138 </v>
   <v type="int" >       48       51       65      137      138 </v>
   <v type="int" >       48       51      123      137      138 </v>
   <v type="int" >       48       51      123      124      138 </v>
   <v type="int" >       48       52       66       67      139 </v>
   <v type="int" >       48       52       53       67      139 </v>
   <v type="int" >       48       52       53      125      139 </v>
   <v type="int" >       48       52       66      138      139 </v>
   <v type="int" >       48       52      124      138      139 </v>
   <v type="int" >       48       52      124      125      139 </v>
   <v type="int" >       48       53       67       68      140 </v>
   <v type="int" >       48       53       54       68      140 </v>
   <v type="int" >       48       53       54      126      140 </v>
   <v type="int" >       48       53       67      139      140 </v>
   <v type="int" >       48       53      125      139      140 </v>
   <v type="int" >       48       53      125      126      140 </v>
   <v type="int" >       48       54       68       69      141 </v>
   <v type="int" >       48       54       55       69      141 </v>
   <v type="int" >       48       54       55      127      141 </v>
   <v type="int" >       48       54       68      140      141 </v>
   <v type="int" >       48       54      126      140      141 </v>
   <v type="int" >       48       54      126      127      141 </v>
   <v type="int" >       48       55       69       70      142 </v>
   <v type="int" >       48       55       56       70      142 </v>
   <v type="int" >       48       55       56      128      142 </v>
   <v type="int" >       48       55       69      141      142 </v>
   <v type="int" >       48       55      127      141      142 </v>
   <v type="int" >       48       55      127      128      142 </v>
   <v type="int" >       48       56       70       71      143 </v>
   <v type="int" >       48       56       57       71      143 </v>
   <v type="int" >       48       56       57      129      143 </v>
   <v type="int" >       48       56       70      142      143 </v>
   <v type="int" >       48       56      128      142      143 </v>
   <v type="int" >       48       56      128      129      143 </v>
   <v type="int" >       48       57       71       72      144 </v>
   <v type="int" >       48       57       58       72      144 </v>
   <v type="int" >       48       57       58      130      144 </v>
   <v type="int" >       48       57       71      143      144 </v>
   <v type="int" >       48       57      129      143      144 </v>
   <v type="int" >       48       57      129      130      144 </v>
   <v type="int" >       48       58       72       73      145 </v>
   <v type="int" >       48       58       59       73      145 </v>
   <v type="int" >       48       58       59      131      145 </v>
   <v type="int" >       48       58       72      144      145 </v>
   <v type="int" >       48       58      130      144      145 </v>
   <v type="int" >       48       58      130      131      145 </v>
   <v type="int" >       48       59       73       74      146 </v>
   <v type="int" >       48       59       60       74      146 </v>
   <v type="int" >       48       59       60      132      146 </v>
   <v type="int" >       48       59       73      145      146 </v>
   <v type="int" >       48       59      131      145      146 </v>
   <v type="int" >       48       59      131      132      146 </v>
   <v type="int" >       48       60       74       75      147 </v>
   <v type="int" >       48       60       61       75      147 </v>
   <v type="int" >       48       60       61      133      147 </v>
   <v type="int" >       48       60       74      146      147 </v>
   <v type="int" >       48       60      132      146      147 </v>
   <v type="int" >       48       60      132      133      147 </v>
   <v type="int" >       24       61       61       75      148 </v>
   <v type="int" >       24       61       61       62      148 </v>
   <v type="int" >       48       61       62      134      148 </v>
   <v type="int" >       48       61       75      147      148 </v>
   <v type="int" >       48       61      133      147      148 </v>
   <v type="int" >       48       61      133      134      148 </v>
   <v type="int" >       24       62      134      134      148 </v>
   <v type="int" >       24       62      134      134      135 </v>
   <v type="int" >       24       63       64       64       76 </v>
   <v type="int" >       24       63       64       64      136 </v>
   <v type="int" >       48       64       76       77      149 </v>
   <v type="int" >       48       64       65       77      149 </v>
   <v type="int" >       48       64       65      137      149 </v>
   <v type="int" >       24       64       64       76      149 </v>
   <v type="int" >       24       64       64      136      149 </v>
   <v type="int" >       48       64      136      137      149 </v>
   <v type="int" >       48       65       77       78      150 </v>
   <v type="int" >       48       65       66       78      150 </v>
   <v type="int" >       48       65       66      138      150 </v>
   <v type="int" >       48       65       77      149      150 </v>
   <v type="int" >       48       65      137      149      150 </v>
   <v type="int" >       48       65      137      138      150 </v>
   <v type="int" >       48       66       78       79      151 </v>
   <v type="int" >       48       66       67       79      151 </v>
   <v type="int" >       48       66       67      139      151 </v>
   <v type="int" >       48       66       78      150      151 </v>
   <v type="int" >       48       66      138      150      151 </v>
   <v type="int" >       48       66      138      139      151 </v>
   <v type="int" >       48       67       79       80      152 </v>
   <v type="int" >       48       67       68       80      152 </v>
   <v type="int" >       48       67       68      140      152 </v>
   <v type="int" >       48       67       79      151      152 </v>
   <v type="int" >       48       67      139      151      152 </v>
   <v type="int" >       48       67      139      140      152 </v>
   <v type="int" >       48       68       80       81      153 </v>
   <v type="int" >       48       68       69       81      153 </v>
   <v type="int" >       48       68       69      141      153 </v>
   <v type="int" >       48       68       80      152      153 </v>
   <v type="int" >       48       68      140      152      153 </v>
   <v type="int" >       48       68      140      141      153 </v>
   <v type="int" >       48       69       81       82      154 </v>
   <v type="int" >       48       69       70       82      154 </v>
   <v type="int" >       48       69       70      142      154 </v>
   <v type="int" >       48       69       81      153      154 </v>
   <v type="int" >       48       69      141      153      154 </v>
   <v type="int" >       48       69      141      142      154 </v>
   <v type="int" >       48       70       82       83      155 </v>
   <v type="int" >       48       70       71       83      155 </v>
   <v type="int" >       48       70       71      143      155 </v>
   <v type="int" >       48       70       82      154      155 </v>
   <v type="int" >       48       70      142      154      155 </v>
   <v type="int" >       48       70      142      143      155 </v>
   <v type="int" >       48       71       83       84      156 </v>
   <v type="int" >       48       71       72       84      156 </v>
   <v type="int" >       48       71       72      144      156 </v>
   <v type="int" >       48       71       83      155      156 </v>
   <v type="int" >       48       71      143      155      156 </v>
   <v type="int" >       48       71      143      144      156 </v>
   <v type="int" >       48       72       84       85      157 </v>
   <v type="int" >       48       72       73       85      157 </v>
   <v type="int" >       48       72       73      145      157 </v>
   <v type="int" >       48       72       84      156      157 </v>
   <v type="int" >       48       72      144      156      157 </v>
   <v type="int" >       48       72      144      145      157 </v>
   <v type="int" >       48       73       85       86      158 </v>
   <v type="int" >       48       73       74       86      158 </v>
   <v type="int" >       48       73       74      146      158 </v>
   <v type="int" >       48       73       85      157      158 </v>
   <v type="int" >       48       73      145      157      158 </v>
   <v type="int" >       48       73      145      146      158 </v>
   <v type="int" >       24       74       74       86      159 </v>
   <v type="int" >       24       74       74       75      159 </v>
   <v type="int" >       48       74       75      147      159 </v>
   <v type="int" >       48       74       86      158      159 </v>
   <v type="int" >       48       74      146      158      159 </v>
   <v type="int" >       48       74      146      147      159 </v>
   <v type="int" >       24       75      147      147      159 </v>
   <v type="int" >       24       75      147      147      148 </v>
   <v type="int" >       24       76       77       77       87 </v>
   <v type="int" >       24       76       77       77      149 </v>
   <v type="int" >       48       77       87       88      160 </v>
   <v type="int" >       48       77       78       88      160 </v>
   <v type="int" >       48       77       78      150      160 </v>
   <v type="int" >       24       77       77       87      160 </v>
   <v type="int" >       24       77       77      149      160 </v>
   <v type="int" >       48       77      149      150      160 </v>
   <v type="int" >       48       78       88       89      161 </v>
   <v type="int" >       48       78       79       89      161 </v>
   <v type="int" >       48       78       79      151      161 </v>
   <v type="int" >       48       78       88      160      161 </v>
   <v type="int" >       48       78      150      160      161 </v>
   <v type="int" >       48       78      150      151      161 </v>
   <v type="int" >       48       79       89       90      162 </v>
   <v type="int" >       48       79       80       90      162 </v>
   <v type="int" >       48       79       80      152      162 </v>
   <v type="int" >       48       79       89      161      162 </v>
   <v type="int" >       48       79      151      161      162 </v>
   <v type="int" >       48       79      151      152      162 </v>
   <v type="int" >       48       80       90       91      163 </v>
   <v type="int" >       48       80       81       91      163 </v>
   <v type="int" >       48       80       81      153      163 </v>
   <v type="int" >       48       80       90      162      163 </v>
   <v type="int" >       48       80      152      162      163 </v>
   <v type="int" >       48       80      152      153      163 </v>
   <v type="int" >       48       81       91       92      164 </v>
   <v type="int" >       48       81       82       92      164 </v>
   <v type="int" >       48       81       82      154      164 </v>
   <v type="int" >       48       81       91      163      164 </v>
   <v type="int" >       48       81      153      163      164 </v>
   <v type="int" >       48       81      153      154      164 </v>
   <v type="int" >       48       82       92       93      165 </v>
   <v type="int" >       48       82       83       93      165 </v>
   <v type="int" >       48       82       83      155      165 </v>
   <v type="int" >       48       82       92      164      165 </v>
   <v type="int" >       48       82      154      164      165 </v>
   <v type="int" >       48       82      154      155      165 </v>
   <v type="int" >       48       83       93       94      166 </v>
   <v type="int" >       48       83       84       94      166 </v>
   <v type="int" >       48       83       84      156      166 </v>
   <v type="int" >       48       83       93      165      166 </v>
   <v type="int" >       48       83      155      165      166 </v>
   <v type="int" >       48       83      155      156      166 </v>
   <v type="int" >       48       84       94       95      167 </v>
   <v type="int" >       48       84       85       95      167 </v>
   <v type="int" >       48       84       85      157      167 </v>
   <v type="int" >       48       84       94      166      167 </v>
   <v type="int" >       48       84      156      166      167 </v>
   <v type="int" >       48       84      156      157      167 </v>
   <v type="int" >       24       85       85       95      168 </v>
   <v type="int" >       24       85       85       86      168 </v>
   <v type="int" >       48       85       86      158      168 </v>
   <v type="int" >       48       85       95      167      168 </v>
   <v type="int" >       48       85      157      167      168 </v>
   <v type="int" >       48       85      157      158      168 </v>
   <v type="int" >       24       86      158      158      168 </v>
   <v type="int" >       24       86      158      158      159 </v>
   <v type="int" >       24       87       88       88       96 </v>
   <v type="int" >       24       87       88       88      160 </v>
   <v type="int" >       48       88       96       97      169 </v>
   <v type="int" >       48       88       89       97      169 </v>
   <v type="int" >       48       88       89      161      169 </v>
   <v type="int" >       24       88       88       96      169 </v>
   <v type="int" >       24       88       88      160      169 </v>
   <v type="int" >       48       88      160      161      169 </v>
   <v type="int" >       48       89       97       98      170 </v>
   <v type="int" >       48       89       90       98      170 </v>
   <v type="int" >       48       89       90      162      170 </v>
   <v type="int" >       48       89       97      169      170 </v>
   <v type="int" >       48       89      161      169      170 </v>
   <v type="int" >       48       89      161      162      170 </v>
   <v type="int" >       48       90       98       99      171 </v>
   <v type="int" >       48       90       91       99      171 </v>
   <v type="int" >       48       90       91      163      171 </v>
   <v type="int" >       48       90       98      170      171 </v>
   <v type="int" >       48       90      162      170      171 </v>
   <v type="int" >       48       90      162      163      171 </v>
   <v type="int" >       48       91       99      100      172 </v>
   <v type="int" >       48       91       92      100      172 </v>
   <v type="int" >       48       91       92      164      172 </v>
   <v type="int" >       48       91       99      171      172 </v>
   <v type="int" >       48       91      163      171      172 </v>
   <v type="int" >       48       91      163      164      172 </v>
   <v type="int" >       48       92      100      101      173 </v>
   <v type="int" >       48       92       93      101      173 </v>
   <v type="int" >       48       92       93      165      173 </v>
   <v type="int" >       48       92      100      172      173 </v>
   <v type="int" >       48       92      164      172      173 </v>
   <v type="int" >       48       92      164      165      173 </v>
   <v type="int" >       48       93      101      102      174 </v>
   <v type="int" >       48       93       94      102      174 </v>
   <v type="int" >       48       93       94      166      174 </v>
   <v type="int" >       48       93      101      173      174 </v>
   <v type="int" >       48       93      165      173      174 </v>
   <v type="int" >       48       93      165      166      174 </v>
   <v type="int" >       24       94       94      102      175 </v>
   <v type="int" >       24       94       94       95      175 </v>
   <v type="int" >       48       94       95      167      175 </v>
   <v type="int" >       48       94      102      174      175 </v>
   <v type="int" >       48       94      166      174      175 </v>
   <v type="int" >       48       94      166      167      175 </v>
   <v type="int" >       24       95      167      167      175 </v>
   <v type="int" >       24       95      167      167      168 </v>
   <v type="int" >       24       96       97       97      103 </v>
   <v type="int" >       24       96       97       97      169 </v>
   <v type="int" >       48       97      103      104      176 </v>
   <v type="int" >       48       97       98      104      176 </v>
   <v type="int" >       48       97       98      170      176 </v>
   <v type="int" >       24       97       97      103      176 </v>
   <v type="int" >       24       97       97      169      176 </v>
   <v type="int" >       48       97      169      170      176 </v>
   <v type="int" >       48       98      104      105      177 </v>
   <v type="int" >       48       98       99      105      177 </v>
   <v type="int" >       48       98       99      171      177 </v>
   <v type="int" >       48       98      104      176      177 </v>
   <v type="int" >       48       98      170      176      177 </v>
   <v type="int" >       48       98      170      171      177 </v>
   <v type="int" >       48       99      105      106      178 </v>
   <v type="int" >       48       99      100      106      178 </v>
   <v type="int" >       48       99      100      172      178 </v>
   <v type="int" >       48       99      105      177      178 </v>
   <v type="int" >       48       99      171      177      178 </v>
   <v type="int" >       48       99      171      172      178 </v>
   <v type="int" >       48      100      106      107      179 </v>
   <v type="int" >       48      100      101      107      179 </v>
   <v type="int" >       48      100      101      173      179 </v>
   <v type="int" >       48      100      106      178      179 </v>
   <v type="int" >       48      100      172      178      179 </v>
   <v type="int" >       48      100      172      173      179 </v>
   <v type="int" >       24      101      101      107      180 </v>
   <v type="int" >       24      101      101      102      180 </v>
   <v type="int" >       48      101      102      174      180 </v>
   <v type="int" >       48      101      107      179      180 </v>
   <v type="int" >       48      101      173      179      180 </v>
   <v type="int" >       48      101      173      174      180 </v>
   <v type="int" >       24      102      174      174      180 </v>
   <v type="int" >       24      102      174      174      175 </v>
   <v type="int" >       24      103      104      104      108 </v>
   <v type="int" >       24      103      104      104      176 </v>
   <v type="int" >       48      104      108      109      181 </v>
   <v type="int" >       48      104      105      109      181 </v>
   <v type="int" >       48      104      105      177      181 </v>
   <v type="int" >       24      104      104      108      181 </v>
   <v type="int" >       24      104      104      176      181 </v>
   <v type="int" >       48      104      176      177      181 </v>
   <v type="int" >       48      105      109      110      182 </v>
   <v type="int" >       48      105      106      110      182 </v>
   <v type="int" >       48      105      106      178      182 </v>
   <v type="int" >       48      105      109      181      182 </v>
   <v type="int" >       48      105      177      181      182 </v>
   <v type="int" >       48      105      177      178      182 </v>
   <v type="int" >       24      106      106      110      183 </v>
   <v type="int" >       24      106      106      107      183 </v>
   <v type="int" >       48      106      107      179      183 </v>
   <v type="int" >       48      106      110      182      183 </v>
   <v type="int" >       48      106      178      182      183 </v>
   <v type="int" >       48      106      178      179      183 </v>
   <v type="int" >       24      107      179      179      183 </v>
   <v type="int" >       24      107      179      179      180 </v>
   <v type="int" >       24      108      109      109      111 </v>
   <v type="int" >       24      108      109      109      181 </v>
   <v type="int" >       48      109      109      111      184 </v>
   <v type="int" >       24      109      109      110      184 </v>
   <v type="int" >       48      109      110      182      184 </v>
   <v type="int" >       24      109      109      181      184 </v>
   <v type="int" >       48      109      181      182      184 </v>
   <v type="int" >       24      110      182      182      184 </v>
   <v type="int" >       24      110      182      182      183 </v>
   <v type="int" >       24      112      113      113      121 </v>
   <v type="int" >       48      113      121      122      135 </v>
   <v type="int" >       48      113      114      122      135 </v>
   <v type="int" >       24      113      113      121      135 </v>
   <v type="int" >       48      114      122      123      134 </v>
   <v type="int" >       48      114      115      123      134 </v>
   <v type="int" >       48      114      122      134      135 </v>
   <v type="int" >       48      115      123      124      133 </v>
   <v type="int" >       48      115      116      124      133 </v>
   <v type="int" >       48      115      123      133      134 </v>
   <v type="int" >       48      116      124      125      132 </v>
   <v type="int" >       48      116      117      125      132 </v>
   <v type="int" >       48      116      124      132      133 </v>
   <v type="int" >       48      117      125      126      131 </v>
   <v type="int" >       48      117      118      126      131 </v>
   <v type="int" >       48      117      125      131      132 </v>
   <v type="int" >       48      118      126      127      130 </v>
   <v type="int" >       48      118      119      127      130 </v>
   <v type="int" >       48      118      126      130      131 </v>
   <v type="int" >       48      119      127      128      129 </v>
   <v type="int" >       48      119      120      128      129 </v>
   <v type="int" >       48      119      127      129      130 </v>
   <v type="int" >       48      120      128      128      129 </v>
   <v type="int" >       24      121      122      122      136 </v>
   <v type="int" >       24      121      122      122      135 </v>
   <v type="int" >       48      122      136      137      185 </v>
   <v type="int" >       48      122      123      137      185 </v>
   <v type="int" >       48      122      123      134      185 </v>
   <v type="int" >       24      122      122      136      185 </v>
   <v type="int" >       24      122      122      135      185 </v>
   <v type="int" >       48      122      134      135      185 </v>
   <v type="int" >       48      123      137      138      186 </v>
   <v type="int" >       48      123      124      138      186 </v>
   <v type="int" >       48      123      124      133      186 </v>
   <v type="int" >       48      123      137      185      186 </v>
   <v type="int" >       48      123      134      185      186 </v>
   <v type="int" >       48      123      133      134      186 </v>
   <v type="int" >       48      124      138      139      187 </v>
   <v type="int" >       48      124      125      139      187 </v>
   <v type="int" >       48      124      125      132      187 </v>
   <v type="int" >       48      124      138      186      187 </v>
   <v type="int" >       48      124      133      186      187 </v>
   <v type="int" >       48      124      132      133      187 </v>
   <v type="int" >       48      125      139      140      188 </v>
   <v type="int" >       48      125      126      140      188 </v>
   <v type="int" >       48      125      126      131      188 </v>
   <v type="int" >       48      125      139      187      188 </v>
   <v type="int" >       48      125      132      187      188 </v>
   <v type="int" >       48      125      131      132      188 </v>
   <v type="int" >       48      126      140      141      189 </v>
   <v type="int" >       48      126      127      141      189 </v>
   <v type="int" >       48      126      127      130      189 </v>
   <v type="int" >       48      126      140      188      189 </v>
   <v type="int" >       48      126      131      188      189 </v>
   <v type="int" >       48      126      130      131      189 </v>
   <v type="int" >       48      127      141      142      190 </v>
   <v type="int" >       48      127      128      142      190 </v>
   <v type="int" >       48      127      128      129      190 </v>
   <v type="int" >       48      127      141      189      190 </v>
   <v type="int" >       48      127      130      189      190 </v>
   <v type="int" >       48      127      129      130      190 </v>
   <v type="int" >       48      128      142      143      191 </v>
   <v type="int" >       48      128      129      143      191 </v>
   <v type="int" >       48      128      128      129      191 </v>
   <v type="int" >       48      128      142      190      191 </v>
   <v type="int" >       48      128      129      190      191 </v>
   <v type="int" >       48      129      143      144      190 </v>
   <v type="int" >       48      129      130      144      190 </v>
   <v type="int" >       48      129      143      190      191 </v>
   <v type="int" >       48      130      144      145      189 </v>
   <v type="int" >       48      130      131      145      189 </v>
   <v type="int" >       48      130      144      189      190 </v>
   <v type="int" >       48      131      145      146      188 </v>
   <v type="int" >       48      131      132      146      188 </v>
   <v type="int" >       48      131      145      188      189 </v>
   <v type="int" >       48      132      146      147      187 </v>
   <v type="int" >       48      132      133      147      187 </v>
   <v type="int" >       48      132      146      187      188 </v>
   <v type="int" >       48      133      147      148      186 </v>
   <v type="int" >       48      133      134      148      186 </v>
   <v type="int" >       48      133      147      186      187 </v>
   <v type="int" >       24      134      134      148      185 </v>
   <v type="int" >       24      134      134      135      185 </v>
   <v type="int" >       48      134      148      185      186 </v>
   <v type="int" >       24      136      137      137      149 </v>
   <v type="int" >       24      136      137      137      185 </v>
   <v type="int" >       48      137      149      150      192 </v>
   <v type="int" >       48      137      138      150      192 </v>
   <v type="int" >       48      137      138      186      192 </v>
   <v type="int" >       24      137      137      149      192 </v>
   <v type="int" >       24      137      137      185      192 </v>
   <v type="int" >       48      137      185      186      192 </v>
   <v type="int" >       48      138      150      151      193 </v>
   <v type="int" >       48      138      139      151      193 </v>
   <v type="int" >       48      138      139      187      193 </v>
   <v type="int" >       48      138      150      192      193 </v>
   <v type="int" >       48      138      186      192      193 </v>
   <v type="int" >       48      138      186      187      193 </v>
   <v type="int" >       48      139      151      152      194 </v>
   <v type="int" >       48      139      140      152      194 </v>
   <v type="int" >       48      139      140      188      194 </v>
   <v type="int" >       48      139      151      193      194 </v>
   <v type="int" >       48      139      187      193      194 </v>
   <v type="int" >       48      139      187      188      194 </v>
   <v type="int" >       48      140      152      153      195 </v>
   <v type="int" >       48      140      141      153      195 </v>
   <v type="int" >       48      140      141      189      195 </v>
   <v type="int" >       48      140      152      194      195 </v>
   <v type="int" >       48      140      188      194      195 </v>
   <v type="int" >       48      140      188      189      195 </v>
   <v type="int" >       48      141      153      154      196 </v>
   <v type="int" >       48      141      142      154      196 </v>
   <v type="int" >       48      141      142      190      196 </v>
   <v type="int" >       48      141      153      195      196 </v>
   <v type="int" >       48      141      189      195      196 </v>
   <v type="int" >       48      141      189      190      196 </v>
   <v type="int" >       48      142      154      155      197 </v>
   <v type="int" >       48      142      143      155      197 </v>
   <v type="int" >       48      142      143      191      197 </v>
   <v type="int" >       48      142      154      196      197 </v>
   <v type="int" >       48      142      190      196      197 </v>
   <v type="int" >       48      142      190      191      197 </v>
   <v type="int" >       48      143      155      156      198 </v>
   <v type="int" >       48      143      144      156      198 </v>
   <v type="int" >       48      143      144      190      198 </v>
   <v type="int" >       48      143      155      197      198 </v>
   <v type="int" >       48      143      191      197      198 </v>
   <v type="int" >       48      143      190      191      198 </v>
   <v type="int" >       48      144      156      157      199 </v>
   <v type="int" >       48      144      145      157      199 </v>
   <v type="int" >       48      144      145      189      199 </v>
   <v type="int" >       48      144      156      198      199 </v>
   <v type="int" >       48      144      190      198      199 </v>
   <v type="int" >       48      144      189      190      199 </v>
   <v type="int" >       48      145      157      158      200 </v>
   <v type="int" >       48      145      146      158      200 </v>
   <v type="int" >       48      145      146      188      200 </v>
   <v type="int" >       48      145      157      199      200 </v>
   <v type="int" >       48      145      189      199      200 </v>
   <v type="int" >       48      145      188      189      200 </v>
   <v type="int" >       48      146      158      159      201 </v>
   <v type="int" >       48      146      147      159      201 </v>
   <v type="int" >       48      146      147      187      201 </v>
   <v type="int" >       48      146      158      200      201 </v>
   <v type="int" >       48      146      188      200      201 </v>
   <v type="int" >       48      146      187      188      201 </v>
   <v type="int" >       24      147      147      159      202 </v>
   <v type="int" >       24      147      147      148      202 </v>
   <v type="int" >       48      147      148      186      202 </v>
   <v type="int" >       48      147      159      201      202 </v>
   <v type="int" >       48      147      187      201      202 </v>
   <v type="int" >       48      147      186      187      202 </v>
   <v type="int" >       24      148      186      186      202 </v>
   <v type="int" >       24      148      185      186      186 </v>
   <v type="int" >       24      149      150      150      160 </v>
   <v type="int" >       24      149      150      150      192 </v>
   <v type="int" >       48      150      160      161      203 </v>
   <v type="int" >       48      150      151      161      203 </v>
   <v type="int" >       48      150      151      193      203 </v>
   <v type="int" >       24      150      150      160      203 </v>
   <v type="int" >       24      150      150      192      203 </v>
   <v type="int" >       48      150      192      193      203 </v>
   <v type="int" >       48      151      161      162      204 </v>
   <v type="int" >       48      151      152      162      204 </v>
   <v type="int" >       48      151      152      194      204 </v>
   <v type="int" >       48      151      161      203      204 </v>
   <v type="int" >       48      151      193      203      204 </v>
   <v type="int" >       48      151      193      194      204 </v>
   <v type="int" >       48      152      162      163      205 </v>
   <v type="int" >       48      152      153      163      205 </v>
   <v type="int" >       48      152      153      195      205 </v>
   <v type="int" >       48      152      162      204      205 </v>
   <v type="int" >       48      152      194      204      205 </v>
   <v type="int" >       48      152      194      195      205 </v>
   <v type="int" >       48      153      163      164      206 </v>
   <v type="int" >       48      153      154      164      206 </v>
   <v type="int" >       48      153      154      196      206 </v>
   <v type="int" >       48      153      163      205      206 </v>
   <v type="int" >       48      153      195      205      206 </v>
   <v type="int" >       48      153      195      196      206 </v>
   <v type="int" >       48      154      164      165      207 </v>
   <v type="int" >       48      154      155      165      207 </v>
   <v type="int" >       48      154      155      197      207 </v>
   <v type="int" >       48      154      164      206      207 </v>
   <v type="int" >       48      154      196      206      207 </v>
   <v type="int" >       48      154      196      197      207 </v>
   <v type="int" >       48      155      165      166      208 </v>
   <v type="int" >       48      155      156      166      208 </v>
   <v type="int" >       48      155      156      198      208 </v>
   <v type="int" >       48      155      165      207      208 </v>
   <v type="int" >       48      155      197      207      208 </v>
   <v type="int" >       48      155      197      198      208 </v>
   <v type="int" >       48      156      166      167      209 </v>
   <v type="int" >       48      156      157      167      209 </v>
   <v type="int" >       48      156      157      199      209 </v>
   <v type="int" >       48      156      166      208      209 </v>
   <v type="int" >       48      156      198      208      209 </v>
   <v type="int" >       48      156      198      199      209 </v>
   <v type="int" >       48      157      167      168      210 </v>
   <v type="int" >       48      157      158      168      210 </v>
   <v type="int" >       48      157      158      200      210 </v>
   <v type="int" >       48      157      167      209      210 </v>
   <v type="int" >       48      157      199      209      210 </v>
   <v type="int" >       48      157      199      200      210 </v>
   <v type="int" >       24      158      158      168      211 </v>
   <v type="int" >       24      158      158      159      211 </v>
   <v type="int" >       48      158      159      201      211 </v>
   <v type="int" >       48      158      168      210      211 </v>
   <v type="int" >       48      158      200      210      211 </v>
   <v type="int" >       48      158      200      201      211 </v>
   <v type="int" >       24      159      201      201      211 </v>
   <v type="int" >       24      159      201      201      202 </v>
   <v type="int" >       24      160      161      161      169 </v>
   <v type="int" >       24      160      161      161      203 </v>
   <v type="int" >       48      161      169      170      212 </v>
   <v type="int" >       48      161      162      170      212 </v>
   <v type="int" >       48      161      162      204      212 </v>
   <v type="int" >       24      161      161      169      212 </v>
   <v type="int" >       24      161      161      203      212 </v>
   <v type="int" >       48      161      203      204      212 </v>
   <v type="int" >       48      162      170      171      213 </v>
   <v type="int" >       48      162      163      171      213 </v>
   <v type="int" >       48      162      163      205      213 </v>
   <v type="int" >       48      162      170      212      213 </v>
   <v type="int" >       48      162      204      212      213 </v>
   <v type="int" >       48      162      204      205      213 </v>
   <v type="int" >       48      163      171      172      214 </v>
   <v type="int" >       48      163      164      172      214 </v>
   <v type="int" >       48      163      164      206      214 </v>
   <v type="int" >       48      163      171      213      214 </v>
   <v type="int" >       48      163      205      213      214 </v>
   <v type="int" >       48      163      205      206      214 </v>
   <v type="int" >       48      164      172      173      215 </v>
   <v type="int" >       48      164      165      173      215 </v>
   <v type="int" >       48      164      165      207      215 </v>
   <v type="int" >       48      164      172      214      215 </v>
   <v type="int" >       48      164      206      214      215 </v>
   <v type="int" >       48      164      206      207      215 </v>
   <v type="int" >       48      165      173      174      216 </v>
   <v type="int" >       48      165      166      174      216 </v>
   <v type="int" >       48      165      166      208      216 </v>
   <v type="int" >       48      165      173      215      216 </v>
   <v type="int" >       48      165      207      215      216 </v>
   <v type="int" >       48      165      207      208      216 </v>
   <v type="int" >       48      166      174      175      217 </v>
   <v type="int" >       48      166      167      175      217 </v>
   <v type="int" >       48      166      167      209      217 </v>
   <v type="int" >       48      166      174      216      217 </v>
   <v type="int" >       48      166      208      216      217 </v>
   <v type="int" >       48      166      208      209      217 </v>
   <v type="int" >       24      167      167      175      218 </v>
   <v type="int" >       24      167      167      168      218 </v>
   <v type="int" >       48      167      168      210      218 </v>
   <v type="int" >       48      167      175      217      218 </v>
   <v type="int" >       48      167      209      217      218 </v>
   <v type="int" >       48      167      209      210      218 </v>
   <v type="int" >       24      168      210      210      218 </v>
   <v type="int" >       24      168      210      210      211 </v>
   <v type="int" >       24      169      170      170      176 </v>
   <v type="int" >       24      169      170      170      212 </v>
   <v type="int" >       48      170      176      177      219 </v>
[...]
       <r>   -1.2127    1.0000 </r>
       <r>    2.1809    1.0000 </r>
       <r>    2.4895    1.0000 </r>
       <r>    8.1865    0.0000 </r>
       <r>    8.4360    0.0000 </r>
       <r>   12.1719    0.0000 </r>
       <r>   13.9590    0.0000 </r>
      </set>
      <set comment="kpoint 246">
       <r>   -2.1975    1.0000 </r>
       <r>   -1.5206    1.0000 </r>
       <r>    1.9334    1.0000 </r>
       <r>    2.4298    1.0000 </r>
       <r>    8.3988    0.0000 </r>
       <r>    9.1645    0.0000 </r>
       <r>   11.9664    0.0000 </r>
       <r>   12.8567    0.0000 </r>
      </set>
      <set comment="kpoint 247">
       <r>   -2.1897    1.0000 </r>
       <r>   -1.5056    1.0000 </r>
       <r>    1.6957    1.0000 </r>
       <r>    2.5516    1.0000 </r>
       <r>    8.5545    0.0000 </r>
       <r>   10.0915    0.0000 </r>
       <r>   11.7210    0.0000 </r>
       <r>   11.9043    0.0000 </r>
      </set>
      <set comment="kpoint 248">
       <r>   -1.8809    1.0000 </r>
       <r>   -1.8809    1.0000 </r>
       <r>    2.2718    1.0000 </r>
       <r>    2.2718    1.0000 </r>
       <r>    8.2608    0.0000 </r>
       <r>    8.2608    0.0000 </r>
       <r>   13.0386    0.0000 </r>
       <r>   13.0387    0.0000 </r>
      </set>
      <set comment="kpoint 249">
       <r>   -2.9777    1.0000 </r>
       <r>   -0.7286    1.0000 </r>
       <r>    1.8527    1.0000 </r>
       <r>    2.8399    1.0000 </r>
       <r>    9.2329    0.0000 </r>
       <r>    9.6078    0.0000 </r>
       <r>   10.2755    0.0000 </r>
       <r>   13.6334    0.0000 </r>
      </set>
      <set comment="kpoint 250">
       <r>   -2.6325    1.0000 </r>
       <r>   -1.0710    1.0000 </r>
       <r>    1.7316    1.0000 </r>
       <r>    2.6545    1.0000 </r>
       <r>    9.4641    0.0000 </r>
       <r>    9.8424    0.0000 </r>
       <r>   10.5451    0.0000 </r>
       <r>   12.5323    0.0000 </r>
      </set>
      <set comment="kpoint 251">
       <r>   -2.4662    1.0000 </r>
       <r>   -1.2381    1.0000 </r>
       <r>    1.6948    1.0000 </r>
       <r>    2.5886    1.0000 </r>
       <r>    9.5074    0.0000 </r>
       <r>    9.8279    0.0000 </r>
       <r>   11.2406    0.0000 </r>
       <r>   11.6842    0.0000 </r>
      </set>
      <set comment="kpoint 252">
       <r>   -2.4130    1.0000 </r>
       <r>   -1.2719    1.0000 </r>
       <r>    1.8855    1.0000 </r>
       <r>    2.3767    1.0000 </r>
       <r>    9.2092    0.0000 </r>
       <r>    9.4115    0.0000 </r>
       <r>   10.9540    0.0000 </r>
       <r>   12.6702    0.0000 </r>
      </set>
      <set comment="kpoint 253">
       <r>   -2.1539    1.0000 </r>
       <r>   -1.5081    1.0000 </r>
       <r>    1.7969    1.0000 </r>
       <r>    2.2787    1.0000 </r>
       <r>    9.4215    0.0000 </r>
       <r>   10.1383    0.0000 </r>
       <r>   10.8524    0.0000 </r>
       <r>   11.6230    0.0000 </r>
      </set>
      <set comment="kpoint 254">
       <r>   -2.2911    1.0000 </r>
       <r>   -1.3731    1.0000 </r>
       <r>    1.7130    1.0000 </r>
       <r>    2.4003    1.0000 </r>
       <r>    9.5745    0.0000 </r>
       <r>   10.2712    0.0000 </r>
       <r>   10.7390    0.0000 </r>
       <r>   11.4973    0.0000 </r>
      </set>
      <set comment="kpoint 255">
       <r>   -1.8377    1.0000 </r>
       <r>   -1.8377    1.0000 </r>
       <r>    2.0570    1.0000 </r>
       <r>    2.0570    1.0000 </r>
       <r>    9.2682    0.0000 </r>
       <r>    9.2683    0.0000 </r>
       <r>   11.7683    0.0000 </r>
       <r>   11.7684    0.0000 </r>
      </set>
      <set comment="kpoint 256">
       <r>   -1.8205    1.0000 </r>
       <r>   -1.8205    1.0000 </r>
       <r>    1.9795    1.0000 </r>
       <r>    1.9795    1.0000 </r>
       <r>   10.1069    0.0000 </r>
       <r>   10.1070    0.0000 </r>
       <r>   10.8447    0.0000 </r>
       <r>   10.8447    0.0000 </r>
      </set>
     </set>
    </set>
   </array>
  </eigenvalues>
  <separator name="orbital magnetization" >
   <v name="MAGDIPOLOUT">      0.00000000      0.00000000      0.00000000</v>
  </separator>
  <dos>
   <i name="efermi">      5.87693166 </i>
   <total>
    <array>
     <dimension dim="1">gridpoints</dimension>
     <dimension dim="2">spin</dimension>
     <field>energy</field>
     <field>total</field>
     <field>integrated</field>
     <set>
      <set comment="spin 1">
       <r>    -8.1306     0.0000     0.0000 </r>
       <r>    -8.0436     0.0000     0.0000 </r>
       <r>    -7.9566     0.0000     0.0000 </r>
       <r>    -7.8697     0.0000     0.0000 </r>
       <r>    -7.7827     0.0000     0.0000 </r>
       <r>    -7.6957     0.0000     0.0000 </r>
       <r>    -7.6088     0.0000     0.0000 </r>
       <r>    -7.5218     0.0000     0.0000 </r>
       <r>    -7.4348     0.0000     0.0000 </r>
       <r>    -7.3478     0.0000     0.0000 </r>
       <r>    -7.2609     0.0000     0.0000 </r>
       <r>    -7.1739     0.0000     0.0000 </r>
       <r>    -7.0869     0.0000     0.0000 </r>
       <r>    -7.0000     0.0000     0.0000 </r>
       <r>    -6.9130     0.0000     0.0000 </r>
       <r>    -6.8260     0.0000     0.0000 </r>
       <r>    -6.7391     0.0000     0.0000 </r>
       <r>    -6.6521     0.0000     0.0000 </r>
       <r>    -6.5651     0.0000     0.0000 </r>
       <r>    -6.4781     0.0000     0.0000 </r>
       <r>    -6.3912     0.0000     0.0000 </r>
       <r>    -6.3042     0.0000     0.0000 </r>
       <r>    -6.2172     0.0000     0.0000 </r>
       <r>    -6.1303     0.0000     0.0000 </r>
       <r>    -6.0433     0.0974     0.0048 </r>
       <r>    -5.9563     0.1393     0.0151 </r>
       <r>    -5.8694     0.1725     0.0289 </r>
       <r>    -5.7824     0.2051     0.0452 </r>
       <r>    -5.6954     0.2276     0.0641 </r>
       <r>    -5.6085     0.2532     0.0849 </r>
       <r>    -5.5215     0.2742     0.1079 </r>
       <r>    -5.4345     0.2952     0.1327 </r>
       <r>    -5.3475     0.3178     0.1593 </r>
       <r>    -5.2606     0.3353     0.1877 </r>
       <r>    -5.1736     0.3546     0.2177 </r>
       <r>    -5.0866     0.3752     0.2494 </r>
       <r>    -4.9997     0.3926     0.2828 </r>
       <r>    -4.9127     0.4110     0.3178 </r>
       <r>    -4.8257     0.4309     0.3544 </r>
       <r>    -4.7388     0.4502     0.3927 </r>
       <r>    -4.6518     0.4692     0.4327 </r>
       <r>    -4.5648     0.4896     0.4744 </r>
       <r>    -4.4779     0.5115     0.5179 </r>
       <r>    -4.3909     0.5339     0.5634 </r>
       <r>    -4.3039     0.5577     0.6108 </r>
       <r>    -4.2169     0.5847     0.6605 </r>
       <r>    -4.1300     0.6151     0.7126 </r>
       <r>    -4.0430     0.6508     0.7676 </r>
       <r>    -3.9560     0.6961     0.8261 </r>
       <r>    -3.8691     0.7650     0.8893 </r>
       <r>    -3.7821     0.8873     0.9628 </r>
       <r>    -3.6951     0.8535     1.0391 </r>
       <r>    -3.6082     0.8432     1.1145 </r>
       <r>    -3.5212     0.8175     1.1866 </r>
       <r>    -3.4342     0.7777     1.2561 </r>
       <r>    -3.3473     0.7609     1.3230 </r>
       <r>    -3.2603     0.7237     1.3878 </r>
       <r>    -3.1733     0.6971     1.4495 </r>
       <r>    -3.0863     0.6691     1.5089 </r>
       <r>    -2.9994     0.6344     1.5656 </r>
       <r>    -2.9124     0.6081     1.6196 </r>
       <r>    -2.8254     0.5779     1.6712 </r>
       <r>    -2.7385     0.5422     1.7199 </r>
       <r>    -2.6515     0.5107     1.7658 </r>
       <r>    -2.5645     0.4810     1.8089 </r>
       <r>    -2.4776     0.4459     1.8493 </r>
       <r>    -2.3906     0.4112     1.8865 </r>
       <r>    -2.3036     0.3843     1.9211 </r>
       <r>    -2.2167     0.3413     1.9526 </r>
       <r>    -2.1297     0.2224     1.9790 </r>
       <r>    -2.0427     0.1019     1.9927 </r>
       <r>    -1.9557     0.0372     1.9983 </r>
       <r>    -1.8688     0.0345     2.0010 </r>
       <r>    -1.7818     0.0913     2.0060 </r>
       <r>    -1.6948     0.1743     2.0175 </r>
       <r>    -1.6079     0.2601     2.0365 </r>
       <r>    -1.5209     0.3274     2.0616 </r>
       <r>    -1.4339     0.3709     2.0921 </r>
       <r>    -1.3470     0.4240     2.1264 </r>
       <r>    -1.2600     0.4761     2.1655 </r>
       <r>    -1.1730     0.5522     2.2103 </r>
       <r>    -1.0861     0.8280     2.2647 </r>
       <r>    -0.9991     1.3054     2.3538 </r>
       <r>    -0.9121     1.6868     2.5082 </r>
       <r>    -0.8251     1.1326     2.6244 </r>
       <r>    -0.7382     0.9482     2.7138 </r>
       <r>    -0.6512     0.8353     2.7911 </r>
       <r>    -0.5642     0.7494     2.8599 </r>
       <r>    -0.4773     0.6836     2.9220 </r>
       <r>    -0.3903     0.6379     2.9794 </r>
       <r>    -0.3033     0.5965     3.0331 </r>
       <r>    -0.2164     0.5587     3.0833 </r>
       <r>    -0.1294     0.5194     3.1302 </r>
       <r>    -0.0424     0.4924     3.1741 </r>
       <r>     0.0446     0.4691     3.2159 </r>
       <r>     0.1315     0.4463     3.2557 </r>
       <r>     0.2185     0.4214     3.2934 </r>
       <r>     0.3055     0.3951     3.3290 </r>
       <r>     0.3924     0.3786     3.3626 </r>
       <r>     0.4794     0.3636     3.3948 </r>
       <r>     0.5664     0.3477     3.4258 </r>
       <r>     0.6533     0.3313     3.4553 </r>
       <r>     0.7403     0.3125     3.4834 </r>
       <r>     0.8273     0.2964     3.5098 </r>
       <r>     0.9142     0.2857     3.5351 </r>
       <r>     1.0012     0.2749     3.5595 </r>
       <r>     1.0882     0.2640     3.5829 </r>
       <r>     1.1752     0.2508     3.6053 </r>
       <r>     1.2621     0.2379     3.6265 </r>
       <r>     1.3491     0.2245     3.6465 </r>
       <r>     1.4361     0.2397     3.6659 </r>
       <r>     1.5230     0.5890     3.7050 </r>
       <r>     1.6100     0.8329     3.7678 </r>
       <r>     1.6970     1.1582     3.8527 </r>
       <r>     1.7839     1.2216     3.9636 </r>
       <r>     1.8709     1.1525     4.0668 </r>
       <r>     1.9579     1.0937     4.1649 </r>
       <r>     2.0448     1.0231     4.2564 </r>
       <r>     2.1318     1.0068     4.3447 </r>
       <r>     2.2188     1.0396     4.4335 </r>
       <r>     2.3058     1.0303     4.5229 </r>
       <r>     2.3927     1.0353     4.6129 </r>
       <r>     2.4797     1.0443     4.7041 </r>
       <r>     2.5667     1.0893     4.7976 </r>
       <r>     2.6536     1.1541     4.8955 </r>
       <r>     2.7406     1.1766     4.9969 </r>
       <r>     2.8276     1.2203     5.1011 </r>
       <r>     2.9145     1.4113     5.2153 </r>
       <r>     3.0015     1.5954     5.3421 </r>
       <r>     3.0885     1.5515     5.4764 </r>
       <r>     3.1754     1.4878     5.6074 </r>
       <r>     3.2624     1.4710     5.7360 </r>
       <r>     3.3494     1.4381     5.8625 </r>
       <r>     3.4364     1.4283     5.9870 </r>
       <r>     3.5233     1.4026     6.1102 </r>
       <r>     3.6103     1.3643     6.2305 </r>
       <r>     3.6973     1.3441     6.3481 </r>
       <r>     3.7842     1.3217     6.4641 </r>
       <r>     3.8712     1.3016     6.5782 </r>
       <r>     3.9582     1.2824     6.6906 </r>
       <r>     4.0451     1.2666     6.8015 </r>
       <r>     4.1321     1.2351     6.9102 </r>
       <r>     4.2191     1.2173     7.0169 </r>
       <r>     4.3060     1.2126     7.1225 </r>
       <r>     4.3930     1.1966     7.2268 </r>
       <r>     4.4800     1.1804     7.3302 </r>
       <r>     4.5670     1.1495     7.4315 </r>
       <r>     4.6539     0.9440     7.5262 </r>
       <r>     4.7409     0.7864     7.6006 </r>
       <r>     4.8279     0.6821     7.6643 </r>
       <r>     4.9148     0.6013     7.7202 </r>
       <r>     5.0018     0.5285     7.7691 </r>
       <r>     5.0888     0.4704     7.8125 </r>
       <r>     5.1757     0.4150     7.8509 </r>
       <r>     5.2627     0.3638     7.8849 </r>
       <r>     5.3497     0.3147     7.9144 </r>
       <r>     5.4366     0.2658     7.9395 </r>
       <r>     5.5236     0.2355     7.9614 </r>
       <r>     5.6106     0.1780     7.9792 </r>
       <r>     5.6976     0.1152     7.9925 </r>
       <r>     5.7845     0.0320     7.9996 </r>
       <r>     5.8715     0.0000     8.0000 </r>
       <r>     5.9585     0.0000     8.0000 </r>
       <r>     6.0454     0.0000     8.0000 </r>
       <r>     6.1324     0.0000     8.0000 </r>
       <r>     6.2194     0.0000     8.0000 </r>
       <r>     6.3063     0.0000     8.0000 </r>
       <r>     6.3933     0.0000     8.0000 </r>
       <r>     6.4803     0.0528     8.0015 </r>
       <r>     6.5673     0.1561     8.0108 </r>
       <r>     6.6542     0.2254     8.0274 </r>
       <r>     6.7412     0.3025     8.0503 </r>
       <r>     6.8282     0.3653     8.0798 </r>
       <r>     6.9151     0.4056     8.1131 </r>
       <r>     7.0021     0.4468     8.1502 </r>
       <r>     7.0891     0.4922     8.1910 </r>
       <r>     7.1760     0.5401     8.2359 </r>
       <r>     7.2630     0.5908     8.2851 </r>
       <r>     7.3500     0.6417     8.3387 </r>
       <r>     7.4369     0.7100     8.3973 </r>
       <r>     7.5239     0.7899     8.4624 </r>
       <r>     7.6109     0.8925     8.5356 </r>
       <r>     7.6979     0.9686     8.6162 </r>
       <r>     7.7848     1.0633     8.7045 </r>
       <r>     7.8718     1.1690     8.8014 </r>
       <r>     7.9588     1.3157     8.9086 </r>
       <r>     8.0457     1.6259     9.0385 </r>
       <r>     8.1327     1.6936     9.1837 </r>
       <r>     8.2197     1.7189     9.3312 </r>
       <r>     8.3066     1.5634     9.4719 </r>
       <r>     8.3936     1.5176     9.6077 </r>
       <r>     8.4806     1.3500     9.7328 </r>
       <r>     8.5675     1.3105     9.8489 </r>
       <r>     8.6545     1.1527     9.9560 </r>
       <r>     8.7415     1.0715    10.0549 </r>
       <r>     8.8285     1.0747    10.1480 </r>
       <r>     8.9154     1.0252    10.2397 </r>
       <r>     9.0024     0.9305    10.3239 </r>
       <r>     9.0894     1.5058    10.4116 </r>
       <r>     9.1763     2.4119    10.6038 </r>
       <r>     9.2633     2.0309    10.7893 </r>
       <r>     9.3503     1.8396    10.9566 </r>
       <r>     9.4372     1.7647    11.1136 </r>
       <r>     9.5242     1.9142    11.2705 </r>
       <r>     9.6112     1.8579    11.4399 </r>
       <r>     9.6981     1.5828    11.5887 </r>
       <r>     9.7851     1.3802    11.7170 </r>
       <r>     9.8721     1.3213    11.8339 </r>
       <r>     9.9591     1.1823    11.9435 </r>
       <r>    10.0460     1.0973    12.0410 </r>
       <r>    10.1330     1.1393    12.1359 </r>
       <r>    10.2200     1.1181    12.2360 </r>
       <r>    10.3069     1.2951    12.3392 </r>
       <r>    10.3939     1.5332    12.4689 </r>
       <r>    10.4809     1.1290    12.5826 </r>
       <r>    10.5678     1.1131    12.6788 </r>
       <r>    10.6548     1.2117    12.7806 </r>
       <r>    10.7418     1.2236    12.8854 </r>
       <r>    10.8287     1.3812    13.0014 </r>
       <r>    10.9157     1.1725    13.1114 </r>
       <r>    11.0027     1.1707    13.2109 </r>
       <r>    11.0897     1.1869    13.3120 </r>
       <r>    11.1766     1.1912    13.4172 </r>
       <r>    11.2636     1.1397    13.5181 </r>
       <r>    11.3506     1.1918    13.6187 </r>
       <r>    11.4375     1.1607    13.7195 </r>
       <r>    11.5245     1.1335    13.8192 </r>
       <r>    11.6115     1.1443    13.9184 </r>
       <r>    11.6984     1.0940    14.0163 </r>
       <r>    11.7854     1.0561    14.1095 </r>
       <r>    11.8724     1.0162    14.2006 </r>
       <r>    11.9593     0.9530    14.2850 </r>
       <r>    12.0463     0.9470    14.3675 </r>
       <r>    12.1333     0.9565    14.4510 </r>
       <r>    12.2203     0.8312    14.5277 </r>
       <r>    12.3072     0.8337    14.5998 </r>
       <r>    12.3942     0.9237    14.6758 </r>
       <r>    12.4812     1.0179    14.7602 </r>
       <r>    12.5681     1.0813    14.8516 </r>
       <r>    12.6551     1.1220    14.9482 </r>
       <r>    12.7421     0.8238    15.0360 </r>
       <r>    12.8290     0.7523    15.1042 </r>
       <r>    12.9160     0.7099    15.1677 </r>
       <r>    13.0030     0.6784    15.2280 </r>
       <r>    13.0900     0.6537    15.2859 </r>
       <r>    13.1769     0.6318    15.3418 </r>
       <r>    13.2639     0.6062    15.3957 </r>
       <r>    13.3509     0.5801    15.4473 </r>
       <r>    13.4378     0.5581    15.4967 </r>
       <r>    13.5248     0.5322    15.5438 </r>
       <r>    13.6118     0.5771    15.5910 </r>
       <r>    13.6987     0.7574    15.6534 </r>
       <r>    13.7857     0.5239    15.7071 </r>
       <r>    13.8727     0.4054    15.7476 </r>
       <r>    13.9596     0.2795    15.7766 </r>
       <r>    14.0466     0.2352    15.7987 </r>
       <r>    14.1336     0.2181    15.8183 </r>
       <r>    14.2206     0.2096    15.8369 </r>
       <r>    14.3075     0.2005    15.8547 </r>
       <r>    14.3945     0.1911    15.8717 </r>
       <r>    14.4815     0.1809    15.8879 </r>
       <r>    14.5684     0.1681    15.9031 </r>
       <r>    14.6554     0.1444    15.9165 </r>
       <r>    14.7424     0.1330    15.9288 </r>
       <r>    14.8293     0.1161    15.9396 </r>
       <r>    14.9163     0.1012    15.9490 </r>
       <r>    15.0033     0.0884    15.9572 </r>
       <r>    15.0902     0.0776    15.9644 </r>
       <r>    15.1772     0.0695    15.9708 </r>
       <r>    15.2642     0.0653    15.9766 </r>
       <r>    15.3512     0.0657    15.9823 </r>
       <r>    15.4381     0.0654    15.9880 </r>
       <r>    15.5251     0.0644    15.9936 </r>
       <r>    15.6121     0.0246    15.9971 </r>
       <r>    15.6990     0.0138    15.9988 </r>
       <r>    15.7860     0.0061    15.9996 </r>
       <r>    15.8730     0.0015    16.0000 </r>
       <r>    15.9599     0.0000    16.0000 </r>
       <r>    16.0469     0.0000    16.0000 </r>
       <r>    16.1339     0.0000    16.0000 </r>
       <r>    16.2208     0.0000    16.0000 </r>
       <r>    16.3078     0.0000    16.0000 </r>
       <r>    16.3948     0.0000    16.0000 </r>
       <r>    16.4818     0.0000    16.0000 </r>
       <r>    16.5687     0.0000    16.0000 </r>
       <r>    16.6557     0.0000    16.0000 </r>
       <r>    16.7427     0.0000    16.0000 </r>
       <r>    16.8296     0.0000    16.0000 </r>
       <r>    16.9166     0.0000    16.0000 </r>
       <r>    17.0036     0.0000    16.0000 </r>
       <r>    17.0905     0.0000    16.0000 </r>
       <r>    17.1775     0.0000    16.0000 </r>
       <r>    17.2645     0.0000    16.0000 </r>
       <r>    17.3514     0.0000    16.0000 </r>
       <r>    17.4384     0.0000    16.0000 </r>
       <r>    17.5254     0.0000    16.0000 </r>
       <r>    17.6124     0.0000    16.0000 </r>
       <r>    17.6993     0.0000    16.0000 </r>
       <r>    17.7863     0.0000    16.0000 </r>
       <r>    17.8733     0.0000    16.0000 </r>
       <r>    17.9602     0.0000    16.0000 </r>
      </set>
     </set>
    </array>
   </total>
  </dos>
 </calculation>
 <structure name="finalpos" >
  <crystal>
   <varray name="basis" >
    <v>       0.00000000       2.71500000       2.71500000 </v>
    <v>       2.71500000       0.00000000       2.71500000 </v>
    <v>       2.71500000       2.71500000       0.00000000 </v>
   </varray>
   <i name="volume">     40.02575175 </i>
   <varray name="rec_basis" >
    <v>      -0.18416206       0.18416206       0.18416206 </v>
    <v>       0.18416206      -0.18416206       0.18416206 </v>
    <v>       0.18416206       0.18416206      -0.18416206 </v>
   </varray>
  </crystal>
  <varray name="positions" >
   <v>       0.00000000       0.00000000       0.00000000 </v>
   <v>       0.25000000       0.25000000       0.25000000 </v>
  </varray>
 </structure>
</modeling>
