  16  16   0   0
  0.1798157E+02  0.6601600E-09  0.6601600E-09  0.6601600E-09  0.5000000E-15
  1.000000000000000E-004
  CAR 
 Nb tetrahedron                          
     10.94350896    -28.07316817  301      4.83917906      1.00000000
    -28.073  0.0000E+00  0.0000E+00
    -27.943  0.0000E+00  0.0000E+00
    -27.813  0.0000E+00  0.0000E+00
    -27.683  0.0000E+00  0.0000E+00
    -27.553  0.0000E+00  0.0000E+00
    -27.423  0.0000E+00  0.0000E+00
    -27.293  0.0000E+00  0.0000E+00
    -27.163  0.0000E+00  0.0000E+00
    -27.033  0.0000E+00  0.0000E+00
    -26.903  0.0000E+00  0.0000E+00
    -26.773  0.0000E+00  0.0000E+00
    -26.643  0.0000E+00  0.0000E+00
    -26.513  0.0000E+00  0.0000E+00
    -26.382  0.0000E+00  0.0000E+00
    -26.252  0.0000E+00  0.0000E+00
    -26.122  0.0000E+00  0.0000E+00
    -25.992  0.2988E+02  0.1521E+01
    -25.862  0.6619E+02  0.7746E+01
    -25.732  0.6434E+02  0.1951E+02
    -25.602  0.3609E+02  0.2616E+02
    -25.472  0.4925E+02  0.3215E+02
    -25.342  0.6069E+02  0.3938E+02
    -25.212  0.8317E+02  0.4849E+02
    -25.082  0.7222E+02  0.5954E+02
    -24.952  0.6867E+02  0.6893E+02
    -24.822  0.1461E+03  0.8256E+02
    -24.692  0.0000E+00  0.9600E+02
    -24.562  0.0000E+00  0.9600E+02
    -24.432  0.0000E+00  0.9600E+02
    -24.302  0.0000E+00  0.9600E+02
    -24.172  0.0000E+00  0.9600E+02
    -24.041  0.0000E+00  0.9600E+02
    -23.911  0.0000E+00  0.9600E+02
    -23.781  0.0000E+00  0.9600E+02
    -23.651  0.0000E+00  0.9600E+02
    -23.521  0.0000E+00  0.9600E+02
    -23.391  0.0000E+00  0.9600E+02
    -23.261  0.0000E+00  0.9600E+02
    -23.131  0.0000E+00  0.9600E+02
    -23.001  0.0000E+00  0.9600E+02
    -22.871  0.0000E+00  0.9600E+02
    -22.741  0.0000E+00  0.9600E+02
    -22.611  0.0000E+00  0.9600E+02
    -22.481  0.0000E+00  0.9600E+02
    -22.351  0.0000E+00  0.9600E+02
    -22.221  0.0000E+00  0.9600E+02
    -22.091  0.0000E+00  0.9600E+02
    -21.961  0.0000E+00  0.9600E+02
    -21.830  0.0000E+00  0.9600E+02
    -21.700  0.0000E+00  0.9600E+02
    -21.570  0.0000E+00  0.9600E+02
    -21.440  0.0000E+00  0.9600E+02
    -21.310  0.0000E+00  0.9600E+02
    -21.180  0.0000E+00  0.9600E+02
    -21.050  0.0000E+00  0.9600E+02
    -20.920  0.0000E+00  0.9600E+02
    -20.790  0.0000E+00  0.9600E+02
    -20.660  0.0000E+00  0.9600E+02
    -20.530  0.0000E+00  0.9600E+02
    -20.400  0.0000E+00  0.9600E+02
    -20.270  0.0000E+00  0.9600E+02
    -20.140  0.0000E+00  0.9600E+02
    -20.010  0.0000E+00  0.9600E+02
    -19.880  0.0000E+00  0.9600E+02
    -19.750  0.0000E+00  0.9600E+02
    -19.620  0.0000E+00  0.9600E+02
    -19.489  0.0000E+00  0.9600E+02
    -19.359  0.0000E+00  0.9600E+02
    -19.229  0.0000E+00  0.9600E+02
    -19.099  0.0000E+00  0.9600E+02
    -18.969  0.0000E+00  0.9600E+02
    -18.839  0.0000E+00  0.9600E+02
    -18.709  0.0000E+00  0.9600E+02
    -18.579  0.0000E+00  0.9600E+02
    -18.449  0.0000E+00  0.9600E+02
    -18.319  0.0000E+00  0.9600E+02
    -18.189  0.0000E+00  0.9600E+02
    -18.059  0.0000E+00  0.9600E+02
    -17.929  0.0000E+00  0.9600E+02
    -17.799  0.0000E+00  0.9600E+02
    -17.669  0.0000E+00  0.9600E+02
    -17.539  0.0000E+00  0.9600E+02
    -17.409  0.0000E+00  0.9600E+02
    -17.279  0.0000E+00  0.9600E+02
    -17.148  0.0000E+00  0.9600E+02
    -17.018  0.0000E+00  0.9600E+02
    -16.888  0.0000E+00  0.9600E+02
    -16.758  0.0000E+00  0.9600E+02
    -16.628  0.0000E+00  0.9600E+02
    -16.498  0.0000E+00  0.9600E+02
    -16.368  0.0000E+00  0.9600E+02
    -16.238  0.0000E+00  0.9600E+02
    -16.108  0.0000E+00  0.9600E+02
    -15.978  0.0000E+00  0.9600E+02
    -15.848  0.0000E+00  0.9600E+02
    -15.718  0.0000E+00  0.9600E+02
    -15.588  0.0000E+00  0.9600E+02
    -15.458  0.0000E+00  0.9600E+02
    -15.328  0.0000E+00  0.9600E+02
    -15.198  0.0000E+00  0.9600E+02
    -15.068  0.0000E+00  0.9600E+02
    -14.938  0.0000E+00  0.9600E+02
    -14.807  0.0000E+00  0.9600E+02
    -14.677  0.0000E+00  0.9600E+02
    -14.547  0.0000E+00  0.9600E+02
    -14.417  0.0000E+00  0.9600E+02
    -14.287  0.0000E+00  0.9600E+02
    -14.157  0.0000E+00  0.9600E+02
    -14.027  0.0000E+00  0.9600E+02
    -13.897  0.0000E+00  0.9600E+02
    -13.767  0.0000E+00  0.9600E+02
    -13.637  0.0000E+00  0.9600E+02
    -13.507  0.0000E+00  0.9600E+02
    -13.377  0.0000E+00  0.9600E+02
    -13.247  0.0000E+00  0.9600E+02
    -13.117  0.0000E+00  0.9600E+02
    -12.987  0.0000E+00  0.9600E+02
    -12.857  0.0000E+00  0.9600E+02
    -12.727  0.0000E+00  0.9600E+02
    -12.597  0.0000E+00  0.9600E+02
    -12.466  0.0000E+00  0.9600E+02
    -12.336  0.0000E+00  0.9600E+02
    -12.206  0.0000E+00  0.9600E+02
    -12.076  0.0000E+00  0.9600E+02
    -11.946  0.0000E+00  0.9600E+02
    -11.816  0.0000E+00  0.9600E+02
    -11.686  0.0000E+00  0.9600E+02
    -11.556  0.0000E+00  0.9600E+02
    -11.426  0.0000E+00  0.9600E+02
    -11.296  0.0000E+00  0.9600E+02
    -11.166  0.0000E+00  0.9600E+02
    -11.036  0.0000E+00  0.9600E+02
    -10.906  0.0000E+00  0.9600E+02
    -10.776  0.0000E+00  0.9600E+02
    -10.646  0.0000E+00  0.9600E+02
    -10.516  0.0000E+00  0.9600E+02
    -10.386  0.0000E+00  0.9600E+02
    -10.256  0.0000E+00  0.9600E+02
    -10.125  0.0000E+00  0.9600E+02
     -9.995  0.0000E+00  0.9600E+02
     -9.865  0.0000E+00  0.9600E+02
     -9.735  0.0000E+00  0.9600E+02
     -9.605  0.0000E+00  0.9600E+02
     -9.475  0.0000E+00  0.9600E+02
     -9.345  0.0000E+00  0.9600E+02
     -9.215  0.0000E+00  0.9600E+02
     -9.085  0.0000E+00  0.9600E+02
     -8.955  0.0000E+00  0.9600E+02
     -8.825  0.0000E+00  0.9600E+02
     -8.695  0.0000E+00  0.9600E+02
     -8.565  0.0000E+00  0.9600E+02
     -8.435  0.0000E+00  0.9600E+02
     -8.305  0.0000E+00  0.9600E+02
     -8.175  0.0000E+00  0.9600E+02
     -8.045  0.0000E+00  0.9600E+02
     -7.915  0.0000E+00  0.9600E+02
     -7.784  0.0000E+00  0.9600E+02
     -7.654  0.0000E+00  0.9600E+02
     -7.524  0.0000E+00  0.9600E+02
     -7.394  0.0000E+00  0.9600E+02
     -7.264  0.0000E+00  0.9600E+02
     -7.134  0.0000E+00  0.9600E+02
     -7.004  0.0000E+00  0.9600E+02
     -6.874  0.0000E+00  0.9600E+02
     -6.744  0.0000E+00  0.9600E+02
     -6.614  0.0000E+00  0.9600E+02
     -6.484  0.0000E+00  0.9600E+02
     -6.354  0.0000E+00  0.9600E+02
     -6.224  0.0000E+00  0.9600E+02
     -6.094  0.0000E+00  0.9600E+02
     -5.964  0.0000E+00  0.9600E+02
     -5.834  0.0000E+00  0.9600E+02
     -5.704  0.0000E+00  0.9600E+02
     -5.574  0.0000E+00  0.9600E+02
     -5.443  0.0000E+00  0.9600E+02
     -5.313  0.0000E+00  0.9600E+02
     -5.183  0.0000E+00  0.9600E+02
     -5.053  0.0000E+00  0.9600E+02
     -4.923  0.0000E+00  0.9600E+02
     -4.793  0.0000E+00  0.9600E+02
     -4.663  0.0000E+00  0.9600E+02
     -4.533  0.0000E+00  0.9600E+02
     -4.403  0.0000E+00  0.9600E+02
     -4.273  0.0000E+00  0.9600E+02
     -4.143  0.0000E+00  0.9600E+02
     -4.013  0.0000E+00  0.9600E+02
     -3.883  0.0000E+00  0.9600E+02
     -3.753  0.0000E+00  0.9600E+02
     -3.623  0.0000E+00  0.9600E+02
     -3.493  0.0000E+00  0.9600E+02
     -3.363  0.0000E+00  0.9600E+02
     -3.233  0.0000E+00  0.9600E+02
     -3.102  0.0000E+00  0.9600E+02
     -2.972  0.0000E+00  0.9600E+02
     -2.842  0.0000E+00  0.9600E+02
     -2.712  0.0000E+00  0.9600E+02
     -2.582  0.0000E+00  0.9600E+02
     -2.452  0.0000E+00  0.9600E+02
     -2.322  0.0000E+00  0.9600E+02
     -2.192  0.0000E+00  0.9600E+02
     -2.062  0.0000E+00  0.9600E+02
     -1.932  0.0000E+00  0.9600E+02
     -1.802  0.0000E+00  0.9600E+02
     -1.672  0.0000E+00  0.9600E+02
     -1.542  0.0000E+00  0.9600E+02
     -1.412  0.0000E+00  0.9600E+02
     -1.282  0.0000E+00  0.9600E+02
     -1.152  0.0000E+00  0.9600E+02
     -1.022  0.2489E+00  0.9601E+02
     -0.892  0.4655E+00  0.9606E+02
     -0.761  0.6217E+00  0.9613E+02
     -0.631  0.7615E+00  0.9622E+02
     -0.501  0.8937E+00  0.9633E+02
     -0.371  0.1025E+01  0.9645E+02
     -0.241  0.1150E+01  0.9659E+02
     -0.111  0.1282E+01  0.9675E+02
      0.019  0.1425E+01  0.9693E+02
      0.149  0.1515E+01  0.9713E+02
      0.279  0.1729E+01  0.9733E+02
      0.409  0.1907E+01  0.9757E+02
      0.539  0.2104E+01  0.9783E+02
      0.669  0.2338E+01  0.9812E+02
      0.799  0.2626E+01  0.9844E+02
      0.929  0.2866E+01  0.9881E+02
      1.059  0.3456E+01  0.9922E+02
      1.189  0.9536E+01  0.1000E+03
      1.319  0.1496E+02  0.1017E+03
      1.449  0.1533E+02  0.1036E+03
      1.580  0.1650E+02  0.1058E+03
      1.710  0.1762E+02  0.1079E+03
      1.840  0.1800E+02  0.1102E+03
      1.970  0.1999E+02  0.1126E+03
      2.100  0.2448E+02  0.1154E+03
      2.230  0.2348E+02  0.1184E+03
      2.360  0.2119E+02  0.1213E+03
      2.490  0.2135E+02  0.1242E+03
      2.620  0.2065E+02  0.1270E+03
      2.750  0.1115E+02  0.1289E+03
      2.880  0.8849E+01  0.1302E+03
      3.010  0.7127E+01  0.1312E+03
      3.140  0.1997E+02  0.1323E+03
      3.270  0.2864E+02  0.1357E+03
      3.400  0.3808E+02  0.1396E+03
      3.530  0.3399E+02  0.1446E+03
      3.660  0.2568E+02  0.1485E+03
      3.790  0.1962E+02  0.1514E+03
      3.921  0.1783E+02  0.1538E+03
      4.051  0.1739E+02  0.1562E+03
      4.181  0.1823E+02  0.1585E+03
      4.311  0.1906E+02  0.1609E+03
      4.441  0.2566E+02  0.1636E+03
      4.571  0.3585E+02  0.1677E+03
      4.701  0.3063E+02  0.1722E+03
      4.831  0.2355E+02  0.1758E+03
      4.961  0.2062E+02  0.1787E+03
      5.091  0.1763E+02  0.1811E+03
      5.221  0.1097E+02  0.1829E+03
      5.351  0.8980E+01  0.1842E+03
      5.481  0.8550E+01  0.1853E+03
      5.611  0.7677E+01  0.1864E+03
      5.741  0.7940E+01  0.1874E+03
      5.871  0.7141E+01  0.1883E+03
      6.001  0.7337E+01  0.1893E+03
      6.131  0.7731E+01  0.1903E+03
      6.262  0.7900E+01  0.1913E+03
      6.392  0.8544E+01  0.1924E+03
      6.522  0.9907E+01  0.1936E+03
      6.652  0.1594E+02  0.1951E+03
      6.782  0.1385E+02  0.1970E+03
      6.912  0.1599E+02  0.1989E+03
      7.042  0.1494E+02  0.2009E+03
      7.172  0.1622E+02  0.2029E+03
      7.302  0.1706E+02  0.2051E+03
      7.432  0.1906E+02  0.2073E+03
      7.562  0.2111E+02  0.2100E+03
      7.692  0.1891E+02  0.2127E+03
      7.822  0.1918E+02  0.2153E+03
      7.952  0.2139E+02  0.2180E+03
      8.082  0.2645E+02  0.2208E+03
      8.212  0.2287E+02  0.2243E+03
      8.342  0.2253E+02  0.2272E+03
      8.472  0.2245E+02  0.2301E+03
      8.603  0.2198E+02  0.2330E+03
      8.733  0.2023E+02  0.2358E+03
      8.863  0.3223E+02  0.2391E+03
      8.993  0.0000E+00  0.2400E+03
      9.123  0.0000E+00  0.2400E+03
      9.253  0.0000E+00  0.2400E+03
      9.383  0.0000E+00  0.2400E+03
      9.513  0.0000E+00  0.2400E+03
      9.643  0.0000E+00  0.2400E+03
      9.773  0.0000E+00  0.2400E+03
      9.903  0.0000E+00  0.2400E+03
     10.033  0.0000E+00  0.2400E+03
     10.163  0.0000E+00  0.2400E+03
     10.293  0.0000E+00  0.2400E+03
     10.423  0.0000E+00  0.2400E+03
     10.553  0.0000E+00  0.2400E+03
     10.683  0.0000E+00  0.2400E+03
     10.813  0.0000E+00  0.2400E+03
     10.944  0.0000E+00  0.2400E+03
