<?xml version="1.0" encoding="ISO-8859-1"?>
<modeling>
 <generator>
  <i name="program" type="string">vasp </i>
  <i name="version" type="string">5.4.4.18Apr17-6-g9f103f2a35  </i>
  <i name="subversion" type="string">(build May 20 2018 16:52:39) complex            parallel </i>
  <i name="platform" type="string">LinuxIFC </i>
  <i name="date" type="string">2022 11 17 </i>
  <i name="time" type="string">22:01:43 </i>
 </generator>
 <incar>
  <i type="string" name="SYSTEM"> Nb tetrahedron</i>
  <i type="string" name="PREC">normal</i>
  <i type="int" name="ICHARG">    11</i>
  <i name="EDIFF">      0.00000010</i>
  <i name="ENCUT">    300.00000000</i>
  <i type="int" name="ISMEAR">    -5</i>
  <i type="logical" name="LCHARG"> F  </i>
  <v type="int" name="KPOINT_BSE">    -1     0     0     0</v>
 </incar>
 <structure name="primitive_cell" >
  <crystal>
   <varray name="basis" >
    <v>       1.65040000       1.65040000       1.65040000 </v>
    <v>       1.65040000      -1.65040000      -1.65040000 </v>
    <v>      -1.65040000       1.65040000      -1.65040000 </v>
   </varray>
   <i name="volume">     17.98157117 </i>
   <varray name="rec_basis" >
    <v>       0.30295686       0.30295686       0.00000000 </v>
    <v>       0.30295686      -0.00000000      -0.30295686 </v>
    <v>      -0.00000000       0.30295686      -0.30295686 </v>
   </varray>
  </crystal>
  <varray name="positions" >
   <v>       0.00000000       0.00000000       0.00000000 </v>
  </varray>
 </structure>
 <varray name="primitive_index" >
  <v type="int" >        1 </v>
 </varray>
 <kpoints>
  <generation param="Monkhorst-Pack">
   <v type="int" name="divisions">      20       20       20 </v>
   <v name="usershift">      0.00000000       0.00000000       0.00000000 </v>
   <v name="genvec1">      0.05000000       0.00000000       0.00000000 </v>
   <v name="genvec2">      0.00000000       0.05000000       0.00000000 </v>
   <v name="genvec3">      0.00000000       0.00000000       0.05000000 </v>
   <v name="shift">      0.50000000       0.50000000       0.50000000 </v>
  </generation>
  <varray name="kpointlist" >
   <v>       0.02500000       0.02500000       0.02500000 </v>
   <v>       0.07500000       0.02500000       0.02500000 </v>
   <v>       0.12500000       0.02500000       0.02500000 </v>
   <v>       0.17500000       0.02500000       0.02500000 </v>
   <v>       0.22500000       0.02500000       0.02500000 </v>
   <v>       0.27500000       0.02500000       0.02500000 </v>
   <v>       0.32500000       0.02500000       0.02500000 </v>
   <v>       0.37500000       0.02500000       0.02500000 </v>
   <v>       0.42500000       0.02500000       0.02500000 </v>
   <v>       0.47500000       0.02500000       0.02500000 </v>
   <v>       0.07500000       0.07500000       0.02500000 </v>
   <v>       0.12500000       0.07500000       0.02500000 </v>
   <v>       0.17500000       0.07500000       0.02500000 </v>
   <v>       0.22500000       0.07500000       0.02500000 </v>
   <v>       0.27500000       0.07500000       0.02500000 </v>
   <v>       0.32500000       0.07500000       0.02500000 </v>
   <v>       0.37500000       0.07500000       0.02500000 </v>
   <v>       0.42500000       0.07500000       0.02500000 </v>
   <v>       0.47500000       0.07500000       0.02500000 </v>
   <v>       0.12500000       0.12500000       0.02500000 </v>
   <v>       0.17500000       0.12500000       0.02500000 </v>
   <v>       0.22500000       0.12500000       0.02500000 </v>
   <v>       0.27500000       0.12500000       0.02500000 </v>
   <v>       0.32500000       0.12500000       0.02500000 </v>
   <v>       0.37500000       0.12500000       0.02500000 </v>
   <v>       0.42500000       0.12500000       0.02500000 </v>
   <v>       0.47500000       0.12500000       0.02500000 </v>
   <v>       0.17500000       0.17500000       0.02500000 </v>
   <v>       0.22500000       0.17500000       0.02500000 </v>
   <v>       0.27500000       0.17500000       0.02500000 </v>
   <v>       0.32500000       0.17500000       0.02500000 </v>
   <v>       0.37500000       0.17500000       0.02500000 </v>
   <v>       0.42500000       0.17500000       0.02500000 </v>
   <v>       0.47500000       0.17500000       0.02500000 </v>
   <v>       0.22500000       0.22500000       0.02500000 </v>
   <v>       0.27500000       0.22500000       0.02500000 </v>
   <v>       0.32500000       0.22500000       0.02500000 </v>
   <v>       0.37500000       0.22500000       0.02500000 </v>
   <v>       0.42500000       0.22500000       0.02500000 </v>
   <v>       0.47500000       0.22500000       0.02500000 </v>
   <v>       0.27500000       0.27500000       0.02500000 </v>
   <v>       0.32500000       0.27500000       0.02500000 </v>
   <v>       0.37500000       0.27500000       0.02500000 </v>
   <v>       0.42500000       0.27500000       0.02500000 </v>
   <v>       0.47500000       0.27500000       0.02500000 </v>
   <v>       0.32500000       0.32500000       0.02500000 </v>
   <v>       0.37500000       0.32500000       0.02500000 </v>
   <v>       0.42500000       0.32500000       0.02500000 </v>
   <v>       0.47500000       0.32500000       0.02500000 </v>
   <v>       0.37500000       0.37500000       0.02500000 </v>
   <v>       0.42500000       0.37500000       0.02500000 </v>
   <v>       0.47500000       0.37500000       0.02500000 </v>
   <v>       0.42500000       0.42500000       0.02500000 </v>
   <v>       0.47500000       0.42500000       0.02500000 </v>
   <v>       0.47500000       0.47500000       0.02500000 </v>
   <v>       0.07500000       0.07500000       0.07500000 </v>
   <v>       0.12500000       0.07500000       0.07500000 </v>
   <v>       0.17500000       0.07500000       0.07500000 </v>
   <v>       0.22500000       0.07500000       0.07500000 </v>
   <v>       0.27500000       0.07500000       0.07500000 </v>
   <v>       0.32500000       0.07500000       0.07500000 </v>
   <v>       0.37500000       0.07500000       0.07500000 </v>
   <v>       0.42500000       0.07500000       0.07500000 </v>
   <v>       0.47500000       0.07500000       0.07500000 </v>
   <v>       0.12500000       0.12500000       0.07500000 </v>
   <v>       0.17500000       0.12500000       0.07500000 </v>
   <v>       0.22500000       0.12500000       0.07500000 </v>
   <v>       0.27500000       0.12500000       0.07500000 </v>
   <v>       0.32500000       0.12500000       0.07500000 </v>
   <v>       0.37500000       0.12500000       0.07500000 </v>
   <v>       0.42500000       0.12500000       0.07500000 </v>
   <v>       0.47500000       0.12500000       0.07500000 </v>
   <v>       0.17500000       0.17500000       0.07500000 </v>
   <v>       0.22500000       0.17500000       0.07500000 </v>
   <v>       0.27500000       0.17500000       0.07500000 </v>
   <v>       0.32500000       0.17500000       0.07500000 </v>
   <v>       0.37500000       0.17500000       0.07500000 </v>
   <v>       0.42500000       0.17500000       0.07500000 </v>
   <v>       0.47500000       0.17500000       0.07500000 </v>
   <v>       0.22500000       0.22500000       0.07500000 </v>
   <v>       0.27500000       0.22500000       0.07500000 </v>
   <v>       0.32500000       0.22500000       0.07500000 </v>
   <v>       0.37500000       0.22500000       0.07500000 </v>
   <v>       0.42500000       0.22500000       0.07500000 </v>
   <v>       0.47500000       0.22500000       0.07500000 </v>
   <v>       0.27500000       0.27500000       0.07500000 </v>
   <v>       0.32500000       0.27500000       0.07500000 </v>
   <v>       0.37500000       0.27500000       0.07500000 </v>
   <v>       0.42500000       0.27500000       0.07500000 </v>
   <v>       0.47500000       0.27500000       0.07500000 </v>
   <v>       0.32500000       0.32500000       0.07500000 </v>
   <v>       0.37500000       0.32500000       0.07500000 </v>
   <v>       0.42500000       0.32500000       0.07500000 </v>
   <v>       0.47500000       0.32500000       0.07500000 </v>
   <v>       0.37500000       0.37500000       0.07500000 </v>
   <v>       0.42500000       0.37500000       0.07500000 </v>
   <v>       0.47500000       0.37500000       0.07500000 </v>
   <v>       0.42500000       0.42500000       0.07500000 </v>
   <v>       0.47500000       0.42500000       0.07500000 </v>
   <v>       0.47500000       0.47500000       0.07500000 </v>
   <v>       0.12500000       0.12500000       0.12500000 </v>
   <v>       0.17500000       0.12500000       0.12500000 </v>
   <v>       0.22500000       0.12500000       0.12500000 </v>
   <v>       0.27500000       0.12500000       0.12500000 </v>
   <v>       0.32500000       0.12500000       0.12500000 </v>
   <v>       0.37500000       0.12500000       0.12500000 </v>
   <v>       0.42500000       0.12500000       0.12500000 </v>
   <v>       0.47500000       0.12500000       0.12500000 </v>
   <v>       0.17500000       0.17500000       0.12500000 </v>
   <v>       0.22500000       0.17500000       0.12500000 </v>
   <v>       0.27500000       0.17500000       0.12500000 </v>
   <v>       0.32500000       0.17500000       0.12500000 </v>
   <v>       0.37500000       0.17500000       0.12500000 </v>
   <v>       0.42500000       0.17500000       0.12500000 </v>
   <v>       0.47500000       0.17500000       0.12500000 </v>
   <v>       0.22500000       0.22500000       0.12500000 </v>
   <v>       0.27500000       0.22500000       0.12500000 </v>
   <v>       0.32500000       0.22500000       0.12500000 </v>
   <v>       0.37500000       0.22500000       0.12500000 </v>
   <v>       0.42500000       0.22500000       0.12500000 </v>
   <v>       0.47500000       0.22500000       0.12500000 </v>
   <v>       0.27500000       0.27500000       0.12500000 </v>
   <v>       0.32500000       0.27500000       0.12500000 </v>
   <v>       0.37500000       0.27500000       0.12500000 </v>
   <v>       0.42500000       0.27500000       0.12500000 </v>
   <v>       0.47500000       0.27500000       0.12500000 </v>
   <v>       0.32500000       0.32500000       0.12500000 </v>
   <v>       0.37500000       0.32500000       0.12500000 </v>
   <v>       0.42500000       0.32500000       0.12500000 </v>
   <v>       0.47500000       0.32500000       0.12500000 </v>
   <v>       0.37500000       0.37500000       0.12500000 </v>
   <v>       0.42500000       0.37500000       0.12500000 </v>
   <v>       0.47500000       0.37500000       0.12500000 </v>
   <v>       0.42500000       0.42500000       0.12500000 </v>
   <v>       0.47500000       0.42500000       0.12500000 </v>
   <v>       0.47500000       0.47500000       0.12500000 </v>
   <v>       0.17500000       0.17500000       0.17500000 </v>
   <v>       0.22500000       0.17500000       0.17500000 </v>
   <v>       0.27500000       0.17500000       0.17500000 </v>
   <v>       0.32500000       0.17500000       0.17500000 </v>
   <v>       0.37500000       0.17500000       0.17500000 </v>
   <v>       0.42500000       0.17500000       0.17500000 </v>
   <v>       0.47500000       0.17500000       0.17500000 </v>
   <v>       0.22500000       0.22500000       0.17500000 </v>
   <v>       0.27500000       0.22500000       0.17500000 </v>
   <v>       0.32500000       0.22500000       0.17500000 </v>
   <v>       0.37500000       0.22500000       0.17500000 </v>
   <v>       0.42500000       0.22500000       0.17500000 </v>
   <v>       0.47500000       0.22500000       0.17500000 </v>
   <v>       0.27500000       0.27500000       0.17500000 </v>
   <v>       0.32500000       0.27500000       0.17500000 </v>
   <v>       0.37500000       0.27500000       0.17500000 </v>
   <v>       0.42500000       0.27500000       0.17500000 </v>
   <v>       0.47500000       0.27500000       0.17500000 </v>
   <v>       0.32500000       0.32500000       0.17500000 </v>
   <v>       0.37500000       0.32500000       0.17500000 </v>
   <v>       0.42500000       0.32500000       0.17500000 </v>
   <v>       0.47500000       0.32500000       0.17500000 </v>
   <v>       0.37500000       0.37500000       0.17500000 </v>
   <v>       0.42500000       0.37500000       0.17500000 </v>
   <v>       0.47500000       0.37500000       0.17500000 </v>
   <v>       0.42500000       0.42500000       0.17500000 </v>
   <v>       0.47500000       0.42500000       0.17500000 </v>
   <v>       0.47500000       0.47500000       0.17500000 </v>
   <v>       0.22500000       0.22500000       0.22500000 </v>
   <v>       0.27500000       0.22500000       0.22500000 </v>
   <v>       0.32500000       0.22500000       0.22500000 </v>
   <v>       0.37500000       0.22500000       0.22500000 </v>
   <v>       0.42500000       0.22500000       0.22500000 </v>
   <v>       0.47500000       0.22500000       0.22500000 </v>
   <v>       0.27500000       0.27500000       0.22500000 </v>
   <v>       0.32500000       0.27500000       0.22500000 </v>
   <v>       0.37500000       0.27500000       0.22500000 </v>
   <v>       0.42500000       0.27500000       0.22500000 </v>
   <v>       0.47500000       0.27500000       0.22500000 </v>
   <v>       0.32500000       0.32500000       0.22500000 </v>
   <v>       0.37500000       0.32500000       0.22500000 </v>
   <v>       0.42500000       0.32500000       0.22500000 </v>
   <v>       0.47500000       0.32500000       0.22500000 </v>
   <v>       0.37500000       0.37500000       0.22500000 </v>
   <v>       0.42500000       0.37500000       0.22500000 </v>
   <v>       0.47500000       0.37500000       0.22500000 </v>
   <v>       0.42500000       0.42500000       0.22500000 </v>
   <v>       0.47500000       0.42500000       0.22500000 </v>
   <v>       0.47500000       0.47500000       0.22500000 </v>
   <v>       0.27500000       0.27500000       0.27500000 </v>
   <v>       0.32500000       0.27500000       0.27500000 </v>
   <v>       0.37500000       0.27500000       0.27500000 </v>
   <v>       0.42500000       0.27500000       0.27500000 </v>
   <v>       0.47500000       0.27500000       0.27500000 </v>
   <v>       0.32500000       0.32500000       0.27500000 </v>
   <v>       0.37500000       0.32500000       0.27500000 </v>
   <v>       0.42500000       0.32500000       0.27500000 </v>
   <v>       0.47500000       0.32500000       0.27500000 </v>
   <v>       0.37500000       0.37500000       0.27500000 </v>
   <v>       0.42500000       0.37500000       0.27500000 </v>
   <v>       0.47500000       0.37500000       0.27500000 </v>
   <v>       0.42500000       0.42500000       0.27500000 </v>
   <v>       0.47500000       0.42500000       0.27500000 </v>
   <v>       0.47500000       0.47500000       0.27500000 </v>
   <v>       0.32500000       0.32500000       0.32500000 </v>
   <v>       0.37500000       0.32500000       0.32500000 </v>
   <v>       0.42500000       0.32500000       0.32500000 </v>
   <v>       0.47500000       0.32500000       0.32500000 </v>
   <v>       0.37500000       0.37500000       0.32500000 </v>
   <v>       0.42500000       0.37500000       0.32500000 </v>
   <v>       0.47500000       0.37500000       0.32500000 </v>
   <v>       0.42500000       0.42500000       0.32500000 </v>
   <v>       0.47500000       0.42500000       0.32500000 </v>
   <v>       0.47500000       0.47500000       0.32500000 </v>
   <v>       0.37500000       0.37500000       0.37500000 </v>
   <v>       0.42500000       0.37500000       0.37500000 </v>
   <v>       0.47500000       0.37500000       0.37500000 </v>
   <v>       0.42500000       0.42500000       0.37500000 </v>
   <v>       0.47500000       0.42500000       0.37500000 </v>
   <v>       0.47500000       0.47500000       0.37500000 </v>
   <v>       0.42500000       0.42500000       0.42500000 </v>
   <v>       0.47500000       0.42500000       0.42500000 </v>
   <v>       0.47500000       0.47500000       0.42500000 </v>
   <v>       0.47500000       0.47500000       0.47500000 </v>
  </varray>
  <varray name="weights" >
   <v>       0.00100000 </v>
   <v>       0.00300000 </v>
   <v>       0.00300000 </v>
   <v>       0.00300000 </v>
   <v>       0.00300000 </v>
   <v>       0.00300000 </v>
   <v>       0.00300000 </v>
   <v>       0.00300000 </v>
   <v>       0.00300000 </v>
   <v>       0.00300000 </v>
   <v>       0.00300000 </v>
   <v>       0.00600000 </v>
   <v>       0.00600000 </v>
   <v>       0.00600000 </v>
   <v>       0.00600000 </v>
   <v>       0.00600000 </v>
   <v>       0.00600000 </v>
   <v>       0.00600000 </v>
   <v>       0.00600000 </v>
   <v>       0.00300000 </v>
   <v>       0.00600000 </v>
   <v>       0.00600000 </v>
   <v>       0.00600000 </v>
   <v>       0.00600000 </v>
   <v>       0.00600000 </v>
   <v>       0.00600000 </v>
   <v>       0.00600000 </v>
   <v>       0.00300000 </v>
   <v>       0.00600000 </v>
   <v>       0.00600000 </v>
   <v>       0.00600000 </v>
   <v>       0.00600000 </v>
   <v>       0.00600000 </v>
   <v>       0.00600000 </v>
   <v>       0.00300000 </v>
   <v>       0.00600000 </v>
   <v>       0.00600000 </v>
   <v>       0.00600000 </v>
   <v>       0.00600000 </v>
   <v>       0.00600000 </v>
   <v>       0.00300000 </v>
   <v>       0.00600000 </v>
   <v>       0.00600000 </v>
   <v>       0.00600000 </v>
   <v>       0.00600000 </v>
   <v>       0.00300000 </v>
   <v>       0.00600000 </v>
   <v>       0.00600000 </v>
   <v>       0.00600000 </v>
   <v>       0.00300000 </v>
   <v>       0.00600000 </v>
   <v>       0.00600000 </v>
   <v>       0.00300000 </v>
   <v>       0.00600000 </v>
   <v>       0.00300000 </v>
   <v>       0.00100000 </v>
   <v>       0.00300000 </v>
   <v>       0.00300000 </v>
   <v>       0.00300000 </v>
   <v>       0.00300000 </v>
   <v>       0.00300000 </v>
   <v>       0.00300000 </v>
   <v>       0.00300000 </v>
   <v>       0.00300000 </v>
   <v>       0.00300000 </v>
   <v>       0.00600000 </v>
   <v>       0.00600000 </v>
   <v>       0.00600000 </v>
   <v>       0.00600000 </v>
   <v>       0.00600000 </v>
   <v>       0.00600000 </v>
   <v>       0.00600000 </v>
   <v>       0.00300000 </v>
   <v>       0.00600000 </v>
   <v>       0.00600000 </v>
   <v>       0.00600000 </v>
   <v>       0.00600000 </v>
   <v>       0.00600000 </v>
   <v>       0.00600000 </v>
   <v>       0.00300000 </v>
   <v>       0.00600000 </v>
   <v>       0.00600000 </v>
   <v>       0.00600000 </v>
   <v>       0.00600000 </v>
   <v>       0.00600000 </v>
   <v>       0.00300000 </v>
   <v>       0.00600000 </v>
   <v>       0.00600000 </v>
   <v>       0.00600000 </v>
   <v>       0.00600000 </v>
   <v>       0.00300000 </v>
   <v>       0.00600000 </v>
   <v>       0.00600000 </v>
   <v>       0.00600000 </v>
   <v>       0.00300000 </v>
   <v>       0.00600000 </v>
   <v>       0.00600000 </v>
   <v>       0.00300000 </v>
   <v>       0.00600000 </v>
   <v>       0.00300000 </v>
   <v>       0.00100000 </v>
   <v>       0.00300000 </v>
   <v>       0.00300000 </v>
   <v>       0.00300000 </v>
   <v>       0.00300000 </v>
   <v>       0.00300000 </v>
   <v>       0.00300000 </v>
   <v>       0.00300000 </v>
   <v>       0.00300000 </v>
   <v>       0.00600000 </v>
   <v>       0.00600000 </v>
   <v>       0.00600000 </v>
   <v>       0.00600000 </v>
   <v>       0.00600000 </v>
   <v>       0.00600000 </v>
   <v>       0.00300000 </v>
   <v>       0.00600000 </v>
   <v>       0.00600000 </v>
   <v>       0.00600000 </v>
   <v>       0.00600000 </v>
   <v>       0.00600000 </v>
   <v>       0.00300000 </v>
   <v>       0.00600000 </v>
   <v>       0.00600000 </v>
   <v>       0.00600000 </v>
   <v>       0.00600000 </v>
   <v>       0.00300000 </v>
   <v>       0.00600000 </v>
   <v>       0.00600000 </v>
   <v>       0.00600000 </v>
   <v>       0.00300000 </v>
   <v>       0.00600000 </v>
   <v>       0.00600000 </v>
   <v>       0.00300000 </v>
   <v>       0.00600000 </v>
   <v>       0.00300000 </v>
   <v>       0.00100000 </v>
   <v>       0.00300000 </v>
   <v>       0.00300000 </v>
   <v>       0.00300000 </v>
   <v>       0.00300000 </v>
   <v>       0.00300000 </v>
   <v>       0.00300000 </v>
   <v>       0.00300000 </v>
   <v>       0.00600000 </v>
   <v>       0.00600000 </v>
   <v>       0.00600000 </v>
   <v>       0.00600000 </v>
   <v>       0.00600000 </v>
   <v>       0.00300000 </v>
   <v>       0.00600000 </v>
   <v>       0.00600000 </v>
   <v>       0.00600000 </v>
   <v>       0.00600000 </v>
   <v>       0.00300000 </v>
   <v>       0.00600000 </v>
   <v>       0.00600000 </v>
   <v>       0.00600000 </v>
   <v>       0.00300000 </v>
   <v>       0.00600000 </v>
   <v>       0.00600000 </v>
   <v>       0.00300000 </v>
   <v>       0.00600000 </v>
   <v>       0.00300000 </v>
   <v>       0.00100000 </v>
   <v>       0.00300000 </v>
   <v>       0.00300000 </v>
   <v>       0.00300000 </v>
   <v>       0.00300000 </v>
   <v>       0.00300000 </v>
   <v>       0.00300000 </v>
   <v>       0.00600000 </v>
   <v>       0.00600000 </v>
   <v>       0.00600000 </v>
   <v>       0.00600000 </v>
   <v>       0.00300000 </v>
   <v>       0.00600000 </v>
   <v>       0.00600000 </v>
   <v>       0.00600000 </v>
   <v>       0.00300000 </v>
   <v>       0.00600000 </v>
   <v>       0.00600000 </v>
   <v>       0.00300000 </v>
   <v>       0.00600000 </v>
   <v>       0.00300000 </v>
   <v>       0.00100000 </v>
   <v>       0.00300000 </v>
   <v>       0.00300000 </v>
   <v>       0.00300000 </v>
   <v>       0.00300000 </v>
   <v>       0.00300000 </v>
   <v>       0.00600000 </v>
   <v>       0.00600000 </v>
   <v>       0.00600000 </v>
   <v>       0.00300000 </v>
   <v>       0.00600000 </v>
   <v>       0.00600000 </v>
   <v>       0.00300000 </v>
   <v>       0.00600000 </v>
   <v>       0.00300000 </v>
   <v>       0.00100000 </v>
   <v>       0.00300000 </v>
   <v>       0.00300000 </v>
   <v>       0.00300000 </v>
   <v>       0.00300000 </v>
   <v>       0.00600000 </v>
   <v>       0.00600000 </v>
   <v>       0.00300000 </v>
   <v>       0.00600000 </v>
   <v>       0.00300000 </v>
   <v>       0.00100000 </v>
   <v>       0.00300000 </v>
   <v>       0.00300000 </v>
   <v>       0.00300000 </v>
   <v>       0.00600000 </v>
   <v>       0.00300000 </v>
   <v>       0.00100000 </v>
   <v>       0.00300000 </v>
   <v>       0.00300000 </v>
   <v>       0.00100000 </v>
  </varray>
  <varray name="tetrahedronlist"  type="int" >
   <v type="int" >       24        1        2        2       11 </v>
   <v type="int" >       18        2        2       11       11 </v>
   <v type="int" >       12        2       11       11       56 </v>
   <v type="int" >       12        2        3       11       12 </v>
   <v type="int" >       24        2       11       11       12 </v>
   <v type="int" >       12       11       11       12       56 </v>
   <v type="int" >       24        3       11       12       12 </v>
   <v type="int" >       24       11       12       12       57 </v>
   <v type="int" >       24       11       12       56       57 </v>
   <v type="int" >       12        3        4       12       13 </v>
   <v type="int" >       24        3       12       12       13 </v>
   <v type="int" >       12       12       12       13       57 </v>
   <v type="int" >       24        4       12       13       13 </v>
   <v type="int" >       12       12       13       13       58 </v>
   <v type="int" >       12       12       13       57       58 </v>
   <v type="int" >       12        4        5       13       14 </v>
   <v type="int" >       24        4       13       13       14 </v>
   <v type="int" >       12       13       13       14       58 </v>
   <v type="int" >       24        5       13       14       14 </v>
   <v type="int" >       12       13       14       14       59 </v>
   <v type="int" >       12       13       14       58       59 </v>
   <v type="int" >       12        5        6       14       15 </v>
   <v type="int" >       24        5       14       14       15 </v>
   <v type="int" >       12       14       14       15       59 </v>
   <v type="int" >       24        6       14       15       15 </v>
   <v type="int" >       12       14       15       15       60 </v>
   <v type="int" >       12       14       15       59       60 </v>
   <v type="int" >       12        6        7       15       16 </v>
   <v type="int" >       24        6       15       15       16 </v>
   <v type="int" >       12       15       15       16       60 </v>
   <v type="int" >       24        7       15       16       16 </v>
   <v type="int" >       12       15       16       16       61 </v>
   <v type="int" >       12       15       16       60       61 </v>
   <v type="int" >       12        7        8       16       17 </v>
   <v type="int" >       24        7       16       16       17 </v>
   <v type="int" >       12       16       16       17       61 </v>
   <v type="int" >       24        8       16       17       17 </v>
   <v type="int" >       12       16       17       17       62 </v>
   <v type="int" >       12       16       17       61       62 </v>
   <v type="int" >       12        8        9       17       18 </v>
   <v type="int" >       24        8       17       17       18 </v>
   <v type="int" >       12       17       17       18       62 </v>
   <v type="int" >       24        9       17       18       18 </v>
   <v type="int" >       12       17       18       18       63 </v>
   <v type="int" >       12       17       18       62       63 </v>
   <v type="int" >       12        9       10       18       19 </v>
   <v type="int" >       24        9       18       18       19 </v>
   <v type="int" >       12       18       18       19       63 </v>
   <v type="int" >       24       10       18       19       19 </v>
   <v type="int" >       12       18       19       19       64 </v>
   <v type="int" >       12       18       19       63       64 </v>
   <v type="int" >       30       10       10       19       19 </v>
   <v type="int" >       36       10       19       19       19 </v>
   <v type="int" >       12       19       19       19       64 </v>
   <v type="int" >        6       19       19       64       64 </v>
   <v type="int" >       18        1        1        2        2 </v>
   <v type="int" >       24        1        2        2        2 </v>
   <v type="int" >       12        2        2        2       11 </v>
   <v type="int" >       12       11       12       20       56 </v>
   <v type="int" >       12       12       20       56       57 </v>
   <v type="int" >       12       20       56       57       65 </v>
   <v type="int" >       12       12       13       21       57 </v>
   <v type="int" >       12       12       20       21       57 </v>
   <v type="int" >       12       20       21       57       65 </v>
   <v type="int" >       12       13       21       57       58 </v>
   <v type="int" >       12       21       57       58       66 </v>
   <v type="int" >       12       21       57       65       66 </v>
   <v type="int" >       12       13       14       22       58 </v>
   <v type="int" >       12       13       21       22       58 </v>
   <v type="int" >       12       21       22       58       66 </v>
   <v type="int" >       12       14       22       58       59 </v>
   <v type="int" >       12       22       58       59       67 </v>
   <v type="int" >       12       22       58       66       67 </v>
   <v type="int" >       12       14       15       23       59 </v>
   <v type="int" >       12       14       22       23       59 </v>
   <v type="int" >       12       22       23       59       67 </v>
   <v type="int" >       12       15       23       59       60 </v>
   <v type="int" >       12       23       59       60       68 </v>
   <v type="int" >       12       23       59       67       68 </v>
   <v type="int" >       12       15       16       24       60 </v>
   <v type="int" >       12       15       23       24       60 </v>
   <v type="int" >       12       23       24       60       68 </v>
   <v type="int" >       12       16       24       60       61 </v>
   <v type="int" >       12       24       60       61       69 </v>
   <v type="int" >       12       24       60       68       69 </v>
   <v type="int" >       12       16       17       25       61 </v>
   <v type="int" >       12       16       24       25       61 </v>
   <v type="int" >       12       24       25       61       69 </v>
   <v type="int" >       12       17       25       61       62 </v>
   <v type="int" >       12       25       61       62       70 </v>
   <v type="int" >       12       25       61       69       70 </v>
   <v type="int" >       12       17       18       26       62 </v>
   <v type="int" >       12       17       25       26       62 </v>
   <v type="int" >       12       25       26       62       70 </v>
   <v type="int" >       12       18       26       62       63 </v>
   <v type="int" >       12       26       62       63       71 </v>
   <v type="int" >       12       26       62       70       71 </v>
   <v type="int" >       12       18       19       27       63 </v>
   <v type="int" >       12       18       26       27       63 </v>
   <v type="int" >       12       26       27       63       71 </v>
   <v type="int" >       12       19       27       63       64 </v>
   <v type="int" >       12       27       63       64       72 </v>
   <v type="int" >       12       27       63       71       72 </v>
   <v type="int" >       12       19       19       27       64 </v>
   <v type="int" >       12       19       27       27       64 </v>
   <v type="int" >       12       27       27       64       72 </v>
   <v type="int" >       12       19       27       64       64 </v>
   <v type="int" >       12       27       64       64       72 </v>
   <v type="int" >       12       27       64       72       72 </v>
   <v type="int" >       12       18       19       26       64 </v>
   <v type="int" >       12       19       26       27       64 </v>
   <v type="int" >       12       26       27       64       72 </v>
   <v type="int" >       12       18       26       63       64 </v>
   <v type="int" >       12       26       63       64       71 </v>
   <v type="int" >       12       26       64       71       72 </v>
   <v type="int" >       12       17       18       25       63 </v>
   <v type="int" >       12       18       25       26       63 </v>
   <v type="int" >       12       25       26       63       71 </v>
   <v type="int" >       12       17       25       62       63 </v>
   <v type="int" >       12       25       62       63       70 </v>
   <v type="int" >       12       25       63       70       71 </v>
   <v type="int" >       12       16       17       24       62 </v>
   <v type="int" >       12       17       24       25       62 </v>
   <v type="int" >       12       24       25       62       70 </v>
   <v type="int" >       12       16       24       61       62 </v>
   <v type="int" >       12       24       61       62       69 </v>
   <v type="int" >       12       24       62       69       70 </v>
   <v type="int" >       12       15       16       23       61 </v>
   <v type="int" >       12       16       23       24       61 </v>
   <v type="int" >       12       23       24       61       69 </v>
   <v type="int" >       12       15       23       60       61 </v>
   <v type="int" >       12       23       60       61       68 </v>
   <v type="int" >       12       23       61       68       69 </v>
   <v type="int" >       12       14       15       22       60 </v>
   <v type="int" >       12       15       22       23       60 </v>
   <v type="int" >       12       22       23       60       68 </v>
   <v type="int" >       12       14       22       59       60 </v>
   <v type="int" >       12       22       59       60       67 </v>
   <v type="int" >       12       22       60       67       68 </v>
   <v type="int" >       12       13       14       21       59 </v>
   <v type="int" >       12       14       21       22       59 </v>
   <v type="int" >       12       21       22       59       67 </v>
   <v type="int" >       12       13       21       58       59 </v>
   <v type="int" >       12       21       58       59       66 </v>
   <v type="int" >       12       21       59       66       67 </v>
   <v type="int" >       12       12       13       20       58 </v>
   <v type="int" >       12       13       20       21       58 </v>
   <v type="int" >       12       20       21       58       66 </v>
   <v type="int" >       12       12       20       57       58 </v>
   <v type="int" >       12       20       57       58       65 </v>
   <v type="int" >       12       20       58       65       66 </v>
   <v type="int" >       12       12       12       20       57 </v>
   <v type="int" >       12       12       20       57       65 </v>
   <v type="int" >       12       12       56       57       57 </v>
   <v type="int" >       12       12       57       57       65 </v>
   <v type="int" >       12        2        3       11       56 </v>
   <v type="int" >       12        3       11       12       56 </v>
   <v type="int" >       12        3       12       56       57 </v>
   <v type="int" >       12        2        2        3       11 </v>
   <v type="int" >       12        2        3        3       11 </v>
   <v type="int" >       12        3        3       11       12 </v>
   <v type="int" >       12        2        3       11       11 </v>
   <v type="int" >       12        3       11       11       12 </v>
   <v type="int" >       12       20       21       28       65 </v>
   <v type="int" >       12       21       28       65       66 </v>
   <v type="int" >       12       28       65       66       73 </v>
   <v type="int" >       12       21       22       29       66 </v>
   <v type="int" >       12       21       28       29       66 </v>
   <v type="int" >       12       28       29       66       73 </v>
   <v type="int" >       12       22       29       66       67 </v>
   <v type="int" >       12       29       66       67       74 </v>
   <v type="int" >       12       29       66       73       74 </v>
   <v type="int" >       12       22       23       30       67 </v>
   <v type="int" >       12       22       29       30       67 </v>
   <v type="int" >       12       29       30       67       74 </v>
   <v type="int" >       12       23       30       67       68 </v>
   <v type="int" >       12       30       67       68       75 </v>
   <v type="int" >       12       30       67       74       75 </v>
   <v type="int" >       12       23       24       31       68 </v>
   <v type="int" >       12       23       30       31       68 </v>
   <v type="int" >       12       30       31       68       75 </v>
   <v type="int" >       12       24       31       68       69 </v>
   <v type="int" >       12       31       68       69       76 </v>
   <v type="int" >       12       31       68       75       76 </v>
   <v type="int" >       12       24       25       32       69 </v>
   <v type="int" >       12       24       31       32       69 </v>
   <v type="int" >       12       31       32       69       76 </v>
   <v type="int" >       12       25       32       69       70 </v>
   <v type="int" >       12       32       69       70       77 </v>
   <v type="int" >       12       32       69       76       77 </v>
   <v type="int" >       12       25       26       33       70 </v>
   <v type="int" >       12       25       32       33       70 </v>
   <v type="int" >       12       32       33       70       77 </v>
   <v type="int" >       12       26       33       70       71 </v>
   <v type="int" >       12       33       70       71       78 </v>
   <v type="int" >       12       33       70       77       78 </v>
   <v type="int" >       12       26       27       34       71 </v>
   <v type="int" >       12       26       33       34       71 </v>
   <v type="int" >       12       33       34       71       78 </v>
   <v type="int" >       12       27       34       71       72 </v>
   <v type="int" >       12       34       71       72       79 </v>
   <v type="int" >       12       34       71       78       79 </v>
   <v type="int" >       12       27       27       34       72 </v>
   <v type="int" >       12       27       34       34       72 </v>
   <v type="int" >       12       34       34       72       79 </v>
   <v type="int" >       12       27       34       72       72 </v>
   <v type="int" >       12       34       72       72       79 </v>
   <v type="int" >       12       34       72       79       79 </v>
   <v type="int" >       12       26       27       33       72 </v>
   <v type="int" >       12       27       33       34       72 </v>
   <v type="int" >       12       33       34       72       79 </v>
   <v type="int" >       12       26       33       71       72 </v>
   <v type="int" >       12       33       71       72       78 </v>
   <v type="int" >       12       33       72       78       79 </v>
   <v type="int" >       12       25       26       32       71 </v>
   <v type="int" >       12       26       32       33       71 </v>
   <v type="int" >       12       32       33       71       78 </v>
   <v type="int" >       12       25       32       70       71 </v>
   <v type="int" >       12       32       70       71       77 </v>
   <v type="int" >       12       32       71       77       78 </v>
   <v type="int" >       12       24       25       31       70 </v>
   <v type="int" >       12       25       31       32       70 </v>
   <v type="int" >       12       31       32       70       77 </v>
   <v type="int" >       12       24       31       69       70 </v>
   <v type="int" >       12       31       69       70       76 </v>
   <v type="int" >       12       31       70       76       77 </v>
   <v type="int" >       12       23       24       30       69 </v>
   <v type="int" >       12       24       30       31       69 </v>
   <v type="int" >       12       30       31       69       76 </v>
   <v type="int" >       12       23       30       68       69 </v>
   <v type="int" >       12       30       68       69       75 </v>
   <v type="int" >       12       30       69       75       76 </v>
   <v type="int" >       12       22       23       29       68 </v>
   <v type="int" >       12       23       29       30       68 </v>
   <v type="int" >       12       29       30       68       75 </v>
   <v type="int" >       12       22       29       67       68 </v>
   <v type="int" >       12       29       67       68       74 </v>
   <v type="int" >       12       29       68       74       75 </v>
   <v type="int" >       12       21       22       28       67 </v>
   <v type="int" >       12       22       28       29       67 </v>
   <v type="int" >       12       28       29       67       74 </v>
   <v type="int" >       12       21       28       66       67 </v>
   <v type="int" >       12       28       66       67       73 </v>
   <v type="int" >       12       28       67       73       74 </v>
   <v type="int" >       12       20       21       21       66 </v>
   <v type="int" >       12       21       21       28       66 </v>
   <v type="int" >       12       21       28       66       73 </v>
   <v type="int" >       12       20       21       65       66 </v>
   <v type="int" >       12       21       65       66       66 </v>
   <v type="int" >       12       21       66       66       73 </v>
   <v type="int" >       12       12       13       20       65 </v>
   <v type="int" >       12       13       20       21       65 </v>
   <v type="int" >       12       13       21       65       66 </v>
   <v type="int" >       12       12       13       57       65 </v>
   <v type="int" >       12       13       57       58       65 </v>
   <v type="int" >       12       13       58       65       66 </v>
   <v type="int" >       12        3        4       12       57 </v>
   <v type="int" >       12        4       12       13       57 </v>
   <v type="int" >       12        4       13       57       58 </v>
   <v type="int" >       12        3        3        4       12 </v>
   <v type="int" >       12        3        4        4       12 </v>
   <v type="int" >       12        4        4       12       13 </v>
   <v type="int" >       12        3        4       12       12 </v>
   <v type="int" >       12        4       12       12       13 </v>
   <v type="int" >       12       28       29       35       73 </v>
   <v type="int" >       12       29       35       73       74 </v>
   <v type="int" >       12       35       73       74       80 </v>
   <v type="int" >       12       29       30       36       74 </v>
   <v type="int" >       12       29       35       36       74 </v>
   <v type="int" >       12       35       36       74       80 </v>
   <v type="int" >       12       30       36       74       75 </v>
   <v type="int" >       12       36       74       75       81 </v>
   <v type="int" >       12       36       74       80       81 </v>
   <v type="int" >       12       30       31       37       75 </v>
   <v type="int" >       12       30       36       37       75 </v>
   <v type="int" >       12       36       37       75       81 </v>
   <v type="int" >       12       31       37       75       76 </v>
   <v type="int" >       12       37       75       76       82 </v>
   <v type="int" >       12       37       75       81       82 </v>
   <v type="int" >       12       31       32       38       76 </v>
   <v type="int" >       12       31       37       38       76 </v>
   <v type="int" >       12       37       38       76       82 </v>
   <v type="int" >       12       32       38       76       77 </v>
   <v type="int" >       12       38       76       77       83 </v>
   <v type="int" >       12       38       76       82       83 </v>
   <v type="int" >       12       32       33       39       77 </v>
   <v type="int" >       12       32       38       39       77 </v>
   <v type="int" >       12       38       39       77       83 </v>
   <v type="int" >       12       33       39       77       78 </v>
   <v type="int" >       12       39       77       78       84 </v>
   <v type="int" >       12       39       77       83       84 </v>
   <v type="int" >       12       33       34       40       78 </v>
   <v type="int" >       12       33       39       40       78 </v>
   <v type="int" >       12       39       40       78       84 </v>
   <v type="int" >       12       34       40       78       79 </v>
   <v type="int" >       12       40       78       79       85 </v>
   <v type="int" >       12       40       78       84       85 </v>
   <v type="int" >       12       34       34       40       79 </v>
   <v type="int" >       12       34       40       40       79 </v>
   <v type="int" >       12       40       40       79       85 </v>
   <v type="int" >       12       34       40       79       79 </v>
   <v type="int" >       12       40       79       79       85 </v>
   <v type="int" >       12       40       79       85       85 </v>
   <v type="int" >       12       33       34       39       79 </v>
   <v type="int" >       12       34       39       40       79 </v>
   <v type="int" >       12       39       40       79       85 </v>
   <v type="int" >       12       33       39       78       79 </v>
   <v type="int" >       12       39       78       79       84 </v>
   <v type="int" >       12       39       79       84       85 </v>
   <v type="int" >       12       32       33       38       78 </v>
   <v type="int" >       12       33       38       39       78 </v>
   <v type="int" >       12       38       39       78       84 </v>
   <v type="int" >       12       32       38       77       78 </v>
   <v type="int" >       12       38       77       78       83 </v>
   <v type="int" >       12       38       78       83       84 </v>
   <v type="int" >       12       31       32       37       77 </v>
   <v type="int" >       12       32       37       38       77 </v>
   <v type="int" >       12       37       38       77       83 </v>
   <v type="int" >       12       31       37       76       77 </v>
   <v type="int" >       12       37       76       77       82 </v>
   <v type="int" >       12       37       77       82       83 </v>
   <v type="int" >       12       30       31       36       76 </v>
   <v type="int" >       12       31       36       37       76 </v>
   <v type="int" >       12       36       37       76       82 </v>
   <v type="int" >       12       30       36       75       76 </v>
   <v type="int" >       12       36       75       76       81 </v>
   <v type="int" >       12       36       76       81       82 </v>
   <v type="int" >       12       29       30       35       75 </v>
   <v type="int" >       12       30       35       36       75 </v>
   <v type="int" >       12       35       36       75       81 </v>
   <v type="int" >       12       29       35       74       75 </v>
   <v type="int" >       12       35       74       75       80 </v>
   <v type="int" >       12       35       75       80       81 </v>
   <v type="int" >       12       28       29       29       74 </v>
   <v type="int" >       12       29       29       35       74 </v>
   <v type="int" >       12       29       35       74       80 </v>
   <v type="int" >       12       28       29       73       74 </v>
   <v type="int" >       12       29       73       74       74 </v>
   <v type="int" >       12       29       74       74       80 </v>
   <v type="int" >       12       21       22       28       73 </v>
   <v type="int" >       12       22       28       29       73 </v>
   <v type="int" >       12       22       29       73       74 </v>
   <v type="int" >       12       21       22       66       73 </v>
   <v type="int" >       12       22       66       67       73 </v>
   <v type="int" >       12       22       67       73       74 </v>
   <v type="int" >       12       13       14       21       66 </v>
   <v type="int" >       12       14       21       22       66 </v>
   <v type="int" >       12       14       22       66       67 </v>
   <v type="int" >       12       13       14       58       66 </v>
   <v type="int" >       12       14       58       59       66 </v>
   <v type="int" >       12       14       59       66       67 </v>
   <v type="int" >       12        4        5       13       58 </v>
   <v type="int" >       12        5       13       14       58 </v>
   <v type="int" >       12        5       14       58       59 </v>
   <v type="int" >       12        4        4        5       13 </v>
   <v type="int" >       12        4        5        5       13 </v>
   <v type="int" >       12        5        5       13       14 </v>
   <v type="int" >       12        4        5       13       13 </v>
   <v type="int" >       12        5       13       13       14 </v>
   <v type="int" >       12       35       36       41       80 </v>
   <v type="int" >       12       36       41       80       81 </v>
   <v type="int" >       12       41       80       81       86 </v>
   <v type="int" >       12       36       37       42       81 </v>
   <v type="int" >       12       36       41       42       81 </v>
   <v type="int" >       12       41       42       81       86 </v>
   <v type="int" >       12       37       42       81       82 </v>
   <v type="int" >       12       42       81       82       87 </v>
   <v type="int" >       12       42       81       86       87 </v>
   <v type="int" >       12       37       38       43       82 </v>
   <v type="int" >       12       37       42       43       82 </v>
   <v type="int" >       12       42       43       82       87 </v>
   <v type="int" >       12       38       43       82       83 </v>
   <v type="int" >       12       43       82       83       88 </v>
   <v type="int" >       12       43       82       87       88 </v>
   <v type="int" >       12       38       39       44       83 </v>
   <v type="int" >       12       38       43       44       83 </v>
   <v type="int" >       12       43       44       83       88 </v>
   <v type="int" >       12       39       44       83       84 </v>
   <v type="int" >       12       44       83       84       89 </v>
   <v type="int" >       12       44       83       88       89 </v>
   <v type="int" >       12       39       40       45       84 </v>
   <v type="int" >       12       39       44       45       84 </v>
   <v type="int" >       12       44       45       84       89 </v>
   <v type="int" >       12       40       45       84       85 </v>
   <v type="int" >       12       45       84       85       90 </v>
   <v type="int" >       12       45       84       89       90 </v>
   <v type="int" >       12       40       40       45       85 </v>
   <v type="int" >       12       40       45       45       85 </v>
   <v type="int" >       12       45       45       85       90 </v>
   <v type="int" >       12       40       45       85       85 </v>
   <v type="int" >       12       45       85       85       90 </v>
   <v type="int" >       12       45       85       90       90 </v>
   <v type="int" >       12       39       40       44       85 </v>
   <v type="int" >       12       40       44       45       85 </v>
   <v type="int" >       12       44       45       85       90 </v>
   <v type="int" >       12       39       44       84       85 </v>
   <v type="int" >       12       44       84       85       89 </v>
   <v type="int" >       12       44       85       89       90 </v>
   <v type="int" >       12       38       39       43       84 </v>
   <v type="int" >       12       39       43       44       84 </v>
   <v type="int" >       12       43       44       84       89 </v>
   <v type="int" >       12       38       43       83       84 </v>
   <v type="int" >       12       43       83       84       88 </v>
   <v type="int" >       12       43       84       88       89 </v>
   <v type="int" >       12       37       38       42       83 </v>
   <v type="int" >       12       38       42       43       83 </v>
   <v type="int" >       12       42       43       83       88 </v>
   <v type="int" >       12       37       42       82       83 </v>
   <v type="int" >       12       42       82       83       87 </v>
   <v type="int" >       12       42       83       87       88 </v>
   <v type="int" >       12       36       37       41       82 </v>
   <v type="int" >       12       37       41       42       82 </v>
   <v type="int" >       12       41       42       82       87 </v>
   <v type="int" >       12       36       41       81       82 </v>
   <v type="int" >       12       41       81       82       86 </v>
   <v type="int" >       12       41       82       86       87 </v>
   <v type="int" >       12       35       36       36       81 </v>
   <v type="int" >       12       36       36       41       81 </v>
   <v type="int" >       12       36       41       81       86 </v>
   <v type="int" >       12       35       36       80       81 </v>
   <v type="int" >       12       36       80       81       81 </v>
   <v type="int" >       12       36       81       81       86 </v>
   <v type="int" >       12       29       30       35       80 </v>
   <v type="int" >       12       30       35       36       80 </v>
   <v type="int" >       12       30       36       80       81 </v>
   <v type="int" >       12       29       30       74       80 </v>
   <v type="int" >       12       30       74       75       80 </v>
   <v type="int" >       12       30       75       80       81 </v>
   <v type="int" >       12       22       23       29       74 </v>
   <v type="int" >       12       23       29       30       74 </v>
   <v type="int" >       12       23       30       74       75 </v>
   <v type="int" >       12       22       23       67       74 </v>
   <v type="int" >       12       23       67       68       74 </v>
   <v type="int" >       12       23       68       74       75 </v>
   <v type="int" >       12       14       15       22       67 </v>
   <v type="int" >       12       15       22       23       67 </v>
   <v type="int" >       12       15       23       67       68 </v>
   <v type="int" >       12       14       15       59       67 </v>
   <v type="int" >       12       15       59       60       67 </v>
   <v type="int" >       12       15       60       67       68 </v>
   <v type="int" >       12        5        6       14       59 </v>
   <v type="int" >       12        6       14       15       59 </v>
   <v type="int" >       12        6       15       59       60 </v>
   <v type="int" >       12        5        5        6       14 </v>
   <v type="int" >       12        5        6        6       14 </v>
   <v type="int" >       12        6        6       14       15 </v>
   <v type="int" >       12        5        6       14       14 </v>
   <v type="int" >       12        6       14       14       15 </v>
   <v type="int" >       12       41       42       46       86 </v>
   <v type="int" >       12       42       46       86       87 </v>
   <v type="int" >       12       46       86       87       91 </v>
   <v type="int" >       12       42       43       47       87 </v>
   <v type="int" >       12       42       46       47       87 </v>
   <v type="int" >       12       46       47       87       91 </v>
   <v type="int" >       12       43       47       87       88 </v>
   <v type="int" >       12       47       87       88       92 </v>
   <v type="int" >       12       47       87       91       92 </v>
   <v type="int" >       12       43       44       48       88 </v>
   <v type="int" >       12       43       47       48       88 </v>
   <v type="int" >       12       47       48       88       92 </v>
   <v type="int" >       12       44       48       88       89 </v>
   <v type="int" >       12       48       88       89       93 </v>
   <v type="int" >       12       48       88       92       93 </v>
   <v type="int" >       12       44       45       49       89 </v>
   <v type="int" >       12       44       48       49       89 </v>
   <v type="int" >       12       48       49       89       93 </v>
   <v type="int" >       12       45       49       89       90 </v>
   <v type="int" >       12       49       89       90       94 </v>
   <v type="int" >       12       49       89       93       94 </v>
   <v type="int" >       12       45       45       49       90 </v>
   <v type="int" >       12       45       49       49       90 </v>
   <v type="int" >       12       49       49       90       94 </v>
   <v type="int" >       12       45       49       90       90 </v>
   <v type="int" >       12       49       90       90       94 </v>
   <v type="int" >       12       49       90       94       94 </v>
   <v type="int" >       12       44       45       48       90 </v>
   <v type="int" >       12       45       48       49       90 </v>
   <v type="int" >       12       48       49       90       94 </v>
   <v type="int" >       12       44       48       89       90 </v>
   <v type="int" >       12       48       89       90       93 </v>
   <v type="int" >       12       48       90       93       94 </v>
   <v type="int" >       12       43       44       47       89 </v>
   <v type="int" >       12       44       47       48       89 </v>
   <v type="int" >       12       47       48       89       93 </v>
   <v type="int" >       12       43       47       88       89 </v>
   <v type="int" >       12       47       88       89       92 </v>
   <v type="int" >       12       47       89       92       93 </v>
   <v type="int" >       12       42       43       46       88 </v>
   <v type="int" >       12       43       46       47       88 </v>
   <v type="int" >       12       46       47       88       92 </v>
   <v type="int" >       12       42       46       87       88 </v>
   <v type="int" >       12       46       87       88       91 </v>
   <v type="int" >       12       46       88       91       92 </v>
   <v type="int" >       12       41       42       42       87 </v>
   <v type="int" >       12       42       42       46       87 </v>
   <v type="int" >       12       42       46       87       91 </v>
   <v type="int" >       12       41       42       86       87 </v>
   <v type="int" >       12       42       86       87       87 </v>
   <v type="int" >       12       42       87       87       91 </v>
   <v type="int" >       12       36       37       41       86 </v>
   <v type="int" >       12       37       41       42       86 </v>
   <v type="int" >       12       37       42       86       87 </v>
   <v type="int" >       12       36       37       81       86 </v>
   <v type="int" >       12       37       81       82       86 </v>
   <v type="int" >       12       37       82       86       87 </v>
   <v type="int" >       12       30       31       36       81 </v>
   <v type="int" >       12       31       36       37       81 </v>
   <v type="int" >       12       31       37       81       82 </v>
   <v type="int" >       12       30       31       75       81 </v>
   <v type="int" >       12       31       75       76       81 </v>
   <v type="int" >       12       31       76       81       82 </v>
   <v type="int" >       12       23       24       30       75 </v>
   <v type="int" >       12       24       30       31       75 </v>
   <v type="int" >       12       24       31       75       76 </v>
   <v type="int" >       12       23       24       68       75 </v>
   <v type="int" >       12       24       68       69       75 </v>
   <v type="int" >       12       24       69       75       76 </v>
   <v type="int" >       12       15       16       23       68 </v>
   <v type="int" >       12       16       23       24       68 </v>
   <v type="int" >       12       16       24       68       69 </v>
   <v type="int" >       12       15       16       60       68 </v>
   <v type="int" >       12       16       60       61       68 </v>
   <v type="int" >       12       16       61       68       69 </v>
   <v type="int" >       12        6        7       15       60 </v>
   <v type="int" >       12        7       15       16       60 </v>
   <v type="int" >       12        7       16       60       61 </v>
   <v type="int" >       12        6        6        7       15 </v>
   <v type="int" >       12        6        7        7       15 </v>
   <v type="int" >       12        7        7       15       16 </v>
   <v type="int" >       12        6        7       15       15 </v>
   <v type="int" >       12        7       15       15       16 </v>
   <v type="int" >       12       46       47       50       91 </v>
   <v type="int" >       12       47       50       91       92 </v>
   <v type="int" >       12       50       91       92       95 </v>
   <v type="int" >       12       47       48       51       92 </v>
   <v type="int" >       12       47       50       51       92 </v>
   <v type="int" >       12       50       51       92       95 </v>
   <v type="int" >       12       48       51       92       93 </v>
   <v type="int" >       12       51       92       93       96 </v>
   <v type="int" >       12       51       92       95       96 </v>
   <v type="int" >       12       48       49       52       93 </v>
   <v type="int" >       12       48       51       52       93 </v>
   <v type="int" >       12       51       52       93       96 </v>
   <v type="int" >       12       49       52       93       94 </v>
   <v type="int" >       12       52       93       94       97 </v>
   <v type="int" >       12       52       93       96       97 </v>
   <v type="int" >       12       49       49       52       94 </v>
   <v type="int" >       12       49       52       52       94 </v>
   <v type="int" >       12       52       52       94       97 </v>
   <v type="int" >       12       49       52       94       94 </v>
   <v type="int" >       12       52       94       94       97 </v>
   <v type="int" >       12       52       94       97       97 </v>
   <v type="int" >       12       48       49       51       94 </v>
   <v type="int" >       12       49       51       52       94 </v>
   <v type="int" >       12       51       52       94       97 </v>
   <v type="int" >       12       48       51       93       94 </v>
   <v type="int" >       12       51       93       94       96 </v>
   <v type="int" >       12       51       94       96       97 </v>
   <v type="int" >       12       47       48       50       93 </v>
   <v type="int" >       12       48       50       51       93 </v>
   <v type="int" >       12       50       51       93       96 </v>
   <v type="int" >       12       47       50       92       93 </v>
   <v type="int" >       12       50       92       93       95 </v>
   <v type="int" >       12       50       93       95       96 </v>
   <v type="int" >       12       46       47       47       92 </v>
   <v type="int" >       12       47       47       50       92 </v>
   <v type="int" >       12       47       50       92       95 </v>
   <v type="int" >       12       46       47       91       92 </v>
   <v type="int" >       12       47       91       92       92 </v>
   <v type="int" >       12       47       92       92       95 </v>
   <v type="int" >       12       42       43       46       91 </v>
   <v type="int" >       12       43       46       47       91 </v>
   <v type="int" >       12       43       47       91       92 </v>
   <v type="int" >       12       42       43       87       91 </v>
   <v type="int" >       12       43       87       88       91 </v>
   <v type="int" >       12       43       88       91       92 </v>
   <v type="int" >       12       37       38       42       87 </v>
   <v type="int" >       12       38       42       43       87 </v>
   <v type="int" >       12       38       43       87       88 </v>
   <v type="int" >       12       37       38       82       87 </v>
   <v type="int" >       12       38       82       83       87 </v>
   <v type="int" >       12       38       83       87       88 </v>
   <v type="int" >       12       31       32       37       82 </v>
   <v type="int" >       12       32       37       38       82 </v>
   <v type="int" >       12       32       38       82       83 </v>
   <v type="int" >       12       31       32       76       82 </v>
   <v type="int" >       12       32       76       77       82 </v>
   <v type="int" >       12       32       77       82       83 </v>
   <v type="int" >       12       24       25       31       76 </v>
   <v type="int" >       12       25       31       32       76 </v>
   <v type="int" >       12       25       32       76       77 </v>
   <v type="int" >       12       24       25       69       76 </v>
   <v type="int" >       12       25       69       70       76 </v>
   <v type="int" >       12       25       70       76       77 </v>
   <v type="int" >       12       16       17       24       69 </v>
   <v type="int" >       12       17       24       25       69 </v>
   <v type="int" >       12       17       25       69       70 </v>
   <v type="int" >       12       16       17       61       69 </v>
   <v type="int" >       12       17       61       62       69 </v>
   <v type="int" >       12       17       62       69       70 </v>
   <v type="int" >       12        7        8       16       61 </v>
   <v type="int" >       12        8       16       17       61 </v>
   <v type="int" >       12        8       17       61       62 </v>
   <v type="int" >       12        7        7        8       16 </v>
   <v type="int" >       12        7        8        8       16 </v>
   <v type="int" >       12        8        8       16       17 </v>
   <v type="int" >       12        7        8       16       16 </v>
   <v type="int" >       12        8       16       16       17 </v>
   <v type="int" >       12       50       51       53       95 </v>
   <v type="int" >       12       51       53       95       96 </v>
   <v type="int" >       12       53       95       96       98 </v>
   <v type="int" >       12       51       52       54       96 </v>
   <v type="int" >       12       51       53       54       96 </v>
   <v type="int" >       12       53       54       96       98 </v>
   <v type="int" >       12       52       54       96       97 </v>
   <v type="int" >       12       54       96       97       99 </v>
   <v type="int" >       12       54       96       98       99 </v>
   <v type="int" >       12       52       52       54       97 </v>
   <v type="int" >       12       52       54       54       97 </v>
   <v type="int" >       12       54       54       97       99 </v>
   <v type="int" >       12       52       54       97       97 </v>
   <v type="int" >       12       54       97       97       99 </v>
   <v type="int" >       12       54       97       99       99 </v>
   <v type="int" >       12       51       52       53       97 </v>
   <v type="int" >       12       52       53       54       97 </v>
   <v type="int" >       12       53       54       97       99 </v>
   <v type="int" >       12       51       53       96       97 </v>
   <v type="int" >       12       53       96       97       98 </v>
   <v type="int" >       12       53       97       98       99 </v>
   <v type="int" >       12       50       51       51       96 </v>
   <v type="int" >       12       51       51       53       96 </v>
   <v type="int" >       12       51       53       96       98 </v>
   <v type="int" >       12       50       51       95       96 </v>
   <v type="int" >       12       51       95       96       96 </v>
   <v type="int" >       12       51       96       96       98 </v>
   <v type="int" >       12       47       48       50       95 </v>
   <v type="int" >       12       48       50       51       95 </v>
   <v type="int" >       12       48       51       95       96 </v>
   <v type="int" >       12       47       48       92       95 </v>
   <v type="int" >       12       48       92       93       95 </v>
   <v type="int" >       12       48       93       95       96 </v>
   <v type="int" >       12       43       44       47       92 </v>
   <v type="int" >       12       44       47       48       92 </v>
   <v type="int" >       12       44       48       92       93 </v>
   <v type="int" >       12       43       44       88       92 </v>
   <v type="int" >       12       44       88       89       92 </v>
   <v type="int" >       12       44       89       92       93 </v>
   <v type="int" >       12       38       39       43       88 </v>
   <v type="int" >       12       39       43       44       88 </v>
   <v type="int" >       12       39       44       88       89 </v>
   <v type="int" >       12       38       39       83       88 </v>
   <v type="int" >       12       39       83       84       88 </v>
   <v type="int" >       12       39       84       88       89 </v>
   <v type="int" >       12       32       33       38       83 </v>
   <v type="int" >       12       33       38       39       83 </v>
   <v type="int" >       12       33       39       83       84 </v>
   <v type="int" >       12       32       33       77       83 </v>
   <v type="int" >       12       33       77       78       83 </v>
   <v type="int" >       12       33       78       83       84 </v>
   <v type="int" >       12       25       26       32       77 </v>
   <v type="int" >       12       26       32       33       77 </v>
   <v type="int" >       12       26       33       77       78 </v>
   <v type="int" >       12       25       26       70       77 </v>
   <v type="int" >       12       26       70       71       77 </v>
   <v type="int" >       12       26       71       77       78 </v>
   <v type="int" >       12       17       18       25       70 </v>
   <v type="int" >       12       18       25       26       70 </v>
   <v type="int" >       12       18       26       70       71 </v>
   <v type="int" >       12       17       18       62       70 </v>
   <v type="int" >       12       18       62       63       70 </v>
   <v type="int" >       12       18       63       70       71 </v>
   <v type="int" >       12        8        9       17       62 </v>
   <v type="int" >       12        9       17       18       62 </v>
   <v type="int" >       12        9       18       62       63 </v>
   <v type="int" >       12        8        8        9       17 </v>
   <v type="int" >       12        8        9        9       17 </v>
   <v type="int" >       12        9        9       17       18 </v>
   <v type="int" >       12        8        9       17       17 </v>
   <v type="int" >       12        9       17       17       18 </v>
   <v type="int" >       12       53       54       55       98 </v>
   <v type="int" >       12       54       55       98       99 </v>
   <v type="int" >       12       55       98       99      100 </v>
   <v type="int" >       24       54       54       55       99 </v>
   <v type="int" >       12       54       55       55       99 </v>
   <v type="int" >       12       55       55       99      100 </v>
   <v type="int" >       12       54       55       99       99 </v>
   <v type="int" >       12       55       99       99      100 </v>
   <v type="int" >       12       55       99      100      100 </v>
   <v type="int" >       12       53       54       54       99 </v>
   <v type="int" >       12       54       55       99      100 </v>
   <v type="int" >       12       53       54       98       99 </v>
   <v type="int" >       12       54       98       99       99 </v>
   <v type="int" >       24       54       99       99      100 </v>
   <v type="int" >       12       51       52       53       98 </v>
   <v type="int" >       12       52       53       54       98 </v>
   <v type="int" >       12       52       54       98       99 </v>
   <v type="int" >       12       51       52       96       98 </v>
   <v type="int" >       12       52       96       97       98 </v>
   <v type="int" >       12       52       97       98       99 </v>
   <v type="int" >       12       48       49       51       96 </v>
   <v type="int" >       12       49       51       52       96 </v>
   <v type="int" >       12       49       52       96       97 </v>
   <v type="int" >       12       48       49       93       96 </v>
   <v type="int" >       12       49       93       94       96 </v>
   <v type="int" >       12       49       94       96       97 </v>
   <v type="int" >       12       44       45       48       93 </v>
   <v type="int" >       12       45       48       49       93 </v>
   <v type="int" >       12       45       49       93       94 </v>
   <v type="int" >       12       44       45       89       93 </v>
   <v type="int" >       12       45       89       90       93 </v>
   <v type="int" >       12       45       90       93       94 </v>
   <v type="int" >       12       39       40       44       89 </v>
   <v type="int" >       12       40       44       45       89 </v>
   <v type="int" >       12       40       45       89       90 </v>
   <v type="int" >       12       39       40       84       89 </v>
   <v type="int" >       12       40       84       85       89 </v>
   <v type="int" >       12       40       85       89       90 </v>
   <v type="int" >       12       33       34       39       84 </v>
   <v type="int" >       12       34       39       40       84 </v>
   <v type="int" >       12       34       40       84       85 </v>
   <v type="int" >       12       33       34       78       84 </v>
   <v type="int" >       12       34       78       79       84 </v>
   <v type="int" >       12       34       79       84       85 </v>
   <v type="int" >       12       26       27       33       78 </v>
   <v type="int" >       12       27       33       34       78 </v>
   <v type="int" >       12       27       34       78       79 </v>
   <v type="int" >       12       26       27       71       78 </v>
   <v type="int" >       12       27       71       72       78 </v>
   <v type="int" >       12       27       72       78       79 </v>
   <v type="int" >       12       18       19       26       71 </v>
   <v type="int" >       12       19       26       27       71 </v>
   <v type="int" >       12       19       27       71       72 </v>
   <v type="int" >       12       18       19       63       71 </v>
   <v type="int" >       12       19       63       64       71 </v>
   <v type="int" >       12       19       64       71       72 </v>
   <v type="int" >       12        9       10       18       63 </v>
   <v type="int" >       12       10       18       19       63 </v>
   <v type="int" >       12       10       19       63       64 </v>
   <v type="int" >       12        9        9       10       18 </v>
   <v type="int" >       12        9       10       10       18 </v>
   <v type="int" >       12       10       10       18       19 </v>
   <v type="int" >       12        9       10       18       18 </v>
   <v type="int" >       12       10       18       18       19 </v>
   <v type="int" >       12       55       55       55      100 </v>
   <v type="int" >       12       55       55      100      100 </v>
   <v type="int" >       12       55      100      100      100 </v>
   <v type="int" >       12       54       54       55      100 </v>
   <v type="int" >       12       54       55       55      100 </v>
   <v type="int" >       12       54       55      100      100 </v>
   <v type="int" >       12       54       54       99      100 </v>
   <v type="int" >       12       54       99      100      100 </v>
   <v type="int" >       12       52       52       54       99 </v>
   <v type="int" >       12       52       54       54       99 </v>
   <v type="int" >       12       52       54       99       99 </v>
   <v type="int" >       12       52       52       97       99 </v>
   <v type="int" >       12       52       97       97       99 </v>
   <v type="int" >       12       52       97       99       99 </v>
   <v type="int" >       12       49       49       52       97 </v>
   <v type="int" >       12       49       52       52       97 </v>
   <v type="int" >       12       49       52       97       97 </v>
   <v type="int" >       12       49       49       94       97 </v>
   <v type="int" >       12       49       94       94       97 </v>
   <v type="int" >       12       49       94       97       97 </v>
   <v type="int" >       12       45       45       49       94 </v>
   <v type="int" >       12       45       49       49       94 </v>
   <v type="int" >       12       45       49       94       94 </v>
   <v type="int" >       12       45       45       90       94 </v>
   <v type="int" >       12       45       90       90       94 </v>
   <v type="int" >       12       45       90       94       94 </v>
   <v type="int" >       12       40       40       45       90 </v>
   <v type="int" >       12       40       45       45       90 </v>
   <v type="int" >       12       40       45       90       90 </v>
   <v type="int" >       12       40       40       85       90 </v>
   <v type="int" >       12       40       85       85       90 </v>
   <v type="int" >       12       40       85       90       90 </v>
   <v type="int" >       12       34       34       40       85 </v>
   <v type="int" >       12       34       40       40       85 </v>
   <v type="int" >       12       34       40       85       85 </v>
   <v type="int" >       12       34       34       79       85 </v>
   <v type="int" >       12       34       79       79       85 </v>
   <v type="int" >       12       34       79       85       85 </v>
   <v type="int" >       12       27       27       34       79 </v>
   <v type="int" >       12       27       34       34       79 </v>
   <v type="int" >       12       27       34       79       79 </v>
   <v type="int" >       12       27       27       72       79 </v>
   <v type="int" >       12       27       72       72       79 </v>
   <v type="int" >       12       27       72       79       79 </v>
   <v type="int" >       12       19       19       27       72 </v>
   <v type="int" >       12       19       27       27       72 </v>
   <v type="int" >       12       19       27       72       72 </v>
   <v type="int" >       12       19       19       64       72 </v>
   <v type="int" >       12       19       64       64       72 </v>
   <v type="int" >       12       19       64       72       72 </v>
   <v type="int" >       12       10       10       19       64 </v>
   <v type="int" >       12       10       19       19       64 </v>
   <v type="int" >       12       10       19       64       64 </v>
   <v type="int" >       24       10       10       10       19 </v>
   <v type="int" >       12       53       54       55      100 </v>
   <v type="int" >       12       53       54       99      100 </v>
   <v type="int" >       12       53       98       99      100 </v>
   <v type="int" >       12       51       52       54       99 </v>
   <v type="int" >       12       51       53       54       99 </v>
   <v type="int" >       12       51       53       98       99 </v>
   <v type="int" >       12       51       52       97       99 </v>
   <v type="int" >       12       51       96       97       99 </v>
   <v type="int" >       12       51       96       98       99 </v>
   <v type="int" >       12       48       49       52       97 </v>
   <v type="int" >       12       48       51       52       97 </v>
   <v type="int" >       12       48       51       96       97 </v>
   <v type="int" >       12       48       49       94       97 </v>
   <v type="int" >       12       48       93       94       97 </v>
   <v type="int" >       12       48       93       96       97 </v>
   <v type="int" >       12       44       45       49       94 </v>
   <v type="int" >       12       44       48       49       94 </v>
   <v type="int" >       12       44       48       93       94 </v>
   <v type="int" >       12       44       45       90       94 </v>
   <v type="int" >       12       44       89       90       94 </v>
   <v type="int" >       12       44       89       93       94 </v>
   <v type="int" >       12       39       40       45       90 </v>
   <v type="int" >       12       39       44       45       90 </v>
   <v type="int" >       12       39       44       89       90 </v>
   <v type="int" >       12       39       40       85       90 </v>
   <v type="int" >       12       39       84       85       90 </v>
   <v type="int" >       12       39       84       89       90 </v>
   <v type="int" >       12       33       34       40       85 </v>
   <v type="int" >       12       33       39       40       85 </v>
   <v type="int" >       12       33       39       84       85 </v>
   <v type="int" >       12       33       34       79       85 </v>
   <v type="int" >       12       33       78       79       85 </v>
   <v type="int" >       12       33       78       84       85 </v>
   <v type="int" >       12       26       27       34       79 </v>
   <v type="int" >       12       26       33       34       79 </v>
   <v type="int" >       12       26       33       78       79 </v>
[...]
       <r>  -24.8860    1.0000 </r>
       <r>  -24.8791    1.0000 </r>
       <r>  -24.8791    1.0000 </r>
       <r>  -24.8791    1.0000 </r>
       <r>  -24.8535    1.0000 </r>
       <r>  -24.8535    1.0000 </r>
       <r>  -24.8535    1.0000 </r>
       <r>  -24.8476    1.0000 </r>
       <r>  -24.8476    1.0000 </r>
       <r>  -24.8417    1.0000 </r>
       <r>  -24.8417    1.0000 </r>
       <r>  -24.8417    1.0000 </r>
       <r>    1.6459    1.0000 </r>
       <r>    1.7888    1.0000 </r>
       <r>    1.7888    1.0000 </r>
       <r>    1.7888    1.0000 </r>
       <r>    1.9326    1.0000 </r>
       <r>    1.9326    1.0000 </r>
       <r>    1.9326    1.0000 </r>
       <r>    2.0866    1.0000 </r>
       <r>    3.0961    1.0000 </r>
       <r>    3.0961    1.0000 </r>
       <r>    3.1361    1.0000 </r>
       <r>    3.1361    1.0000 </r>
       <r>    3.1361    1.0000 </r>
       <r>    3.1806    1.0000 </r>
       <r>    3.1806    1.0000 </r>
       <r>    3.1806    1.0000 </r>
       <r>    3.2318    1.0000 </r>
       <r>    3.2318    1.0000 </r>
       <r>    3.2318    1.0000 </r>
       <r>    3.3470    1.0000 </r>
       <r>    3.3728    1.0000 </r>
       <r>    3.3728    1.0000 </r>
       <r>    3.3728    1.0000 </r>
       <r>    3.3913    1.0000 </r>
       <r>    3.3913    1.0000 </r>
       <r>    3.5346    1.0000 </r>
       <r>    3.5346    1.0000 </r>
       <r>    3.5346    1.0000 </r>
       <r>    3.6286    1.0000 </r>
       <r>    3.6286    1.0000 </r>
       <r>    3.6686    1.0000 </r>
       <r>    3.6686    1.0000 </r>
       <r>    3.6686    1.0000 </r>
       <r>    3.6780    1.0000 </r>
       <r>    3.6780    1.0000 </r>
       <r>    3.6780    1.0000 </r>
       <r>    3.7083    1.0000 </r>
       <r>    3.7083    1.0000 </r>
       <r>    3.7083    1.0000 </r>
       <r>    3.7375    1.0000 </r>
       <r>    3.7375    1.0000 </r>
       <r>    3.7375    1.0000 </r>
       <r>    3.7468    1.0000 </r>
       <r>    3.7468    1.0000 </r>
       <r>    3.7468    1.0000 </r>
       <r>    3.7937    1.0000 </r>
       <r>    3.7937    1.0000 </r>
       <r>    3.8102    1.0000 </r>
       <r>    8.0431    0.0000 </r>
       <r>    8.0431    0.0000 </r>
       <r>    8.0431    0.0000 </r>
       <r>    8.0857    0.0000 </r>
       <r>    8.0857    0.0000 </r>
       <r>    8.0917    0.0000 </r>
       <r>    8.0917    0.0000 </r>
       <r>    8.0917    0.0000 </r>
       <r>    8.1957    0.0000 </r>
       <r>    8.1957    0.0000 </r>
       <r>    8.1973    0.0000 </r>
       <r>    8.1973    0.0000 </r>
       <r>    8.1973    0.0000 </r>
       <r>    8.2227    0.0000 </r>
       <r>    8.2227    0.0000 </r>
       <r>    8.2227    0.0000 </r>
       <r>    8.4769    0.0000 </r>
       <r>    8.4769    0.0000 </r>
       <r>    8.4770    0.0000 </r>
       <r>    8.5140    0.0000 </r>
       <r>    8.5140    0.0000 </r>
       <r>    8.5140    0.0000 </r>
       <r>    8.6205    0.0000 </r>
       <r>    8.6211    0.0000 </r>
      </set>
     </set>
    </set>
   </array>
  </eigenvalues>
  <separator name="orbital magnetization" >
   <v name="MAGDIPOLOUT">      0.00000000      0.00000000      0.00000000</v>
  </separator>
  <dos>
   <i name="efermi">      4.83917906 </i>
   <total>
    <array>
     <dimension dim="1">gridpoints</dimension>
     <dimension dim="2">spin</dimension>
     <field>energy</field>
     <field>total</field>
     <field>integrated</field>
     <set>
      <set comment="spin 1">
       <r>   -28.0732     0.0000     0.0000 </r>
       <r>   -27.9431     0.0000     0.0000 </r>
       <r>   -27.8131     0.0000     0.0000 </r>
       <r>   -27.6830     0.0000     0.0000 </r>
       <r>   -27.5529     0.0000     0.0000 </r>
       <r>   -27.4229     0.0000     0.0000 </r>
       <r>   -27.2928     0.0000     0.0000 </r>
       <r>   -27.1628     0.0000     0.0000 </r>
       <r>   -27.0327     0.0000     0.0000 </r>
       <r>   -26.9027     0.0000     0.0000 </r>
       <r>   -26.7726     0.0000     0.0000 </r>
       <r>   -26.6426     0.0000     0.0000 </r>
       <r>   -26.5125     0.0000     0.0000 </r>
       <r>   -26.3824     0.0000     0.0000 </r>
       <r>   -26.2524     0.0000     0.0000 </r>
       <r>   -26.1223     0.0000     0.0000 </r>
       <r>   -25.9923    29.8815     1.5214 </r>
       <r>   -25.8622    66.1936     7.7463 </r>
       <r>   -25.7322    64.3423    19.5138 </r>
       <r>   -25.6021    36.0936    26.1632 </r>
       <r>   -25.4721    49.2478    32.1463 </r>
       <r>   -25.3420    60.6917    39.3796 </r>
       <r>   -25.2119    83.1687    48.4923 </r>
       <r>   -25.0819    72.2176    59.5430 </r>
       <r>   -24.9518    68.6703    68.9279 </r>
       <r>   -24.8218   146.0832    82.5558 </r>
       <r>   -24.6917     0.0000    96.0000 </r>
       <r>   -24.5617     0.0000    96.0000 </r>
       <r>   -24.4316     0.0000    96.0000 </r>
       <r>   -24.3016     0.0000    96.0000 </r>
       <r>   -24.1715     0.0000    96.0000 </r>
       <r>   -24.0414     0.0000    96.0000 </r>
       <r>   -23.9114     0.0000    96.0000 </r>
       <r>   -23.7813     0.0000    96.0000 </r>
       <r>   -23.6513     0.0000    96.0000 </r>
       <r>   -23.5212     0.0000    96.0000 </r>
       <r>   -23.3912     0.0000    96.0000 </r>
       <r>   -23.2611     0.0000    96.0000 </r>
       <r>   -23.1311     0.0000    96.0000 </r>
       <r>   -23.0010     0.0000    96.0000 </r>
       <r>   -22.8709     0.0000    96.0000 </r>
       <r>   -22.7409     0.0000    96.0000 </r>
       <r>   -22.6108     0.0000    96.0000 </r>
       <r>   -22.4808     0.0000    96.0000 </r>
       <r>   -22.3507     0.0000    96.0000 </r>
       <r>   -22.2207     0.0000    96.0000 </r>
       <r>   -22.0906     0.0000    96.0000 </r>
       <r>   -21.9606     0.0000    96.0000 </r>
       <r>   -21.8305     0.0000    96.0000 </r>
       <r>   -21.7004     0.0000    96.0000 </r>
       <r>   -21.5704     0.0000    96.0000 </r>
       <r>   -21.4403     0.0000    96.0000 </r>
       <r>   -21.3103     0.0000    96.0000 </r>
       <r>   -21.1802     0.0000    96.0000 </r>
       <r>   -21.0502     0.0000    96.0000 </r>
       <r>   -20.9201     0.0000    96.0000 </r>
       <r>   -20.7901     0.0000    96.0000 </r>
       <r>   -20.6600     0.0000    96.0000 </r>
       <r>   -20.5299     0.0000    96.0000 </r>
       <r>   -20.3999     0.0000    96.0000 </r>
       <r>   -20.2698     0.0000    96.0000 </r>
       <r>   -20.1398     0.0000    96.0000 </r>
       <r>   -20.0097     0.0000    96.0000 </r>
       <r>   -19.8797     0.0000    96.0000 </r>
       <r>   -19.7496     0.0000    96.0000 </r>
       <r>   -19.6196     0.0000    96.0000 </r>
       <r>   -19.4895     0.0000    96.0000 </r>
       <r>   -19.3594     0.0000    96.0000 </r>
       <r>   -19.2294     0.0000    96.0000 </r>
       <r>   -19.0993     0.0000    96.0000 </r>
       <r>   -18.9693     0.0000    96.0000 </r>
       <r>   -18.8392     0.0000    96.0000 </r>
       <r>   -18.7092     0.0000    96.0000 </r>
       <r>   -18.5791     0.0000    96.0000 </r>
       <r>   -18.4491     0.0000    96.0000 </r>
       <r>   -18.3190     0.0000    96.0000 </r>
       <r>   -18.1889     0.0000    96.0000 </r>
       <r>   -18.0589     0.0000    96.0000 </r>
       <r>   -17.9288     0.0000    96.0000 </r>
       <r>   -17.7988     0.0000    96.0000 </r>
       <r>   -17.6687     0.0000    96.0000 </r>
       <r>   -17.5387     0.0000    96.0000 </r>
       <r>   -17.4086     0.0000    96.0000 </r>
       <r>   -17.2786     0.0000    96.0000 </r>
       <r>   -17.1485     0.0000    96.0000 </r>
       <r>   -17.0184     0.0000    96.0000 </r>
       <r>   -16.8884     0.0000    96.0000 </r>
       <r>   -16.7583     0.0000    96.0000 </r>
       <r>   -16.6283     0.0000    96.0000 </r>
       <r>   -16.4982     0.0000    96.0000 </r>
       <r>   -16.3682     0.0000    96.0000 </r>
       <r>   -16.2381     0.0000    96.0000 </r>
       <r>   -16.1081     0.0000    96.0000 </r>
       <r>   -15.9780     0.0000    96.0000 </r>
       <r>   -15.8479     0.0000    96.0000 </r>
       <r>   -15.7179     0.0000    96.0000 </r>
       <r>   -15.5878     0.0000    96.0000 </r>
       <r>   -15.4578     0.0000    96.0000 </r>
       <r>   -15.3277     0.0000    96.0000 </r>
       <r>   -15.1977     0.0000    96.0000 </r>
       <r>   -15.0676     0.0000    96.0000 </r>
       <r>   -14.9376     0.0000    96.0000 </r>
       <r>   -14.8075     0.0000    96.0000 </r>
       <r>   -14.6774     0.0000    96.0000 </r>
       <r>   -14.5474     0.0000    96.0000 </r>
       <r>   -14.4173     0.0000    96.0000 </r>
       <r>   -14.2873     0.0000    96.0000 </r>
       <r>   -14.1572     0.0000    96.0000 </r>
       <r>   -14.0272     0.0000    96.0000 </r>
       <r>   -13.8971     0.0000    96.0000 </r>
       <r>   -13.7671     0.0000    96.0000 </r>
       <r>   -13.6370     0.0000    96.0000 </r>
       <r>   -13.5069     0.0000    96.0000 </r>
       <r>   -13.3769     0.0000    96.0000 </r>
       <r>   -13.2468     0.0000    96.0000 </r>
       <r>   -13.1168     0.0000    96.0000 </r>
       <r>   -12.9867     0.0000    96.0000 </r>
       <r>   -12.8567     0.0000    96.0000 </r>
       <r>   -12.7266     0.0000    96.0000 </r>
       <r>   -12.5966     0.0000    96.0000 </r>
       <r>   -12.4665     0.0000    96.0000 </r>
       <r>   -12.3364     0.0000    96.0000 </r>
       <r>   -12.2064     0.0000    96.0000 </r>
       <r>   -12.0763     0.0000    96.0000 </r>
       <r>   -11.9463     0.0000    96.0000 </r>
       <r>   -11.8162     0.0000    96.0000 </r>
       <r>   -11.6862     0.0000    96.0000 </r>
       <r>   -11.5561     0.0000    96.0000 </r>
       <r>   -11.4261     0.0000    96.0000 </r>
       <r>   -11.2960     0.0000    96.0000 </r>
       <r>   -11.1659     0.0000    96.0000 </r>
       <r>   -11.0359     0.0000    96.0000 </r>
       <r>   -10.9058     0.0000    96.0000 </r>
       <r>   -10.7758     0.0000    96.0000 </r>
       <r>   -10.6457     0.0000    96.0000 </r>
       <r>   -10.5157     0.0000    96.0000 </r>
       <r>   -10.3856     0.0000    96.0000 </r>
       <r>   -10.2556     0.0000    96.0000 </r>
       <r>   -10.1255     0.0000    96.0000 </r>
       <r>    -9.9954     0.0000    96.0000 </r>
       <r>    -9.8654     0.0000    96.0000 </r>
       <r>    -9.7353     0.0000    96.0000 </r>
       <r>    -9.6053     0.0000    96.0000 </r>
       <r>    -9.4752     0.0000    96.0000 </r>
       <r>    -9.3452     0.0000    96.0000 </r>
       <r>    -9.2151     0.0000    96.0000 </r>
       <r>    -9.0851     0.0000    96.0000 </r>
       <r>    -8.9550     0.0000    96.0000 </r>
       <r>    -8.8249     0.0000    96.0000 </r>
       <r>    -8.6949     0.0000    96.0000 </r>
       <r>    -8.5648     0.0000    96.0000 </r>
       <r>    -8.4348     0.0000    96.0000 </r>
       <r>    -8.3047     0.0000    96.0000 </r>
       <r>    -8.1747     0.0000    96.0000 </r>
       <r>    -8.0446     0.0000    96.0000 </r>
       <r>    -7.9146     0.0000    96.0000 </r>
       <r>    -7.7845     0.0000    96.0000 </r>
       <r>    -7.6544     0.0000    96.0000 </r>
       <r>    -7.5244     0.0000    96.0000 </r>
       <r>    -7.3943     0.0000    96.0000 </r>
       <r>    -7.2643     0.0000    96.0000 </r>
       <r>    -7.1342     0.0000    96.0000 </r>
       <r>    -7.0042     0.0000    96.0000 </r>
       <r>    -6.8741     0.0000    96.0000 </r>
       <r>    -6.7441     0.0000    96.0000 </r>
       <r>    -6.6140     0.0000    96.0000 </r>
       <r>    -6.4839     0.0000    96.0000 </r>
       <r>    -6.3539     0.0000    96.0000 </r>
       <r>    -6.2238     0.0000    96.0000 </r>
       <r>    -6.0938     0.0000    96.0000 </r>
       <r>    -5.9637     0.0000    96.0000 </r>
       <r>    -5.8337     0.0000    96.0000 </r>
       <r>    -5.7036     0.0000    96.0000 </r>
       <r>    -5.5736     0.0000    96.0000 </r>
       <r>    -5.4435     0.0000    96.0000 </r>
       <r>    -5.3134     0.0000    96.0000 </r>
       <r>    -5.1834     0.0000    96.0000 </r>
       <r>    -5.0533     0.0000    96.0000 </r>
       <r>    -4.9233     0.0000    96.0000 </r>
       <r>    -4.7932     0.0000    96.0000 </r>
       <r>    -4.6632     0.0000    96.0000 </r>
       <r>    -4.5331     0.0000    96.0000 </r>
       <r>    -4.4031     0.0000    96.0000 </r>
       <r>    -4.2730     0.0000    96.0000 </r>
       <r>    -4.1429     0.0000    96.0000 </r>
       <r>    -4.0129     0.0000    96.0000 </r>
       <r>    -3.8828     0.0000    96.0000 </r>
       <r>    -3.7528     0.0000    96.0000 </r>
       <r>    -3.6227     0.0000    96.0000 </r>
       <r>    -3.4927     0.0000    96.0000 </r>
       <r>    -3.3626     0.0000    96.0000 </r>
       <r>    -3.2326     0.0000    96.0000 </r>
       <r>    -3.1025     0.0000    96.0000 </r>
       <r>    -2.9724     0.0000    96.0000 </r>
       <r>    -2.8424     0.0000    96.0000 </r>
       <r>    -2.7123     0.0000    96.0000 </r>
       <r>    -2.5823     0.0000    96.0000 </r>
       <r>    -2.4522     0.0000    96.0000 </r>
       <r>    -2.3222     0.0000    96.0000 </r>
       <r>    -2.1921     0.0000    96.0000 </r>
       <r>    -2.0621     0.0000    96.0000 </r>
       <r>    -1.9320     0.0000    96.0000 </r>
       <r>    -1.8019     0.0000    96.0000 </r>
       <r>    -1.6719     0.0000    96.0000 </r>
       <r>    -1.5418     0.0000    96.0000 </r>
       <r>    -1.4118     0.0000    96.0000 </r>
       <r>    -1.2817     0.0000    96.0000 </r>
       <r>    -1.1517     0.0000    96.0000 </r>
       <r>    -1.0216     0.2489    96.0101 </r>
       <r>    -0.8915     0.4655    96.0584 </r>
       <r>    -0.7615     0.6217    96.1298 </r>
       <r>    -0.6314     0.7615    96.2201 </r>
       <r>    -0.5014     0.8937    96.3280 </r>
       <r>    -0.3713     1.0250    96.4525 </r>
       <r>    -0.2413     1.1496    96.5937 </r>
       <r>    -0.1112     1.2821    96.7519 </r>
       <r>     0.0188     1.4247    96.9277 </r>
       <r>     0.1489     1.5153    97.1350 </r>
       <r>     0.2790     1.7285    97.3350 </r>
       <r>     0.4090     1.9070    97.5712 </r>
       <r>     0.5391     2.1045    97.8316 </r>
       <r>     0.6691     2.3379    98.1200 </r>
       <r>     0.7992     2.6260    98.4430 </r>
       <r>     0.9292     2.8663    98.8068 </r>
       <r>     1.0593     3.4560    99.2204 </r>
       <r>     1.1893     9.5355   100.0474 </r>
       <r>     1.3194    14.9568   101.7155 </r>
       <r>     1.4495    15.3284   103.6499 </r>
       <r>     1.5795    16.4963   105.8010 </r>
       <r>     1.7096    17.6235   107.8922 </r>
       <r>     1.8396    17.9955   110.2008 </r>
       <r>     1.9697    19.9900   112.6476 </r>
       <r>     2.0997    24.4781   115.4419 </r>
       <r>     2.2298    23.4833   118.4239 </r>
       <r>     2.3598    21.1863   121.2583 </r>
       <r>     2.4899    21.3513   124.1693 </r>
       <r>     2.6200    20.6541   127.0061 </r>
       <r>     2.7500    11.1546   128.9040 </r>
       <r>     2.8801     8.8485   130.1967 </r>
       <r>     3.0101     7.1269   131.2235 </r>
       <r>     3.1402    19.9677   132.3144 </r>
       <r>     3.2702    28.6361   135.6792 </r>
       <r>     3.4003    38.0790   139.6244 </r>
       <r>     3.5303    33.9923   144.6146 </r>
       <r>     3.6604    25.6764   148.4820 </r>
       <r>     3.7905    19.6235   151.3507 </r>
       <r>     3.9205    17.8346   153.8356 </r>
       <r>     4.0506    17.3925   156.1612 </r>
       <r>     4.1806    18.2253   158.4653 </r>
       <r>     4.3107    19.0567   160.8586 </r>
       <r>     4.4407    25.6632   163.6360 </r>
       <r>     4.5708    35.8537   167.7500 </r>
       <r>     4.7008    30.6314   172.2402 </r>
       <r>     4.8309    23.5502   175.8060 </r>
       <r>     4.9610    20.6212   178.6841 </r>
       <r>     5.0910    17.6267   181.1222 </r>
       <r>     5.2211    10.9651   182.9229 </r>
       <r>     5.3511     8.9802   184.1783 </r>
       <r>     5.4812     8.5500   185.3294 </r>
       <r>     5.6112     7.6775   186.3889 </r>
       <r>     5.7413     7.9402   187.4043 </r>
       <r>     5.8713     7.1412   188.2843 </r>
       <r>     6.0014     7.3372   189.3135 </r>
       <r>     6.1315     7.7312   190.2635 </r>
       <r>     6.2615     7.8997   191.2691 </r>
       <r>     6.3916     8.5439   192.3952 </r>
       <r>     6.5216     9.9072   193.6410 </r>
       <r>     6.6517    15.9399   195.1361 </r>
       <r>     6.7817    13.8464   197.0436 </r>
       <r>     6.9118    15.9941   198.9395 </r>
       <r>     7.0418    14.9374   200.8709 </r>
       <r>     7.1719    16.2162   202.8524 </r>
       <r>     7.3020    17.0586   205.0562 </r>
       <r>     7.4320    19.0576   207.2519 </r>
       <r>     7.5621    21.1085   209.9554 </r>
       <r>     7.6921    18.9143   212.6628 </r>
       <r>     7.8222    19.1803   215.3004 </r>
       <r>     7.9522    21.3904   217.9540 </r>
       <r>     8.0823    26.4479   220.8389 </r>
       <r>     8.2123    22.8711   224.2641 </r>
       <r>     8.3424    22.5268   227.1604 </r>
       <r>     8.4725    22.4495   230.1063 </r>
       <r>     8.6025    21.9847   232.9514 </r>
       <r>     8.7326    20.2272   235.7862 </r>
       <r>     8.8626    32.2288   239.1088 </r>
       <r>     8.9927     0.0000   240.0000 </r>
       <r>     9.1227     0.0000   240.0000 </r>
       <r>     9.2528     0.0000   240.0000 </r>
       <r>     9.3828     0.0000   240.0000 </r>
       <r>     9.5129     0.0000   240.0000 </r>
       <r>     9.6430     0.0000   240.0000 </r>
       <r>     9.7730     0.0000   240.0000 </r>
       <r>     9.9031     0.0000   240.0000 </r>
       <r>    10.0331     0.0000   240.0000 </r>
       <r>    10.1632     0.0000   240.0000 </r>
       <r>    10.2932     0.0000   240.0000 </r>
       <r>    10.4233     0.0000   240.0000 </r>
       <r>    10.5533     0.0000   240.0000 </r>
       <r>    10.6834     0.0000   240.0000 </r>
       <r>    10.8135     0.0000   240.0000 </r>
       <r>    10.9435     0.0000   240.0000 </r>
      </set>
     </set>
    </array>
   </total>
  </dos>
 </calculation>
 <structure name="finalpos" >
  <crystal>
   <varray name="basis" >
    <v>       6.60160000       0.00000000       0.00000000 </v>
    <v>       0.00000000       6.60160000       0.00000000 </v>
    <v>       0.00000000       0.00000000       6.60160000 </v>
   </varray>
   <i name="volume">    287.70513869 </i>
   <varray name="rec_basis" >
    <v>       0.15147843       0.00000000       0.00000000 </v>
    <v>       0.00000000       0.15147843       0.00000000 </v>
    <v>       0.00000000       0.00000000       0.15147843 </v>
   </varray>
  </crystal>
  <varray name="positions" >
   <v>       0.00000000       0.00000000       0.00000000 </v>
   <v>       0.25000000       0.25000000       0.25000000 </v>
   <v>       0.50000000       0.00000000       0.00000000 </v>
   <v>       0.75000000       0.25000000       0.25000000 </v>
   <v>       0.00000000       0.50000000       0.00000000 </v>
   <v>       0.25000000       0.75000000       0.25000000 </v>
   <v>       0.00000000       0.00000000       0.50000000 </v>
   <v>       0.25000000       0.25000000       0.75000000 </v>
   <v>       0.50000000       0.50000000       0.00000000 </v>
   <v>       0.75000000       0.75000000       0.25000000 </v>
   <v>       0.00000000       0.50000000       0.50000000 </v>
   <v>       0.25000000       0.75000000       0.75000000 </v>
   <v>       0.50000000       0.00000000       0.50000000 </v>
   <v>       0.75000000       0.25000000       0.75000000 </v>
   <v>       0.50000000       0.50000000       0.50000000 </v>
   <v>       0.75000000       0.75000000       0.75000000 </v>
  </varray>
 </structure>
</modeling>
