  16  16   0   0
  0.1798157E+02  0.6601600E-09  0.6601600E-09  0.6601600E-09  0.5000000E-15
  1.000000000000000E-004
  CAR 
 Nb gaussian                             
     10.95724364    -28.07183855  301      4.85405785      1.00000000
    -28.072  0.0000E+00  0.0000E+00
    -27.942  0.0000E+00  0.0000E+00
    -27.812  0.0000E+00  0.0000E+00
    -27.682  0.0000E+00  0.0000E+00
    -27.551  0.0000E+00  0.0000E+00
    -27.421  0.0000E+00  0.0000E+00
    -27.291  0.0000E+00  0.0000E+00
    -27.161  0.1126E-13  0.1465E-14
    -27.031  0.1186E-10  0.1545E-11
    -26.901  0.5552E-08  0.7239E-09
    -26.771  0.1171E-05  0.1531E-06
    -26.641  0.1129E-03  0.1484E-04
    -26.511  0.5077E-02  0.6754E-03
    -26.381  0.1097E+00  0.1495E-01
    -26.250  0.1190E+01  0.1698E+00
    -26.120  0.6895E+01  0.1067E+01
    -25.990  0.2292E+02  0.4048E+01
    -25.860  0.4656E+02  0.1011E+02
    -25.730  0.6117E+02  0.1806E+02
    -25.600  0.5893E+02  0.2573E+02
    -25.470  0.5446E+02  0.3281E+02
    -25.340  0.5905E+02  0.4050E+02
    -25.210  0.6893E+02  0.4946E+02
    -25.080  0.7708E+02  0.5949E+02
    -24.950  0.8351E+02  0.7036E+02
    -24.819  0.8582E+02  0.8152E+02
    -24.689  0.6788E+02  0.9035E+02
    -24.559  0.3324E+02  0.9468E+02
    -24.429  0.8888E+01  0.9583E+02
    -24.299  0.1211E+01  0.9599E+02
    -24.169  0.8030E-01  0.9600E+02
    -24.039  0.2513E-02  0.9600E+02
    -23.909  0.3627E-04  0.9600E+02
    -23.779  0.2374E-06  0.9600E+02
    -23.649  0.6963E-09  0.9600E+02
    -23.518  0.9058E-12  0.9600E+02
    -23.388  0.0000E+00  0.9600E+02
    -23.258  0.0000E+00  0.9600E+02
    -23.128  0.0000E+00  0.9600E+02
    -22.998  0.0000E+00  0.9600E+02
    -22.868  0.0000E+00  0.9600E+02
    -22.738  0.0000E+00  0.9600E+02
    -22.608  0.0000E+00  0.9600E+02
    -22.478  0.0000E+00  0.9600E+02
    -22.348  0.0000E+00  0.9600E+02
    -22.217  0.0000E+00  0.9600E+02
    -22.087  0.0000E+00  0.9600E+02
    -21.957  0.0000E+00  0.9600E+02
    -21.827  0.0000E+00  0.9600E+02
    -21.697  0.0000E+00  0.9600E+02
    -21.567  0.0000E+00  0.9600E+02
    -21.437  0.0000E+00  0.9600E+02
    -21.307  0.0000E+00  0.9600E+02
    -21.177  0.0000E+00  0.9600E+02
    -21.047  0.0000E+00  0.9600E+02
    -20.917  0.0000E+00  0.9600E+02
    -20.786  0.0000E+00  0.9600E+02
    -20.656  0.0000E+00  0.9600E+02
    -20.526  0.0000E+00  0.9600E+02
    -20.396  0.0000E+00  0.9600E+02
    -20.266  0.0000E+00  0.9600E+02
    -20.136  0.0000E+00  0.9600E+02
    -20.006  0.0000E+00  0.9600E+02
    -19.876  0.0000E+00  0.9600E+02
    -19.746  0.0000E+00  0.9600E+02
    -19.616  0.0000E+00  0.9600E+02
    -19.485  0.0000E+00  0.9600E+02
    -19.355  0.0000E+00  0.9600E+02
    -19.225  0.0000E+00  0.9600E+02
    -19.095  0.0000E+00  0.9600E+02
    -18.965  0.0000E+00  0.9600E+02
    -18.835  0.0000E+00  0.9600E+02
    -18.705  0.0000E+00  0.9600E+02
    -18.575  0.0000E+00  0.9600E+02
    -18.445  0.0000E+00  0.9600E+02
    -18.315  0.0000E+00  0.9600E+02
    -18.184  0.0000E+00  0.9600E+02
    -18.054  0.0000E+00  0.9600E+02
    -17.924  0.0000E+00  0.9600E+02
    -17.794  0.0000E+00  0.9600E+02
    -17.664  0.0000E+00  0.9600E+02
    -17.534  0.0000E+00  0.9600E+02
    -17.404  0.0000E+00  0.9600E+02
    -17.274  0.0000E+00  0.9600E+02
    -17.144  0.0000E+00  0.9600E+02
    -17.014  0.0000E+00  0.9600E+02
    -16.884  0.0000E+00  0.9600E+02
    -16.753  0.0000E+00  0.9600E+02
    -16.623  0.0000E+00  0.9600E+02
    -16.493  0.0000E+00  0.9600E+02
    -16.363  0.0000E+00  0.9600E+02
    -16.233  0.0000E+00  0.9600E+02
    -16.103  0.0000E+00  0.9600E+02
    -15.973  0.0000E+00  0.9600E+02
    -15.843  0.0000E+00  0.9600E+02
    -15.713  0.0000E+00  0.9600E+02
    -15.583  0.0000E+00  0.9600E+02
    -15.452  0.0000E+00  0.9600E+02
    -15.322  0.0000E+00  0.9600E+02
    -15.192  0.0000E+00  0.9600E+02
    -15.062  0.0000E+00  0.9600E+02
    -14.932  0.0000E+00  0.9600E+02
    -14.802  0.0000E+00  0.9600E+02
    -14.672  0.0000E+00  0.9600E+02
    -14.542  0.0000E+00  0.9600E+02
    -14.412  0.0000E+00  0.9600E+02
    -14.282  0.0000E+00  0.9600E+02
    -14.151  0.0000E+00  0.9600E+02
    -14.021  0.0000E+00  0.9600E+02
    -13.891  0.0000E+00  0.9600E+02
    -13.761  0.0000E+00  0.9600E+02
    -13.631  0.0000E+00  0.9600E+02
    -13.501  0.0000E+00  0.9600E+02
    -13.371  0.0000E+00  0.9600E+02
    -13.241  0.0000E+00  0.9600E+02
    -13.111  0.0000E+00  0.9600E+02
    -12.981  0.0000E+00  0.9600E+02
    -12.850  0.0000E+00  0.9600E+02
    -12.720  0.0000E+00  0.9600E+02
    -12.590  0.0000E+00  0.9600E+02
    -12.460  0.0000E+00  0.9600E+02
    -12.330  0.0000E+00  0.9600E+02
    -12.200  0.0000E+00  0.9600E+02
    -12.070  0.0000E+00  0.9600E+02
    -11.940  0.0000E+00  0.9600E+02
    -11.810  0.0000E+00  0.9600E+02
    -11.680  0.0000E+00  0.9600E+02
    -11.550  0.0000E+00  0.9600E+02
    -11.419  0.0000E+00  0.9600E+02
    -11.289  0.0000E+00  0.9600E+02
    -11.159  0.0000E+00  0.9600E+02
    -11.029  0.0000E+00  0.9600E+02
    -10.899  0.0000E+00  0.9600E+02
    -10.769  0.0000E+00  0.9600E+02
    -10.639  0.0000E+00  0.9600E+02
    -10.509  0.0000E+00  0.9600E+02
    -10.379  0.0000E+00  0.9600E+02
    -10.249  0.0000E+00  0.9600E+02
    -10.118  0.0000E+00  0.9600E+02
     -9.988  0.0000E+00  0.9600E+02
     -9.858  0.0000E+00  0.9600E+02
     -9.728  0.0000E+00  0.9600E+02
     -9.598  0.0000E+00  0.9600E+02
     -9.468  0.0000E+00  0.9600E+02
     -9.338  0.0000E+00  0.9600E+02
     -9.208  0.0000E+00  0.9600E+02
     -9.078  0.0000E+00  0.9600E+02
     -8.948  0.0000E+00  0.9600E+02
     -8.817  0.0000E+00  0.9600E+02
     -8.687  0.0000E+00  0.9600E+02
     -8.557  0.0000E+00  0.9600E+02
     -8.427  0.0000E+00  0.9600E+02
     -8.297  0.0000E+00  0.9600E+02
     -8.167  0.0000E+00  0.9600E+02
     -8.037  0.0000E+00  0.9600E+02
     -7.907  0.0000E+00  0.9600E+02
     -7.777  0.0000E+00  0.9600E+02
     -7.647  0.0000E+00  0.9600E+02
     -7.517  0.0000E+00  0.9600E+02
     -7.386  0.0000E+00  0.9600E+02
     -7.256  0.0000E+00  0.9600E+02
     -7.126  0.0000E+00  0.9600E+02
     -6.996  0.0000E+00  0.9600E+02
     -6.866  0.0000E+00  0.9600E+02
     -6.736  0.0000E+00  0.9600E+02
     -6.606  0.0000E+00  0.9600E+02
     -6.476  0.0000E+00  0.9600E+02
     -6.346  0.0000E+00  0.9600E+02
     -6.216  0.0000E+00  0.9600E+02
     -6.085  0.0000E+00  0.9600E+02
     -5.955  0.0000E+00  0.9600E+02
     -5.825  0.0000E+00  0.9600E+02
     -5.695  0.0000E+00  0.9600E+02
     -5.565  0.0000E+00  0.9600E+02
     -5.435  0.0000E+00  0.9600E+02
     -5.305  0.0000E+00  0.9600E+02
     -5.175  0.0000E+00  0.9600E+02
     -5.045  0.0000E+00  0.9600E+02
     -4.915  0.0000E+00  0.9600E+02
     -4.784  0.0000E+00  0.9600E+02
     -4.654  0.0000E+00  0.9600E+02
     -4.524  0.0000E+00  0.9600E+02
     -4.394  0.0000E+00  0.9600E+02
     -4.264  0.0000E+00  0.9600E+02
     -4.134  0.0000E+00  0.9600E+02
     -4.004  0.0000E+00  0.9600E+02
     -3.874  0.0000E+00  0.9600E+02
     -3.744  0.0000E+00  0.9600E+02
     -3.614  0.0000E+00  0.9600E+02
     -3.484  0.0000E+00  0.9600E+02
     -3.353  0.0000E+00  0.9600E+02
     -3.223  0.0000E+00  0.9600E+02
     -3.093  0.0000E+00  0.9600E+02
     -2.963  0.0000E+00  0.9600E+02
     -2.833  0.0000E+00  0.9600E+02
     -2.703  0.0000E+00  0.9600E+02
     -2.573  0.0000E+00  0.9600E+02
     -2.443  0.0000E+00  0.9600E+02
     -2.313  0.0000E+00  0.9600E+02
     -2.183  0.8334E-16  0.9600E+02
     -2.052  0.9107E-13  0.9600E+02
     -1.922  0.4417E-10  0.9600E+02
     -1.792  0.9628E-08  0.9600E+02
     -1.662  0.9553E-06  0.9600E+02
     -1.532  0.4391E-04  0.9600E+02
     -1.402  0.9586E-03  0.9600E+02
     -1.272  0.1030E-01  0.9600E+02
     -1.142  0.5752E-01  0.9601E+02
     -1.012  0.1814E+00  0.9603E+02
     -0.882  0.3652E+00  0.9608E+02
     -0.751  0.5474E+00  0.9615E+02
     -0.621  0.7024E+00  0.9624E+02
     -0.491  0.8400E+00  0.9635E+02
     -0.361  0.9706E+00  0.9648E+02
     -0.231  0.1100E+01  0.9662E+02
     -0.101  0.1232E+01  0.9678E+02
      0.029  0.1369E+01  0.9696E+02
      0.159  0.1514E+01  0.9716E+02
      0.289  0.1670E+01  0.9737E+02
      0.419  0.1843E+01  0.9761E+02
      0.549  0.2034E+01  0.9788E+02
      0.680  0.2264E+01  0.9817E+02
      0.810  0.2559E+01  0.9851E+02
      0.940  0.3165E+01  0.9892E+02
      1.070  0.4739E+01  0.9953E+02
      1.200  0.7876E+01  0.1006E+03
      1.330  0.1165E+02  0.1021E+03
      1.460  0.1438E+02  0.1039E+03
      1.590  0.1584E+02  0.1060E+03
      1.720  0.1681E+02  0.1082E+03
      1.850  0.1790E+02  0.1105E+03
      1.981  0.1935E+02  0.1130E+03
      2.111  0.2099E+02  0.1158E+03
      2.241  0.2204E+02  0.1186E+03
      2.371  0.2211E+02  0.1215E+03
      2.501  0.2126E+02  0.1243E+03
      2.631  0.1891E+02  0.1267E+03
      2.761  0.1491E+02  0.1287E+03
      2.891  0.1129E+02  0.1301E+03
      3.021  0.1077E+02  0.1316E+03
      3.151  0.1513E+02  0.1335E+03
      3.282  0.2302E+02  0.1365E+03
      3.412  0.2991E+02  0.1404E+03
      3.542  0.3191E+02  0.1446E+03
      3.672  0.2863E+02  0.1483E+03
      3.802  0.2364E+02  0.1514E+03
      3.932  0.2011E+02  0.1540E+03
      4.062  0.1850E+02  0.1564E+03
      4.192  0.1848E+02  0.1588E+03
      4.322  0.2023E+02  0.1614E+03
      4.452  0.2417E+02  0.1646E+03
      4.582  0.2875E+02  0.1683E+03
      4.713  0.3005E+02  0.1722E+03
      4.843  0.2698E+02  0.1757E+03
      4.973  0.2236E+02  0.1786E+03
      5.103  0.1799E+02  0.1810E+03
      5.233  0.1390E+02  0.1828E+03
      5.363  0.1068E+02  0.1842E+03
      5.493  0.8955E+01  0.1853E+03
      5.623  0.8197E+01  0.1864E+03
      5.753  0.7773E+01  0.1874E+03
      5.883  0.7588E+01  0.1884E+03
      6.014  0.7580E+01  0.1894E+03
      6.144  0.7669E+01  0.1904E+03
      6.274  0.8039E+01  0.1914E+03
      6.404  0.8833E+01  0.1926E+03
      6.534  0.1030E+02  0.1939E+03
      6.664  0.1222E+02  0.1955E+03
      6.794  0.1359E+02  0.1973E+03
      6.924  0.1444E+02  0.1992E+03
      7.054  0.1506E+02  0.2011E+03
      7.184  0.1576E+02  0.2032E+03
      7.315  0.1681E+02  0.2054E+03
      7.445  0.1810E+02  0.2077E+03
      7.575  0.1947E+02  0.2102E+03
      7.705  0.2024E+02  0.2129E+03
      7.835  0.2058E+02  0.2155E+03
      7.965  0.2146E+02  0.2183E+03
      8.095  0.2296E+02  0.2213E+03
      8.225  0.2368E+02  0.2244E+03
      8.355  0.2309E+02  0.2274E+03
      8.485  0.2232E+02  0.2303E+03
      8.615  0.2198E+02  0.2332E+03
      8.746  0.2130E+02  0.2359E+03
      8.876  0.1753E+02  0.2382E+03
      9.006  0.9865E+01  0.2395E+03
      9.136  0.3186E+01  0.2399E+03
      9.266  0.5329E+00  0.2400E+03
      9.396  0.4371E-01  0.2400E+03
      9.526  0.1706E-02  0.2400E+03
      9.656  0.3117E-04  0.2400E+03
      9.786  0.2644E-06  0.2400E+03
      9.916  0.1037E-08  0.2400E+03
     10.047  0.1881E-11  0.2400E+03
     10.177  0.1260E-14  0.2400E+03
     10.307  0.0000E+00  0.2400E+03
     10.437  0.0000E+00  0.2400E+03
     10.567  0.0000E+00  0.2400E+03
     10.697  0.0000E+00  0.2400E+03
     10.827  0.0000E+00  0.2400E+03
     10.957  0.0000E+00  0.2400E+03
