   16   16    1    1
  0.1798157E+02  0.6601600E-09  0.6601600E-09  0.6601600E-09  0.5000000E-15
  1.000000000000000E-004
  CAR 
 Nb gaussian                             
    176    120    120
 
  0.3125000E-01  0.3125000E-01  0.3125000E-01  0.1953125E-02
    1      -26.071839   1.000000
    2      -26.071839   1.000000
    3      -26.071839   1.000000
    4      -26.069793   1.000000
    5      -26.069793   1.000000
    6      -26.069793   1.000000
    7      -25.637622   1.000000
    8      -25.637622   1.000000
    9      -25.632835   1.000000
   10      -25.471893   1.000000
   11      -25.471893   1.000000
   12      -25.471893   1.000000
   13      -25.460009   1.000000
   14      -25.427009   1.000000
   15      -25.427009   1.000000
   16      -25.427009   1.000000
   17      -25.426780   1.000000
   18      -25.426780   1.000000
   19      -25.359516   1.000000
   20      -25.359516   1.000000
   21      -25.325820   1.000000
   22      -25.179560   1.000000
   23      -25.179560   1.000000
   24      -25.179560   1.000000
   25      -25.171427   1.000000
   26      -25.171427   1.000000
   27      -25.171427   1.000000
   28      -25.132992   1.000000
   29      -25.132992   1.000000
   30      -25.132992   1.000000
   31      -25.129114   1.000000
   32      -25.129114   1.000000
   33      -25.129114   1.000000
   34      -25.126811   1.000000
   35      -25.126811   1.000000
   36      -25.126811   1.000000
   37      -25.125134   1.000000
   38      -25.125134   1.000000
   39      -25.125134   1.000000
   40      -24.707269   1.000000
   41      -24.707269   1.000000
   42      -24.707269   1.000000
   43      -24.704856   1.000000
   44      -24.704856   1.000000
   45      -24.704856   1.000000
   46      -24.696766   1.000000
   47      -24.691344   1.000000
   48      -24.691344   1.000000
   49       -1.072766   1.000000
   50        1.093208   1.000000
   51        1.093208   1.000000
   52        1.099340   1.000000
   53        1.099340   1.000000
   54        1.099340   1.000000
   55        1.104562   1.000000
   56        1.104562   1.000000
   57        1.104562   1.000000
   58        2.257302   1.000000
   59        2.257302   1.000000
   60        2.257302   1.000000
   61        2.439104   1.000000
   62        2.439104   1.000000
   63        2.439104   1.000000
   64        3.142482   1.000000
   65        3.142482   1.000000
   66        3.142482   1.000000
   67        3.149293   1.000000
   68        3.149293   1.000000
   69        3.149293   1.000000
   70        3.583825   1.000000
   71        3.614941   1.000000
   72        3.614941   1.000000
   73        3.614941   1.000000
   74        3.667202   1.000000
   75        3.667202   1.000000
   76        3.815188   1.000000
   77        3.815188   1.000000
   78        3.878334   1.000000
   79        3.925001   1.000000
   80        3.925001   1.000000
   81        3.925001   1.000000
   82        5.157466   0.015960
   83        5.157466   0.015960
   84        5.181843   0.010230
   85        5.700710   0.000000
   86        5.700710   0.000000
   87        5.700710   0.000000
   88        5.748710   0.000000
   89        5.748710   0.000000
   90        5.748710   0.000000
   91        5.868681   0.000000
   92        5.868681   0.000000
   93        5.868681   0.000000
   94        5.916452   0.000000
   95        5.916452   0.000000
   96        5.916452   0.000000
   97        7.133593   0.000000
   98        7.133593   0.000000
   99        7.133593   0.000000
  100        7.171890   0.000000
  101        7.171890   0.000000
  102        7.171890   0.000000
  103        7.304005   0.000000
  104        7.304005   0.000000
  105        7.304005   0.000000
  106        7.552592   0.000000
  107        7.552593   0.000000
  108        7.552593   0.000000
  109        8.071486   0.000000
  110        8.071499   0.000000
  111        8.091262   0.000000
  112        8.091264   0.000000
  113        8.091279   0.000000
  114        8.118065   0.000000
  115        8.118070   0.000000
  116        8.118103   0.000000
  117        8.789207   0.000000
  118        8.798562   0.000000
  119        8.837261   0.000000
  120        8.892838   0.000000
 
  0.9375000E-01  0.3125000E-01  0.3125000E-01  0.5859375E-02
    1      -26.065745   1.000000
    2      -26.065745   1.000000
    3      -26.065323   1.000000
    4      -26.063360   1.000000
    5      -26.059629   1.000000
    6      -26.059629   1.000000
    7      -25.640797   1.000000
    8      -25.632936   1.000000
    9      -25.625639   1.000000
   10      -25.511406   1.000000
   11      -25.510886   1.000000
   12      -25.498742   1.000000
   13      -25.498742   1.000000
   14      -25.493598   1.000000
   15      -25.454487   1.000000
   16      -25.454487   1.000000
   17      -25.407732   1.000000
   18      -25.377108   1.000000
   19      -25.370167   1.000000
   20      -25.292483   1.000000
   21      -25.273177   1.000000
   22      -25.226051   1.000000
   23      -25.217658   1.000000
   24      -25.179517   1.000000
   25      -25.179517   1.000000
   26      -25.146930   1.000000
   27      -25.146930   1.000000
   28      -25.134409   1.000000
   29      -25.133227   1.000000
   30      -25.133227   1.000000
   31      -25.131971   1.000000
   32      -25.131971   1.000000
   33      -25.131949   1.000000
   34      -25.125037   1.000000
   35      -25.125037   1.000000
   36      -25.101041   1.000000
   37      -25.101041   1.000000
   38      -25.086798   1.000000
   39      -25.079220   1.000000
   40      -24.714367   1.000000
   41      -24.714367   1.000000
   42      -24.713749   1.000000
   43      -24.711478   1.000000
   44      -24.709346   1.000000
   45      -24.707115   1.000000
   46      -24.707115   1.000000
   47      -24.695733   1.000000
   48      -24.693458   1.000000
   49       -1.031577   1.000000
   50        1.115338   1.000000
   51        1.117779   1.000000
   52        1.117779   1.000000
   53        1.129015   1.000000
   54        1.133231   1.000000
   55        1.133231   1.000000
   56        1.140763   1.000000
   57        1.145711   1.000000
   58        2.028503   1.000000
   59        2.255840   1.000000
   60        2.255840   1.000000
   61        2.437423   1.000000
   62        2.437423   1.000000
   63        2.564220   1.000000
   64        3.140063   1.000000
   65        3.146264   1.000000
   66        3.165281   1.000000
   67        3.165281   1.000000
   68        3.184740   1.000000
   69        3.184740   1.000000
   70        3.317554   1.000000
   71        3.468883   1.000000
   72        3.538682   1.000000
   73        3.604153   1.000000
   74        3.604153   1.000000
   75        3.649010   1.000000
   76        3.737888   1.000000
   77        3.900614   1.000000
   78        3.900614   1.000000
   79        3.982592   1.000000
   80        3.997470   1.000000
   81        4.245049   0.999992
   82        5.141809   0.020940
   83        5.152866   0.017305
   84        5.211495   0.005745
   85        5.555590   0.000000
   86        5.564521   0.000000
   87        5.564521   0.000000
   88        5.607068   0.000000
   89        5.728872   0.000000
   90        5.728872   0.000000
   91        5.827766   0.000000
   92        5.827766   0.000000
   93        5.975910   0.000000
   94        5.975910   0.000000
   95        6.059977   0.000000
   96        6.109828   0.000000
   97        6.920505   0.000000
   98        6.920505   0.000000
   99        7.011929   0.000000
  100        7.011929   0.000000
  101        7.051749   0.000000
  102        7.063732   0.000000
  103        7.084948   0.000000
  104        7.464437   0.000000
  105        7.464437   0.000000
  106        7.713426   0.000000
  107        7.713426   0.000000
  108        7.807652   0.000000
  109        8.012086   0.000000
  110        8.035736   0.000000
  111        8.035737   0.000000
  112        8.092743   0.000000
  113        8.105168   0.000000
  114        8.110716   0.000000
  115        8.110727   0.000000
  116        8.129862   0.000000
  117        8.795972   0.000000
  118        8.845319   0.000000
  119        8.852246   0.000000
  120        8.867656   0.000000
 
  0.1562500E+00  0.3125000E-01  0.3125000E-01  0.5859375E-02
    1      -26.052417   1.000000
    2      -26.051709   1.000000
    3      -26.051709   1.000000
    4      -26.050549   1.000000
    5      -26.041610   1.000000
    6      -26.041610   1.000000
    7      -25.643299   1.000000
    8      -25.623611   1.000000
    9      -25.615013   1.000000
   10      -25.569575   1.000000
   11      -25.559354   1.000000
   12      -25.545402   1.000000
   13      -25.543135   1.000000
   14      -25.543135   1.000000
   15      -25.499976   1.000000
   16      -25.499976   1.000000
   17      -25.391769   1.000000
   18      -25.367157   1.000000
   19      -25.322850   1.000000
   20      -25.272105   1.000000
   21      -25.263439   1.000000
   22      -25.226349   1.000000
   23      -25.213559   1.000000
   24      -25.178149   1.000000
   25      -25.178149   1.000000
   26      -25.144802   1.000000
   27      -25.142085   1.000000
   28      -25.135333   1.000000
   29      -25.135333   1.000000
   30      -25.132681   1.000000
   31      -25.132681   1.000000
   32      -25.123876   1.000000
   33      -25.123876   1.000000
   34      -25.108568   1.000000
   35      -25.108568   1.000000
   36      -25.063278   1.000000
   37      -25.063278   1.000000
   38      -25.041421   1.000000
   39      -25.034131   1.000000
   40      -24.730798   1.000000
   41      -24.726679   1.000000
   42      -24.726111   1.000000
   43      -24.726111   1.000000
   44      -24.724692   1.000000
   45      -24.714143   1.000000
   46      -24.714143   1.000000
   47      -24.704509   1.000000
   48      -24.700982   1.000000
   49       -0.949865   1.000000
   50        1.159243   1.000000
   51        1.159243   1.000000
   52        1.159551   1.000000
   53        1.185057   1.000000
   54        1.185057   1.000000
   55        1.199518   1.000000
   56        1.222495   1.000000
   57        1.227186   1.000000
   58        1.763804   1.000000
   59        2.245034   1.000000
   60        2.245034   1.000000
   61        2.423155   1.000000
   62        2.423155   1.000000
   63        2.626528   1.000000
   64        3.034632   1.000000
   65        3.134680   1.000000
   66        3.140808   1.000000
   67        3.216038   1.000000
   68        3.216038   1.000000
   69        3.248931   1.000000
   70        3.248931   1.000000
   71        3.354517   1.000000
   72        3.429331   1.000000
   73        3.538469   1.000000
   74        3.602237   1.000000
   75        3.602237   1.000000
   76        3.619076   1.000000
   77        3.875170   1.000000
   78        3.875170   1.000000
   79        4.168260   0.999999
   80        4.169153   0.999999
   81        4.570283   0.977604
   82        5.127298   0.026674
   83        5.144556   0.019981
   84        5.255643   0.002258
   85        5.342236   0.000278
   86        5.342236   0.000278
   87        5.432695   0.000021
   88        5.493435   0.000003
   89        5.501177   0.000002
   90        5.501177   0.000002
   91        5.977769   0.000000
   92        5.977769   0.000000
   93        6.090640   0.000000
   94        6.090640   0.000000
   95        6.274854   0.000000
   96        6.328423   0.000000
   97        6.604892   0.000000
   98        6.604892   0.000000
   99        6.716319   0.000000
  100        6.716319   0.000000
  101        6.833395   0.000000
  102        6.898672   0.000000
  103        6.923934   0.000000
  104        7.726026   0.000000
  105        7.726027   0.000000
  106        7.895849   0.000000
  107        7.951607   0.000000
  108        7.951608   0.000000
  109        7.976420   0.000000
  110        7.976422   0.000000
  111        8.063286   0.000000
  112        8.063296   0.000000
  113        8.067053   0.000000
  114        8.132387   0.000000
  115        8.134784   0.000000
  116        8.154115   0.000000
  117        8.812244   0.000000
  118        8.854125   0.000000
  119        8.874447   0.000000
  120        8.924130   0.000000
 
  0.2187500E+00  0.3125000E-01  0.3125000E-01  0.5859375E-02
    1      -26.033243   1.000000
    2      -26.031556   1.000000
    3      -26.030001   1.000000
    4      -26.030001   1.000000
    5      -26.015949   1.000000
    6      -26.015949   1.000000
    7      -25.645284   1.000000
    8      -25.629895   1.000000
    9      -25.623426   1.000000
   10      -25.609709   1.000000
   11      -25.600439   1.000000
   12      -25.596427   1.000000
   13      -25.596427   1.000000
   14      -25.573814   1.000000
   15      -25.554860   1.000000
   16      -25.554860   1.000000
   17      -25.374244   1.000000
   18      -25.356331   1.000000
   19      -25.317169   1.000000
   20      -25.308282   1.000000
   21      -25.264764   1.000000
   22      -25.175970   1.000000
   23      -25.175970   1.000000
   24      -25.161739   1.000000
   25      -25.159936   1.000000
   26      -25.156784   1.000000
   27      -25.152578   1.000000
   28      -25.139156   1.000000
   29      -25.139156   1.000000
   30      -25.131798   1.000000
   31      -25.131798   1.000000
   32      -25.123263   1.000000
   33      -25.123263   1.000000
   34      -25.063997   1.000000
   35      -25.063997   1.000000
   36      -25.019753   1.000000
   37      -25.019753   1.000000
   38      -24.997311   1.000000
   39      -24.990309   1.000000
   40      -24.761078   1.000000
   41      -24.745942   1.000000
   42      -24.744366   1.000000
   43      -24.742467   1.000000
   44      -24.742467   1.000000
   45      -24.725879   1.000000
   46      -24.725879   1.000000
   47      -24.717501   1.000000
   48      -24.713270   1.000000
   49       -0.828987   1.000000
   50        1.222952   1.000000
   51        1.222952   1.000000
   52        1.225791   1.000000
   53        1.259007   1.000000
   54        1.259007   1.000000
   55        1.303571   1.000000
   56        1.342872   1.000000
   57        1.346993   1.000000
   58        1.474973   1.000000
   59        2.212428   1.000000
   60        2.212428   1.000000
   61        2.379860   1.000000
   62        2.379860   1.000000
   63        2.624873   1.000000
   64        2.767732   1.000000
   65        3.127588   1.000000
   66        3.133236   1.000000
   67        3.236760   1.000000
   68        3.295227   1.000000
   69        3.295227   1.000000
   70        3.338606   1.000000
   71        3.340722   1.000000
   72        3.340722   1.000000
   73        3.367523   1.000000
   74        3.471210   1.000000
   75        3.639448   1.000000
   76        3.639448   1.000000
   77        3.881322   1.000000
   78        3.881322   1.000000
   79        4.367518   0.999710
   80        4.374228   0.999654
   81        4.886969   0.407990
   82        5.086801   0.049908
   83        5.086801   0.049908
   84        5.114511   0.032761
   85        5.134807   0.023561
   86        5.237752   0.003333
   87        5.237752   0.003333
   88        5.315980   0.000545
   89        5.331213   0.000370
   90        5.417853   0.000034
   91        6.173632   0.000000
   92        6.173632   0.000000
   93        6.239085   0.000000
   94        6.239085   0.000000
   95        6.244802   0.000000
   96        6.244802   0.000000
   97        6.354261   0.000000
   98        6.354261   0.000000
   99        6.513929   0.000000
  100        6.572260   0.000000
  101        6.614448   0.000000
  102        6.691346   0.000000
  103        6.708086   0.000000
  104        7.727585   0.000000
  105        7.840723   0.000000
  106        7.840723   0.000000
  107        7.977360   0.000000
  108        7.977361   0.000000
  109        8.038862   0.000000
  110        8.038864   0.000000
  111        8.172022   0.000000
  112        8.190590   0.000000
  113        8.196760   0.000000
  114        8.291173   0.000000
  115        8.291180   0.000000
  116        8.328569   0.000000
  117        8.805302   0.000000
  118        8.814854   0.000000
  119        8.820960   0.000000
  120        8.845239   0.000000
 
  0.2812500E+00  0.3125000E-01  0.3125000E-01  0.5859375E-02
    1      -26.007937   1.000000
    2      -26.006497   1.000000
    3      -26.000971   1.000000
    4      -26.000971   1.000000
    5      -25.983077   1.000000
    6      -25.983077   1.000000
    7      -25.689346   1.000000
    8      -25.685190   1.000000
    9      -25.653630   1.000000
   10      -25.653630   1.000000
   11      -25.646839   1.000000
   12      -25.614076   1.000000
   13      -25.614076   1.000000
   14      -25.596915   1.000000
   15      -25.591427   1.000000
   16      -25.581793   1.000000
   17      -25.360726   1.000000
   18      -25.353986   1.000000
   19      -25.351669   1.000000
   20      -25.340192   1.000000
   21      -25.203842   1.000000
   22      -25.179088   1.000000
   23      -25.175405   1.000000
   24      -25.173086   1.000000
   25      -25.173086   1.000000
   26      -25.143359   1.000000
   27      -25.143359   1.000000
   28      -25.130684   1.000000
   29      -25.130684   1.000000
   30      -25.123193   1.000000
   31      -25.123193   1.000000
   32      -25.099209   1.000000
   33      -25.092452   1.000000
   34      -25.017780   1.000000
   35      -25.017780   1.000000
   36      -24.975017   1.000000
   37      -24.975017   1.000000
   38      -24.954884   1.000000
   39      -24.948168   1.000000
   40      -24.799638   1.000000
   41      -24.771320   1.000000
   42      -24.770294   1.000000
   43      -24.763322   1.000000
   44      -24.763322   1.000000
   45      -24.742318   1.000000
   46      -24.742318   1.000000
   47      -24.734649   1.000000
   48      -24.729975   1.000000
   49       -0.670860   1.000000
   50        1.172470   1.000000
   51        1.307316   1.000000
   52        1.307316   1.000000
   53        1.314097   1.000000
   54        1.353805   1.000000
   55        1.353805   1.000000
   56        1.435358   1.000000
   57        1.499311   1.000000
   58        1.502671   1.000000
   59        2.147810   1.000000
   60        2.147810   1.000000
   61        2.297586   1.000000
   62        2.297586   1.000000
   63        2.517913   1.000000
   64        2.563798   1.000000
   65        3.087533   1.000000
   66        3.120863   1.000000
   67        3.126424   1.000000
   68        3.154212   1.000000
   69        3.265728   1.000000
   70        3.333705   1.000000
   71        3.401350   1.000000
   72        3.401350   1.000000
   73        3.459709   1.000000
   74        3.459709   1.000000
   75        3.737816   1.000000
   76        3.737816   1.000000
   77        3.944805   1.000000
   78        3.944805   1.000000
   79        4.587838   0.970113
   80        4.596882   0.965507
   81        4.824900   0.581673
   82        4.824900   0.581673
   83        4.965744   0.214840
   84        4.965744   0.214840
   85        5.103167   0.039080
   86        5.123399   0.028421
   87        5.124787   0.027788
   88        5.250196   0.002546
   89        5.393246   0.000069
   90        5.448211   0.000013
   91        5.853425   0.000000
   92        5.853425   0.000000
   93        5.967592   0.000000
   94        5.967592   0.000000
   95        6.396156   0.000000
   96        6.396156   0.000000
   97        6.408149   0.000000
   98        6.423898   0.000000
   99        6.423898   0.000000
  100        6.447394   0.000000
  101        6.456549   0.000000
  102        6.777610   0.000000
  103        6.841188   0.000000
  104        7.513555   0.000000
  105        7.706667   0.000000
  106        7.706667   0.000000
  107        7.856231   0.000000
  108        7.856231   0.000000
  109        8.223720   0.000000
  110        8.239145   0.000000
  111        8.277147   0.000000
  112        8.375449   0.000000
  113        8.375461   0.000000
  114        8.589619   0.000000
  115        8.629073   0.000000
  116        8.629526   0.000000
  117        8.750886   0.000000
  118        8.754213   0.000000
  119        8.840095   0.000000
  120        8.872914   0.000000
 
  0.3437500E+00  0.3125000E-01  0.3125000E-01  0.5859375E-02
    1      -25.976705   1.000000
    2      -25.975592   1.000000
    3      -25.965203   1.000000
    4      -25.965203   1.000000
    5      -25.943605   1.000000
    6      -25.943605   1.000000
    7      -25.746614   1.000000
    8      -25.744034   1.000000
    9      -25.711874   1.000000
   10      -25.711874   1.000000
   11      -25.674617   1.000000
   12      -25.674617   1.000000
   13      -25.647412   1.000000
   14      -25.614876   1.000000
   15      -25.568903   1.000000
   16      -25.559145   1.000000
   17      -25.402461   1.000000
   18      -25.393145   1.000000
   19      -25.331021   1.000000
   20      -25.320061   1.000000
   21      -25.201554   1.000000
   22      -25.197174   1.000000
   23      -25.169657   1.000000
   24      -25.169657   1.000000
   25      -25.147800   1.000000
   26      -25.147800   1.000000
   27      -25.141119   1.000000
   28      -25.129373   1.000000
   29      -25.129373   1.000000
   30      -25.123572   1.000000
   31      -25.123572   1.000000
   32      -25.039501   1.000000
   33      -25.034439   1.000000
   34      -24.972319   1.000000
   35      -24.972319   1.000000
   36      -24.931462   1.000000
   37      -24.931462   1.000000
   38      -24.914534   1.000000
   39      -24.908103   1.000000
   40      -24.845568   1.000000
   41      -24.802642   1.000000
   42      -24.802215   1.000000
   43      -24.788516   1.000000
   44      -24.788516   1.000000
   45      -24.763358   1.000000
   46      -24.763358   1.000000
   47      -24.755821   1.000000
   48      -24.750790   1.000000
   49       -0.478208   1.000000
   50        0.865669   1.000000
   51        1.410386   1.000000
   52        1.410386   1.000000
   53        1.424024   1.000000
   54        1.467540   1.000000
   55        1.467540   1.000000
   56        1.591254   1.000000
   57        1.688238   1.000000
   58        1.690333   1.000000
   59        2.050783   1.000000
   60        2.050783   1.000000
   61        2.180153   1.000000
   62        2.180153   1.000000
   63        2.286233   1.000000
   64        2.453140   1.000000
   65        2.882686   1.000000
   66        2.912995   1.000000
   67        3.116778   1.000000
   68        3.121968   1.000000
   69        3.209600   1.000000
   70        3.242181   1.000000
   71        3.534394   1.000000
   72        3.534394   1.000000
   73        3.605430   1.000000
   74        3.605430   1.000000
   75        3.901953   1.000000
   76        3.901953   1.000000
   77        4.074455   1.000000
   78        4.074455   1.000000
   79        4.572203   0.976870
   80        4.572203   0.976870
   81        4.699875   0.862196
   82        4.699875   0.862196
   83        4.826150   0.578218
   84        4.835785   0.551402
   85        5.095340   0.043993
   86        5.116679   0.031655
   87        5.165165   0.013908
   88        5.188368   0.009041
   89        5.466658   0.000007
   90        5.466658   0.000007
   91        5.487966   0.000004
   92        5.580122   0.000000
   93        5.580122   0.000000
   94        5.694318   0.000000
   95        6.181817   0.000000
   96        6.184824   0.000000
   97        6.215605   0.000000
   98        6.616500   0.000000
   99        6.616500   0.000000
  100        6.631593   0.000000
  101        6.631593   0.000000
  102        7.065502   0.000000
  103        7.134171   0.000000
  104        7.260965   0.000000
  105        7.553390   0.000000
  106        7.553390   0.000000
  107        7.703767   0.000000
  108        7.703767   0.000000
  109        8.285874   0.000000
  110        8.298585   0.000000
  111        8.374022   0.000000
  112        8.676556   0.000000
  113        8.679318   0.000000
  114        8.720491   0.000000
  115        8.721654   0.000000
  116        8.808611   0.000000
  117        8.832169   0.000000
  118        8.848204   0.000000
  119        8.862897   0.000000
  120        8.890838   0.000000
 
  0.4062500E+00  0.3125000E-01  0.3125000E-01  0.5859375E-02
    1      -25.939869   1.000000
    2      -25.939220   1.000000
    3      -25.923351   1.000000
    4      -25.923351   1.000000
    5      -25.898184   1.000000
    6      -25.898184   1.000000
    7      -25.800860   1.000000
    8      -25.799415   1.000000
    9      -25.769362   1.000000
   10      -25.769362   1.000000
   11      -25.734692   1.000000
   12      -25.734692   1.000000
   13      -25.646489   1.000000
   14      -25.628269   1.000000
   15      -25.542373   1.000000
   16      -25.532632   1.000000
   17      -25.441826   1.000000
   18      -25.432339   1.000000
   19      -25.306037   1.000000
   20      -25.297022   1.000000
   21      -25.226430   1.000000
   22      -25.221249   1.000000
   23      -25.165772   1.000000
   24      -25.165772   1.000000
   25      -25.152389   1.000000
   26      -25.152389   1.000000
   27      -25.128019   1.000000
   28      -25.128019   1.000000
   29      -25.124319   1.000000
   30      -25.124319   1.000000
   31      -25.077806   1.000000
   32      -24.983091   1.000000
   33      -24.979627   1.000000
   34      -24.928976   1.000000
   35      -24.928976   1.000000
   36      -24.897690   1.000000
   37      -24.890443   1.000000
   38      -24.890443   1.000000
   39      -24.876624   1.000000
   40      -24.870439   1.000000
   41      -24.839900   1.000000
   42      -24.839481   1.000000
   43      -24.817898   1.000000
   44      -24.817898   1.000000
   45      -24.788884   1.000000
   46      -24.788884   1.000000
   47      -24.780829   1.000000
   48      -24.775500   1.000000
   49       -0.254197   1.000000
   50        0.562924   1.000000
   51        1.528940   1.000000
   52        1.528940   1.000000
   53        1.555328   1.000000
   54        1.597417   1.000000
   55        1.597417   1.000000
   56        1.764955   1.000000
   57        1.904809   1.000000
   58        1.905270   1.000000
   59        1.929438   1.000000
   60        1.929438   1.000000
   61        2.039797   1.000000
   62        2.039797   1.000000
   63        2.073674   1.000000
   64        2.304820   1.000000
   65        2.642278   1.000000
   66        2.656805   1.000000
   67        3.116992   1.000000
   68        3.123003   1.000000
   69        3.168966   1.000000
   70        3.185691   1.000000
   71        3.692913   1.000000
   72        3.692913   1.000000
   73        3.776329   1.000000
   74        3.776329   1.000000
   75        4.117977   1.000000
   76        4.117977   1.000000
   77        4.224443   0.999996
   78        4.224443   0.999996
   79        4.379399   0.999605
   80        4.379399   0.999605
   81        4.454809   0.997622
   82        4.454809   0.997622
   83        5.079976   0.055079
   84        5.089024   0.048311
   85        5.092672   0.045777
   86        5.092672   0.045777
   87        5.093007   0.045550
   88        5.112844   0.033633
   89        5.144102   0.020137
   90        5.145623   0.019619
   91        5.207826   0.006183
   92        5.207826   0.006183
   93        5.600111   0.000000
   94        5.904146   0.000000
   95        5.905853   0.000000
   96        6.016755   0.000000
   97        6.037770   0.000000
   98        6.814235   0.000000
   99        6.814235   0.000000
  100        6.869149   0.000000
  101        6.869149   0.000000
  102        6.977366   0.000000
  103        7.376723   0.000000
  104        7.384185   0.000000
  105        7.384185   0.000000
  106        7.450359   0.000000
  107        7.523896   0.000000
  108        7.523897   0.000000
  109        8.356694   0.000000
  110        8.366483   0.000000
  111        8.429159   0.000000
  112        8.484722   0.000000
  113        8.517252   0.000000
  114        8.596839   0.000000
  115        8.600706   0.000000
  116        8.835844   0.000000
  117        8.850112   0.000000
  118        8.865113   0.000000
  119        8.874017   0.000000
  120        8.877664   0.000000
 
  0.4687500E+00  0.3125000E-01  0.3125000E-01  0.5859375E-02
    1      -25.897788   1.000000
    2      -25.897681   1.000000
    3      -25.876138   1.000000
    4      -25.876138   1.000000
    5      -25.851400   1.000000
    6      -25.850826   1.000000
    7      -25.847592   1.000000
    8      -25.847592   1.000000
    9      -25.824472   1.000000
   10      -25.824472   1.000000
   11      -25.792776   1.000000
   12      -25.792776   1.000000
   13      -25.643420   1.000000
   14      -25.637576   1.000000
   15      -25.512158   1.000000
   16      -25.502449   1.000000
   17      -25.478552   1.000000
   18      -25.468881   1.000000
   19      -25.279631   1.000000
   20      -25.272215   1.000000
   21      -25.252776   1.000000
   22      -25.246618   1.000000
   23      -25.161486   1.000000
   24      -25.161486   1.000000
   25      -25.156968   1.000000
   26      -25.156968   1.000000
   27      -25.126643   1.000000
   28      -25.126643   1.000000
   29      -25.125368   1.000000
   30      -25.125368   1.000000
   31      -25.015160   1.000000
   32      -24.954644   1.000000
   33      -24.930788   1.000000
   34      -24.928440   1.000000
   35      -24.888440   1.000000
   36      -24.888440   1.000000
   37      -24.882922   1.000000
   38      -24.881530   1.000000
   39      -24.852701   1.000000
   40      -24.852701   1.000000
   41      -24.851301   1.000000
   42      -24.851301   1.000000
   43      -24.841459   1.000000
   44      -24.835579   1.000000
   45      -24.818733   1.000000
   46      -24.818733   1.000000
   47      -24.809453   1.000000