 running on   40 total cores
 distrk:  each k-point on   40 cores,    1 groups
 distr:  one band on    1 cores,   40 groups
 using from now: INCAR     
 vasp.5.4.4.18Apr17-6-g9f103f2a35 (build May 20 2018 16:52:39) complex          
  
 POSCAR found type information on POSCAR  Nb
 POSCAR found :  1 types and      16 ions
 scaLAPACK will be used

 ----------------------------------------------------------------------------- 
|                                                                             |
|           W    W    AA    RRRRR   N    N  II  N    N   GGGG   !!!           |
|           W    W   A  A   R    R  NN   N  II  NN   N  G    G  !!!           |
|           W    W  A    A  R    R  N N  N  II  N N  N  G       !!!           |
|           W WW W  AAAAAA  RRRRR   N  N N  II  N  N N  G  GGG   !            |
|           WW  WW  A    A  R   R   N   NN  II  N   NN  G    G                |
|           W    W  A    A  R    R  N    N  II  N    N   GGGG   !!!           |
|                                                                             |
|      For optimal performance we recommend to set                            |
|        NCORE= 4 - approx SQRT( number of cores)                             |
|      NCORE specifies how many cores store one orbital (NPAR=cpu/NCORE).     |
|      This setting can  greatly improve the performance of VASP for DFT.     |
|      The default,   NCORE=1            might be grossly inefficient         |
|      on modern multi-core architectures or massively parallel machines.     |
|      Do your own testing !!!!                                               |
|      Unfortunately you need to use the default for GW and RPA calculations. |
|      (for HF NCORE is supported but not extensively tested yet)             |
|                                                                             |
 ----------------------------------------------------------------------------- 

 LDA part: xc-table for Ceperly-Alder, standard interpolation
 POSCAR, INCAR and KPOINTS ok, starting setup
 FFT: planning ...
 WAVECAR not read
 reading imaginary part of occupancies ...
 charge-density read from file: Nb                                      
 entering main loop
       N       E                     dE             d eps       ncg     rms          rms(c)
DAV:   1     0.133093860426E+04    0.13309E+04   -0.70568E+04 31160   0.112E+03
DAV:   2    -0.106188887075E+03   -0.14371E+04   -0.14091E+04 29200   0.453E+02
DAV:   3    -0.176456806366E+03   -0.70268E+02   -0.66268E+02 42520   0.798E+01
DAV:   4    -0.178342537782E+03   -0.18857E+01   -0.18755E+01 34800   0.142E+01
DAV:   5    -0.178429824573E+03   -0.87287E-01   -0.87165E-01 42080   0.221E+00
DAV:   6    -0.178430768769E+03   -0.94420E-03   -0.94394E-03 34800   0.290E-01
DAV:   7    -0.178430808245E+03   -0.39476E-04   -0.39474E-04 42920   0.501E-02
DAV:   8    -0.178430808614E+03   -0.36933E-06   -0.36978E-06 36800   0.620E-03
DAV:   9    -0.178430808627E+03   -0.13017E-07   -0.12745E-07 31800   0.103E-03
   1 F= -.17843081E+03 E0= -.17818817E+03  d E =-.485280E+00
 writing wavefunctions
