Si                                      
   5.43000000000000     
     0.000000    0.500000    0.500000
     0.500000    0.000000    0.500000
     0.500000    0.500000    0.000000
   Si
     2
Direct
  0.000000  0.000000  0.000000
  0.250000  0.250000  0.250000
 
   32   32   32
 -7.5008     -5.7665     -1.1388      4.9166      10.669      14.777      16.677      16.590      15.259      13.524    
  11.800      10.248      8.9593      7.9687      7.2760      6.8687      6.7345      6.8686      7.2760      7.9687    
  8.9594      10.248      11.800      13.524      15.258      16.589      16.677      14.778      10.670      4.9170    
 -1.1388     -5.7667     -5.7665     -2.3514      3.3268      9.5020      14.538      17.486      18.248      17.389    
  15.766      14.015      12.355      10.905      9.7269      8.8447      8.2615      7.9723      7.9722      8.2613    
  8.8448      9.7271      10.905      12.355      14.015      15.766      17.388      18.248      17.486      14.539    
  9.5028      3.3265     -2.3526     -5.7671     -1.1388      3.3268      9.0590      14.345      17.947      19.439    
  19.133      17.774      16.107      14.439      12.909      11.598      10.552      9.7935      9.3356      9.1828    
  9.3357      9.7935      10.552      11.598      12.909      14.439      16.107      17.774      19.132      19.438    
  17.947      14.345      9.0591      3.3266     -1.1390     -2.8284      4.9166      9.5020      14.345      18.097    
  20.063      20.280      19.304      17.846      16.293      14.793      13.439      12.287      11.381      10.755    
  10.436      10.436      10.756      11.381      12.287      13.439      14.794      16.293      17.846      19.304    
  20.279      20.062      18.097      14.345      9.5025      4.9173      2.1151      2.1147      10.669      14.538    
  17.947      20.063      20.680      20.132      19.005      17.695      16.351      15.067      13.903      12.910    
  12.141      11.653      11.485      11.653      12.141      12.910      13.903      15.067      16.351      17.695    
  19.005      20.132      20.680      20.062      17.947      14.538      10.669      7.5804      6.3986      7.5801    
  14.777      17.486      19.439      20.280      20.132      19.413      18.452      17.384      16.293      15.230    
  14.241      13.388      12.750      12.407      12.407      12.751      13.388      14.241      15.230      16.293    
  17.384      18.452      19.413      20.132      20.279      19.439      17.486      14.777      12.117      10.462    
  10.462      12.117      16.677      18.248      19.133      19.304      19.005      18.452      17.747      16.953    
  16.107      15.234      14.387      13.650      13.133      12.946      13.133      13.650      14.387      15.234    
  16.107      16.954      17.747      18.452      19.005      19.303      19.132      18.248      16.676      14.806    
  13.274      12.682      13.274      14.806      16.590      17.389      17.774      17.846      17.695      17.384    
  16.953      16.414      15.766      15.034      14.277      13.617      13.225      13.225      13.617      14.277    
  15.034      15.766      16.414      16.954      17.385      17.695      17.846      17.774      17.389      16.590    
  15.473      14.358      13.657      13.657      14.359      15.473      15.259      15.766      16.107      16.293    
  16.351      16.293      16.107      15.766      15.259      14.596      13.874      13.300      13.079      13.300    
  13.874      14.596      15.259      15.766      16.107      16.293      16.352      16.293      16.107      15.766    
  15.259      14.596      13.874      13.300      13.079      13.300      13.874      14.596      13.524      14.015    
  14.439      14.793      15.067      15.230      15.234      15.034      14.596      13.953      13.291      12.869    
  12.868      13.291      13.953      14.596      15.034      15.234      15.230      15.067      14.794      14.439    
  14.015      13.524      12.983      12.444      11.993      11.730      11.730      11.992      12.444      12.983    
  11.800      12.355      12.909      13.439      13.903      14.241      14.387      14.277      13.874      13.291    
  12.773      12.565      12.773      13.291      13.875      14.277      14.387      14.241      13.903      13.439    
  12.909      12.355      11.800      11.260      10.761      10.343      10.061      9.9604      10.061      10.343    
  10.761      11.260      10.248      10.905      11.598      12.287      12.910      13.388      13.650      13.617    
  13.300      12.869      12.565      12.565      12.868      13.300      13.617      13.650      13.389      12.910    
  12.287      11.598      10.905      10.248      9.6519      9.1336      8.7115      8.4088      8.2496      8.2497    
  8.4091      8.7118      9.1337      9.6516      8.9593      9.7269      10.552      11.381      12.141      12.750    
  13.133      13.225      13.079      12.868      12.773      12.868      13.079      13.224      13.133      12.751    
  12.142      11.381      10.552      9.7269      8.9595      8.2814      7.7093      7.2516      6.9155      6.7091    
  6.6393      6.7092      6.9157      7.2517      7.7093      8.2813      7.9687      8.8447      9.7935      10.755    
  11.653      12.407      12.946      13.225      13.300      13.291      13.291      13.300      13.224      12.946    
  12.407      11.653      10.756      9.7937      8.8448      7.9686      7.2017      6.5610      6.0508      5.6698    
  5.4161      5.2891      5.2891      5.4160      5.6696      6.0506      6.5611      7.2019      7.2760      8.2615    
  9.3356      10.436      11.485      12.407      13.133      13.617      13.874      13.953      13.875      13.617    
  13.133      12.407      11.485      10.436      9.3357      8.2615      7.2759      6.4178      5.7036      5.1342    
  4.7025      4.4003      4.2212      4.1618      4.2212      4.4002      4.7023      5.1340      5.7036      6.4179    
  6.8687      7.9723      9.1828      10.436      11.653      12.751      13.650      14.277      14.596      14.596    
  14.277      13.650      12.751      11.653      10.436      9.1826      7.9722      6.8687      5.9123      5.1189    
  4.4856      4.0005      3.6494      3.4211      3.3086      3.3086      3.4212      3.6495      4.0006      4.4857    
  5.1188      5.9122      6.7345      7.9722      9.3357      10.756      12.141      13.388      14.387      15.034    
  15.259      15.034      14.387      13.389      12.142      10.756      9.3357      7.9722      6.7346      5.6654    
  4.7807      4.0749      3.5310      3.1293      2.8531      2.6914      2.6381      2.6914      2.8531      3.1294    
  3.5312      4.0750      4.7807      5.6653      6.8686      8.2613      9.7935      11.381      12.910      14.241    
  15.234      15.766      15.766      15.234      14.241      12.910      11.381      9.7937      8.2615      6.8687    
  5.6654      4.6701      3.8762      3.2625      2.8038      2.4778      2.2683      2.1658      2.1658      2.2683    
  2.4777      2.8037      3.2624      3.8762      4.6702      5.6655      7.2760      8.8448      10.552      12.287    
  13.903      15.230      16.107      16.414      16.107      15.230      13.903      12.287      10.552      8.8448    
  7.2759      5.9123      4.7807      3.8762      3.1751      2.6472      2.2642      2.0047      1.8542      1.8048    
  1.8542      2.0047      2.2643      2.6471      3.1749      3.8760      4.7806      5.9124      7.9687      9.7271    
  11.598      13.439      15.067      16.293      16.954      16.954      16.293      15.067      13.439      11.598    
  9.7269      7.9686      6.4178      5.1189      4.0749      3.2625      2.6472      2.1949      1.8781      1.6770    
  1.5794      1.5794      1.6770      1.8781      2.1950      2.6472      3.2625      4.0748      5.1188      6.4178    
  8.9594      10.905      12.909      14.794      16.351      17.384      17.747      17.385      16.352      14.794    
  12.909      10.905      8.9595      7.2017      5.7036      4.4856      3.5310      2.8038      2.2642      1.8781    
  1.6195      1.4710      1.4226      1.4710      1.6195      1.8781      2.2643      2.8039      3.5312      4.4858    
  5.7036      7.2016      10.248      12.355      14.439      16.293      17.695      18.452      18.452      17.695    
  16.293      14.439      12.355      10.248      8.2814      6.5610      5.1342      4.0005      3.1293      2.4778    
  2.0047      1.6770      1.4710      1.3717      1.3717      1.4710      1.6770      2.0046      2.4777      3.1293    
  4.0007      5.1343      6.5611      8.2813      11.800      14.015      16.107      17.846      19.005      19.413    
  19.005      17.846      16.107      14.015      11.800      9.6519      7.7093      6.0508      4.7025      3.6494    
  2.8531      2.2683      1.8542      1.5794      1.4226      1.3717      1.4226      1.5794      1.8542      2.2683    
  2.8531      3.6493      4.7023      6.0507      7.7092      9.6519      13.524      15.766      17.774      19.304    
  20.132      20.132      19.303      17.774      15.766      13.524      11.260      9.1336      7.2516      5.6698    
  4.4003      3.4211      2.6914      2.1658      1.8048      1.5794      1.4710      1.4710      1.5794      1.8048    
  2.1658      2.6914      3.4212      4.4002      5.6696      7.2514      9.1337      11.260      15.258      17.388    
  19.132      20.279      20.680      20.279      19.132      17.389      15.259      12.983      10.761      8.7115    
  6.9155      5.4161      4.2212      3.3086      2.6381      2.1658      1.8542      1.6770      1.6195      1.6770    
  1.8542      2.1658      2.6381      3.3085      4.2212      5.4162      6.9157      8.7117      10.761      12.983    
  16.589      18.248      19.438      20.062      20.062      19.439      18.248      16.590      14.596      12.444    
  10.343      8.4088      6.7091      5.2891      4.1618      3.3086      2.6914      2.2683      2.0047      1.8781    
  1.8781      2.0046      2.2683      2.6914      3.3085      4.1617      5.2891      6.7093      8.4091      10.343    
  12.444      14.595      16.677      17.486      17.947      18.097      17.947      17.486      16.676      15.473    
  13.874      11.993      10.061      8.2496      6.6393      5.2891      4.2212      3.4212      2.8531      2.4777    
  2.2643      2.1950      2.2643      2.4777      2.8531      3.4212      4.2212      5.2891      6.6393      8.2494    
  10.061      11.993      13.875      15.473      14.778      14.539      14.345      14.345      14.538      14.777    
  14.806      14.358      13.300      11.730      9.9604      8.2497      6.7092      5.4160      4.4002      3.6495    
  3.1294      2.8037      2.6471      2.6472      2.8039      3.1293      3.6493      4.4002      5.4162      6.7093    
  8.2494      9.9600      11.730      13.300      14.359      14.806      10.670      9.5028      9.0591      9.5025    
  10.669      12.117      13.274      13.657      13.079      11.730      10.061      8.4091      6.9157      5.6696    
  4.7023      4.0006      3.5312      3.2624      3.1749      3.2625      3.5312      4.0007      4.7023      5.6696    
  6.9157      8.4091      10.061      11.730      13.079      13.657      13.274      12.118      4.9170      3.3265    
  3.3266      4.9173      7.5804      10.462      12.682      13.657      13.300      11.992      10.343      8.7118    
  7.2517      6.0506      5.1340      4.4857      4.0750      3.8762      3.8760      4.0748      4.4858      5.1343    
  6.0507      7.2514      8.7117      10.343      11.993      13.300      13.657      12.682      10.462      7.5802    
 -1.1388     -2.3526     -1.1390      2.1151      6.3986      10.462      13.274      14.359      13.874      12.444    
  10.761      9.1337      7.7093      6.5611      5.7036      5.1188      4.7807      4.6702      4.7806      5.1188    
  5.7036      6.5611      7.7092      9.1337      10.761      12.444      13.875      14.359      13.274      10.462    
  6.3986      2.1153     -5.7667     -5.7671     -2.8284      2.1147      7.5801      12.117      14.806      15.473    
  14.596      12.983      11.260      9.6516      8.2813      7.2019      6.4179      5.9122      5.6653      5.6655    
  5.9124      6.4178      7.2016      8.2813      9.6519      11.260      12.983      14.595      15.473      14.806    
  12.118      7.5802      2.1153     -2.8275     -5.7665     -2.3514      3.3268      9.5020      14.538      17.486    
  18.248      17.389      15.766      14.015      12.355      10.905      9.7269      8.8447      8.2615      7.9723    
  7.9722      8.2613      8.8448      9.7271      10.905      12.355      14.015      15.766      17.388      18.248    
  17.486      14.539      9.5028      3.3265     -2.3526     -5.7671     -2.3514      2.3837      8.4730      14.113    
  17.998      19.672      19.451      18.104      16.414      14.719      13.160      11.823      10.753      9.9760    
  9.5065      9.3496      9.5065      9.9760      10.753      11.823      13.160      14.719      16.414      18.104    
  19.451      19.672      17.998      14.113      8.4726      2.3825     -2.3525     -4.1422      3.3268      8.4730    
  13.939      18.233      20.575      20.989      20.060      18.562      16.953      15.395      13.981      12.775    
  11.822      11.161      10.823      10.823      11.161      11.822      12.775      13.981      15.395      16.954    
  18.562      20.060      20.989      20.575      18.232      13.938      8.4726      3.3265     0.18927     0.18940    
  9.5020      14.113      18.233      20.885      21.813      21.366      20.197      18.811      17.384      16.013    
  14.761      13.684      12.847      12.312      12.127      12.312      12.847      13.684      14.760      16.013    
  17.384      18.812      20.198      21.366      21.813      20.885      18.232      14.112      9.5026      5.8447    
  4.4482      5.8439      14.538      17.998      20.575      21.813      21.825      21.085      20.049      18.889    
  17.695      16.519      15.413      14.449      13.722      13.326      13.326      13.722      14.449      15.413    
  16.519      17.695      18.889      20.049      21.086      21.825      21.813      20.575      17.998      14.538    
  11.188      9.1149      9.1146      11.187      17.486      19.672      20.989      21.366      21.085      20.484    
  19.702      18.811      17.846      16.834      15.833      14.938      14.297      14.063      14.298      14.938    
  15.833      16.834      17.846      18.811      19.703      20.484      21.085      21.366      20.989      19.672    
  17.486      14.954      12.907      12.119      12.907      14.954      18.248      19.451      20.060      20.197    
  20.049      19.702      19.203      18.562      17.774      16.851      15.849      14.956      14.422      14.422    
  14.956      15.849      16.851      17.774      18.562      19.204      19.703      20.049      20.197      20.060    
  19.451      18.248      16.618      15.019      14.022      14.022      15.019      16.618      17.389      18.104    
  18.562      18.811      18.889      18.811      18.562      18.104      17.389      16.404      15.322      14.461    
  14.131      14.461      15.322      16.404      17.389      18.104      18.562      18.812      18.890      18.812    
  18.562      18.104      17.389      16.404      15.322      14.461      14.131      14.461      15.322      16.404    
  15.766      16.414      16.953      17.384      17.695      17.846      17.774      17.389      16.590      15.473    
  14.359      13.657      13.657      14.358      15.473      16.590      17.389      17.774      17.846      17.695    
  17.385      16.954      16.414      15.766      15.034      14.277      13.617      13.225      13.225      13.617    
  14.277      15.034      14.015      14.719      15.395      16.013      16.519      16.834      16.851      16.404    
  15.473      14.299      13.312      12.926      13.312      14.298      15.473      16.404      16.851      16.834    
  16.519      16.013      15.395      14.719      14.015      13.308      12.636      12.062      11.670      11.529    
  11.669      12.062      12.636      13.308      12.355      13.160      13.981      14.761      15.413      15.833    
  15.849      15.322      14.359      13.312      12.633      12.632      13.311      14.358      15.322      15.849    
  15.833      15.413      14.760      13.981      13.160      12.355      11.602      10.929      10.368      9.9595    
  9.7425      9.7424      9.9593      10.368      10.929      11.602      10.905      11.823      12.775      13.684    
  14.449      14.938      14.956      14.461      13.657      12.926      12.632      12.926      13.657      14.460    
  14.956      14.938      14.449      13.684      12.775      11.823      10.905      10.072      9.3524      8.7664    
  8.3301      8.0597      7.9681      8.0601      8.3304      8.7664      9.3522      10.071      9.7269      10.753    
  11.822      12.847      13.722      14.297      14.422      14.131      13.657      13.312      13.311      13.657    
  14.130      14.421      14.298      13.722      12.847      11.822      10.753      9.7269      8.8040      8.0175    
  7.3823      6.9036      6.5831      6.4223      6.4224      6.5833      6.9037      7.3823      8.0174      8.8039    
  8.8447      9.9760      11.161      12.312      13.326      14.063      14.422      14.461      14.358      14.298    
  14.358      14.460      14.421      14.063      13.326      12.312      11.162      9.9762      8.8447      7.8309    
  6.9702      6.2754      5.7455      5.3739      5.1539      5.0809      5.1537      5.3737      5.7454      6.2754    
  6.9703      7.8310      8.2615      9.5065      10.823      12.127      13.326      14.298      14.956      15.322    
  15.473      15.473      15.322      14.956      14.298      13.326      12.127      10.823      9.5066      8.2615    
  7.1516      6.2119      5.4528      4.8682      4.4451      4.1708      4.0359      4.0358      4.1707      4.4450    
  4.8681      5.4528      6.2120      7.1516      7.9723      9.3496      10.823      12.312      13.722      14.938    
  15.849      16.404      16.590      16.404      15.849      14.938      13.722      12.312      10.823      9.3494    
  7.9722      6.7526      5.7240      4.8935      4.2501      3.7750      3.4493      3.2592      3.1967      3.2592    
  3.4494      3.7751      4.2501      4.8934      5.7238      6.7526      7.9722      9.5065      11.161      12.847    
  14.449      15.833      16.851      17.389      17.389      16.851      15.833      14.449      12.847      11.162    
  9.5066      7.9722      6.6211      5.4858      4.5706      3.8596      3.3279      2.9510      2.7097      2.5918    
  2.5917      2.7096      2.9511      3.3281      3.8597      4.5705      5.4857      6.6211      8.2613      9.9760    
  11.822      13.684      15.413      16.834      17.774      18.104      17.774      16.834      15.413      13.684    
  11.822      9.9762      8.2615      6.7526      5.4858      4.4650      3.6708      3.0726      2.6396      2.3467    
  2.1772      2.1217      2.1772      2.3467      2.6395      3.0726      3.6708      4.4652      5.4859      6.7524    
  8.8448      10.753      12.775      14.760      16.519      17.846      18.562      18.562      17.846      16.519    
  14.760      12.775      10.753      8.8447      7.1516      5.7240      4.5706      3.6708      2.9895      2.4898    
  2.1404      1.9189      1.8113      1.8113      1.9189      2.1404      2.4897      2.9894      3.6707      4.5706    
  5.7240      7.1516      9.7271      11.823      13.981      16.013      17.695      18.811      19.204      18.812    
  17.695      16.013      13.981      11.823      9.7269      7.8309      6.2119      4.8935      3.8596      3.0726    
  2.4898      2.0734      1.7948      1.6348      1.5826      1.6348      1.7948      2.0735      2.4898      3.0726    
  3.8594      4.8934      6.2120      7.8311      10.905      13.160      15.395      17.384      18.889      19.703    
  19.703      18.890      17.385      15.395      13.160      10.905      8.8040      6.9702      5.4528      4.2501    
  3.3279      2.6396      2.1404      1.7948      1.5775      1.4727      1.4727      1.5775      1.7947      2.1404    
  2.6397      3.3281      4.2503      5.4528      6.9701      8.8040      12.355      14.719      16.954      18.812    
  20.049      20.484      20.049      18.812      16.954      14.719      12.355      10.072      8.0175      6.2754    
  4.8682      3.7750      2.9510      2.3467      1.9189      1.6348      1.4727      1.4200      1.4727      1.6348    
  1.9188      2.3467      2.9511      3.7751      4.8684      6.2754      8.0173      10.071      14.015      16.414    
  18.562      20.198      21.086      21.085      20.197      18.562      16.414      14.015      11.602      9.3524    
  7.3823      5.7455      4.4451      3.4493      2.7097      2.1772      1.8113      1.5826      1.4727      1.4727    
  1.5826      1.8113      2.1772      2.7097      3.4492      4.4450      5.7454      7.3823      9.3524      11.602    
  15.766      18.104      20.060      21.366      21.825      21.366      20.060      18.104      15.766      13.308    
  10.929      8.7664      6.9036      5.3739      4.1708      3.2592      2.5918      2.1217      1.8113      1.6348    
  1.5775      1.6348      1.8113      2.1216      2.5918      3.2593      4.1707      5.3737      6.9034      8.7665    
  10.929      13.308      17.388      19.451      20.989      21.813      21.813      20.989      19.451      17.389    
  15.034      12.636      10.368      8.3301      6.5831      5.1539      4.0359      3.1967      2.5917      2.1772    
  1.9189      1.7948      1.7947      1.9188      2.1772      2.5918      3.1967      4.0358      5.1539      6.5833    
  8.3303      10.368      12.635      15.034      18.248      19.672      20.575      20.885      20.575      19.672    
  18.248      16.404      14.277      12.062      9.9595      8.0597      6.4223      5.0809      4.0358      3.2592    
  2.7096      2.3467      2.1404      2.0735      2.1404      2.3467      2.7097      3.2593      4.0358      5.0809    
  6.4224      8.0600      9.9596      12.062      14.277      16.404      17.486      17.998      18.232      18.232    
  17.998      17.486      16.618      15.322      13.617      11.670      9.7425      7.9681      6.4224      5.1537    
  4.1707      3.4494      2.9511      2.6395      2.4897      2.4898      2.6397      2.9511      3.4492      4.1707    
  5.1539      6.4224      7.9678      9.7422      11.670      13.617      15.322      16.618      14.539      14.113    
  13.938      14.112      14.538      14.954      15.019      14.461      13.225      11.529      9.7424      8.0601    
  6.5833      5.3737      4.4450      3.7751      3.3281      3.0726      2.9894      3.0726      3.3281      3.7751    
  4.4450      5.3737      6.5833      8.0600      9.7422      11.529      13.224      14.461      15.019      14.955    
  9.5028      8.4726      8.4726      9.5026      11.188      12.907      14.022      14.131      13.225      11.669    
  9.9593      8.3304      6.9037      5.7454      4.8681      4.2501      3.8597      3.6708      3.6707      3.8594    
  4.2503      4.8684      5.7454      6.9034      8.3303      9.9596      11.670      13.224      14.130      14.022    
  12.907      11.188      3.3265      2.3825      3.3265      5.8447      9.1149      12.119      14.022      14.461    
  13.617      12.062      10.368      8.7664      7.3823      6.2754      5.4528      4.8934      4.5705      4.4652    
  4.5706      4.8934      5.4528      6.2754      7.3823      8.7665      10.368      12.062      13.617      14.461    
  14.022      12.119      9.1145      5.8445     -2.3526     -2.3525     0.18927      4.4482      9.1146      12.907    
  15.019      15.322      14.277      12.636      10.929      9.3522      8.0174      6.9703      6.2120      5.7238    
  5.4857      5.4859      5.7240      6.2120      6.9701      8.0173      9.3524      10.929      12.635      14.277    
  15.322      15.019      12.907      9.1145      4.4479     0.18909     -5.7671     -4.1422     0.18940      5.8439    
  11.187      14.954      16.618      16.404      15.034      13.308      11.602      10.071      8.8039      7.8310    
  7.1516      6.7526      6.6211      6.7524      7.1516      7.8311      8.8040      10.071      11.602      13.308    
  15.034      16.404      16.618      14.955      11.188      5.8445     0.18909     -4.1427     -1.1388      3.3268    
  9.0590      14.345      17.947      19.439      19.133      17.774      16.107      14.439      12.909      11.598    
  10.552      9.7935      9.3356      9.1828      9.3357      9.7935      10.552      11.598      12.909      14.439    
  16.107      17.774      19.132      19.438      17.947      14.345      9.0591      3.3266     -1.1390     -2.8284    
  3.3268      8.4730      13.939      18.233      20.575      20.989      20.060      18.562      16.953      15.395    
  13.981      12.775      11.822      11.161      10.823      10.823      11.161      11.822      12.775      13.981    
  15.395      16.954      18.562      20.060      20.989      20.575      18.232      13.938      8.4726      3.3265    
 0.18927     0.18940      9.0590      13.939      18.317      21.165      22.207      21.799      20.617      19.203    
  17.747      16.344      15.061      13.955      13.093      12.541      12.351      12.542      13.093      13.955    
  15.061      16.344      17.747      19.204      20.617      21.799      22.207      21.165      18.316      13.938    
  9.0590      5.1935      3.7190      5.1933      14.345      18.233      21.165      22.632      22.740      21.994    
  20.913      19.702      18.452      17.215      16.046      15.020      14.242      13.816      13.816      14.242    
  15.020      16.046      17.215      18.451      19.702      20.913      21.994      22.741      22.632      21.165    
  18.232      14.345      10.600      8.2889      8.2884      10.599      17.947      20.575      22.207      22.740    
  22.479      21.840      21.005      20.049      19.005      17.901      16.790      15.776      15.044      14.775    
  15.044      15.776      16.790      17.901      19.005      20.049      21.005      21.840      22.480      22.741    
  22.207      20.575      17.947      14.941      12.524      11.595      12.523      14.941      19.439      20.989    
  21.799      21.994      21.840      21.463      20.913      20.197      19.304      18.212      16.998      15.904    
  15.246      15.246      15.903      16.998      18.212      19.304      20.197      20.913      21.463      21.840    
  21.994      21.799      20.989      19.439      17.373      15.365      14.120      14.120      15.366      17.373    
  19.133      20.060      20.617      20.913      21.005      20.913      20.617      20.060      19.133      17.830    
  16.396      15.257      14.821      15.257      16.396      17.830      19.133      20.060      20.617      20.913    
  21.005      20.913      20.617      20.060      19.133      17.830      16.396      15.257      14.821      15.257    
  16.396      17.830      17.774      18.562      19.203      19.702      20.049      20.197      20.060      19.451    
  18.248      16.618      15.019      14.022      14.022      15.019      16.618      18.248      19.451      20.060    
  20.197      20.049      19.703      19.204      18.562      17.774      16.851      15.849      14.956      14.422    
  14.422      14.956      15.849      16.851      16.107      16.953      17.747      18.452      19.005      19.304    
  19.133      18.248      16.677      14.806      13.274      12.682      13.274      14.806      16.676      18.248    
  19.132      19.303      19.005      18.452      17.747      16.954      16.107      15.234      14.387      13.650    
  13.133      12.946      13.133      13.650      14.387      15.234      14.439      15.395      16.344      17.215    
  17.901      18.212      17.830      16.618      14.806      12.972      11.816      11.816      12.972      14.806    
  16.618      17.830      18.212      17.901      17.215      16.344      15.395      14.439      13.524      12.687    
  11.976      11.450      11.169      11.169      11.450      11.976      12.687      13.524      12.909      13.981    
  15.061      16.046      16.790      16.998      16.396      15.019      13.274      11.816      11.248      11.816    
  13.274      15.019      16.396      16.998      16.790      16.046      15.061      13.981      12.909      11.912    
  11.034      10.305      9.7544      9.4099      9.2923      9.4098      9.7544      10.305      11.034      11.912    
  11.598      12.775      13.955      15.020      15.776      15.904      15.257      14.022      12.682      11.816    
  11.816      12.682      14.022      15.257      15.904      15.776      15.021      13.955      12.775      11.598    
  10.511      9.5662      8.7908      8.1993      7.8003      7.5994      7.5995      7.8006      8.1994      8.7906    
  9.5660      10.511      10.552      11.822      13.093      14.242      15.044      15.246      14.821      14.022    
  13.274      12.972      13.274      14.022      14.821      15.246      15.044      14.242      13.093      11.822    