   2   2   0   0
  0.2001288E+02  0.3839590E-09  0.3839590E-09  0.3839590E-09  0.5000000E-15
  1.000000000000000E-004
  CAR 
 Si                                      
     17.95699120     -8.13055628  301      5.87519577      1.00000000
     -8.131  0.0000E+00  0.0000E+00
     -8.044  0.0000E+00  0.0000E+00
     -7.957  0.0000E+00  0.0000E+00
     -7.870  0.0000E+00  0.0000E+00
     -7.783  0.0000E+00  0.0000E+00
     -7.696  0.0000E+00  0.0000E+00
     -7.609  0.0000E+00  0.0000E+00
     -7.522  0.0000E+00  0.0000E+00
     -7.435  0.0000E+00  0.0000E+00
     -7.348  0.0000E+00  0.0000E+00
     -7.261  0.0000E+00  0.0000E+00
     -7.174  0.0000E+00  0.0000E+00
     -7.087  0.0000E+00  0.0000E+00
     -7.000  0.0000E+00  0.0000E+00
     -6.913  0.0000E+00  0.0000E+00
     -6.826  0.0000E+00  0.0000E+00
     -6.739  0.0000E+00  0.0000E+00
     -6.652  0.0000E+00  0.0000E+00
     -6.565  0.0000E+00  0.0000E+00
     -6.478  0.0000E+00  0.0000E+00
     -6.391  0.0000E+00  0.0000E+00
     -6.304  0.0000E+00  0.0000E+00
     -6.217  0.0000E+00  0.0000E+00
     -6.131  0.1314E-06  0.1984E-11
     -6.044  0.9716E-01  0.4773E-02
     -5.957  0.1392E+00  0.1508E-01
     -5.870  0.1724E+00  0.2883E-01
     -5.783  0.2050E+00  0.4517E-01
     -5.696  0.2275E+00  0.6398E-01
     -5.609  0.2531E+00  0.8484E-01
     -5.522  0.2742E+00  0.1079E+00
     -5.435  0.2951E+00  0.1326E+00
     -5.348  0.3177E+00  0.1592E+00
     -5.261  0.3353E+00  0.1876E+00
     -5.174  0.3545E+00  0.2176E+00
     -5.087  0.3751E+00  0.2493E+00
     -5.000  0.3925E+00  0.2827E+00
     -4.913  0.4110E+00  0.3176E+00
     -4.826  0.4308E+00  0.3542E+00
     -4.739  0.4502E+00  0.3925E+00
     -4.652  0.4691E+00  0.4325E+00
     -4.565  0.4895E+00  0.4742E+00
     -4.478  0.5114E+00  0.5177E+00
     -4.391  0.5337E+00  0.5631E+00
     -4.304  0.5576E+00  0.6105E+00
     -4.217  0.5845E+00  0.6602E+00
     -4.130  0.6150E+00  0.7123E+00
     -4.044  0.6506E+00  0.7673E+00
     -3.957  0.6958E+00  0.8257E+00
     -3.870  0.7645E+00  0.8889E+00
     -3.783  0.8874E+00  0.9623E+00
     -3.696  0.8531E+00  0.1039E+01
     -3.609  0.8434E+00  0.1114E+01
     -3.522  0.8177E+00  0.1186E+01
     -3.435  0.7778E+00  0.1256E+01
     -3.348  0.7610E+00  0.1323E+01
     -3.261  0.7240E+00  0.1387E+01
     -3.174  0.6973E+00  0.1449E+01
     -3.087  0.6693E+00  0.1509E+01
     -3.000  0.6346E+00  0.1565E+01
     -2.913  0.6083E+00  0.1619E+01
     -2.826  0.5782E+00  0.1671E+01
     -2.739  0.5425E+00  0.1720E+01
     -2.652  0.5109E+00  0.1765E+01
     -2.565  0.4812E+00  0.1809E+01
     -2.478  0.4462E+00  0.1849E+01
     -2.391  0.4115E+00  0.1886E+01
     -2.304  0.3846E+00  0.1921E+01
     -2.217  0.3418E+00  0.1952E+01
     -2.130  0.2238E+00  0.1979E+01
     -2.043  0.1027E+00  0.1993E+01
     -1.957  0.3750E-01  0.1998E+01
     -1.870  0.3428E-01  0.2001E+01
     -1.783  0.9059E-01  0.2006E+01
     -1.696  0.1735E+00  0.2017E+01
     -1.609  0.2594E+00  0.2036E+01
     -1.522  0.3262E+00  0.2061E+01
     -1.435  0.3707E+00  0.2092E+01
     -1.348  0.4235E+00  0.2126E+01
     -1.261  0.4756E+00  0.2165E+01
     -1.174  0.5516E+00  0.2210E+01
     -1.087  0.8240E+00  0.2264E+01
     -1.000  0.1299E+01  0.2353E+01
     -0.913  0.1704E+01  0.2507E+01
     -0.826  0.1135E+01  0.2623E+01
     -0.739  0.9496E+00  0.2713E+01
     -0.652  0.8363E+00  0.2790E+01
     -0.565  0.7502E+00  0.2859E+01
     -0.478  0.6842E+00  0.2921E+01
     -0.391  0.6384E+00  0.2979E+01
     -0.304  0.5969E+00  0.3032E+01
     -0.217  0.5591E+00  0.3083E+01
     -0.130  0.5199E+00  0.3130E+01
     -0.043  0.4927E+00  0.3174E+01
      0.044  0.4694E+00  0.3215E+01
      0.131  0.4466E+00  0.3255E+01
      0.217  0.4216E+00  0.3293E+01
      0.304  0.3953E+00  0.3329E+01
      0.391  0.3788E+00  0.3362E+01
      0.478  0.3637E+00  0.3394E+01
      0.565  0.3479E+00  0.3425E+01
      0.652  0.3316E+00  0.3455E+01
      0.739  0.3128E+00  0.3483E+01
      0.826  0.2965E+00  0.3509E+01
      0.913  0.2859E+00  0.3535E+01
      1.000  0.2750E+00  0.3559E+01
      1.087  0.2641E+00  0.3583E+01
      1.174  0.2510E+00  0.3605E+01
      1.261  0.2381E+00  0.3626E+01
      1.348  0.2246E+00  0.3646E+01
      1.435  0.2363E+00  0.3666E+01
      1.522  0.5857E+00  0.3704E+01
      1.609  0.8299E+00  0.3767E+01
      1.696  0.1152E+01  0.3851E+01
      1.783  0.1223E+01  0.3962E+01
      1.870  0.1153E+01  0.4065E+01
      1.957  0.1095E+01  0.4164E+01
      2.044  0.1023E+01  0.4255E+01
      2.131  0.1007E+01  0.4343E+01
      2.218  0.1040E+01  0.4432E+01
      2.304  0.1030E+01  0.4522E+01
      2.391  0.1035E+01  0.4612E+01
      2.478  0.1044E+01  0.4703E+01
      2.565  0.1089E+01  0.4796E+01
      2.652  0.1153E+01  0.4894E+01
      2.739  0.1176E+01  0.4995E+01
      2.826  0.1219E+01  0.5099E+01
      2.913  0.1405E+01  0.5213E+01
      3.000  0.1587E+01  0.5340E+01
      3.087  0.1554E+01  0.5474E+01
      3.174  0.1488E+01  0.5605E+01
      3.261  0.1471E+01  0.5734E+01
      3.348  0.1439E+01  0.5860E+01
      3.435  0.1429E+01  0.5985E+01
      3.522  0.1403E+01  0.6108E+01
      3.609  0.1365E+01  0.6229E+01
      3.696  0.1344E+01  0.6346E+01
      3.783  0.1322E+01  0.6462E+01
      3.870  0.1302E+01  0.6576E+01
      3.957  0.1283E+01  0.6689E+01
      4.044  0.1267E+01  0.6800E+01
      4.131  0.1235E+01  0.6908E+01
      4.218  0.1218E+01  0.7015E+01
      4.305  0.1213E+01  0.7121E+01
      4.391  0.1196E+01  0.7225E+01
      4.478  0.1181E+01  0.7328E+01
      4.565  0.1150E+01  0.7430E+01
      4.652  0.9472E+00  0.7525E+01
      4.739  0.7884E+00  0.7599E+01
      4.826  0.6836E+00  0.7663E+01
      4.913  0.6030E+00  0.7719E+01
      5.000  0.5297E+00  0.7768E+01
      5.087  0.4716E+00  0.7812E+01
      5.174  0.4159E+00  0.7850E+01
      5.261  0.3649E+00  0.7884E+01
      5.348  0.3157E+00  0.7914E+01
      5.435  0.2666E+00  0.7939E+01
      5.522  0.2365E+00  0.7961E+01
      5.609  0.1789E+00  0.7979E+01
      5.696  0.1173E+00  0.7992E+01
      5.783  0.3740E-01  0.8000E+01
      5.870  0.0000E+00  0.8000E+01
      5.957  0.0000E+00  0.8000E+01
      6.044  0.0000E+00  0.8000E+01
      6.131  0.0000E+00  0.8000E+01
      6.218  0.0000E+00  0.8000E+01
      6.305  0.0000E+00  0.8000E+01
      6.392  0.0000E+00  0.8000E+01
      6.478  0.5078E-01  0.8001E+01
      6.565  0.1547E+00  0.8010E+01
      6.652  0.2240E+00  0.8027E+01
      6.739  0.3008E+00  0.8050E+01
      6.826  0.3648E+00  0.8079E+01
      6.913  0.4047E+00  0.8112E+01
      7.000  0.4459E+00  0.8149E+01
      7.087  0.4912E+00  0.8190E+01
      7.174  0.5391E+00  0.8235E+01
      7.261  0.5897E+00  0.8284E+01
      7.348  0.6406E+00  0.8337E+01
      7.435  0.7084E+00  0.8396E+01
      7.522  0.7877E+00  0.8461E+01
      7.609  0.8939E+00  0.8534E+01
      7.696  0.9666E+00  0.8614E+01
      7.783  0.1061E+01  0.8702E+01
      7.870  0.1166E+01  0.8799E+01
      7.957  0.1309E+01  0.8906E+01
      8.044  0.1623E+01  0.9035E+01
      8.131  0.1694E+01  0.9180E+01
      8.218  0.1721E+01  0.9328E+01
      8.305  0.1564E+01  0.9469E+01
      8.392  0.1522E+01  0.9605E+01
      8.479  0.1352E+01  0.9730E+01
      8.565  0.1312E+01  0.9846E+01
      8.652  0.1154E+01  0.9954E+01
      8.739  0.1073E+01  0.1005E+02
      8.826  0.1075E+01  0.1015E+02
      8.913  0.1027E+01  0.1024E+02
      9.000  0.9351E+00  0.1032E+02
      9.087  0.1449E+01  0.1041E+02
      9.174  0.2435E+01  0.1060E+02
      9.261  0.2037E+01  0.1078E+02
      9.348  0.1842E+01  0.1095E+02
      9.435  0.1766E+01  0.1111E+02
      9.522  0.1907E+01  0.1127E+02
      9.609  0.1865E+01  0.1144E+02
      9.696  0.1589E+01  0.1159E+02
      9.783  0.1385E+01  0.1171E+02
      9.870  0.1323E+01  0.1183E+02
      9.957  0.1186E+01  0.1194E+02
     10.044  0.1098E+01  0.1204E+02
     10.131  0.1129E+01  0.1213E+02
     10.218  0.1118E+01  0.1223E+02
     10.305  0.1289E+01  0.1234E+02
     10.392  0.1545E+01  0.1247E+02
     10.479  0.1134E+01  0.1258E+02
     10.566  0.1112E+01  0.1268E+02
     10.652  0.1213E+01  0.1278E+02
     10.739  0.1217E+01  0.1288E+02
     10.826  0.1383E+01  0.1300E+02
     10.913  0.1176E+01  0.1311E+02
     11.000  0.1167E+01  0.1321E+02
     11.087  0.1184E+01  0.1331E+02
     11.174  0.1193E+01  0.1341E+02
     11.261  0.1140E+01  0.1352E+02
     11.348  0.1189E+01  0.1362E+02
     11.435  0.1162E+01  0.1372E+02
     11.522  0.1134E+01  0.1382E+02
     11.609  0.1143E+01  0.1392E+02
     11.696  0.1096E+01  0.1401E+02
     11.783  0.1057E+01  0.1411E+02
     11.870  0.1023E+01  0.1420E+02
     11.957  0.9539E+00  0.1428E+02
     12.044  0.9470E+00  0.1437E+02
     12.131  0.9602E+00  0.1445E+02
     12.218  0.8329E+00  0.1453E+02
     12.305  0.8338E+00  0.1460E+02
     12.392  0.9214E+00  0.1467E+02
     12.479  0.1016E+01  0.1476E+02
     12.566  0.1080E+01  0.1485E+02
     12.653  0.1124E+01  0.1495E+02
     12.739  0.8267E+00  0.1503E+02
     12.826  0.7541E+00  0.1510E+02
     12.913  0.7111E+00  0.1517E+02
     13.000  0.6792E+00  0.1523E+02
     13.087  0.6544E+00  0.1528E+02
     13.174  0.6324E+00  0.1534E+02
     13.261  0.6068E+00  0.1539E+02
     13.348  0.5809E+00  0.1545E+02
     13.435  0.5590E+00  0.1550E+02
     13.522  0.5323E+00  0.1554E+02
     13.609  0.5711E+00  0.1559E+02
     13.696  0.7622E+00  0.1565E+02
     13.783  0.5274E+00  0.1571E+02
     13.870  0.4104E+00  0.1575E+02
     13.957  0.2817E+00  0.1578E+02
     14.044  0.2361E+00  0.1580E+02
     14.131  0.2185E+00  0.1582E+02
     14.218  0.2099E+00  0.1584E+02
     14.305  0.2009E+00  0.1585E+02
     14.392  0.1914E+00  0.1587E+02
     14.479  0.1813E+00  0.1589E+02
     14.566  0.1684E+00  0.1590E+02
     14.653  0.1446E+00  0.1592E+02
     14.740  0.1337E+00  0.1593E+02
     14.826  0.1167E+00  0.1594E+02
     14.913  0.1017E+00  0.1595E+02
     15.000  0.8876E-01  0.1596E+02
     15.087  0.7791E-01  0.1596E+02
     15.174  0.6974E-01  0.1597E+02
     15.261  0.6552E-01  0.1598E+02
     15.348  0.6538E-01  0.1598E+02
     15.435  0.6512E-01  0.1599E+02
     15.522  0.6449E-01  0.1599E+02
     15.609  0.2512E-01  0.1600E+02
     15.696  0.1413E-01  0.1600E+02
     15.783  0.6281E-02  0.1600E+02
     15.870  0.1571E-02  0.1600E+02
     15.957  0.2818E-09  0.1600E+02
     16.044  0.0000E+00  0.1600E+02
     16.131  0.0000E+00  0.1600E+02
     16.218  0.0000E+00  0.1600E+02
     16.305  0.0000E+00  0.1600E+02
     16.392  0.0000E+00  0.1600E+02
     16.479  0.0000E+00  0.1600E+02
     16.566  0.0000E+00  0.1600E+02
     16.653  0.0000E+00  0.1600E+02
     16.740  0.0000E+00  0.1600E+02
     16.827  0.0000E+00  0.1600E+02
     16.913  0.0000E+00  0.1600E+02
     17.000  0.0000E+00  0.1600E+02
     17.087  0.0000E+00  0.1600E+02
     17.174  0.0000E+00  0.1600E+02
     17.261  0.0000E+00  0.1600E+02
     17.348  0.0000E+00  0.1600E+02
     17.435  0.0000E+00  0.1600E+02
     17.522  0.0000E+00  0.1600E+02
     17.609  0.0000E+00  0.1600E+02
     17.696  0.0000E+00  0.1600E+02
     17.783  0.0000E+00  0.1600E+02
     17.870  0.0000E+00  0.1600E+02
     17.957  0.0000E+00  0.1600E+02
