    2    2    1    1
  0.2001288E+02  0.3839590E-09  0.3839590E-09  0.3839590E-09  0.5000000E-15
  1.000000000000000E-004
  CAR 
 Si                                      
      8    256      8
 
  0.0000000E+00  0.0000000E+00  0.0000000E+00  0.1250000E-03
    1       -6.130556   1.000000
    2        5.833057   1.000000
    3        5.833088   1.000000
    4        5.833088   1.000000
    5        8.401210   0.000000
    6        8.401238   0.000000
    7        8.401238   0.000000
    8        9.207968   0.000000
 
  0.5000000E-01  0.0000000E+00  0.0000000E+00  0.1000000E-02
    1       -6.097814   1.000000
    2        5.474220   1.000000
    3        5.776377   1.000000
    4        5.776407   1.000000
    5        8.459794   0.000000
    6        8.480753   0.000000
    7        8.480782   0.000000
    8        9.448215   0.000000
 
  0.1000000E+00  0.0000000E+00  0.0000000E+00  0.1000000E-02
    1       -5.999651   1.000000
    2        4.686967   1.000000
    3        5.633238   1.000000
    4        5.633268   1.000000
    5        8.411366   0.000000
    6        8.691994   0.000000
    7        8.692027   0.000000
    8       10.129367   0.000000
 
  0.1500000E+00  0.0000000E+00  0.0000000E+00  0.1000000E-02
    1       -5.837276   1.000000
    2        3.766671   1.000000
    3        5.446720   1.000000
    4        5.446751   1.000000
    5        8.252290   0.000000
    6        8.960201   0.000000
    7        8.960241   0.000000
    8       10.994735   0.000000
 
  0.2000000E+00  0.0000000E+00  0.0000000E+00  0.1000000E-02
    1       -5.612877   1.000000
    2        2.824276   1.000000
    3        5.252834   1.000000
    4        5.252866   1.000000
    5        8.058287   0.000000
    6        9.200911   0.000000
    7        9.200961   0.000000
    8       11.892680   0.000000
 
  0.2500000E+00  0.0000000E+00  0.0000000E+00  0.1000000E-02
    1       -5.330500   1.000000
    2        1.905707   1.000000
    3        5.072476   1.000000
    4        5.072509   1.000000
    5        7.866894   0.000000
    6        9.343521   0.000000
    7        9.343582   0.000000
    8       12.759141   0.000000
 
  0.3000000E+00  0.0000000E+00  0.0000000E+00  0.1000000E-02
    1       -4.997209   1.000000
    2        1.037457   1.000000
    3        4.917686   1.000000
    4        4.917719   1.000000
    5        7.697154   0.000000
    6        9.371605   0.000000
    7        9.371672   0.000000
    8       13.472141   0.000000
 
  0.3500000E+00  0.0000000E+00  0.0000000E+00  0.1000000E-02
    1       -4.627051   1.000000
    2        0.243795   1.000000
    3        4.794563   1.000000
    4        4.794596   1.000000
    5        7.558844   0.000000
    6        9.324332   0.000000
    7        9.324401   0.000000
    8       13.734042   0.000000
 
  0.4000000E+00  0.0000000E+00  0.0000000E+00  0.1000000E-02
    1       -4.249859   1.000000
    2       -0.439271   1.000000
    3        4.705394   1.000000
    4        4.705427   1.000000
    5        7.457582   0.000000
    6        9.254095   0.000000
    7        9.254165   0.000000
    8       13.676318   0.000000
 
  0.4500000E+00  0.0000000E+00  0.0000000E+00  0.1000000E-02
    1       -3.932308   1.000000
    2       -0.941491   1.000000
    3        4.651680   1.000000
    4        4.651713   1.000000
    5        7.396097   0.000000
    6        9.198788   0.000000
    7        9.198859   0.000000
    8       13.595178   0.000000
 
  0.5000000E+00  0.0000000E+00  0.0000000E+00  0.5000000E-03
    1       -3.798066   1.000000
    2       -1.137557   1.000000
    3        4.633608   1.000000
    4        4.633641   1.000000
    5        7.375447   0.000000
    6        9.177330   0.000000
    7        9.177400   0.000000
    8       13.563551   0.000000
 
  0.5000000E-01  0.5000000E-01  0.0000000E+00  0.7500000E-03
    1       -6.086833   1.000000
    2        5.552760   1.000000
    3        5.656075   1.000000
    4        5.656096   1.000000
    5        8.294872   0.000000
    6        8.629639   0.000000
    7        8.629659   0.000000
    8        9.477558   0.000000
 
  0.1000000E+00  0.5000000E-01  0.0000000E+00  0.3000000E-02
    1       -6.010399   1.000000
    2        4.923784   1.000000
    3        5.469658   1.000000
    4        5.603187   1.000000
    5        8.286806   0.000000
    6        8.737539   0.000000
    7        8.890375   0.000000
    8        9.965731   0.000000
 
  0.1500000E+00  0.5000000E-01  0.0000000E+00  0.3000000E-02
    1       -5.869287   1.000000
    2        4.054805   1.000000
    3        5.261422   1.000000
    4        5.476416   1.000000
    5        8.363564   0.000000
    6        8.733727   0.000000
    7        9.194436   0.000000
    8       10.720149   0.000000
 
  0.2000000E+00  0.5000000E-01  0.0000000E+00  0.3000000E-02
    1       -5.665356   1.000000
    2        3.128382   1.000000
    3        5.060122   1.000000
    4        5.292593   1.000000
    5        8.296035   0.000000
    6        8.874642   0.000000
    7        9.464746   0.000000
    8       11.416751   0.000000
 
  0.2500000E+00  0.5000000E-01  0.0000000E+00  0.3000000E-02
    1       -5.401823   1.000000
    2        2.208173   1.000000
    3        4.883689   1.000000
    4        5.092055   1.000000
    5        8.136311   0.000000
    6        9.058299   0.000000
    7        9.631790   0.000000
    8       11.861639   0.000000
 
  0.3000000E+00  0.5000000E-01  0.0000000E+00  0.3000000E-02
    1       -5.084509   1.000000
    2        1.326786   1.000000
    3        4.741034   1.000000
    4        4.898762   1.000000
    5        7.971877   0.000000
    6        9.155777   0.000000
    7        9.667287   0.000000
    8       12.261165   0.000000
 
  0.3500000E+00  0.5000000E-01  0.0000000E+00  0.3000000E-02
    1       -4.724468   1.000000
    2        0.509250   1.000000
    3        4.636986   1.000000
    4        4.726521   1.000000
    5        7.829172   0.000000
    6        9.164830   0.000000
    7        9.603816   0.000000
    8       12.790846   0.000000
 
  0.4000000E+00  0.5000000E-01  0.0000000E+00  0.3000000E-02
    1       -4.344613   1.000000
    2       -0.213693   1.000000
    3        4.573268   1.000000
    4        4.582142   1.000000
    5        7.717868   0.000000
    6        9.135647   0.000000
    7        9.496317   0.000000
    8       13.361846   0.000000
 
  0.4500000E+00  0.5000000E-01  0.0000000E+00  0.3000000E-02
    1       -3.995949   1.000000
    2       -0.786148   1.000000
    3        4.470194   1.000000
    4        4.550169   1.000000
    5        7.643967   0.000000
    6        9.113753   0.000000
    7        9.389598   0.000000
    8       13.646989   0.000000
 
  0.5000000E+00  0.5000000E-01  0.0000000E+00  0.3000000E-02
    1       -3.784776   1.000000
    2       -1.099501   1.000000
    3        4.393385   1.000000
    4        4.566424   1.000000
    5        7.609252   0.000000
    6        9.124544   0.000000
    7        9.309449   0.000000
    8       13.685502   0.000000
 
 -0.4500000E+00  0.5000000E-01  0.0000000E+00  0.3000000E-02
    1       -3.831152   1.000000
    2       -1.032558   1.000000
    3        4.354180   1.000000
    4        4.620584   1.000000
    5        7.614832   0.000000
    6        9.177408   0.000000
    7        9.267426   0.000000
    8       13.701641   0.000000
 
 -0.4000000E+00  0.5000000E-01  0.0000000E+00  0.3000000E-02
    1       -4.103815   1.000000
    2       -0.616853   1.000000
    3        4.354455   1.000000
    4        4.710381   1.000000
    5        7.660608   0.000000
    6        9.262735   0.000000
    7        9.268923   0.000000
    8       13.710844   0.000000
 
 -0.3500000E+00  0.5000000E-01  0.0000000E+00  0.3000000E-02
    1       -4.471431   1.000000
    2        0.014815   1.000000
    3        4.395679   1.000000
    4        4.833003   1.000000
    5        7.745794   0.000000
    6        9.281652   0.000000
    7        9.383072   0.000000
    8       13.572106   0.000000
 
 -0.3000000E+00  0.5000000E-01  0.0000000E+00  0.3000000E-02
    1       -4.848450   1.000000
    2        0.773729   1.000000
    3        4.478607   1.000000
    4        4.985111   1.000000
    5        7.868021   0.000000
    6        9.292814   0.000000
    7        9.486613   0.000000
    8       13.121321   0.000000
 
 -0.2500000E+00  0.5000000E-01  0.0000000E+00  0.3000000E-02
    1       -5.195953   1.000000
    2        1.615032   1.000000
    3        4.603437   1.000000
    4        5.161253   1.000000
    5        8.022691   0.000000
    6        9.248535   0.000000
    7        9.525429   0.000000
    8       12.558266   0.000000
 
 -0.2000000E+00  0.5000000E-01  0.0000000E+00  0.3000000E-02
    1       -5.496171   1.000000
    2        2.510972   1.000000
    3        4.768218   1.000000
    4        5.352174   1.000000
    5        8.200913   0.000000
    6        9.107519   0.000000
    7        9.436995   0.000000
    8       11.974039   0.000000
 
 -0.1500000E+00  0.5000000E-01  0.0000000E+00  0.3000000E-02
    1       -5.740304   1.000000
    2        3.433629   1.000000
    3        4.969130   1.000000
    4        5.541311   1.000000
    5        8.386129   0.000000
    6        8.882416   0.000000
    7        9.206111   0.000000
    8       11.291043   0.000000
 
 -0.1000000E+00  0.5000000E-01  0.0000000E+00  0.3000000E-02
    1       -5.923509   1.000000
    2        4.336132   1.000000
    3        5.201828   1.000000
    4        5.701763   1.000000
    5        8.543951   0.000000
    6        8.646451   0.000000
    7        8.894295   0.000000
    8       10.523732   0.000000
 
 -0.5000000E-01  0.5000000E-01  0.0000000E+00  0.1500000E-02
    1       -6.043184   1.000000
    2        5.094297   1.000000
    3        5.480085   1.000000
    4        5.791972   1.000000
    5        8.489802   0.000000
    6        8.564514   0.000000
    7        8.640440   0.000000
    8        9.825346   0.000000
 
  0.1000000E+00  0.1000000E+00  0.0000000E+00  0.7500000E-03
    1       -5.955716   1.000000
    2        4.894592   1.000000
    3        5.255043   1.000000
    4        5.255065   1.000000
    5        8.020150   0.000000
    6        9.191155   0.000000
    7        9.191176   0.000000
    8       10.033152   0.000000
 
  0.1500000E+00  0.1000000E+00  0.0000000E+00  0.3000000E-02
    1       -5.836056   1.000000
    2        4.235309   1.000000
    3        5.030356   1.000000
    4        5.141498   1.000000
    5        7.969357   0.000000
    6        9.311812   0.000000
    7        9.533583   0.000000
    8       10.469121   0.000000
 
  0.2000000E+00  0.1000000E+00  0.0000000E+00  0.3000000E-02
    1       -5.652961   1.000000
    2        3.381953   1.000000
    3        4.820559   1.000000
    4        4.992339   1.000000
    5        8.080590   0.000000
    6        9.249483   0.000000
    7        9.847203   0.000000
    8       10.828312   0.000000
 
  0.2500000E+00  0.1000000E+00  0.0000000E+00  0.3000000E-02
    1       -5.409102   1.000000
    2        2.493323   1.000000
    3        4.641590   1.000000
    4        4.784470   1.000000
    5        8.199712   0.000000
    6        9.213766   0.000000
    7       10.059562   0.000000
    8       10.957869   0.000000
 
  0.3000000E+00  0.1000000E+00  0.0000000E+00  0.3000000E-02
    1       -5.109130   1.000000
    2        1.620558   1.000000
    3        4.501600   1.000000
    4        4.558872   1.000000
    5        8.214898   0.000000
    6        9.228144   0.000000
    7       10.127974   0.000000
    8       11.163898   0.000000
 
  0.3500000E+00  0.1000000E+00  0.0000000E+00  0.3000000E-02
    1       -4.761784   1.000000
    2        0.795056   1.000000
    3        4.341939   1.000000
    4        4.405217   1.000000
    5        8.152049   0.000000
    6        9.222755   0.000000
    7       10.072435   0.000000
    8       11.600925   0.000000
 
  0.4000000E+00  0.1000000E+00  0.0000000E+00  0.3000000E-02
    1       -4.384758   1.000000
    2        0.046551   1.000000
    3        4.147396   1.000000
    4        4.354191   1.000000
    5        8.073022   0.000000
    6        9.185828   0.000000
    7        9.948289   0.000000
    8       12.233480   0.000000
 
  0.4500000E+00  0.1000000E+00  0.0000000E+00  0.3000000E-02
    1       -4.016755   1.000000
    2       -0.578795   1.000000
    3        3.983701   1.000000
    4        4.348443   1.000000
    5        8.013622   0.000000
    6        9.153786   0.000000
    7        9.806209   0.000000
    8       12.967874   0.000000
 
  0.5000000E+00  0.1000000E+00  0.0000000E+00  0.3000000E-02
    1       -3.743586   1.000000
    2       -0.991185   1.000000
    3        3.856665   1.000000
    4        4.387037   1.000000
    5        7.987784   0.000000
    6        9.153183   0.000000
    7        9.679896   0.000000
    8       13.644197   0.000000
 
 -0.4500000E+00  0.1000000E+00  0.0000000E+00  0.3000000E-02
    1       -3.697948   1.000000
    2       -1.056087   1.000000
    3        3.770358   1.000000
    4        4.467632   1.000000
    5        8.000122   0.000000
    6        9.196260   0.000000
    7        9.584832   0.000000
    8       13.968452   0.000000
 
 -0.4000000E+00  0.1000000E+00  0.0000000E+00  0.3000000E-02
    1       -3.910949   1.000000
    2       -0.742251   1.000000
    3        3.728094   1.000000
    4        4.586941   1.000000
    5        8.050618   0.000000
    6        9.284393   0.000000
    7        9.524535   0.000000
    8       13.898083   0.000000
 
 -0.3500000E+00  0.1000000E+00  0.0000000E+00  0.3000000E-02
    1       -4.260518   1.000000
    2       -0.173276   1.000000
    3        3.732998   1.000000
    4        4.740496   1.000000
    5        8.137153   0.000000
    6        9.406786   0.000000
    7        9.489690   0.000000
    8       13.476517   0.000000
 
 -0.3000000E+00  0.1000000E+00  0.0000000E+00  0.3000000E-02
    1       -4.640415   1.000000
    2        0.540683   1.000000
    3        3.787712   1.000000
    4        4.921955   1.000000
    5        8.256048   0.000000
    6        9.454431   0.000000
    7        9.535432   0.000000
    8       12.860235   0.000000
 
 -0.2500000E+00  0.1000000E+00  0.0000000E+00  0.3000000E-02
    1       -4.999963   1.000000
    2        1.341421   1.000000
    3        3.895493   1.000000
    4        5.122569   1.000000
    5        8.402529   0.000000
    6        9.374500   0.000000
    7        9.612038   0.000000
    8       12.266529   0.000000
 
 -0.2000000E+00  0.1000000E+00  0.0000000E+00  0.3000000E-02
    1       -5.316652   1.000000
    2        2.190933   1.000000
    3        4.062583   1.000000
    4        5.328373   1.000000
    5        8.566277   0.000000
    6        9.210520   0.000000
    7        9.548134   0.000000
    8       11.808367   0.000000
 
 -0.1500000E+00  0.1000000E+00  0.0000000E+00  0.3000000E-02
    1       -5.579532   1.000000
    2        3.043239   1.000000
    3        4.304606   1.000000
    4        5.517212   1.000000
    5        8.728802   0.000000
    6        8.978336   0.000000
    7        9.292497   0.000000
    8       11.460595   0.000000
 
 -0.1000000E+00  0.1000000E+00  0.0000000E+00  0.1500000E-02
    1       -5.782898   1.000000
    2        3.802573   1.000000
    3        4.671753   1.000000
    4        5.655262   1.000000
    5        8.759388   0.000000
    6        8.822645   0.000000
    7        8.950465   0.000000
    8       11.042000   0.000000
 
  0.1500000E+00  0.1500000E+00  0.0000000E+00  0.7500000E-03
    1       -5.737898   1.000000
    2        4.081841   1.000000
    3        4.792409   1.000000
    4        4.792430   1.000000
    5        7.664015   0.000000
    6        9.919790   0.000000
    7        9.919813   0.000000
    8       10.254371   0.000000
 
  0.2000000E+00  0.1500000E+00  0.0000000E+00  0.3000000E-02
    1       -5.575834   1.000000
    2        3.469316   1.000000
    3        4.573289   1.000000
    4        4.612867   1.000000
    5        7.605268   0.000000
    6        9.910993   0.000000
    7       10.289902   0.000000
    8       10.384923   0.000000
 
  0.2500000E+00  0.1500000E+00  0.0000000E+00  0.3000000E-02
    1       -5.352112   1.000000
    2        2.687105   1.000000
    3        4.387201   1.000000
    4        4.403222   1.000000
    5        7.730164   0.000000
    6        9.788203   0.000000
    7       10.405582   0.000000
    8       10.569090   0.000000
 
  0.3000000E+00  0.1500000E+00  0.0000000E+00  0.3000000E-02
    1       -5.070489   1.000000
    2        1.867593   1.000000
    3        4.148903   1.000000
    4        4.242929   1.000000
    5        7.881806   0.000000
    6        9.824260   0.000000
    7       10.347561   0.000000
    8       10.698303   0.000000
 
  0.3500000E+00  0.1500000E+00  0.0000000E+00  0.3000000E-02
    1       -4.737935   1.000000
    2        1.063862   1.000000
    3        3.886654   1.000000
    4        4.145045   1.000000
    5        7.949725   0.000000
    6        9.897232   0.000000
    7       10.505143   0.000000
    8       10.675826   0.000000
 
  0.4000000E+00  0.1500000E+00  0.0000000E+00  0.3000000E-02
    1       -4.367981   1.000000
    2        0.312589   1.000000
    3        3.641225   1.000000
    4        4.096125   1.000000
    5        7.950771   0.000000
    6        9.834445   0.000000
    7       10.556400   0.000000
    8       11.047404   0.000000
 
  0.4500000E+00  0.1500000E+00  0.0000000E+00  0.3000000E-02
    1       -3.990065   1.000000
    2       -0.344008   1.000000
    3        3.426457   1.000000
    4        4.095860   1.000000
    5        7.942339   0.000000
    6        9.747653   0.000000
    7       10.398152   0.000000
    8       11.796833   0.000000
 
  0.5000000E+00  0.1500000E+00  0.0000000E+00  0.3000000E-02
    1       -3.670748   1.000000
    2       -0.831719   1.000000
    3        3.250908   1.000000
    4        4.143656   1.000000
    5        7.961625   0.000000
    6        9.686308   0.000000
    7       10.241146   0.000000
    8       12.654220   0.000000
 
 -0.4500000E+00  0.1500000E+00  0.0000000E+00  0.3000000E-02
    1       -3.537147   1.000000
    2       -1.019960   1.000000
    3        3.120461   1.000000
    4        4.237483   1.000000
    5        8.022529   0.000000
    6        9.663117   0.000000
    7       10.106705   0.000000
    8       13.551862   0.000000
 
 -0.4000000E+00  0.1500000E+00  0.0000000E+00  0.3000000E-02
    1       -3.676983   1.000000
    2       -0.820171   1.000000
    3        3.039696   1.000000
    4        4.373829   1.000000
    5        8.127341   0.000000
    6        9.680789   0.000000
    7       10.001159   0.000000
    8       14.094616   0.000000
 
 -0.3500000E+00  0.1500000E+00  0.0000000E+00  0.3000000E-02
    1       -3.998661   1.000000
    2       -0.326007   1.000000
    3        3.014241   1.000000
    4        4.547323   1.000000
    5        8.270858   0.000000
    6        9.737115   0.000000
    7        9.918329   0.000000
    8       13.414928   0.000000
 
 -0.3000000E+00  0.1500000E+00  0.0000000E+00  0.3000000E-02
    1       -4.376562   1.000000
    2        0.330694   1.000000
    3        3.050194   1.000000
    4        4.750674   1.000000
    5        8.442520   0.000000
    6        9.814724   0.000000
    7        9.833017   0.000000
    8       12.676579   0.000000
 
 -0.2500000E+00  0.1500000E+00  0.0000000E+00  0.3000000E-02
    1       -4.745479   1.000000
    2        1.070045   1.000000
    3        3.158595   1.000000
    4        4.971659   1.000000
    5        8.627156   0.000000
    6        9.698634   0.000000
    7        9.858387   0.000000
    8       12.032430   0.000000
 
 -0.2000000E+00  0.1500000E+00  0.0000000E+00  0.3000000E-02
    1       -5.076791   1.000000
    2        1.829503   1.000000
    3        3.365421   1.000000
    4        5.193117   1.000000
    5        8.800743   0.000000
    6        9.479508   0.000000
    7        9.758493   0.000000
    8       11.619404   0.000000
 
 -0.1500000E+00  0.1500000E+00  0.0000000E+00  0.1500000E-02
    1       -5.357108   1.000000
    2        2.519076   1.000000
    3        3.729979   1.000000
    4        5.387728   1.000000
    5        8.900625   0.000000
    6        9.207402   0.000000
    7        9.477770   0.000000
    8       11.491496   0.000000
 
  0.2000000E+00  0.2000000E+00  0.0000000E+00  0.7500000E-03
    1       -5.434737   1.000000
    2        3.210399   1.000000
    3        4.344121   1.000000
    4        4.344142   1.000000
    5        7.296907   0.000000
    6        9.727661   0.000000
    7       10.734153   0.000000
    8       10.734176   0.000000
 
  0.2500000E+00  0.2000000E+00  0.0000000E+00  0.3000000E-02
    1       -5.231345   1.000000
    2        2.650667   1.000000
    3        4.121180   1.000000
    4        4.148573   1.000000
    5        7.253407   0.000000
    6        9.418718   0.000000
    7       10.991932   0.000000
    8       11.105460   0.000000
 
  0.3000000E+00  0.2000000E+00  0.0000000E+00  0.3000000E-02
    1       -4.968757   1.000000
    2        1.963030   1.000000
    3        3.837112   1.000000
    4        3.995814   1.000000
    5        7.395324   0.000000
    6        9.293168   0.000000
    7       10.996752   0.000000
    8       11.326917   0.000000
 
  0.3500000E+00  0.2000000E+00  0.0000000E+00  0.3000000E-02
    1       -4.652472   1.000000
    2        1.237411   1.000000
    3        3.519000   1.000000
    4        3.890754   1.000000
    5        7.545219   0.000000
    6        9.454636   0.000000
    7       10.898358   0.000000
    8       11.369501   0.000000
 
  0.4000000E+00  0.2000000E+00  0.0000000E+00  0.3000000E-02
    1       -4.293003   1.000000
    2        0.524709   1.000000
    3        3.208942   1.000000
    4        3.836137   1.000000
    5        7.610988   0.000000
    6        9.926085   0.000000
    7       10.775626   0.000000
    8       11.278482   0.000000
 
  0.4500000E+00  0.2000000E+00  0.0000000E+00  0.3000000E-02
    1       -3.912506   1.000000
    2       -0.129525   1.000000
    3        2.931334   1.000000
    4        3.832693   1.000000
    5        7.635808   0.000000
    6       10.560768   0.000000
    7       10.723056   0.000000
    8       11.120427   0.000000
 
  0.5000000E+00  0.2000000E+00  0.0000000E+00  0.3000000E-02
    1       -3.561508   1.000000
    2       -0.660631   1.000000
    3        2.698637   1.000000
    4        3.880261   1.000000
    5        7.676716   0.000000
    6       10.541607   0.000000
    7       10.946690   0.000000
    8       11.489721   0.000000
 
 -0.4500000E+00  0.2000000E+00  0.0000000E+00  0.3000000E-02
    1       -3.350904   1.000000
    2       -0.950504   1.000000
    3        2.519275   1.000000
    4        3.976630   1.000000
    5        7.760314   0.000000
    6       10.478067   0.000000
    7       10.784223   0.000000
    8       12.426700   0.000000
 
 -0.4000000E+00  0.2000000E+00  0.0000000E+00  0.3000000E-02
    1       -3.408456   1.000000
    2       -0.869178   1.000000
    3        2.399716   1.000000
    4        4.118635   1.000000
    5        7.894321   0.000000
    6       10.445068   0.000000
    7       10.642995   0.000000
    8       13.413995   0.000000
 
 -0.3500000E+00  0.2000000E+00  0.0000000E+00  0.3000000E-02
    1       -3.692125   1.000000
    2       -0.462185   1.000000
    3        2.348285   1.000000
    4        4.301384   1.000000
    5        8.076306   0.000000
    6       10.442787   0.000000
    7       10.515672   0.000000
    8       13.360815   0.000000
 
 -0.3000000E+00  0.2000000E+00  0.0000000E+00  0.3000000E-02
    1       -4.062725   1.000000
    2        0.118551   1.000000
    3        2.378874   1.000000
    4        4.516415   1.000000
    5        8.294634   0.000000
    6       10.371226   0.000000
    7       10.451540   0.000000
    8       12.558174   0.000000
 
 -0.2500000E+00  0.2000000E+00  0.0000000E+00  0.3000000E-02
    1       -4.437682   1.000000
    2        0.758958   1.000000
    3        2.520591   1.000000
    4        4.751481   1.000000
    5        8.527747   0.000000
    6       10.152712   0.000000
    7       10.403486   0.000000
    8       11.899891   0.000000
 
 -0.2000000E+00  0.2000000E+00  0.0000000E+00  0.1500000E-02
    1       -4.781076   1.000000
    2        1.357703   1.000000
    3        2.831710   1.000000
    4        4.987235   1.000000
    5        8.732030   0.000000
    6        9.831910   0.000000
    7       10.150463   0.000000
    8       11.582187   0.000000
 
  0.2500000E+00  0.2500000E+00  0.0000000E+00  0.7500000E-03
    1       -5.048127   1.000000
    2        2.316672   1.000000
    3        3.942378   1.000000
    4        3.942398   1.000000
    5        6.965035   0.000000
    6        8.970402   0.000000
    7       11.597936   0.000000
    8       11.597961   0.000000
 
  0.3000000E+00  0.2500000E+00  0.0000000E+00  0.3000000E-02
    1       -4.804802   1.000000
    2        1.799193   1.000000
    3        3.700642   1.000000
    4        3.778569   1.000000
    5        6.950573   0.000000
    6        8.683212   0.000000
    7       11.861168   0.000000
    8       11.955832   0.000000
 
  0.3500000E+00  0.2500000E+00  0.0000000E+00  0.3000000E-02
    1       -4.505825   1.000000
    2        1.202573   1.000000
    3        3.353662   1.000000
    4        3.663021   1.000000
    5        7.108264   0.000000
    6        8.633742   0.000000
    7       11.875428   0.000000
    8       12.108541   0.000000
 
  0.4000000E+00  0.2500000E+00  0.0000000E+00  0.3000000E-02
    1       -4.159287   1.000000
    2        0.581679   1.000000
    3        2.969917   1.000000
    4        3.598605   1.000000
    5        7.242417   0.000000
    6        8.918438   0.000000
    7       11.791181   0.000000
    8       12.077695   0.000000
 
  0.4500000E+00  0.2500000E+00  0.0000000E+00  0.3000000E-02
    1       -3.781838   1.000000
    2       -0.020874   1.000000
    3        2.608230   1.000000
    4        3.586766   1.000000
    5        7.302762   0.000000
    6        9.509933   0.000000
    7       11.681168   0.000000
    8       11.939891   0.000000
 
  0.5000000E+00  0.2500000E+00  0.0000000E+00  0.3000000E-02
    1       -3.411386   1.000000
    2       -0.550091   1.000000
    3        2.298255   1.000000
    4        3.627409   1.000000
    5        7.355764   0.000000
    6       10.285912   0.000000
    7       11.586461   0.000000
    8       11.762083   0.000000
 
 -0.4500000E+00  0.2500000E+00  0.0000000E+00  0.3000000E-02
    1       -3.138753   1.000000
    2       -0.904104   1.000000
    3        2.055111   1.000000
    4        3.719200   1.000000
    5        7.446586   0.000000
    6       11.086535   0.000000
    7       11.580655   0.000000
    8       11.611959   0.000000
 
 -0.4000000E+00  0.2500000E+00  0.0000000E+00  0.3000000E-02
    1       -3.112543   1.000000
    2       -0.931193   1.000000
    3        1.889297   1.000000
    4        3.859402   1.000000
    5        7.589626   0.000000
    6       11.309681   0.000000
    7       11.408099   0.000000
    8       12.316599   0.000000
 
 -0.3500000E+00  0.2500000E+00  0.0000000E+00  0.3000000E-02
    1       -3.350652   1.000000
    2       -0.620427   1.000000
    3        1.815524   1.000000
    4        4.042781   1.000000
    5        7.785031   0.000000
    6       11.231030   0.000000
    7       11.292059   0.000000
    8       13.176445   0.000000
 
 -0.3000000E+00  0.2500000E+00  0.0000000E+00  0.3000000E-02
    1       -3.709080   1.000000
    2       -0.140905   1.000000
    3        1.861819   1.000000
    4        4.262140   1.000000
    5        8.024740   0.000000
    6       10.996968   0.000000
    7       11.231075   0.000000
    8       12.518814   0.000000
 
 -0.2500000E+00  0.2500000E+00  0.0000000E+00  0.1500000E-02
    1       -4.085886   1.000000
    2        0.352642   1.000000
    3        2.079582   1.000000
    4        4.504671   1.000000
    5        8.287436   0.000000
    6       10.628910   0.000000
    7       10.970963   0.000000
    8       11.987069   0.000000
 
  0.3000000E+00  0.3000000E+00  0.0000000E+00  0.7500000E-03
    1       -4.580543   1.000000
    2        1.417727   1.000000
    3        3.602625   1.000000
    4        3.602644   1.000000
    5        6.696621   0.000000
    6        8.249867   0.000000
    7       12.495787   0.000000
    8       12.495814   0.000000
 
  0.3500000E+00  0.3000000E+00  0.0000000E+00  0.3000000E-02
    1       -4.299276   1.000000
    2        0.933320   1.000000
    3        3.360945   1.000000
    4        3.474406   1.000000
    5        6.718209   0.000000
    6        8.022544   0.000000
    7       12.771766   0.000000
    8       12.830079   0.000000
 
  0.4000000E+00  0.3000000E+00  0.0000000E+00  0.3000000E-02
    1       -3.967331   1.000000
    2        0.411818   1.000000
    3        2.976294   1.000000
    4        3.397868   1.000000
    5        6.885575   0.000000
    6        8.081046   0.000000
    7       12.800096   0.000000
    8       12.916282   0.000000
 
  0.4500000E+00  0.3000000E+00  0.0000000E+00  0.3000000E-02
    1       -3.597146   1.000000
    2       -0.110204   1.000000
    3        2.546441   1.000000
    4        3.374398   1.000000
    5        6.997720   0.000000
    6        8.510682   0.000000
    7       12.723994   0.000000
    8       12.828196   0.000000
 
  0.5000000E+00  0.3000000E+00  0.0000000E+00  0.3000000E-02
    1       -3.216706   1.000000
    2       -0.594849   1.000000
    3        2.146986   1.000000
    4        3.404507   1.000000
    5        7.064537   0.000000
    6        9.217573   0.000000
    7       12.619554   0.000000
    8       12.661068   0.000000
 