<?xml version="1.0" encoding="ISO-8859-1"?>
<modeling>
 <generator>
  <i name="program" type="string">vasp </i>
  <i name="version" type="string">5.4.4.18Apr17-6-g9f103f2a35  </i>
  <i name="subversion" type="string">(build May 20 2018 16:52:39) complex            parallel </i>
  <i name="platform" type="string">LinuxIFC </i>
  <i name="date" type="string">2022 11 04 </i>
  <i name="time" type="string">18:17:53 </i>
 </generator>
 <incar>
  <i type="string" name="SYSTEM"> Si</i>
  <i type="string" name="PREC">normal</i>
  <i name="EDIFF">      0.00000010</i>
  <i name="ENCUT">    300.00000000</i>
  <i type="int" name="ISMEAR">    -5</i>
  <v type="int" name="KPOINT_BSE">    -1     0     0     0</v>
 </incar>
 <structure name="primitive_cell" >
  <crystal>
   <varray name="basis" >
    <v>       0.00000000       2.71500000       2.71500000 </v>
    <v>       2.71500000       0.00000000       2.71500000 </v>
    <v>       2.71500000       2.71500000       0.00000000 </v>
   </varray>
   <i name="volume">     40.02575175 </i>
   <varray name="rec_basis" >
    <v>      -0.18416206       0.18416206       0.18416206 </v>
    <v>       0.18416206      -0.18416206       0.18416206 </v>
    <v>       0.18416206       0.18416206      -0.18416206 </v>
   </varray>
  </crystal>
  <varray name="positions" >
   <v>       0.00000000       0.00000000       0.00000000 </v>
   <v>       0.25000000       0.25000000       0.25000000 </v>
  </varray>
 </structure>
 <varray name="primitive_index" >
  <v type="int" >        1 </v>
  <v type="int" >        2 </v>
 </varray>
 <kpoints>
  <generation param="Gamma">
   <v type="int" name="divisions">      20       20       20 </v>
   <v name="usershift">      0.00000000       0.00000000       0.00000000 </v>
   <v name="genvec1">      0.05000000       0.00000000       0.00000000 </v>
   <v name="genvec2">      0.00000000       0.05000000       0.00000000 </v>
   <v name="genvec3">      0.00000000       0.00000000       0.05000000 </v>
   <v name="shift">      0.00000000       0.00000000       0.00000000 </v>
  </generation>
  <varray name="kpointlist" >
   <v>       0.00000000       0.00000000       0.00000000 </v>
   <v>       0.05000000       0.00000000       0.00000000 </v>
   <v>       0.10000000       0.00000000       0.00000000 </v>
   <v>       0.15000000       0.00000000       0.00000000 </v>
   <v>       0.20000000       0.00000000       0.00000000 </v>
   <v>       0.25000000       0.00000000       0.00000000 </v>
   <v>       0.30000000       0.00000000       0.00000000 </v>
   <v>       0.35000000       0.00000000       0.00000000 </v>
   <v>       0.40000000       0.00000000       0.00000000 </v>
   <v>       0.45000000       0.00000000       0.00000000 </v>
   <v>       0.50000000       0.00000000       0.00000000 </v>
   <v>       0.05000000       0.05000000       0.00000000 </v>
   <v>       0.10000000       0.05000000       0.00000000 </v>
   <v>       0.15000000       0.05000000       0.00000000 </v>
   <v>       0.20000000       0.05000000       0.00000000 </v>
   <v>       0.25000000       0.05000000       0.00000000 </v>
   <v>       0.30000000       0.05000000       0.00000000 </v>
   <v>       0.35000000       0.05000000       0.00000000 </v>
   <v>       0.40000000       0.05000000       0.00000000 </v>
   <v>       0.45000000       0.05000000       0.00000000 </v>
   <v>       0.50000000       0.05000000       0.00000000 </v>
   <v>      -0.45000000       0.05000000       0.00000000 </v>
   <v>      -0.40000000       0.05000000       0.00000000 </v>
   <v>      -0.35000000       0.05000000       0.00000000 </v>
   <v>      -0.30000000       0.05000000       0.00000000 </v>
   <v>      -0.25000000       0.05000000       0.00000000 </v>
   <v>      -0.20000000       0.05000000       0.00000000 </v>
   <v>      -0.15000000       0.05000000       0.00000000 </v>
   <v>      -0.10000000       0.05000000       0.00000000 </v>
   <v>      -0.05000000       0.05000000       0.00000000 </v>
   <v>       0.10000000       0.10000000       0.00000000 </v>
   <v>       0.15000000       0.10000000       0.00000000 </v>
   <v>       0.20000000       0.10000000       0.00000000 </v>
   <v>       0.25000000       0.10000000       0.00000000 </v>
   <v>       0.30000000       0.10000000       0.00000000 </v>
   <v>       0.35000000       0.10000000       0.00000000 </v>
   <v>       0.40000000       0.10000000       0.00000000 </v>
   <v>       0.45000000       0.10000000       0.00000000 </v>
   <v>       0.50000000       0.10000000       0.00000000 </v>
   <v>      -0.45000000       0.10000000       0.00000000 </v>
   <v>      -0.40000000       0.10000000       0.00000000 </v>
   <v>      -0.35000000       0.10000000       0.00000000 </v>
   <v>      -0.30000000       0.10000000       0.00000000 </v>
   <v>      -0.25000000       0.10000000       0.00000000 </v>
   <v>      -0.20000000       0.10000000       0.00000000 </v>
   <v>      -0.15000000       0.10000000       0.00000000 </v>
   <v>      -0.10000000       0.10000000       0.00000000 </v>
   <v>       0.15000000       0.15000000       0.00000000 </v>
   <v>       0.20000000       0.15000000       0.00000000 </v>
   <v>       0.25000000       0.15000000       0.00000000 </v>
   <v>       0.30000000       0.15000000       0.00000000 </v>
   <v>       0.35000000       0.15000000       0.00000000 </v>
   <v>       0.40000000       0.15000000       0.00000000 </v>
   <v>       0.45000000       0.15000000       0.00000000 </v>
   <v>       0.50000000       0.15000000       0.00000000 </v>
   <v>      -0.45000000       0.15000000       0.00000000 </v>
   <v>      -0.40000000       0.15000000       0.00000000 </v>
   <v>      -0.35000000       0.15000000       0.00000000 </v>
   <v>      -0.30000000       0.15000000       0.00000000 </v>
   <v>      -0.25000000       0.15000000       0.00000000 </v>
   <v>      -0.20000000       0.15000000       0.00000000 </v>
   <v>      -0.15000000       0.15000000       0.00000000 </v>
   <v>       0.20000000       0.20000000       0.00000000 </v>
   <v>       0.25000000       0.20000000       0.00000000 </v>
   <v>       0.30000000       0.20000000       0.00000000 </v>
   <v>       0.35000000       0.20000000       0.00000000 </v>
   <v>       0.40000000       0.20000000       0.00000000 </v>
   <v>       0.45000000       0.20000000       0.00000000 </v>
   <v>       0.50000000       0.20000000       0.00000000 </v>
   <v>      -0.45000000       0.20000000       0.00000000 </v>
   <v>      -0.40000000       0.20000000       0.00000000 </v>
   <v>      -0.35000000       0.20000000       0.00000000 </v>
   <v>      -0.30000000       0.20000000       0.00000000 </v>
   <v>      -0.25000000       0.20000000       0.00000000 </v>
   <v>      -0.20000000       0.20000000       0.00000000 </v>
   <v>       0.25000000       0.25000000       0.00000000 </v>
   <v>       0.30000000       0.25000000       0.00000000 </v>
   <v>       0.35000000       0.25000000       0.00000000 </v>
   <v>       0.40000000       0.25000000       0.00000000 </v>
   <v>       0.45000000       0.25000000       0.00000000 </v>
   <v>       0.50000000       0.25000000       0.00000000 </v>
   <v>      -0.45000000       0.25000000       0.00000000 </v>
   <v>      -0.40000000       0.25000000       0.00000000 </v>
   <v>      -0.35000000       0.25000000       0.00000000 </v>
   <v>      -0.30000000       0.25000000       0.00000000 </v>
   <v>      -0.25000000       0.25000000       0.00000000 </v>
   <v>       0.30000000       0.30000000       0.00000000 </v>
   <v>       0.35000000       0.30000000       0.00000000 </v>
   <v>       0.40000000       0.30000000       0.00000000 </v>
   <v>       0.45000000       0.30000000       0.00000000 </v>
   <v>       0.50000000       0.30000000       0.00000000 </v>
   <v>      -0.45000000       0.30000000       0.00000000 </v>
   <v>      -0.40000000       0.30000000       0.00000000 </v>
   <v>      -0.35000000       0.30000000       0.00000000 </v>
   <v>      -0.30000000       0.30000000       0.00000000 </v>
   <v>       0.35000000       0.35000000       0.00000000 </v>
   <v>       0.40000000       0.35000000       0.00000000 </v>
   <v>       0.45000000       0.35000000       0.00000000 </v>
   <v>       0.50000000       0.35000000       0.00000000 </v>
   <v>      -0.45000000       0.35000000       0.00000000 </v>
   <v>      -0.40000000       0.35000000       0.00000000 </v>
   <v>      -0.35000000       0.35000000       0.00000000 </v>
   <v>       0.40000000       0.40000000       0.00000000 </v>
   <v>       0.45000000       0.40000000       0.00000000 </v>
   <v>       0.50000000       0.40000000       0.00000000 </v>
   <v>      -0.45000000       0.40000000       0.00000000 </v>
   <v>      -0.40000000       0.40000000       0.00000000 </v>
   <v>       0.45000000       0.45000000       0.00000000 </v>
   <v>       0.50000000       0.45000000       0.00000000 </v>
   <v>      -0.45000000       0.45000000       0.00000000 </v>
   <v>       0.50000000       0.50000000       0.00000000 </v>
   <v>       0.15000000       0.10000000       0.05000000 </v>
   <v>       0.20000000       0.10000000       0.05000000 </v>
   <v>       0.25000000       0.10000000       0.05000000 </v>
   <v>       0.30000000       0.10000000       0.05000000 </v>
   <v>       0.35000000       0.10000000       0.05000000 </v>
   <v>       0.40000000       0.10000000       0.05000000 </v>
   <v>       0.45000000       0.10000000       0.05000000 </v>
   <v>       0.50000000       0.10000000       0.05000000 </v>
   <v>      -0.45000000       0.10000000       0.05000000 </v>
   <v>       0.20000000       0.15000000       0.05000000 </v>
   <v>       0.25000000       0.15000000       0.05000000 </v>
   <v>       0.30000000       0.15000000       0.05000000 </v>
   <v>       0.35000000       0.15000000       0.05000000 </v>
   <v>       0.40000000       0.15000000       0.05000000 </v>
   <v>       0.45000000       0.15000000       0.05000000 </v>
   <v>       0.50000000       0.15000000       0.05000000 </v>
   <v>      -0.45000000       0.15000000       0.05000000 </v>
   <v>      -0.40000000       0.15000000       0.05000000 </v>
   <v>      -0.35000000       0.15000000       0.05000000 </v>
   <v>      -0.30000000       0.15000000       0.05000000 </v>
   <v>      -0.25000000       0.15000000       0.05000000 </v>
   <v>      -0.20000000       0.15000000       0.05000000 </v>
   <v>      -0.15000000       0.15000000       0.05000000 </v>
   <v>      -0.10000000       0.15000000       0.05000000 </v>
   <v>       0.25000000       0.20000000       0.05000000 </v>
   <v>       0.30000000       0.20000000       0.05000000 </v>
   <v>       0.35000000       0.20000000       0.05000000 </v>
   <v>       0.40000000       0.20000000       0.05000000 </v>
   <v>       0.45000000       0.20000000       0.05000000 </v>
   <v>       0.50000000       0.20000000       0.05000000 </v>
   <v>      -0.45000000       0.20000000       0.05000000 </v>
   <v>      -0.40000000       0.20000000       0.05000000 </v>
   <v>      -0.35000000       0.20000000       0.05000000 </v>
   <v>      -0.30000000       0.20000000       0.05000000 </v>
   <v>      -0.25000000       0.20000000       0.05000000 </v>
   <v>      -0.20000000       0.20000000       0.05000000 </v>
   <v>      -0.15000000       0.20000000       0.05000000 </v>
   <v>       0.30000000       0.25000000       0.05000000 </v>
   <v>       0.35000000       0.25000000       0.05000000 </v>
   <v>       0.40000000       0.25000000       0.05000000 </v>
   <v>       0.45000000       0.25000000       0.05000000 </v>
   <v>       0.50000000       0.25000000       0.05000000 </v>
   <v>      -0.45000000       0.25000000       0.05000000 </v>
   <v>      -0.40000000       0.25000000       0.05000000 </v>
   <v>      -0.35000000       0.25000000       0.05000000 </v>
   <v>      -0.30000000       0.25000000       0.05000000 </v>
   <v>      -0.25000000       0.25000000       0.05000000 </v>
   <v>      -0.20000000       0.25000000       0.05000000 </v>
   <v>       0.35000000       0.30000000       0.05000000 </v>
   <v>       0.40000000       0.30000000       0.05000000 </v>
   <v>       0.45000000       0.30000000       0.05000000 </v>
   <v>       0.50000000       0.30000000       0.05000000 </v>
   <v>      -0.45000000       0.30000000       0.05000000 </v>
   <v>      -0.40000000       0.30000000       0.05000000 </v>
   <v>      -0.35000000       0.30000000       0.05000000 </v>
   <v>      -0.30000000       0.30000000       0.05000000 </v>
   <v>      -0.25000000       0.30000000       0.05000000 </v>
   <v>       0.40000000       0.35000000       0.05000000 </v>
   <v>       0.45000000       0.35000000       0.05000000 </v>
   <v>       0.50000000       0.35000000       0.05000000 </v>
   <v>      -0.45000000       0.35000000       0.05000000 </v>
   <v>      -0.40000000       0.35000000       0.05000000 </v>
   <v>      -0.35000000       0.35000000       0.05000000 </v>
   <v>      -0.30000000       0.35000000       0.05000000 </v>
   <v>       0.45000000       0.40000000       0.05000000 </v>
   <v>       0.50000000       0.40000000       0.05000000 </v>
   <v>      -0.45000000       0.40000000       0.05000000 </v>
   <v>      -0.40000000       0.40000000       0.05000000 </v>
   <v>      -0.35000000       0.40000000       0.05000000 </v>
   <v>       0.50000000       0.45000000       0.05000000 </v>
   <v>      -0.45000000       0.45000000       0.05000000 </v>
   <v>      -0.40000000       0.45000000       0.05000000 </v>
   <v>      -0.45000000       0.50000000       0.05000000 </v>
   <v>       0.30000000       0.20000000       0.10000000 </v>
   <v>       0.35000000       0.20000000       0.10000000 </v>
   <v>       0.40000000       0.20000000       0.10000000 </v>
   <v>       0.45000000       0.20000000       0.10000000 </v>
   <v>       0.50000000       0.20000000       0.10000000 </v>
   <v>      -0.45000000       0.20000000       0.10000000 </v>
   <v>      -0.40000000       0.20000000       0.10000000 </v>
   <v>       0.35000000       0.25000000       0.10000000 </v>
   <v>       0.40000000       0.25000000       0.10000000 </v>
   <v>       0.45000000       0.25000000       0.10000000 </v>
   <v>       0.50000000       0.25000000       0.10000000 </v>
   <v>      -0.45000000       0.25000000       0.10000000 </v>
   <v>      -0.40000000       0.25000000       0.10000000 </v>
   <v>      -0.35000000       0.25000000       0.10000000 </v>
   <v>      -0.30000000       0.25000000       0.10000000 </v>
   <v>      -0.25000000       0.25000000       0.10000000 </v>
   <v>      -0.20000000       0.25000000       0.10000000 </v>
   <v>      -0.15000000       0.25000000       0.10000000 </v>
   <v>       0.40000000       0.30000000       0.10000000 </v>
   <v>       0.45000000       0.30000000       0.10000000 </v>
   <v>       0.50000000       0.30000000       0.10000000 </v>
   <v>      -0.45000000       0.30000000       0.10000000 </v>
   <v>      -0.40000000       0.30000000       0.10000000 </v>
   <v>      -0.35000000       0.30000000       0.10000000 </v>
   <v>      -0.30000000       0.30000000       0.10000000 </v>
   <v>      -0.25000000       0.30000000       0.10000000 </v>
   <v>      -0.20000000       0.30000000       0.10000000 </v>
   <v>       0.45000000       0.35000000       0.10000000 </v>
   <v>       0.50000000       0.35000000       0.10000000 </v>
   <v>      -0.45000000       0.35000000       0.10000000 </v>
   <v>      -0.40000000       0.35000000       0.10000000 </v>
   <v>      -0.35000000       0.35000000       0.10000000 </v>
   <v>      -0.30000000       0.35000000       0.10000000 </v>
   <v>      -0.25000000       0.35000000       0.10000000 </v>
   <v>       0.50000000       0.40000000       0.10000000 </v>
   <v>      -0.45000000       0.40000000       0.10000000 </v>
   <v>      -0.40000000       0.40000000       0.10000000 </v>
   <v>      -0.35000000       0.40000000       0.10000000 </v>
   <v>      -0.30000000       0.40000000       0.10000000 </v>
   <v>      -0.45000000       0.45000000       0.10000000 </v>
   <v>      -0.40000000       0.45000000       0.10000000 </v>
   <v>      -0.35000000       0.45000000       0.10000000 </v>
   <v>      -0.40000000       0.50000000       0.10000000 </v>
   <v>       0.45000000       0.30000000       0.15000000 </v>
   <v>       0.50000000       0.30000000       0.15000000 </v>
   <v>      -0.45000000       0.30000000       0.15000000 </v>
   <v>      -0.40000000       0.30000000       0.15000000 </v>
   <v>      -0.35000000       0.30000000       0.15000000 </v>
   <v>       0.50000000       0.35000000       0.15000000 </v>
   <v>      -0.45000000       0.35000000       0.15000000 </v>
   <v>      -0.40000000       0.35000000       0.15000000 </v>
   <v>      -0.35000000       0.35000000       0.15000000 </v>
   <v>      -0.30000000       0.35000000       0.15000000 </v>
   <v>      -0.25000000       0.35000000       0.15000000 </v>
   <v>      -0.20000000       0.35000000       0.15000000 </v>
   <v>      -0.45000000       0.40000000       0.15000000 </v>
   <v>      -0.40000000       0.40000000       0.15000000 </v>
   <v>      -0.35000000       0.40000000       0.15000000 </v>
   <v>      -0.30000000       0.40000000       0.15000000 </v>
   <v>      -0.25000000       0.40000000       0.15000000 </v>
   <v>      -0.40000000       0.45000000       0.15000000 </v>
   <v>      -0.35000000       0.45000000       0.15000000 </v>
   <v>      -0.30000000       0.45000000       0.15000000 </v>
   <v>      -0.35000000       0.50000000       0.15000000 </v>
   <v>      -0.40000000       0.40000000       0.20000000 </v>
   <v>      -0.35000000       0.40000000       0.20000000 </v>
   <v>      -0.30000000       0.40000000       0.20000000 </v>
   <v>      -0.35000000       0.45000000       0.20000000 </v>
   <v>      -0.30000000       0.45000000       0.20000000 </v>
   <v>      -0.25000000       0.45000000       0.20000000 </v>
   <v>      -0.30000000       0.50000000       0.20000000 </v>
   <v>      -0.25000000       0.50000000       0.25000000 </v>
  </varray>
  <varray name="weights" >
   <v>       0.00012500 </v>
   <v>       0.00100000 </v>
   <v>       0.00100000 </v>
   <v>       0.00100000 </v>
   <v>       0.00100000 </v>
   <v>       0.00100000 </v>
   <v>       0.00100000 </v>
   <v>       0.00100000 </v>
   <v>       0.00100000 </v>
   <v>       0.00100000 </v>
   <v>       0.00050000 </v>
   <v>       0.00075000 </v>
   <v>       0.00300000 </v>
   <v>       0.00300000 </v>
   <v>       0.00300000 </v>
   <v>       0.00300000 </v>
   <v>       0.00300000 </v>
   <v>       0.00300000 </v>
   <v>       0.00300000 </v>
   <v>       0.00300000 </v>
   <v>       0.00300000 </v>
   <v>       0.00300000 </v>
   <v>       0.00300000 </v>
   <v>       0.00300000 </v>
   <v>       0.00300000 </v>
   <v>       0.00300000 </v>
   <v>       0.00300000 </v>
   <v>       0.00300000 </v>
   <v>       0.00300000 </v>
   <v>       0.00150000 </v>
   <v>       0.00075000 </v>
   <v>       0.00300000 </v>
   <v>       0.00300000 </v>
   <v>       0.00300000 </v>
   <v>       0.00300000 </v>
   <v>       0.00300000 </v>
   <v>       0.00300000 </v>
   <v>       0.00300000 </v>
   <v>       0.00300000 </v>
   <v>       0.00300000 </v>
   <v>       0.00300000 </v>
   <v>       0.00300000 </v>
   <v>       0.00300000 </v>
   <v>       0.00300000 </v>
   <v>       0.00300000 </v>
   <v>       0.00300000 </v>
   <v>       0.00150000 </v>
   <v>       0.00075000 </v>
   <v>       0.00300000 </v>
   <v>       0.00300000 </v>
   <v>       0.00300000 </v>
   <v>       0.00300000 </v>
   <v>       0.00300000 </v>
   <v>       0.00300000 </v>
   <v>       0.00300000 </v>
   <v>       0.00300000 </v>
   <v>       0.00300000 </v>
   <v>       0.00300000 </v>
   <v>       0.00300000 </v>
   <v>       0.00300000 </v>
   <v>       0.00300000 </v>
   <v>       0.00150000 </v>
   <v>       0.00075000 </v>
   <v>       0.00300000 </v>
   <v>       0.00300000 </v>
   <v>       0.00300000 </v>
   <v>       0.00300000 </v>
   <v>       0.00300000 </v>
   <v>       0.00300000 </v>
   <v>       0.00300000 </v>
   <v>       0.00300000 </v>
   <v>       0.00300000 </v>
   <v>       0.00300000 </v>
   <v>       0.00300000 </v>
   <v>       0.00150000 </v>
   <v>       0.00075000 </v>
   <v>       0.00300000 </v>
   <v>       0.00300000 </v>
   <v>       0.00300000 </v>
   <v>       0.00300000 </v>
   <v>       0.00300000 </v>
   <v>       0.00300000 </v>
   <v>       0.00300000 </v>
   <v>       0.00300000 </v>
   <v>       0.00300000 </v>
   <v>       0.00150000 </v>
   <v>       0.00075000 </v>
   <v>       0.00300000 </v>
   <v>       0.00300000 </v>
   <v>       0.00300000 </v>
   <v>       0.00300000 </v>
   <v>       0.00300000 </v>
   <v>       0.00300000 </v>
   <v>       0.00300000 </v>
   <v>       0.00150000 </v>
   <v>       0.00075000 </v>
   <v>       0.00300000 </v>
   <v>       0.00300000 </v>
   <v>       0.00300000 </v>
   <v>       0.00300000 </v>
   <v>       0.00300000 </v>
   <v>       0.00150000 </v>
   <v>       0.00075000 </v>
   <v>       0.00300000 </v>
   <v>       0.00300000 </v>
   <v>       0.00300000 </v>
   <v>       0.00150000 </v>
   <v>       0.00075000 </v>
   <v>       0.00300000 </v>
   <v>       0.00150000 </v>
   <v>       0.00037500 </v>
   <v>       0.00300000 </v>
   <v>       0.00600000 </v>
   <v>       0.00600000 </v>
   <v>       0.00600000 </v>
   <v>       0.00600000 </v>
   <v>       0.00600000 </v>
   <v>       0.00600000 </v>
   <v>       0.00600000 </v>
   <v>       0.00300000 </v>
   <v>       0.00300000 </v>
   <v>       0.00600000 </v>
   <v>       0.00600000 </v>
   <v>       0.00600000 </v>
   <v>       0.00600000 </v>
   <v>       0.00600000 </v>
   <v>       0.00600000 </v>
   <v>       0.00600000 </v>
   <v>       0.00600000 </v>
   <v>       0.00600000 </v>
   <v>       0.00600000 </v>
   <v>       0.00600000 </v>
   <v>       0.00600000 </v>
   <v>       0.00600000 </v>
   <v>       0.00300000 </v>
   <v>       0.00300000 </v>
   <v>       0.00600000 </v>
   <v>       0.00600000 </v>
   <v>       0.00600000 </v>
   <v>       0.00600000 </v>
   <v>       0.00600000 </v>
   <v>       0.00600000 </v>
   <v>       0.00600000 </v>
   <v>       0.00600000 </v>
   <v>       0.00600000 </v>
   <v>       0.00600000 </v>
   <v>       0.00600000 </v>
   <v>       0.00300000 </v>
   <v>       0.00300000 </v>
   <v>       0.00600000 </v>
   <v>       0.00600000 </v>
   <v>       0.00600000 </v>
   <v>       0.00600000 </v>
   <v>       0.00600000 </v>
   <v>       0.00600000 </v>
   <v>       0.00600000 </v>
   <v>       0.00600000 </v>
   <v>       0.00600000 </v>
   <v>       0.00300000 </v>
   <v>       0.00300000 </v>
   <v>       0.00600000 </v>
   <v>       0.00600000 </v>
   <v>       0.00600000 </v>
   <v>       0.00600000 </v>
   <v>       0.00600000 </v>
   <v>       0.00600000 </v>
   <v>       0.00600000 </v>
   <v>       0.00300000 </v>
   <v>       0.00300000 </v>
   <v>       0.00600000 </v>
   <v>       0.00600000 </v>
   <v>       0.00600000 </v>
   <v>       0.00600000 </v>
   <v>       0.00600000 </v>
   <v>       0.00300000 </v>
   <v>       0.00300000 </v>
   <v>       0.00600000 </v>
   <v>       0.00600000 </v>
   <v>       0.00600000 </v>
   <v>       0.00300000 </v>
   <v>       0.00300000 </v>
   <v>       0.00600000 </v>
   <v>       0.00300000 </v>
   <v>       0.00150000 </v>
   <v>       0.00300000 </v>
   <v>       0.00600000 </v>
   <v>       0.00600000 </v>
   <v>       0.00600000 </v>
   <v>       0.00600000 </v>
   <v>       0.00600000 </v>
   <v>       0.00300000 </v>
   <v>       0.00300000 </v>
   <v>       0.00600000 </v>
   <v>       0.00600000 </v>
   <v>       0.00600000 </v>
   <v>       0.00600000 </v>
   <v>       0.00600000 </v>
   <v>       0.00600000 </v>
   <v>       0.00600000 </v>
   <v>       0.00600000 </v>
   <v>       0.00600000 </v>
   <v>       0.00300000 </v>
   <v>       0.00300000 </v>
   <v>       0.00600000 </v>
   <v>       0.00600000 </v>
   <v>       0.00600000 </v>
   <v>       0.00600000 </v>
   <v>       0.00600000 </v>
   <v>       0.00600000 </v>
   <v>       0.00600000 </v>
   <v>       0.00300000 </v>
   <v>       0.00300000 </v>
   <v>       0.00600000 </v>
   <v>       0.00600000 </v>
   <v>       0.00600000 </v>
   <v>       0.00600000 </v>
   <v>       0.00600000 </v>
   <v>       0.00300000 </v>
   <v>       0.00300000 </v>
   <v>       0.00600000 </v>
   <v>       0.00600000 </v>
   <v>       0.00600000 </v>
   <v>       0.00300000 </v>
   <v>       0.00300000 </v>
   <v>       0.00600000 </v>
   <v>       0.00300000 </v>
   <v>       0.00150000 </v>
   <v>       0.00300000 </v>
   <v>       0.00600000 </v>
   <v>       0.00600000 </v>
   <v>       0.00600000 </v>
   <v>       0.00300000 </v>
   <v>       0.00300000 </v>
   <v>       0.00600000 </v>
   <v>       0.00600000 </v>
   <v>       0.00600000 </v>
   <v>       0.00600000 </v>
   <v>       0.00600000 </v>
   <v>       0.00300000 </v>
   <v>       0.00300000 </v>
   <v>       0.00600000 </v>
   <v>       0.00600000 </v>
   <v>       0.00600000 </v>
   <v>       0.00300000 </v>
   <v>       0.00300000 </v>
   <v>       0.00600000 </v>
   <v>       0.00300000 </v>
   <v>       0.00150000 </v>
   <v>       0.00300000 </v>
   <v>       0.00600000 </v>
   <v>       0.00300000 </v>
   <v>       0.00300000 </v>
   <v>       0.00600000 </v>
   <v>       0.00300000 </v>
   <v>       0.00150000 </v>
   <v>       0.00075000 </v>
  </varray>
  <varray name="tetrahedronlist"  type="int" >
   <v type="int" >       24        1        2        2       12 </v>
   <v type="int" >       48        2       12       13       30 </v>
   <v type="int" >       48        2        3       13       30 </v>
   <v type="int" >       24        2        2       12       30 </v>
   <v type="int" >       48        3       13       14       29 </v>
   <v type="int" >       48        3        4       14       29 </v>
   <v type="int" >       48        3       13       29       30 </v>
   <v type="int" >       48        4       14       15       28 </v>
   <v type="int" >       48        4        5       15       28 </v>
   <v type="int" >       48        4       14       28       29 </v>
   <v type="int" >       48        5       15       16       27 </v>
   <v type="int" >       48        5        6       16       27 </v>
   <v type="int" >       48        5       15       27       28 </v>
   <v type="int" >       48        6       16       17       26 </v>
   <v type="int" >       48        6        7       17       26 </v>
   <v type="int" >       48        6       16       26       27 </v>
   <v type="int" >       48        7       17       18       25 </v>
   <v type="int" >       48        7        8       18       25 </v>
   <v type="int" >       48        7       17       25       26 </v>
   <v type="int" >       48        8       18       19       24 </v>
   <v type="int" >       48        8        9       19       24 </v>
   <v type="int" >       48        8       18       24       25 </v>
   <v type="int" >       48        9       19       20       23 </v>
   <v type="int" >       48        9       10       20       23 </v>
   <v type="int" >       48        9       19       23       24 </v>
   <v type="int" >       48       10       20       21       22 </v>
   <v type="int" >       48       10       11       21       22 </v>
   <v type="int" >       48       10       20       22       23 </v>
   <v type="int" >       48       11       21       21       22 </v>
   <v type="int" >       24       12       13       13       31 </v>
   <v type="int" >       24       12       13       13       30 </v>
   <v type="int" >       48       13       31       32      112 </v>
   <v type="int" >       48       13       14       32      112 </v>
   <v type="int" >       48       13       14       29      112 </v>
   <v type="int" >       24       13       13       31      112 </v>
   <v type="int" >       24       13       13       30      112 </v>
   <v type="int" >       48       13       29       30      112 </v>
   <v type="int" >       48       14       32       33      113 </v>
   <v type="int" >       48       14       15       33      113 </v>
   <v type="int" >       48       14       15       28      113 </v>
   <v type="int" >       48       14       32      112      113 </v>
   <v type="int" >       48       14       29      112      113 </v>
   <v type="int" >       48       14       28       29      113 </v>
   <v type="int" >       48       15       33       34      114 </v>
   <v type="int" >       48       15       16       34      114 </v>
   <v type="int" >       48       15       16       27      114 </v>
   <v type="int" >       48       15       33      113      114 </v>
   <v type="int" >       48       15       28      113      114 </v>
   <v type="int" >       48       15       27       28      114 </v>
   <v type="int" >       48       16       34       35      115 </v>
   <v type="int" >       48       16       17       35      115 </v>
   <v type="int" >       48       16       17       26      115 </v>
   <v type="int" >       48       16       34      114      115 </v>
   <v type="int" >       48       16       27      114      115 </v>
   <v type="int" >       48       16       26       27      115 </v>
   <v type="int" >       48       17       35       36      116 </v>
   <v type="int" >       48       17       18       36      116 </v>
   <v type="int" >       48       17       18       25      116 </v>
   <v type="int" >       48       17       35      115      116 </v>
   <v type="int" >       48       17       26      115      116 </v>
   <v type="int" >       48       17       25       26      116 </v>
   <v type="int" >       48       18       36       37      117 </v>
   <v type="int" >       48       18       19       37      117 </v>
   <v type="int" >       48       18       19       24      117 </v>
   <v type="int" >       48       18       36      116      117 </v>
   <v type="int" >       48       18       25      116      117 </v>
   <v type="int" >       48       18       24       25      117 </v>
   <v type="int" >       48       19       37       38      118 </v>
   <v type="int" >       48       19       20       38      118 </v>
   <v type="int" >       48       19       20       23      118 </v>
   <v type="int" >       48       19       37      117      118 </v>
   <v type="int" >       48       19       24      117      118 </v>
   <v type="int" >       48       19       23       24      118 </v>
   <v type="int" >       48       20       38       39      119 </v>
   <v type="int" >       48       20       21       39      119 </v>
   <v type="int" >       48       20       21       22      119 </v>
   <v type="int" >       48       20       38      118      119 </v>
   <v type="int" >       48       20       23      118      119 </v>
   <v type="int" >       48       20       22       23      119 </v>
   <v type="int" >       48       21       39       40      120 </v>
   <v type="int" >       48       21       22       40      120 </v>
   <v type="int" >       48       21       21       22      120 </v>
   <v type="int" >       48       21       39      119      120 </v>
   <v type="int" >       48       21       22      119      120 </v>
   <v type="int" >       48       22       40       41      119 </v>
   <v type="int" >       48       22       23       41      119 </v>
   <v type="int" >       48       22       40      119      120 </v>
   <v type="int" >       48       23       41       42      118 </v>
   <v type="int" >       48       23       24       42      118 </v>
   <v type="int" >       48       23       41      118      119 </v>
   <v type="int" >       48       24       42       43      117 </v>
   <v type="int" >       48       24       25       43      117 </v>
   <v type="int" >       48       24       42      117      118 </v>
   <v type="int" >       48       25       43       44      116 </v>
   <v type="int" >       48       25       26       44      116 </v>
   <v type="int" >       48       25       43      116      117 </v>
   <v type="int" >       48       26       44       45      115 </v>
   <v type="int" >       48       26       27       45      115 </v>
   <v type="int" >       48       26       44      115      116 </v>
   <v type="int" >       48       27       45       46      114 </v>
   <v type="int" >       48       27       28       46      114 </v>
   <v type="int" >       48       27       45      114      115 </v>
   <v type="int" >       48       28       46       47      113 </v>
   <v type="int" >       48       28       29       47      113 </v>
   <v type="int" >       48       28       46      113      114 </v>
   <v type="int" >       24       29       29       47      112 </v>
   <v type="int" >       24       29       29       30      112 </v>
   <v type="int" >       48       29       47      112      113 </v>
   <v type="int" >       24       31       32       32       48 </v>
   <v type="int" >       24       31       32       32      112 </v>
   <v type="int" >       48       32       48       49      121 </v>
   <v type="int" >       48       32       33       49      121 </v>
   <v type="int" >       48       32       33      113      121 </v>
   <v type="int" >       24       32       32       48      121 </v>
   <v type="int" >       24       32       32      112      121 </v>
   <v type="int" >       48       32      112      113      121 </v>
   <v type="int" >       48       33       49       50      122 </v>
   <v type="int" >       48       33       34       50      122 </v>
   <v type="int" >       48       33       34      114      122 </v>
   <v type="int" >       48       33       49      121      122 </v>
   <v type="int" >       48       33      113      121      122 </v>
   <v type="int" >       48       33      113      114      122 </v>
   <v type="int" >       48       34       50       51      123 </v>
   <v type="int" >       48       34       35       51      123 </v>
   <v type="int" >       48       34       35      115      123 </v>
   <v type="int" >       48       34       50      122      123 </v>
   <v type="int" >       48       34      114      122      123 </v>
   <v type="int" >       48       34      114      115      123 </v>
   <v type="int" >       48       35       51       52      124 </v>
   <v type="int" >       48       35       36       52      124 </v>
   <v type="int" >       48       35       36      116      124 </v>
   <v type="int" >       48       35       51      123      124 </v>
   <v type="int" >       48       35      115      123      124 </v>
   <v type="int" >       48       35      115      116      124 </v>
   <v type="int" >       48       36       52       53      125 </v>
   <v type="int" >       48       36       37       53      125 </v>
   <v type="int" >       48       36       37      117      125 </v>
   <v type="int" >       48       36       52      124      125 </v>
   <v type="int" >       48       36      116      124      125 </v>
   <v type="int" >       48       36      116      117      125 </v>
   <v type="int" >       48       37       53       54      126 </v>
   <v type="int" >       48       37       38       54      126 </v>
   <v type="int" >       48       37       38      118      126 </v>
   <v type="int" >       48       37       53      125      126 </v>
   <v type="int" >       48       37      117      125      126 </v>
   <v type="int" >       48       37      117      118      126 </v>
   <v type="int" >       48       38       54       55      127 </v>
   <v type="int" >       48       38       39       55      127 </v>
   <v type="int" >       48       38       39      119      127 </v>
   <v type="int" >       48       38       54      126      127 </v>
   <v type="int" >       48       38      118      126      127 </v>
   <v type="int" >       48       38      118      119      127 </v>
   <v type="int" >       48       39       55       56      128 </v>
   <v type="int" >       48       39       40       56      128 </v>
   <v type="int" >       48       39       40      120      128 </v>
   <v type="int" >       48       39       55      127      128 </v>
   <v type="int" >       48       39      119      127      128 </v>
   <v type="int" >       48       39      119      120      128 </v>
   <v type="int" >       48       40       56       57      129 </v>
   <v type="int" >       48       40       41       57      129 </v>
   <v type="int" >       48       40       41      119      129 </v>
   <v type="int" >       48       40       56      128      129 </v>
   <v type="int" >       48       40      120      128      129 </v>
   <v type="int" >       48       40      119      120      129 </v>
   <v type="int" >       48       41       57       58      130 </v>
   <v type="int" >       48       41       42       58      130 </v>
   <v type="int" >       48       41       42      118      130 </v>
   <v type="int" >       48       41       57      129      130 </v>
   <v type="int" >       48       41      119      129      130 </v>
   <v type="int" >       48       41      118      119      130 </v>
   <v type="int" >       48       42       58       59      131 </v>
   <v type="int" >       48       42       43       59      131 </v>
   <v type="int" >       48       42       43      117      131 </v>
   <v type="int" >       48       42       58      130      131 </v>
   <v type="int" >       48       42      118      130      131 </v>
   <v type="int" >       48       42      117      118      131 </v>
   <v type="int" >       48       43       59       60      132 </v>
   <v type="int" >       48       43       44       60      132 </v>
   <v type="int" >       48       43       44      116      132 </v>
   <v type="int" >       48       43       59      131      132 </v>
   <v type="int" >       48       43      117      131      132 </v>
   <v type="int" >       48       43      116      117      132 </v>
   <v type="int" >       48       44       60       61      133 </v>
   <v type="int" >       48       44       45       61      133 </v>
   <v type="int" >       48       44       45      115      133 </v>
   <v type="int" >       48       44       60      132      133 </v>
   <v type="int" >       48       44      116      132      133 </v>
   <v type="int" >       48       44      115      116      133 </v>
   <v type="int" >       48       45       61       62      134 </v>
   <v type="int" >       48       45       46       62      134 </v>
   <v type="int" >       48       45       46      114      134 </v>
   <v type="int" >       48       45       61      133      134 </v>
   <v type="int" >       48       45      115      133      134 </v>
   <v type="int" >       48       45      114      115      134 </v>
   <v type="int" >       24       46       46       62      135 </v>
   <v type="int" >       24       46       46       47      135 </v>
   <v type="int" >       48       46       47      113      135 </v>
   <v type="int" >       48       46       62      134      135 </v>
   <v type="int" >       48       46      114      134      135 </v>
   <v type="int" >       48       46      113      114      135 </v>
   <v type="int" >       24       47      113      113      135 </v>
   <v type="int" >       24       47      112      113      113 </v>
   <v type="int" >       24       48       49       49       63 </v>
   <v type="int" >       24       48       49       49      121 </v>
   <v type="int" >       48       49       63       64      136 </v>
   <v type="int" >       48       49       50       64      136 </v>
   <v type="int" >       48       49       50      122      136 </v>
   <v type="int" >       24       49       49       63      136 </v>
   <v type="int" >       24       49       49      121      136 </v>
   <v type="int" >       48       49      121      122      136 </v>
   <v type="int" >       48       50       64       65      137 </v>
   <v type="int" >       48       50       51       65      137 </v>
   <v type="int" >       48       50       51      123      137 </v>
   <v type="int" >       48       50       64      136      137 </v>
   <v type="int" >       48       50      122      136      137 </v>
   <v type="int" >       48       50      122      123      137 </v>
   <v type="int" >       48       51       65       66      138 </v>
   <v type="int" >       48       51       52       66      138 </v>
   <v type="int" >       48       51       52      124      138 </v>
   <v type="int" >       48       51       65      137      138 </v>
   <v type="int" >       48       51      123      137      138 </v>
   <v type="int" >       48       51      123      124      138 </v>
   <v type="int" >       48       52       66       67      139 </v>
   <v type="int" >       48       52       53       67      139 </v>
   <v type="int" >       48       52       53      125      139 </v>
   <v type="int" >       48       52       66      138      139 </v>
   <v type="int" >       48       52      124      138      139 </v>
   <v type="int" >       48       52      124      125      139 </v>
   <v type="int" >       48       53       67       68      140 </v>
   <v type="int" >       48       53       54       68      140 </v>
   <v type="int" >       48       53       54      126      140 </v>
   <v type="int" >       48       53       67      139      140 </v>
   <v type="int" >       48       53      125      139      140 </v>
   <v type="int" >       48       53      125      126      140 </v>
   <v type="int" >       48       54       68       69      141 </v>
   <v type="int" >       48       54       55       69      141 </v>
   <v type="int" >       48       54       55      127      141 </v>
   <v type="int" >       48       54       68      140      141 </v>
   <v type="int" >       48       54      126      140      141 </v>
   <v type="int" >       48       54      126      127      141 </v>
   <v type="int" >       48       55       69       70      142 </v>
   <v type="int" >       48       55       56       70      142 </v>
   <v type="int" >       48       55       56      128      142 </v>
   <v type="int" >       48       55       69      141      142 </v>
   <v type="int" >       48       55      127      141      142 </v>
   <v type="int" >       48       55      127      128      142 </v>
   <v type="int" >       48       56       70       71      143 </v>
   <v type="int" >       48       56       57       71      143 </v>
   <v type="int" >       48       56       57      129      143 </v>
   <v type="int" >       48       56       70      142      143 </v>
   <v type="int" >       48       56      128      142      143 </v>
   <v type="int" >       48       56      128      129      143 </v>
   <v type="int" >       48       57       71       72      144 </v>
   <v type="int" >       48       57       58       72      144 </v>
   <v type="int" >       48       57       58      130      144 </v>
   <v type="int" >       48       57       71      143      144 </v>
   <v type="int" >       48       57      129      143      144 </v>
   <v type="int" >       48       57      129      130      144 </v>
   <v type="int" >       48       58       72       73      145 </v>
   <v type="int" >       48       58       59       73      145 </v>
   <v type="int" >       48       58       59      131      145 </v>
   <v type="int" >       48       58       72      144      145 </v>
   <v type="int" >       48       58      130      144      145 </v>
   <v type="int" >       48       58      130      131      145 </v>
   <v type="int" >       48       59       73       74      146 </v>
   <v type="int" >       48       59       60       74      146 </v>
   <v type="int" >       48       59       60      132      146 </v>
   <v type="int" >       48       59       73      145      146 </v>
   <v type="int" >       48       59      131      145      146 </v>
   <v type="int" >       48       59      131      132      146 </v>
   <v type="int" >       48       60       74       75      147 </v>
   <v type="int" >       48       60       61       75      147 </v>
   <v type="int" >       48       60       61      133      147 </v>
   <v type="int" >       48       60       74      146      147 </v>
   <v type="int" >       48       60      132      146      147 </v>
   <v type="int" >       48       60      132      133      147 </v>
   <v type="int" >       24       61       61       75      148 </v>
   <v type="int" >       24       61       61       62      148 </v>
   <v type="int" >       48       61       62      134      148 </v>
   <v type="int" >       48       61       75      147      148 </v>
   <v type="int" >       48       61      133      147      148 </v>
   <v type="int" >       48       61      133      134      148 </v>
   <v type="int" >       24       62      134      134      148 </v>
   <v type="int" >       24       62      134      134      135 </v>
   <v type="int" >       24       63       64       64       76 </v>
   <v type="int" >       24       63       64       64      136 </v>
   <v type="int" >       48       64       76       77      149 </v>
   <v type="int" >       48       64       65       77      149 </v>
   <v type="int" >       48       64       65      137      149 </v>
   <v type="int" >       24       64       64       76      149 </v>
   <v type="int" >       24       64       64      136      149 </v>
   <v type="int" >       48       64      136      137      149 </v>
   <v type="int" >       48       65       77       78      150 </v>
   <v type="int" >       48       65       66       78      150 </v>
   <v type="int" >       48       65       66      138      150 </v>
   <v type="int" >       48       65       77      149      150 </v>
   <v type="int" >       48       65      137      149      150 </v>
   <v type="int" >       48       65      137      138      150 </v>
   <v type="int" >       48       66       78       79      151 </v>
   <v type="int" >       48       66       67       79      151 </v>
   <v type="int" >       48       66       67      139      151 </v>
   <v type="int" >       48       66       78      150      151 </v>
   <v type="int" >       48       66      138      150      151 </v>
   <v type="int" >       48       66      138      139      151 </v>
   <v type="int" >       48       67       79       80      152 </v>
   <v type="int" >       48       67       68       80      152 </v>
   <v type="int" >       48       67       68      140      152 </v>
   <v type="int" >       48       67       79      151      152 </v>
   <v type="int" >       48       67      139      151      152 </v>
   <v type="int" >       48       67      139      140      152 </v>
   <v type="int" >       48       68       80       81      153 </v>
   <v type="int" >       48       68       69       81      153 </v>
   <v type="int" >       48       68       69      141      153 </v>
   <v type="int" >       48       68       80      152      153 </v>
   <v type="int" >       48       68      140      152      153 </v>
   <v type="int" >       48       68      140      141      153 </v>
   <v type="int" >       48       69       81       82      154 </v>
   <v type="int" >       48       69       70       82      154 </v>
   <v type="int" >       48       69       70      142      154 </v>
   <v type="int" >       48       69       81      153      154 </v>
   <v type="int" >       48       69      141      153      154 </v>
   <v type="int" >       48       69      141      142      154 </v>
   <v type="int" >       48       70       82       83      155 </v>
   <v type="int" >       48       70       71       83      155 </v>
   <v type="int" >       48       70       71      143      155 </v>
   <v type="int" >       48       70       82      154      155 </v>
   <v type="int" >       48       70      142      154      155 </v>
   <v type="int" >       48       70      142      143      155 </v>
   <v type="int" >       48       71       83       84      156 </v>
   <v type="int" >       48       71       72       84      156 </v>
   <v type="int" >       48       71       72      144      156 </v>
   <v type="int" >       48       71       83      155      156 </v>
   <v type="int" >       48       71      143      155      156 </v>
   <v type="int" >       48       71      143      144      156 </v>
   <v type="int" >       48       72       84       85      157 </v>
   <v type="int" >       48       72       73       85      157 </v>
   <v type="int" >       48       72       73      145      157 </v>
   <v type="int" >       48       72       84      156      157 </v>
   <v type="int" >       48       72      144      156      157 </v>
   <v type="int" >       48       72      144      145      157 </v>
   <v type="int" >       48       73       85       86      158 </v>
   <v type="int" >       48       73       74       86      158 </v>
   <v type="int" >       48       73       74      146      158 </v>
   <v type="int" >       48       73       85      157      158 </v>
   <v type="int" >       48       73      145      157      158 </v>
   <v type="int" >       48       73      145      146      158 </v>
   <v type="int" >       24       74       74       86      159 </v>
   <v type="int" >       24       74       74       75      159 </v>
   <v type="int" >       48       74       75      147      159 </v>
   <v type="int" >       48       74       86      158      159 </v>
   <v type="int" >       48       74      146      158      159 </v>
   <v type="int" >       48       74      146      147      159 </v>
   <v type="int" >       24       75      147      147      159 </v>
   <v type="int" >       24       75      147      147      148 </v>
   <v type="int" >       24       76       77       77       87 </v>
   <v type="int" >       24       76       77       77      149 </v>
   <v type="int" >       48       77       87       88      160 </v>
   <v type="int" >       48       77       78       88      160 </v>
   <v type="int" >       48       77       78      150      160 </v>
   <v type="int" >       24       77       77       87      160 </v>
   <v type="int" >       24       77       77      149      160 </v>
   <v type="int" >       48       77      149      150      160 </v>
   <v type="int" >       48       78       88       89      161 </v>
   <v type="int" >       48       78       79       89      161 </v>
   <v type="int" >       48       78       79      151      161 </v>
   <v type="int" >       48       78       88      160      161 </v>
   <v type="int" >       48       78      150      160      161 </v>
   <v type="int" >       48       78      150      151      161 </v>
   <v type="int" >       48       79       89       90      162 </v>
   <v type="int" >       48       79       80       90      162 </v>
   <v type="int" >       48       79       80      152      162 </v>
   <v type="int" >       48       79       89      161      162 </v>
   <v type="int" >       48       79      151      161      162 </v>
   <v type="int" >       48       79      151      152      162 </v>
   <v type="int" >       48       80       90       91      163 </v>
   <v type="int" >       48       80       81       91      163 </v>
   <v type="int" >       48       80       81      153      163 </v>
   <v type="int" >       48       80       90      162      163 </v>
   <v type="int" >       48       80      152      162      163 </v>
   <v type="int" >       48       80      152      153      163 </v>
   <v type="int" >       48       81       91       92      164 </v>
   <v type="int" >       48       81       82       92      164 </v>
   <v type="int" >       48       81       82      154      164 </v>
   <v type="int" >       48       81       91      163      164 </v>
   <v type="int" >       48       81      153      163      164 </v>
   <v type="int" >       48       81      153      154      164 </v>
   <v type="int" >       48       82       92       93      165 </v>
   <v type="int" >       48       82       83       93      165 </v>
   <v type="int" >       48       82       83      155      165 </v>
   <v type="int" >       48       82       92      164      165 </v>
   <v type="int" >       48       82      154      164      165 </v>
   <v type="int" >       48       82      154      155      165 </v>
   <v type="int" >       48       83       93       94      166 </v>
   <v type="int" >       48       83       84       94      166 </v>
   <v type="int" >       48       83       84      156      166 </v>
   <v type="int" >       48       83       93      165      166 </v>
   <v type="int" >       48       83      155      165      166 </v>
   <v type="int" >       48       83      155      156      166 </v>
   <v type="int" >       48       84       94       95      167 </v>
   <v type="int" >       48       84       85       95      167 </v>
   <v type="int" >       48       84       85      157      167 </v>
   <v type="int" >       48       84       94      166      167 </v>
   <v type="int" >       48       84      156      166      167 </v>
   <v type="int" >       48       84      156      157      167 </v>
   <v type="int" >       24       85       85       95      168 </v>
   <v type="int" >       24       85       85       86      168 </v>
   <v type="int" >       48       85       86      158      168 </v>
   <v type="int" >       48       85       95      167      168 </v>
   <v type="int" >       48       85      157      167      168 </v>
   <v type="int" >       48       85      157      158      168 </v>
   <v type="int" >       24       86      158      158      168 </v>
   <v type="int" >       24       86      158      158      159 </v>
   <v type="int" >       24       87       88       88       96 </v>
   <v type="int" >       24       87       88       88      160 </v>
   <v type="int" >       48       88       96       97      169 </v>
   <v type="int" >       48       88       89       97      169 </v>
   <v type="int" >       48       88       89      161      169 </v>
   <v type="int" >       24       88       88       96      169 </v>
   <v type="int" >       24       88       88      160      169 </v>
   <v type="int" >       48       88      160      161      169 </v>
   <v type="int" >       48       89       97       98      170 </v>
   <v type="int" >       48       89       90       98      170 </v>
   <v type="int" >       48       89       90      162      170 </v>
   <v type="int" >       48       89       97      169      170 </v>
   <v type="int" >       48       89      161      169      170 </v>
   <v type="int" >       48       89      161      162      170 </v>
   <v type="int" >       48       90       98       99      171 </v>
   <v type="int" >       48       90       91       99      171 </v>
   <v type="int" >       48       90       91      163      171 </v>
   <v type="int" >       48       90       98      170      171 </v>
   <v type="int" >       48       90      162      170      171 </v>
   <v type="int" >       48       90      162      163      171 </v>
   <v type="int" >       48       91       99      100      172 </v>
   <v type="int" >       48       91       92      100      172 </v>
   <v type="int" >       48       91       92      164      172 </v>
   <v type="int" >       48       91       99      171      172 </v>
   <v type="int" >       48       91      163      171      172 </v>
   <v type="int" >       48       91      163      164      172 </v>
   <v type="int" >       48       92      100      101      173 </v>
   <v type="int" >       48       92       93      101      173 </v>
   <v type="int" >       48       92       93      165      173 </v>
   <v type="int" >       48       92      100      172      173 </v>
   <v type="int" >       48       92      164      172      173 </v>
   <v type="int" >       48       92      164      165      173 </v>
   <v type="int" >       48       93      101      102      174 </v>
   <v type="int" >       48       93       94      102      174 </v>
   <v type="int" >       48       93       94      166      174 </v>
   <v type="int" >       48       93      101      173      174 </v>
   <v type="int" >       48       93      165      173      174 </v>
   <v type="int" >       48       93      165      166      174 </v>
   <v type="int" >       24       94       94      102      175 </v>
   <v type="int" >       24       94       94       95      175 </v>
   <v type="int" >       48       94       95      167      175 </v>
   <v type="int" >       48       94      102      174      175 </v>
   <v type="int" >       48       94      166      174      175 </v>
   <v type="int" >       48       94      166      167      175 </v>
   <v type="int" >       24       95      167      167      175 </v>
   <v type="int" >       24       95      167      167      168 </v>
   <v type="int" >       24       96       97       97      103 </v>
   <v type="int" >       24       96       97       97      169 </v>
   <v type="int" >       48       97      103      104      176 </v>
   <v type="int" >       48       97       98      104      176 </v>
   <v type="int" >       48       97       98      170      176 </v>
   <v type="int" >       24       97       97      103      176 </v>
   <v type="int" >       24       97       97      169      176 </v>
   <v type="int" >       48       97      169      170      176 </v>
   <v type="int" >       48       98      104      105      177 </v>
   <v type="int" >       48       98       99      105      177 </v>
   <v type="int" >       48       98       99      171      177 </v>
   <v type="int" >       48       98      104      176      177 </v>
   <v type="int" >       48       98      170      176      177 </v>
   <v type="int" >       48       98      170      171      177 </v>
   <v type="int" >       48       99      105      106      178 </v>
   <v type="int" >       48       99      100      106      178 </v>
   <v type="int" >       48       99      100      172      178 </v>
   <v type="int" >       48       99      105      177      178 </v>
   <v type="int" >       48       99      171      177      178 </v>
   <v type="int" >       48       99      171      172      178 </v>
   <v type="int" >       48      100      106      107      179 </v>
   <v type="int" >       48      100      101      107      179 </v>
   <v type="int" >       48      100      101      173      179 </v>
   <v type="int" >       48      100      106      178      179 </v>
   <v type="int" >       48      100      172      178      179 </v>
   <v type="int" >       48      100      172      173      179 </v>
   <v type="int" >       24      101      101      107      180 </v>
   <v type="int" >       24      101      101      102      180 </v>
   <v type="int" >       48      101      102      174      180 </v>
   <v type="int" >       48      101      107      179      180 </v>
   <v type="int" >       48      101      173      179      180 </v>
   <v type="int" >       48      101      173      174      180 </v>
   <v type="int" >       24      102      174      174      180 </v>
   <v type="int" >       24      102      174      174      175 </v>
   <v type="int" >       24      103      104      104      108 </v>
   <v type="int" >       24      103      104      104      176 </v>
   <v type="int" >       48      104      108      109      181 </v>
   <v type="int" >       48      104      105      109      181 </v>
   <v type="int" >       48      104      105      177      181 </v>
   <v type="int" >       24      104      104      108      181 </v>
   <v type="int" >       24      104      104      176      181 </v>
   <v type="int" >       48      104      176      177      181 </v>
   <v type="int" >       48      105      109      110      182 </v>
   <v type="int" >       48      105      106      110      182 </v>
   <v type="int" >       48      105      106      178      182 </v>
   <v type="int" >       48      105      109      181      182 </v>
   <v type="int" >       48      105      177      181      182 </v>
   <v type="int" >       48      105      177      178      182 </v>
   <v type="int" >       24      106      106      110      183 </v>
   <v type="int" >       24      106      106      107      183 </v>
   <v type="int" >       48      106      107      179      183 </v>
   <v type="int" >       48      106      110      182      183 </v>
   <v type="int" >       48      106      178      182      183 </v>
   <v type="int" >       48      106      178      179      183 </v>
   <v type="int" >       24      107      179      179      183 </v>
   <v type="int" >       24      107      179      179      180 </v>
   <v type="int" >       24      108      109      109      111 </v>
   <v type="int" >       24      108      109      109      181 </v>
   <v type="int" >       48      109      109      111      184 </v>
   <v type="int" >       24      109      109      110      184 </v>
   <v type="int" >       48      109      110      182      184 </v>
   <v type="int" >       24      109      109      181      184 </v>
   <v type="int" >       48      109      181      182      184 </v>
   <v type="int" >       24      110      182      182      184 </v>
   <v type="int" >       24      110      182      182      183 </v>
   <v type="int" >       24      112      113      113      121 </v>
   <v type="int" >       48      113      121      122      135 </v>
   <v type="int" >       48      113      114      122      135 </v>
   <v type="int" >       24      113      113      121      135 </v>
   <v type="int" >       48      114      122      123      134 </v>
   <v type="int" >       48      114      115      123      134 </v>
   <v type="int" >       48      114      122      134      135 </v>
   <v type="int" >       48      115      123      124      133 </v>
   <v type="int" >       48      115      116      124      133 </v>
   <v type="int" >       48      115      123      133      134 </v>
   <v type="int" >       48      116      124      125      132 </v>
   <v type="int" >       48      116      117      125      132 </v>
   <v type="int" >       48      116      124      132      133 </v>
   <v type="int" >       48      117      125      126      131 </v>
   <v type="int" >       48      117      118      126      131 </v>
   <v type="int" >       48      117      125      131      132 </v>
   <v type="int" >       48      118      126      127      130 </v>
   <v type="int" >       48      118      119      127      130 </v>
   <v type="int" >       48      118      126      130      131 </v>
   <v type="int" >       48      119      127      128      129 </v>
   <v type="int" >       48      119      120      128      129 </v>
   <v type="int" >       48      119      127      129      130 </v>
   <v type="int" >       48      120      128      128      129 </v>
   <v type="int" >       24      121      122      122      136 </v>
   <v type="int" >       24      121      122      122      135 </v>
   <v type="int" >       48      122      136      137      185 </v>
   <v type="int" >       48      122      123      137      185 </v>
   <v type="int" >       48      122      123      134      185 </v>
   <v type="int" >       24      122      122      136      185 </v>
   <v type="int" >       24      122      122      135      185 </v>
   <v type="int" >       48      122      134      135      185 </v>
   <v type="int" >       48      123      137      138      186 </v>
   <v type="int" >       48      123      124      138      186 </v>
   <v type="int" >       48      123      124      133      186 </v>
   <v type="int" >       48      123      137      185      186 </v>
   <v type="int" >       48      123      134      185      186 </v>
   <v type="int" >       48      123      133      134      186 </v>
   <v type="int" >       48      124      138      139      187 </v>
   <v type="int" >       48      124      125      139      187 </v>
   <v type="int" >       48      124      125      132      187 </v>
   <v type="int" >       48      124      138      186      187 </v>
   <v type="int" >       48      124      133      186      187 </v>
   <v type="int" >       48      124      132      133      187 </v>
   <v type="int" >       48      125      139      140      188 </v>
   <v type="int" >       48      125      126      140      188 </v>
   <v type="int" >       48      125      126      131      188 </v>
   <v type="int" >       48      125      139      187      188 </v>
   <v type="int" >       48      125      132      187      188 </v>
   <v type="int" >       48      125      131      132      188 </v>
   <v type="int" >       48      126      140      141      189 </v>
   <v type="int" >       48      126      127      141      189 </v>
   <v type="int" >       48      126      127      130      189 </v>
   <v type="int" >       48      126      140      188      189 </v>
   <v type="int" >       48      126      131      188      189 </v>
   <v type="int" >       48      126      130      131      189 </v>
   <v type="int" >       48      127      141      142      190 </v>
   <v type="int" >       48      127      128      142      190 </v>
   <v type="int" >       48      127      128      129      190 </v>
   <v type="int" >       48      127      141      189      190 </v>
   <v type="int" >       48      127      130      189      190 </v>
   <v type="int" >       48      127      129      130      190 </v>
   <v type="int" >       48      128      142      143      191 </v>
   <v type="int" >       48      128      129      143      191 </v>
   <v type="int" >       48      128      128      129      191 </v>
   <v type="int" >       48      128      142      190      191 </v>
   <v type="int" >       48      128      129      190      191 </v>
   <v type="int" >       48      129      143      144      190 </v>
   <v type="int" >       48      129      130      144      190 </v>
   <v type="int" >       48      129      143      190      191 </v>
   <v type="int" >       48      130      144      145      189 </v>
   <v type="int" >       48      130      131      145      189 </v>
   <v type="int" >       48      130      144      189      190 </v>
   <v type="int" >       48      131      145      146      188 </v>
   <v type="int" >       48      131      132      146      188 </v>
   <v type="int" >       48      131      145      188      189 </v>
   <v type="int" >       48      132      146      147      187 </v>
   <v type="int" >       48      132      133      147      187 </v>
   <v type="int" >       48      132      146      187      188 </v>
   <v type="int" >       48      133      147      148      186 </v>
   <v type="int" >       48      133      134      148      186 </v>
   <v type="int" >       48      133      147      186      187 </v>
   <v type="int" >       24      134      134      148      185 </v>
   <v type="int" >       24      134      134      135      185 </v>
   <v type="int" >       48      134      148      185      186 </v>
   <v type="int" >       24      136      137      137      149 </v>
   <v type="int" >       24      136      137      137      185 </v>
   <v type="int" >       48      137      149      150      192 </v>
   <v type="int" >       48      137      138      150      192 </v>
   <v type="int" >       48      137      138      186      192 </v>
   <v type="int" >       24      137      137      149      192 </v>
   <v type="int" >       24      137      137      185      192 </v>
   <v type="int" >       48      137      185      186      192 </v>
   <v type="int" >       48      138      150      151      193 </v>
   <v type="int" >       48      138      139      151      193 </v>
   <v type="int" >       48      138      139      187      193 </v>
   <v type="int" >       48      138      150      192      193 </v>
   <v type="int" >       48      138      186      192      193 </v>
   <v type="int" >       48      138      186      187      193 </v>
   <v type="int" >       48      139      151      152      194 </v>
   <v type="int" >       48      139      140      152      194 </v>
   <v type="int" >       48      139      140      188      194 </v>
   <v type="int" >       48      139      151      193      194 </v>
   <v type="int" >       48      139      187      193      194 </v>
   <v type="int" >       48      139      187      188      194 </v>
   <v type="int" >       48      140      152      153      195 </v>
   <v type="int" >       48      140      141      153      195 </v>
   <v type="int" >       48      140      141      189      195 </v>
   <v type="int" >       48      140      152      194      195 </v>
   <v type="int" >       48      140      188      194      195 </v>
   <v type="int" >       48      140      188      189      195 </v>
   <v type="int" >       48      141      153      154      196 </v>
   <v type="int" >       48      141      142      154      196 </v>
   <v type="int" >       48      141      142      190      196 </v>
   <v type="int" >       48      141      153      195      196 </v>
   <v type="int" >       48      141      189      195      196 </v>
   <v type="int" >       48      141      189      190      196 </v>
   <v type="int" >       48      142      154      155      197 </v>
   <v type="int" >       48      142      143      155      197 </v>
   <v type="int" >       48      142      143      191      197 </v>
   <v type="int" >       48      142      154      196      197 </v>
   <v type="int" >       48      142      190      196      197 </v>
   <v type="int" >       48      142      190      191      197 </v>
   <v type="int" >       48      143      155      156      198 </v>
   <v type="int" >       48      143      144      156      198 </v>
   <v type="int" >       48      143      144      190      198 </v>
   <v type="int" >       48      143      155      197      198 </v>
   <v type="int" >       48      143      191      197      198 </v>
   <v type="int" >       48      143      190      191      198 </v>
   <v type="int" >       48      144      156      157      199 </v>
   <v type="int" >       48      144      145      157      199 </v>
   <v type="int" >       48      144      145      189      199 </v>
   <v type="int" >       48      144      156      198      199 </v>
   <v type="int" >       48      144      190      198      199 </v>
   <v type="int" >       48      144      189      190      199 </v>
   <v type="int" >       48      145      157      158      200 </v>
   <v type="int" >       48      145      146      158      200 </v>
   <v type="int" >       48      145      146      188      200 </v>
   <v type="int" >       48      145      157      199      200 </v>
   <v type="int" >       48      145      189      199      200 </v>
   <v type="int" >       48      145      188      189      200 </v>
   <v type="int" >       48      146      158      159      201 </v>
   <v type="int" >       48      146      147      159      201 </v>
   <v type="int" >       48      146      147      187      201 </v>
   <v type="int" >       48      146      158      200      201 </v>
   <v type="int" >       48      146      188      200      201 </v>
   <v type="int" >       48      146      187      188      201 </v>
   <v type="int" >       24      147      147      159      202 </v>
   <v type="int" >       24      147      147      148      202 </v>
   <v type="int" >       48      147      148      186      202 </v>
   <v type="int" >       48      147      159      201      202 </v>
   <v type="int" >       48      147      187      201      202 </v>
   <v type="int" >       48      147      186      187      202 </v>
   <v type="int" >       24      148      186      186      202 </v>
   <v type="int" >       24      148      185      186      186 </v>
   <v type="int" >       24      149      150      150      160 </v>
   <v type="int" >       24      149      150      150      192 </v>
   <v type="int" >       48      150      160      161      203 </v>
   <v type="int" >       48      150      151      161      203 </v>
   <v type="int" >       48      150      151      193      203 </v>
   <v type="int" >       24      150      150      160      203 </v>
   <v type="int" >       24      150      150      192      203 </v>
   <v type="int" >       48      150      192      193      203 </v>
   <v type="int" >       48      151      161      162      204 </v>
   <v type="int" >       48      151      152      162      204 </v>
   <v type="int" >       48      151      152      194      204 </v>
   <v type="int" >       48      151      161      203      204 </v>
   <v type="int" >       48      151      193      203      204 </v>
   <v type="int" >       48      151      193      194      204 </v>
   <v type="int" >       48      152      162      163      205 </v>
   <v type="int" >       48      152      153      163      205 </v>
   <v type="int" >       48      152      153      195      205 </v>
   <v type="int" >       48      152      162      204      205 </v>
   <v type="int" >       48      152      194      204      205 </v>
   <v type="int" >       48      152      194      195      205 </v>
   <v type="int" >       48      153      163      164      206 </v>
   <v type="int" >       48      153      154      164      206 </v>
   <v type="int" >       48      153      154      196      206 </v>
   <v type="int" >       48      153      163      205      206 </v>
   <v type="int" >       48      153      195      205      206 </v>
   <v type="int" >       48      153      195      196      206 </v>
   <v type="int" >       48      154      164      165      207 </v>
   <v type="int" >       48      154      155      165      207 </v>
   <v type="int" >       48      154      155      197      207 </v>
   <v type="int" >       48      154      164      206      207 </v>
   <v type="int" >       48      154      196      206      207 </v>
   <v type="int" >       48      154      196      197      207 </v>
   <v type="int" >       48      155      165      166      208 </v>
   <v type="int" >       48      155      156      166      208 </v>
   <v type="int" >       48      155      156      198      208 </v>
   <v type="int" >       48      155      165      207      208 </v>
   <v type="int" >       48      155      197      207      208 </v>
   <v type="int" >       48      155      197      198      208 </v>
   <v type="int" >       48      156      166      167      209 </v>
   <v type="int" >       48      156      157      167      209 </v>
   <v type="int" >       48      156      157      199      209 </v>
   <v type="int" >       48      156      166      208      209 </v>
   <v type="int" >       48      156      198      208      209 </v>
   <v type="int" >       48      156      198      199      209 </v>
   <v type="int" >       48      157      167      168      210 </v>
   <v type="int" >       48      157      158      168      210 </v>
   <v type="int" >       48      157      158      200      210 </v>
   <v type="int" >       48      157      167      209      210 </v>
   <v type="int" >       48      157      199      209      210 </v>
   <v type="int" >       48      157      199      200      210 </v>
   <v type="int" >       24      158      158      168      211 </v>
   <v type="int" >       24      158      158      159      211 </v>
   <v type="int" >       48      158      159      201      211 </v>
   <v type="int" >       48      158      168      210      211 </v>
   <v type="int" >       48      158      200      210      211 </v>
   <v type="int" >       48      158      200      201      211 </v>
   <v type="int" >       24      159      201      201      211 </v>
   <v type="int" >       24      159      201      201      202 </v>
   <v type="int" >       24      160      161      161      169 </v>
   <v type="int" >       24      160      161      161      203 </v>
   <v type="int" >       48      161      169      170      212 </v>
   <v type="int" >       48      161      162      170      212 </v>
   <v type="int" >       48      161      162      204      212 </v>
   <v type="int" >       24      161      161      169      212 </v>
   <v type="int" >       24      161      161      203      212 </v>
   <v type="int" >       48      161      203      204      212 </v>
   <v type="int" >       48      162      170      171      213 </v>
   <v type="int" >       48      162      163      171      213 </v>
   <v type="int" >       48      162      163      205      213 </v>
   <v type="int" >       48      162      170      212      213 </v>
   <v type="int" >       48      162      204      212      213 </v>
   <v type="int" >       48      162      204      205      213 </v>
   <v type="int" >       48      163      171      172      214 </v>
   <v type="int" >       48      163      164      172      214 </v>
   <v type="int" >       48      163      164      206      214 </v>
   <v type="int" >       48      163      171      213      214 </v>
   <v type="int" >       48      163      205      213      214 </v>
   <v type="int" >       48      163      205      206      214 </v>
   <v type="int" >       48      164      172      173      215 </v>
   <v type="int" >       48      164      165      173      215 </v>
   <v type="int" >       48      164      165      207      215 </v>
   <v type="int" >       48      164      172      214      215 </v>
   <v type="int" >       48      164      206      214      215 </v>
   <v type="int" >       48      164      206      207      215 </v>
   <v type="int" >       48      165      173      174      216 </v>
   <v type="int" >       48      165      166      174      216 </v>
   <v type="int" >       48      165      166      208      216 </v>
   <v type="int" >       48      165      173      215      216 </v>
   <v type="int" >       48      165      207      215      216 </v>
   <v type="int" >       48      165      207      208      216 </v>
   <v type="int" >       48      166      174      175      217 </v>
   <v type="int" >       48      166      167      175      217 </v>
   <v type="int" >       48      166      167      209      217 </v>
   <v type="int" >       48      166      174      216      217 </v>
   <v type="int" >       48      166      208      216      217 </v>
   <v type="int" >       48      166      208      209      217 </v>
   <v type="int" >       24      167      167      175      218 </v>
   <v type="int" >       24      167      167      168      218 </v>
   <v type="int" >       48      167      168      210      218 </v>
   <v type="int" >       48      167      175      217      218 </v>
   <v type="int" >       48      167      209      217      218 </v>
   <v type="int" >       48      167      209      210      218 </v>
   <v type="int" >       24      168      210      210      218 </v>
   <v type="int" >       24      168      210      210      211 </v>
   <v type="int" >       24      169      170      170      176 </v>
   <v type="int" >       24      169      170      170      212 </v>
   <v type="int" >       48      170      176      177      219 </v>
   <v type="int" >       48      170      171      177      219 </v>
   <v type="int" >       48      170      171      213      219 </v>
[...]
       <r>   -1.2127    1.0000 </r>
       <r>    2.1809    1.0000 </r>
       <r>    2.4895    1.0000 </r>
       <r>    8.1865    0.0000 </r>
       <r>    8.4360    0.0000 </r>
       <r>   12.1719    0.0000 </r>
       <r>   13.9589    0.0000 </r>
      </set>
      <set comment="kpoint 246">
       <r>   -2.1975    1.0000 </r>
       <r>   -1.5206    1.0000 </r>
       <r>    1.9334    1.0000 </r>
       <r>    2.4298    1.0000 </r>
       <r>    8.3988    0.0000 </r>
       <r>    9.1645    0.0000 </r>
       <r>   11.9664    0.0000 </r>
       <r>   12.8567    0.0000 </r>
      </set>
      <set comment="kpoint 247">
       <r>   -2.1897    1.0000 </r>
       <r>   -1.5056    1.0000 </r>
       <r>    1.6957    1.0000 </r>
       <r>    2.5516    1.0000 </r>
       <r>    8.5545    0.0000 </r>
       <r>   10.0915    0.0000 </r>
       <r>   11.7210    0.0000 </r>
       <r>   11.9043    0.0000 </r>
      </set>
      <set comment="kpoint 248">
       <r>   -1.8809    1.0000 </r>
       <r>   -1.8809    1.0000 </r>
       <r>    2.2718    1.0000 </r>
       <r>    2.2718    1.0000 </r>
       <r>    8.2608    0.0000 </r>
       <r>    8.2608    0.0000 </r>
       <r>   13.0387    0.0000 </r>
       <r>   13.0387    0.0000 </r>
      </set>
      <set comment="kpoint 249">
       <r>   -2.9776    1.0000 </r>
       <r>   -0.7286    1.0000 </r>
       <r>    1.8527    1.0000 </r>
       <r>    2.8399    1.0000 </r>
       <r>    9.2329    0.0000 </r>
       <r>    9.6078    0.0000 </r>
       <r>   10.2755    0.0000 </r>
       <r>   13.6333    0.0000 </r>
      </set>
      <set comment="kpoint 250">
       <r>   -2.6325    1.0000 </r>
       <r>   -1.0709    1.0000 </r>
       <r>    1.7316    1.0000 </r>
       <r>    2.6545    1.0000 </r>
       <r>    9.4641    0.0000 </r>
       <r>    9.8425    0.0000 </r>
       <r>   10.5451    0.0000 </r>
       <r>   12.5323    0.0000 </r>
      </set>
      <set comment="kpoint 251">
       <r>   -2.4662    1.0000 </r>
       <r>   -1.2380    1.0000 </r>
       <r>    1.6948    1.0000 </r>
       <r>    2.5886    1.0000 </r>
       <r>    9.5074    0.0000 </r>
       <r>    9.8279    0.0000 </r>
       <r>   11.2406    0.0000 </r>
       <r>   11.6842    0.0000 </r>
      </set>
      <set comment="kpoint 252">
       <r>   -2.4130    1.0000 </r>
       <r>   -1.2719    1.0000 </r>
       <r>    1.8855    1.0000 </r>
       <r>    2.3767    1.0000 </r>
       <r>    9.2092    0.0000 </r>
       <r>    9.4115    0.0000 </r>
       <r>   10.9540    0.0000 </r>
       <r>   12.6702    0.0000 </r>
      </set>
      <set comment="kpoint 253">
       <r>   -2.1539    1.0000 </r>
       <r>   -1.5080    1.0000 </r>
       <r>    1.7969    1.0000 </r>
       <r>    2.2787    1.0000 </r>
       <r>    9.4215    0.0000 </r>
       <r>   10.1383    0.0000 </r>
       <r>   10.8524    0.0000 </r>
       <r>   11.6230    0.0000 </r>
      </set>
      <set comment="kpoint 254">
       <r>   -2.2910    1.0000 </r>
       <r>   -1.3731    1.0000 </r>
       <r>    1.7130    1.0000 </r>
       <r>    2.4003    1.0000 </r>
       <r>    9.5745    0.0000 </r>
       <r>   10.2712    0.0000 </r>
       <r>   10.7390    0.0000 </r>
       <r>   11.4973    0.0000 </r>
      </set>
      <set comment="kpoint 255">
       <r>   -1.8377    1.0000 </r>
       <r>   -1.8377    1.0000 </r>
       <r>    2.0570    1.0000 </r>
       <r>    2.0570    1.0000 </r>
       <r>    9.2683    0.0000 </r>
       <r>    9.2683    0.0000 </r>
       <r>   11.7683    0.0000 </r>
       <r>   11.7684    0.0000 </r>
      </set>
      <set comment="kpoint 256">
       <r>   -1.8205    1.0000 </r>
       <r>   -1.8205    1.0000 </r>
       <r>    1.9795    1.0000 </r>
       <r>    1.9795    1.0000 </r>
       <r>   10.1069    0.0000 </r>
       <r>   10.1070    0.0000 </r>
       <r>   10.8447    0.0000 </r>
       <r>   10.8447    0.0000 </r>
      </set>
     </set>
    </set>
   </array>
  </eigenvalues>
  <separator name="orbital magnetization" >
   <v name="MAGDIPOLOUT">      0.00000000      0.00000000      0.00000000</v>
  </separator>
  <dos>
   <i name="efermi">      5.87519577 </i>
   <total>
    <array>
     <dimension dim="1">gridpoints</dimension>
     <dimension dim="2">spin</dimension>
     <field>energy</field>
     <field>total</field>
     <field>integrated</field>
     <set>
      <set comment="spin 1">
       <r>    -8.1306     0.0000     0.0000 </r>
       <r>    -8.0436     0.0000     0.0000 </r>
       <r>    -7.9566     0.0000     0.0000 </r>
       <r>    -7.8697     0.0000     0.0000 </r>
       <r>    -7.7827     0.0000     0.0000 </r>
       <r>    -7.6958     0.0000     0.0000 </r>
       <r>    -7.6088     0.0000     0.0000 </r>
       <r>    -7.5218     0.0000     0.0000 </r>
       <r>    -7.4349     0.0000     0.0000 </r>
       <r>    -7.3479     0.0000     0.0000 </r>
       <r>    -7.2610     0.0000     0.0000 </r>
       <r>    -7.1740     0.0000     0.0000 </r>
       <r>    -7.0871     0.0000     0.0000 </r>
       <r>    -7.0001     0.0000     0.0000 </r>
       <r>    -6.9131     0.0000     0.0000 </r>
       <r>    -6.8262     0.0000     0.0000 </r>
       <r>    -6.7392     0.0000     0.0000 </r>
       <r>    -6.6523     0.0000     0.0000 </r>
       <r>    -6.5653     0.0000     0.0000 </r>
       <r>    -6.4783     0.0000     0.0000 </r>
       <r>    -6.3914     0.0000     0.0000 </r>
       <r>    -6.3044     0.0000     0.0000 </r>
       <r>    -6.2175     0.0000     0.0000 </r>
       <r>    -6.1305     0.0000     0.0000 </r>
       <r>    -6.0436     0.0972     0.0048 </r>
       <r>    -5.9566     0.1392     0.0151 </r>
       <r>    -5.8696     0.1724     0.0288 </r>
       <r>    -5.7827     0.2050     0.0452 </r>
       <r>    -5.6957     0.2275     0.0640 </r>
       <r>    -5.6088     0.2531     0.0848 </r>
       <r>    -5.5218     0.2742     0.1079 </r>
       <r>    -5.4348     0.2951     0.1326 </r>
       <r>    -5.3479     0.3177     0.1592 </r>
       <r>    -5.2609     0.3353     0.1876 </r>
       <r>    -5.1740     0.3545     0.2176 </r>
       <r>    -5.0870     0.3751     0.2493 </r>
       <r>    -5.0001     0.3925     0.2827 </r>
       <r>    -4.9131     0.4110     0.3176 </r>
       <r>    -4.8261     0.4308     0.3542 </r>
       <r>    -4.7392     0.4502     0.3925 </r>
       <r>    -4.6522     0.4691     0.4325 </r>
       <r>    -4.5653     0.4895     0.4742 </r>
       <r>    -4.4783     0.5114     0.5177 </r>
       <r>    -4.3913     0.5337     0.5631 </r>
       <r>    -4.3044     0.5576     0.6105 </r>
       <r>    -4.2174     0.5845     0.6602 </r>
       <r>    -4.1305     0.6150     0.7123 </r>
       <r>    -4.0435     0.6506     0.7673 </r>
       <r>    -3.9565     0.6958     0.8257 </r>
       <r>    -3.8696     0.7645     0.8889 </r>
       <r>    -3.7826     0.8874     0.9623 </r>
       <r>    -3.6957     0.8531     1.0387 </r>
       <r>    -3.6087     0.8434     1.1141 </r>
       <r>    -3.5218     0.8177     1.1861 </r>
       <r>    -3.4348     0.7778     1.2557 </r>
       <r>    -3.3478     0.7610     1.3225 </r>
       <r>    -3.2609     0.7240     1.3874 </r>
       <r>    -3.1739     0.6973     1.4491 </r>
       <r>    -3.0870     0.6693     1.5085 </r>
       <r>    -3.0000     0.6346     1.5652 </r>
       <r>    -2.9130     0.6083     1.6192 </r>
       <r>    -2.8261     0.5782     1.6708 </r>
       <r>    -2.7391     0.5425     1.7195 </r>
       <r>    -2.6522     0.5109     1.7654 </r>
       <r>    -2.5652     0.4812     1.8086 </r>
       <r>    -2.4783     0.4462     1.8490 </r>
       <r>    -2.3913     0.4115     1.8862 </r>
       <r>    -2.3043     0.3846     1.9208 </r>
       <r>    -2.2174     0.3418     1.9524 </r>
       <r>    -2.1304     0.2238     1.9788 </r>
       <r>    -2.0435     0.1027     1.9926 </r>
       <r>    -1.9565     0.0375     1.9983 </r>
       <r>    -1.8695     0.0343     2.0010 </r>
       <r>    -1.7826     0.0906     2.0060 </r>
       <r>    -1.6956     0.1735     2.0174 </r>
       <r>    -1.6087     0.2594     2.0363 </r>
       <r>    -1.5217     0.3262     2.0614 </r>
       <r>    -1.4348     0.3707     2.0917 </r>
       <r>    -1.3478     0.4235     2.1260 </r>
       <r>    -1.2608     0.4756     2.1651 </r>
       <r>    -1.1739     0.5516     2.2098 </r>
       <r>    -1.0869     0.8240     2.2640 </r>
       <r>    -1.0000     1.2994     2.3527 </r>
       <r>    -0.9130     1.7040     2.5066 </r>
       <r>    -0.8260     1.1355     2.6234 </r>
       <r>    -0.7391     0.9496     2.7130 </r>
       <r>    -0.6521     0.8363     2.7903 </r>
       <r>    -0.5652     0.7502     2.8592 </r>
       <r>    -0.4782     0.6842     2.9213 </r>
       <r>    -0.3913     0.6384     2.9788 </r>
       <r>    -0.3043     0.5969     3.0325 </r>
       <r>    -0.2173     0.5591     3.0827 </r>
       <r>    -0.1304     0.5199     3.1296 </r>
       <r>    -0.0434     0.4927     3.1736 </r>
       <r>     0.0435     0.4694     3.2154 </r>
       <r>     0.1305     0.4466     3.2552 </r>
       <r>     0.2175     0.4216     3.2930 </r>
       <r>     0.3044     0.3953     3.3286 </r>
       <r>     0.3914     0.3788     3.3622 </r>
       <r>     0.4783     0.3637     3.3945 </r>
       <r>     0.5653     0.3479     3.4254 </r>
       <r>     0.6523     0.3316     3.4549 </r>
       <r>     0.7392     0.3128     3.4830 </r>
       <r>     0.8262     0.2965     3.5094 </r>
       <r>     0.9131     0.2859     3.5348 </r>
       <r>     1.0001     0.2750     3.5592 </r>
       <r>     1.0870     0.2641     3.5826 </r>
       <r>     1.1740     0.2510     3.6050 </r>
       <r>     1.2610     0.2381     3.6263 </r>
       <r>     1.3479     0.2246     3.6463 </r>
       <r>     1.4349     0.2363     3.6656 </r>
       <r>     1.5218     0.5857     3.7043 </r>
       <r>     1.6088     0.8299     3.7667 </r>
       <r>     1.6958     1.1522     3.8513 </r>
       <r>     1.7827     1.2228     3.9621 </r>
       <r>     1.8697     1.1534     4.0653 </r>
       <r>     1.9566     1.0953     4.1635 </r>
       <r>     2.0436     1.0234     4.2551 </r>
       <r>     2.1305     1.0070     4.3434 </r>
       <r>     2.2175     1.0402     4.4322 </r>
       <r>     2.3045     1.0300     4.5216 </r>
       <r>     2.3914     1.0348     4.6116 </r>
       <r>     2.4784     1.0443     4.7028 </r>
       <r>     2.5653     1.0892     4.7962 </r>
       <r>     2.6523     1.1527     4.8939 </r>
       <r>     2.7393     1.1760     4.9954 </r>
       <r>     2.8262     1.2190     5.0995 </r>
       <r>     2.9132     1.4055     5.2134 </r>
       <r>     3.0001     1.5872     5.3399 </r>
       <r>     3.0871     1.5538     5.4742 </r>
       <r>     3.1740     1.4880     5.6053 </r>
       <r>     3.2610     1.4713     5.7339 </r>
       <r>     3.3480     1.4385     5.8604 </r>
       <r>     3.4349     1.4286     5.9849 </r>
       <r>     3.5219     1.4031     6.1082 </r>
       <r>     3.6088     1.3648     6.2285 </r>
       <r>     3.6958     1.3443     6.3461 </r>
       <r>     3.7828     1.3221     6.4621 </r>
       <r>     3.8697     1.3020     6.5763 </r>
       <r>     3.9567     1.2827     6.6887 </r>
       <r>     4.0436     1.2671     6.7996 </r>
       <r>     4.1306     1.2354     6.9083 </r>
       <r>     4.2175     1.2176     7.0150 </r>
       <r>     4.3045     1.2130     7.1207 </r>
       <r>     4.3915     1.1960     7.2249 </r>
       <r>     4.4784     1.1807     7.3284 </r>
       <r>     4.5654     1.1496     7.4297 </r>
       <r>     4.6523     0.9472     7.5247 </r>
       <r>     4.7393     0.7884     7.5994 </r>
       <r>     4.8263     0.6836     7.6632 </r>
       <r>     4.9132     0.6030     7.7192 </r>
       <r>     5.0002     0.5297     7.7682 </r>
       <r>     5.0871     0.4716     7.8118 </r>
       <r>     5.1741     0.4159     7.8502 </r>
       <r>     5.2611     0.3649     7.8842 </r>
       <r>     5.3480     0.3157     7.9138 </r>
       <r>     5.4350     0.2666     7.9391 </r>
       <r>     5.5219     0.2365     7.9610 </r>
       <r>     5.6089     0.1789     7.9789 </r>
       <r>     5.6958     0.1173     7.9923 </r>
       <r>     5.7828     0.0374     7.9995 </r>
       <r>     5.8698     0.0000     8.0000 </r>
       <r>     5.9567     0.0000     8.0000 </r>
       <r>     6.0437     0.0000     8.0000 </r>
       <r>     6.1306     0.0000     8.0000 </r>
       <r>     6.2176     0.0000     8.0000 </r>
       <r>     6.3046     0.0000     8.0000 </r>
       <r>     6.3915     0.0000     8.0000 </r>
       <r>     6.4785     0.0508     8.0014 </r>
       <r>     6.5654     0.1547     8.0105 </r>
       <r>     6.6524     0.2240     8.0269 </r>
       <r>     6.7393     0.3008     8.0497 </r>
       <r>     6.8263     0.3648     8.0791 </r>
       <r>     6.9133     0.4047     8.1124 </r>
       <r>     7.0002     0.4459     8.1494 </r>
       <r>     7.0872     0.4912     8.1901 </r>
       <r>     7.1741     0.5391     8.2349 </r>
       <r>     7.2611     0.5897     8.2840 </r>
       <r>     7.3481     0.6406     8.3374 </r>
       <r>     7.4350     0.7084     8.3960 </r>
       <r>     7.5220     0.7877     8.4609 </r>
       <r>     7.6089     0.8939     8.5338 </r>
       <r>     7.6959     0.9666     8.6143 </r>
       <r>     7.7828     1.0611     8.7024 </r>
       <r>     7.8698     1.1664     8.7991 </r>
       <r>     7.9568     1.3089     8.9059 </r>
       <r>     8.0437     1.6226     9.0352 </r>
       <r>     8.1307     1.6936     9.1803 </r>
       <r>     8.2176     1.7206     9.3277 </r>
       <r>     8.3046     1.5644     9.4687 </r>
       <r>     8.3916     1.5216     9.6046 </r>
       <r>     8.4785     1.3524     9.7300 </r>
       <r>     8.5655     1.3116     9.8461 </r>
       <r>     8.6524     1.1537     9.9536 </r>
       <r>     8.7394     1.0735    10.0527 </r>
       <r>     8.8263     1.0753    10.1457 </r>
       <r>     8.9133     1.0273    10.2375 </r>
       <r>     9.0003     0.9351    10.3219 </r>
       <r>     9.0872     1.4489    10.4084 </r>
       <r>     9.1742     2.4350    10.5986 </r>
       <r>     9.2611     2.0367    10.7849 </r>
       <r>     9.3481     1.8421    10.9526 </r>
       <r>     9.4351     1.7656    11.1097 </r>
       <r>     9.5220     1.9069    11.2663 </r>
       <r>     9.6090     1.8646    11.4358 </r>
       <r>     9.6959     1.5890    11.5852 </r>
       <r>     9.7829     1.3849    11.7139 </r>
       <r>     9.8699     1.3234    11.8310 </r>
       <r>     9.9568     1.1861    11.9408 </r>
       <r>    10.0438     1.0979    12.0385 </r>
       <r>    10.1307     1.1290    12.1333 </r>
       <r>    10.2177     1.1183    12.2335 </r>
       <r>    10.3046     1.2888    12.3362 </r>
       <r>    10.3916     1.5446    12.4654 </r>
       <r>    10.4786     1.1337    12.5800 </r>
       <r>    10.5655     1.1118    12.6762 </r>
       <r>    10.6525     1.2128    12.7778 </r>
       <r>    10.7394     1.2175    12.8825 </r>
       <r>    10.8264     1.3829    12.9981 </r>
       <r>    10.9134     1.1761    13.1086 </r>
       <r>    11.0003     1.1671    13.2081 </r>
       <r>    11.0873     1.1842    13.3092 </r>
       <r>    11.1742     1.1929    13.4143 </r>
       <r>    11.2612     1.1398    13.5153 </r>
       <r>    11.3481     1.1887    13.6158 </r>
       <r>    11.4351     1.1616    13.7167 </r>
       <r>    11.5221     1.1343    13.8164 </r>
       <r>    11.6090     1.1432    13.9156 </r>
       <r>    11.6960     1.0957    14.0136 </r>
       <r>    11.7829     1.0572    14.1069 </r>
       <r>    11.8699     1.0230    14.1981 </r>
       <r>    11.9569     0.9539    14.2827 </r>
       <r>    12.0438     0.9470    14.3651 </r>
       <r>    12.1308     0.9602    14.4486 </r>
       <r>    12.2177     0.8329    14.5257 </r>
       <r>    12.3047     0.8338    14.5978 </r>
       <r>    12.3916     0.9214    14.6737 </r>
       <r>    12.4786     1.0161    14.7579 </r>
       <r>    12.5656     1.0797    14.8491 </r>
       <r>    12.6525     1.1235    14.9456 </r>
       <r>    12.7395     0.8267    15.0342 </r>
       <r>    12.8264     0.7541    15.1027 </r>
       <r>    12.9134     0.7111    15.1663 </r>
       <r>    13.0004     0.6792    15.2266 </r>
       <r>    13.0873     0.6544    15.2846 </r>
       <r>    13.1743     0.6324    15.3406 </r>
       <r>    13.2612     0.6068    15.3945 </r>
       <r>    13.3482     0.5809    15.4462 </r>
       <r>    13.4351     0.5590    15.4956 </r>
       <r>    13.5221     0.5323    15.5428 </r>
       <r>    13.6091     0.5711    15.5898 </r>
       <r>    13.6960     0.7622    15.6516 </r>
       <r>    13.7830     0.5274    15.7057 </r>
       <r>    13.8699     0.4104    15.7465 </r>
       <r>    13.9569     0.2817    15.7759 </r>
       <r>    14.0439     0.2361    15.7981 </r>
       <r>    14.1308     0.2185    15.8178 </r>
       <r>    14.2178     0.2099    15.8364 </r>
       <r>    14.3047     0.2009    15.8542 </r>
       <r>    14.3917     0.1914    15.8713 </r>
       <r>    14.4787     0.1813    15.8875 </r>
       <r>    14.5656     0.1684    15.9027 </r>
       <r>    14.6526     0.1446    15.9162 </r>
       <r>    14.7395     0.1337    15.9284 </r>
       <r>    14.8265     0.1167    15.9393 </r>
       <r>    14.9134     0.1017    15.9488 </r>
       <r>    15.0004     0.0888    15.9571 </r>
       <r>    15.0874     0.0779    15.9643 </r>
       <r>    15.1743     0.0697    15.9707 </r>
       <r>    15.2613     0.0655    15.9765 </r>
       <r>    15.3482     0.0654    15.9822 </r>
       <r>    15.4352     0.0651    15.9879 </r>
       <r>    15.5222     0.0645    15.9934 </r>
       <r>    15.6091     0.0251    15.9971 </r>
       <r>    15.6961     0.0141    15.9988 </r>
       <r>    15.7830     0.0063    15.9996 </r>
       <r>    15.8700     0.0016    16.0000 </r>
       <r>    15.9569     0.0000    16.0000 </r>
       <r>    16.0439     0.0000    16.0000 </r>
       <r>    16.1309     0.0000    16.0000 </r>
       <r>    16.2178     0.0000    16.0000 </r>
       <r>    16.3048     0.0000    16.0000 </r>
       <r>    16.3917     0.0000    16.0000 </r>
       <r>    16.4787     0.0000    16.0000 </r>
       <r>    16.5657     0.0000    16.0000 </r>
       <r>    16.6526     0.0000    16.0000 </r>
       <r>    16.7396     0.0000    16.0000 </r>
       <r>    16.8265     0.0000    16.0000 </r>
       <r>    16.9135     0.0000    16.0000 </r>
       <r>    17.0004     0.0000    16.0000 </r>
       <r>    17.0874     0.0000    16.0000 </r>
       <r>    17.1744     0.0000    16.0000 </r>
       <r>    17.2613     0.0000    16.0000 </r>
       <r>    17.3483     0.0000    16.0000 </r>
       <r>    17.4352     0.0000    16.0000 </r>
       <r>    17.5222     0.0000    16.0000 </r>
       <r>    17.6092     0.0000    16.0000 </r>
       <r>    17.6961     0.0000    16.0000 </r>
       <r>    17.7831     0.0000    16.0000 </r>
       <r>    17.8700     0.0000    16.0000 </r>
       <r>    17.9570     0.0000    16.0000 </r>
      </set>
     </set>
    </array>
   </total>
  </dos>
 </calculation>
 <structure name="finalpos" >
  <crystal>
   <varray name="basis" >
    <v>       0.00000000       2.71500000       2.71500000 </v>
    <v>       2.71500000       0.00000000       2.71500000 </v>
    <v>       2.71500000       2.71500000       0.00000000 </v>
   </varray>
   <i name="volume">     40.02575175 </i>
   <varray name="rec_basis" >
    <v>      -0.18416206       0.18416206       0.18416206 </v>
    <v>       0.18416206      -0.18416206       0.18416206 </v>
    <v>       0.18416206       0.18416206      -0.18416206 </v>
   </varray>
  </crystal>
  <varray name="positions" >
   <v>       0.00000000       0.00000000       0.00000000 </v>
   <v>       0.25000000       0.25000000       0.25000000 </v>
  </varray>
 </structure>
</modeling>
