Nb                                      
   3.30080000000000     
     1.000000    0.000000    0.000000
     0.000000    1.000000    0.000000
     0.000000    0.000000    1.000000
   Nb
     2
Direct
  0.000000  0.000000  0.000000
  0.500000  0.500000  0.500000
 
   28   28   28
  168.87      165.63      155.74      139.02      116.23      89.725      63.260      40.728      24.634      15.224    
  10.765      8.7263      7.7593      7.3761      7.2807      7.3761      7.7593      8.7263      10.765      15.224    
  24.634      40.728      63.260      89.725      116.23      139.02      155.74      165.63      165.63      162.42    
  152.61      136.06      113.55      87.478      61.557      39.600      24.011      14.957      10.680      8.6988    
  7.7583      7.3857      7.2930      7.3857      7.7583      8.6988      10.680      14.957      24.011      39.600    
  61.557      87.478      113.55      136.06      152.61      162.42      155.74      152.61      143.07      127.08    
  105.52      80.817      56.577      36.355      22.252      14.219      10.442      8.6216      7.7569      7.4144    
  7.3292      7.4144      7.7569      8.6216      10.442      14.219      22.252      36.355      56.577      80.817    
  105.52      127.08      143.07      152.61      139.02      136.06      127.08      112.18      92.416      70.180    
  48.825      31.452      19.687      13.179      10.089      8.5082      7.7584      7.4604      7.3861      7.4604    
  7.7584      8.5082      10.089      13.179      19.687      31.452      48.825      70.180      92.416      112.18    
  127.08      136.06      116.23      113.55      105.52      92.416      75.399      56.746      39.362      25.707    
  16.821      12.056      9.6619      8.3763      7.7640      7.5177      7.4556      7.5177      7.7640      8.3763    
  9.6619      12.056      16.821      25.707      39.362      56.746      75.399      92.416      105.52      113.55    
  89.725      87.478      80.817      70.180      56.746      42.503      29.734      20.147      14.191      11.009    
  9.2184      8.2426      7.7704      7.5747      7.5239      7.5747      7.7704      8.2426      9.2184      11.009    
  14.191      20.147      29.734      42.503      56.746      70.180      80.817      87.478      63.260      61.557    
  56.577      48.825      39.362      29.734      21.512      15.657      12.134      10.065      8.8105      8.1181    
  7.7699      7.6164      7.5743      7.6164      7.7699      8.1181      8.8105      10.065      12.134      15.657    
  21.512      29.734      39.362      48.825      56.577      61.557      40.728      39.600      36.355      31.452    
  25.707      20.147      15.657      12.585      10.605      9.2829      8.4710      8.0058      7.7533      7.6298    
  7.5929      7.6298      7.7533      8.0058      8.4710      9.2829      10.605      12.585      15.657      20.147    
  25.707      31.452      36.355      39.600      24.634      24.011      22.252      19.687      16.821      14.191    
  12.134      10.605      9.4678      8.6965      8.2062      7.9016      7.7139      7.6087      7.5743      7.6087    
  7.7139      7.9016      8.2062      8.6965      9.4678      10.605      12.134      14.191      16.821      19.687    
  22.252      24.011      15.224      14.957      14.219      13.179      12.056      11.009      10.065      9.2829    
  8.6965      8.2856      8.0014      7.7980      7.6507      7.5567      7.5239      7.5567      7.6507      7.7980    
  8.0014      8.2856      8.6965      9.2829      10.065      11.009      12.056      13.179      14.219      14.957    
  10.765      10.680      10.442      10.089      9.6619      9.2184      8.8105      8.4710      8.2062      8.0014    
  7.8343      7.6901      7.5694      7.4858      7.4556      7.4858      7.5694      7.6901      7.8343      8.0014    
  8.2062      8.4710      8.8105      9.2184      9.6619      10.089      10.442      10.680      8.7263      8.6988    
  8.6216      8.5082      8.3763      8.2426      8.1181      8.0058      7.9016      7.7980      7.6901      7.5806    
  7.4818      7.4116      7.3861      7.4116      7.4818      7.5806      7.6901      7.7980      7.9016      8.0058    
  8.1181      8.2426      8.3763      8.5082      8.6216      8.6988      7.7593      7.7583      7.7569      7.7584    
  7.7640      7.7704      7.7699      7.7533      7.7139      7.6507      7.5694      7.4818      7.4032      7.3487    
  7.3292      7.3487      7.4032      7.4818      7.5694      7.6507      7.7139      7.7533      7.7699      7.7704    
  7.7640      7.7584      7.7569      7.7583      7.3761      7.3857      7.4144      7.4604      7.5177      7.5747    
  7.6164      7.6298      7.6087      7.5567      7.4858      7.4116      7.3487      7.3073      7.2930      7.3073    
  7.3487      7.4116      7.4858      7.5567      7.6087      7.6298      7.6164      7.5747      7.5177      7.4604    
  7.4144      7.3857      7.2807      7.2930      7.3292      7.3861      7.4556      7.5239      7.5743      7.5929    
  7.5743      7.5239      7.4556      7.3861      7.3292      7.2930      7.2807      7.2930      7.3292      7.3861    
  7.4556      7.5239      7.5743      7.5929      7.5743      7.5239      7.4556      7.3861      7.3292      7.2930    
  7.3761      7.3857      7.4144      7.4604      7.5177      7.5747      7.6164      7.6298      7.6087      7.5567    
  7.4858      7.4116      7.3487      7.3073      7.2930      7.3073      7.3487      7.4116      7.4858      7.5567    
  7.6087      7.6298      7.6164      7.5747      7.5177      7.4604      7.4144      7.3857      7.7593      7.7583    
  7.7569      7.7584      7.7640      7.7704      7.7699      7.7533      7.7139      7.6507      7.5694      7.4818    
  7.4032      7.3487      7.3292      7.3487      7.4032      7.4818      7.5694      7.6507      7.7139      7.7533    
  7.7699      7.7704      7.7640      7.7584      7.7569      7.7583      8.7263      8.6988      8.6216      8.5082    
  8.3763      8.2426      8.1181      8.0058      7.9016      7.7980      7.6901      7.5806      7.4818      7.4116    
  7.3861      7.4116      7.4818      7.5806      7.6901      7.7980      7.9016      8.0058      8.1181      8.2426    
  8.3763      8.5082      8.6216      8.6988      10.765      10.680      10.442      10.089      9.6619      9.2184    
  8.8105      8.4710      8.2062      8.0014      7.8343      7.6901      7.5694      7.4858      7.4556      7.4858    
  7.5694      7.6901      7.8343      8.0014      8.2062      8.4710      8.8105      9.2184      9.6619      10.089    
  10.442      10.680      15.224      14.957      14.219      13.179      12.056      11.009      10.065      9.2829    
  8.6965      8.2856      8.0014      7.7980      7.6507      7.5567      7.5239      7.5567      7.6507      7.7980    
  8.0014      8.2856      8.6965      9.2829      10.065      11.009      12.056      13.179      14.219      14.957    
  24.634      24.011      22.252      19.687      16.821      14.191      12.134      10.605      9.4678      8.6965    
  8.2062      7.9016      7.7139      7.6087      7.5743      7.6087      7.7139      7.9016      8.2062      8.6965    
  9.4678      10.605      12.134      14.191      16.821      19.687      22.252      24.011      40.728      39.600    
  36.355      31.452      25.707      20.147      15.657      12.585      10.605      9.2829      8.4710      8.0058    
  7.7533      7.6298      7.5929      7.6298      7.7533      8.0058      8.4710      9.2829      10.605      12.585    
  15.657      20.147      25.707      31.452      36.355      39.600      63.260      61.557      56.577      48.825    
  39.362      29.734      21.512      15.657      12.134      10.065      8.8105      8.1181      7.7699      7.6164    
  7.5743      7.6164      7.7699      8.1181      8.8105      10.065      12.134      15.657      21.512      29.734    
  39.362      48.825      56.577      61.557      89.725      87.478      80.817      70.180      56.746      42.503    
  29.734      20.147      14.191      11.009      9.2184      8.2426      7.7704      7.5747      7.5239      7.5747    
  7.7704      8.2426      9.2184      11.009      14.191      20.147      29.734      42.503      56.746      70.180    
  80.817      87.478      116.23      113.55      105.52      92.416      75.399      56.746      39.362      25.707    
  16.821      12.056      9.6619      8.3763      7.7640      7.5177      7.4556      7.5177      7.7640      8.3763    
  9.6619      12.056      16.821      25.707      39.362      56.746      75.399      92.416      105.52      113.55    
  139.02      136.06      127.08      112.18      92.416      70.180      48.825      31.452      19.687      13.179    
  10.089      8.5082      7.7584      7.4604      7.3861      7.4604      7.7584      8.5082      10.089      13.179    
  19.687      31.452      48.825      70.180      92.416      112.18      127.08      136.06      155.74      152.61    
  143.07      127.08      105.52      80.817      56.577      36.355      22.252      14.219      10.442      8.6216    
  7.7569      7.4144      7.3292      7.4144      7.7569      8.6216      10.442      14.219      22.252      36.355    
  56.577      80.817      105.52      127.08      143.07      152.61      165.63      162.42      152.61      136.06    
  113.55      87.478      61.557      39.600      24.011      14.957      10.680      8.6988      7.7583      7.3857    
  7.2930      7.3857      7.7583      8.6988      10.680      14.957      24.011      39.600      61.557      87.478    
  113.55      136.06      152.61      162.42      165.63      162.42      152.61      136.06      113.55      87.478    
  61.557      39.600      24.011      14.957      10.680      8.6988      7.7583      7.3857      7.2930      7.3857    
  7.7583      8.6988      10.680      14.957      24.011      39.600      61.557      87.478      113.55      136.06    
  152.61      162.42      162.42      159.23      149.50      133.11      110.90      85.259      59.884      38.501    
  23.410      14.704      10.601      8.6745      7.7597      7.3975      7.3073      7.3975      7.7597      8.6745    
  10.601      14.704      23.410      38.501      59.884      85.259      110.90      133.11      149.50      159.23    
  152.61      149.50      140.03      124.20      102.95      78.693      55.002      35.343      21.716      14.003    
  10.377      8.6056      7.7648      7.4316      7.3487      7.4316      7.7648      8.6056      10.377      14.003    
  21.716      35.343      55.002      78.693      102.95      124.20      140.03      149.50      136.06      133.11    
  124.20      109.49      90.032      68.248      47.431      30.589      19.253      13.016      10.040      8.5033    
  7.7742      7.4841      7.4116      7.4841      7.7742      8.5033      10.040      13.016      19.253      30.589    
  47.431      68.248      90.032      109.49      124.20      133.11      113.55      110.90      102.95      90.032    
  73.333      55.119      38.232      25.043      16.511      11.950      9.6321      8.3826      7.7869      7.5466    
  7.4858      7.5466      7.7869      8.3826      9.6321      11.950      16.511      25.043      38.232      55.119    
  73.333      90.032      102.95      110.90      87.478      85.259      78.693      68.248      55.119      41.269    
  28.921      19.703      14.003      10.946      9.2070      8.2586      7.7983      7.6067      7.5567      7.6067    
  7.7983      8.2586      9.2070      10.946      14.003      19.703      28.921      41.269      55.119      68.248    
  78.693      85.259      61.557      59.884      55.002      47.431      38.232      28.921      21.012      15.409    
  12.038      10.034      8.8154      8.1417      7.8014      7.6504      7.6087      7.6504      7.8014      8.1417    
  8.8154      10.034      12.038      15.409      21.012      28.921      38.232      47.431      55.002      59.884    
  39.600      38.501      35.343      30.589      25.043      19.703      15.409      12.474      10.560      9.2778    
  8.4892      8.0358      7.7883      7.6664      7.6298      7.6664      7.7883      8.0358      8.4892      9.2778    
  10.560      12.474      15.409      19.703      25.043      30.589      35.343      38.501      24.011      23.410    
  21.716      19.253      16.511      14.003      12.038      10.560      9.4586      8.7109      8.2348      7.9378    
  7.7540      7.6504      7.6164      7.6504      7.7540      7.9378      8.2348      8.7109      9.4586      10.560    
  12.038      14.003      16.511      19.253      21.716      23.410      14.957      14.704      14.003      13.016    
  11.950      10.946      10.034      9.2778      8.7109      8.3135      8.0385      7.8413      7.6982      7.6067    
  7.5747      7.6067      7.6982      7.8413      8.0385      8.3135      8.7109      9.2778      10.034      10.946    
  11.950      13.016      14.003      14.704      10.680      10.601      10.377      10.040      9.6321      9.2070    
  8.8154      8.4892      8.2348      8.0385      7.8789      7.7414      7.6263      7.5466      7.5177      7.5466    
  7.6263      7.7414      7.8789      8.0385      8.2348      8.4892      8.8154      9.2070      9.6321      10.040    
  10.377      10.601      8.6988      8.6745      8.6056      8.5033      8.3826      8.2586      8.1417      8.0358    
  7.9378      7.8413      7.7414      7.6403      7.5490      7.4841      7.4604      7.4841      7.5490      7.6403    
  7.7414      7.8413      7.9378      8.0358      8.1417      8.2586      8.3826      8.5033      8.6056      8.6745    
  7.7583      7.7597      7.7648      7.7742      7.7869      7.7983      7.8014      7.7883      7.7540      7.6982    
  7.6263      7.5490      7.4797      7.4316      7.4144      7.4316      7.4797      7.5490      7.6263      7.6982    
  7.7540      7.7883      7.8014      7.7983      7.7869      7.7742      7.7648      7.7597      7.3857      7.3975    
  7.4316      7.4841      7.5466      7.6067      7.6504      7.6664      7.6504      7.6067      7.5466      7.4841    
  7.4316      7.3975      7.3857      7.3975      7.4316      7.4841      7.5466      7.6067      7.6504      7.6664    
  7.6504      7.6067      7.5466      7.4841      7.4316      7.3975      7.2930      7.3073      7.3487      7.4116    
  7.4858      7.5567      7.6087      7.6298      7.6164      7.5747      7.5177      7.4604      7.4144      7.3857    
  7.3761      7.3857      7.4144      7.4604      7.5177      7.5747      7.6164      7.6298      7.6087      7.5567    
  7.4858      7.4116      7.3487      7.3073      7.3857      7.3975      7.4316      7.4841      7.5466      7.6067    
  7.6504      7.6664      7.6504      7.6067      7.5466      7.4841      7.4316      7.3975      7.3857      7.3975    
  7.4316      7.4841      7.5466      7.6067      7.6504      7.6664      7.6504      7.6067      7.5466      7.4841    
  7.4316      7.3975      7.7583      7.7597      7.7648      7.7742      7.7869      7.7983      7.8014      7.7883    
  7.7540      7.6982      7.6263      7.5490      7.4797      7.4316      7.4144      7.4316      7.4797      7.5490    
  7.6263      7.6982      7.7540      7.7883      7.8014      7.7983      7.7869      7.7742      7.7648      7.7597    
  8.6988      8.6745      8.6056      8.5033      8.3826      8.2586      8.1417      8.0358      7.9378      7.8413    
  7.7414      7.6403      7.5490      7.4841      7.4604      7.4841      7.5490      7.6403      7.7414      7.8413    
  7.9378      8.0358      8.1417      8.2586      8.3826      8.5033      8.6056      8.6745      10.680      10.601    
  10.377      10.040      9.6321      9.2070      8.8154      8.4892      8.2348      8.0385      7.8789      7.7414    
  7.6263      7.5466      7.5177      7.5466      7.6263      7.7414      7.8789      8.0385      8.2348      8.4892    
  8.8154      9.2070      9.6321      10.040      10.377      10.601      14.957      14.704      14.003      13.016    
  11.950      10.946      10.034      9.2778      8.7109      8.3135      8.0385      7.8413      7.6982      7.6067    
  7.5747      7.6067      7.6982      7.8413      8.0385      8.3135      8.7109      9.2778      10.034      10.946    
  11.950      13.016      14.003      14.704      24.011      23.410      21.716      19.253      16.511      14.003    
  12.038      10.560      9.4586      8.7109      8.2348      7.9378      7.7540      7.6504      7.6164      7.6504    
  7.7540      7.9378      8.2348      8.7109      9.4586      10.560      12.038      14.003      16.511      19.253    
  21.716      23.410      39.600      38.501      35.343      30.589      25.043      19.703      15.409      12.474    
  10.560      9.2778      8.4892      8.0358      7.7883      7.6664      7.6298      7.6664      7.7883      8.0358    
  8.4892      9.2778      10.560      12.474      15.409      19.703      25.043      30.589      35.343      38.501    
  61.557      59.884      55.002      47.431      38.232      28.921      21.012      15.409      12.038      10.034    
  8.8154      8.1417      7.8014      7.6504      7.6087      7.6504      7.8014      8.1417      8.8154      10.034    
  12.038      15.409      21.012      28.921      38.232      47.431      55.002      59.884      87.478      85.259    
  78.693      68.248      55.119      41.269      28.921      19.703      14.003      10.946      9.2070      8.2586    
  7.7983      7.6067      7.5567      7.6067      7.7983      8.2586      9.2070      10.946      14.003      19.703    
  28.921      41.269      55.119      68.248      78.693      85.259      113.55      110.90      102.95      90.032    
  73.333      55.119      38.232      25.043      16.511      11.950      9.6321      8.3826      7.7869      7.5466    
  7.4858      7.5466      7.7869      8.3826      9.6321      11.950      16.511      25.043      38.232      55.119    
  73.333      90.032      102.95      110.90      136.06      133.11      124.20      109.49      90.032      68.248    
  47.431      30.589      19.253      13.016      10.040      8.5033      7.7742      7.4841      7.4116      7.4841    
  7.7742      8.5033      10.040      13.016      19.253      30.589      47.431      68.248      90.032      109.49    
  124.20      133.11      152.61      149.50      140.03      124.20      102.95      78.693      55.002      35.343    
  21.716      14.003      10.377      8.6056      7.7648      7.4316      7.3487      7.4316      7.7648      8.6056    
  10.377      14.003      21.716      35.343      55.002      78.693      102.95      124.20      140.03      149.50    
  162.42      159.23      149.50      133.11      110.90      85.259      59.884      38.501      23.410      14.704    
  10.601      8.6745      7.7597      7.3975      7.3073      7.3975      7.7597      8.6745      10.601      14.704    
  23.410      38.501      59.884      85.259      110.90      133.11      149.50      159.23      155.74      152.61    
  143.07      127.08      105.52      80.817      56.577      36.355      22.252      14.219      10.442      8.6216    
  7.7569      7.4144      7.3292      7.4144      7.7569      8.6216      10.442      14.219      22.252      36.355    
  56.577      80.817      105.52      127.08      143.07      152.61      152.61      149.50      140.03      124.20    
  102.95      78.693      55.002      35.343      21.716      14.003      10.377      8.6056      7.7648      7.4316    
  7.3487      7.4316      7.7648      8.6056      10.377      14.003      21.716      35.343      55.002      78.693    
  102.95      124.20      140.03      149.50      143.07      140.03      130.83      115.57      95.299      72.447    
  50.434      32.453      20.212      13.406      10.188      8.5591      7.7865      7.4797      7.4032      7.4797    
  7.7865      8.5591      10.188      13.406      20.212      32.453      50.434      72.447      95.299      115.57    
  130.83      140.03      127.08      124.20      115.57      101.45      83.001      62.618      43.423      28.144    
  18.043      12.568      9.8981      8.4872      7.8170      7.5490      7.4818      7.5490      7.8170      8.4872    
  9.8981      12.568      18.043      28.144      43.423      62.618      83.001      101.45      115.57      124.20    
  105.52      102.95      95.299      83.001      67.305      50.425      35.015      23.179      15.653      11.654    
  9.5439      8.3983      7.8496      7.6263      7.5694      7.6263      7.8496      8.3983      9.5439      11.654    
  15.653      23.179      35.015      50.425      67.305      83.001      95.299      102.95      80.817      78.693    
  72.447      62.618      50.425      37.752      26.631      18.467      13.485      10.765      9.1731      8.3034    
  7.8778      7.6982      7.6507      7.6982      7.8778      8.3034      9.1731      10.765      13.485      18.467    
  26.631      37.752      50.425      62.618      72.447      78.693      56.577      55.002      50.434      43.423    
  35.015      26.631      19.623      14.726      11.770      9.9445      8.8314      8.2129      7.8968      7.7540    
  7.7139      7.7540      7.8968      8.2129      8.8314      9.9445      11.770      14.726      19.623      26.631    
  35.015      43.423      50.434      55.002      36.355      35.343      32.453      28.144      23.179      18.467    
  14.726      12.166      10.434      9.2671      8.5489      8.1333      7.9034      7.7883      7.7533      7.7883    
  7.9034      8.1333      8.5489      9.2671      10.434      12.166      14.726      18.467      23.179      28.144    
  32.453      35.343      22.252      21.716      20.212      18.043      15.653      13.485      11.770      10.434    
  9.4372      8.7627      8.3332      8.0645      7.8968      7.8014      7.7699      7.8014      7.8968      8.0645    
  8.3332      8.7627      9.4372      10.434      11.770      13.485      15.653      18.043      20.212      21.716    
  14.219      14.003      13.406      12.568      11.654      10.765      9.9445      9.2671      8.7627      8.4122    
  8.1723      8.0017      7.8778      7.7983      7.7704      7.7983      7.8778      8.0017      8.1723      8.4122    
  8.7627      9.2671      9.9445      10.765      11.654      12.568      13.406      14.003      10.442      10.377    
  10.188      9.8981      9.5439      9.1731      8.8314      8.5489      8.3332      8.1723      8.0460      7.9392    
  7.8496      7.7869      7.7640      7.7869      7.8496      7.9392      8.0460      8.1723      8.3332      8.5489    
  8.8314      9.1731      9.5439      9.8981      10.188      10.377      8.6216      8.6056      8.5591      8.4872    
  8.3983      8.3034      8.2129      8.1333      8.0645      8.0017      7.9392      7.8757      7.8170      7.7742    
  7.7584      7.7742      7.8170      7.8757      7.9392      8.0017      8.0645      8.1333      8.2129      8.3034    
  8.3983      8.4872      8.5591      8.6056      7.7569      7.7648      7.7865      7.8170      7.8496      7.8778    
  7.8968      7.9034      7.8968      7.8778      7.8496      7.8170      7.7865      7.7648      7.7569      7.7648    
  7.7865      7.8170      7.8496      7.8778      7.8968      7.9034      7.8968      7.8778      7.8496      7.8170    
  7.7865      7.7648      7.4144      7.4316      7.4797      7.5490      7.6263      7.6982      7.7540      7.7883    
  7.8014      7.7983      7.7869      7.7742      7.7648      7.7597      7.7583      7.7597      7.7648      7.7742    
  7.7869      7.7983      7.8014      7.7883      7.7540      7.6982      7.6263      7.5490      7.4797      7.4316    
  7.3292      7.3487      7.4032      7.4818      7.5694      7.6507      7.7139      7.7533      7.7699      7.7704    
  7.7640      7.7584      7.7569      7.7583      7.7593      7.7583      7.7569      7.7584      7.7640      7.7704    
  7.7699      7.7533      7.7139      7.6507      7.5694      7.4818      7.4032      7.3487      7.4144      7.4316    
  7.4797      7.5490      7.6263      7.6982      7.7540      7.7883      7.8014      7.7983      7.7869      7.7742    
  7.7648      7.7597      7.7583      7.7597      7.7648      7.7742      7.7869      7.7983      7.8014      7.7883    
  7.7540      7.6982      7.6263      7.5490      7.4797      7.4316      7.7569      7.7648      7.7865      7.8170    
  7.8496      7.8778      7.8968      7.9034      7.8968      7.8778      7.8496      7.8170      7.7865      7.7648    
  7.7569      7.7648      7.7865      7.8170      7.8496      7.8778      7.8968      7.9034      7.8968      7.8778    
  7.8496      7.8170      7.7865      7.7648      8.6216      8.6056      8.5591      8.4872      8.3983      8.3034    
  8.2129      8.1333      8.0645      8.0017      7.9392      7.8757      7.8170      7.7742      7.7584      7.7742    
  7.8170      7.8757      7.9392      8.0017      8.0645      8.1333      8.2129      8.3034      8.3983      8.4872    
  8.5591      8.6056      10.442      10.377      10.188      9.8981      9.5439      9.1731      8.8314      8.5489    
  8.3332      8.1723      8.0460      7.9392      7.8496      7.7869      7.7640      7.7869      7.8496      7.9392    
  8.0460      8.1723      8.3332      8.5489      8.8314      9.1731      9.5439      9.8981      10.188      10.377    
  14.219      14.003      13.406      12.568      11.654      10.765      9.9445      9.2671      8.7627      8.4122    
  8.1723      8.0017      7.8778      7.7983      7.7704      7.7983      7.8778      8.0017      8.1723      8.4122    
  8.7627      9.2671      9.9445      10.765      11.654      12.568      13.406      14.003      22.252      21.716    
  20.212      18.043      15.653      13.485      11.770      10.434      9.4372      8.7627      8.3332      8.0645    
  7.8968      7.8014      7.7699      7.8014      7.8968      8.0645      8.3332      8.7627      9.4372      10.434    
  11.770      13.485      15.653      18.043      20.212      21.716      36.355      35.343      32.453      28.144    
  23.179      18.467      14.726      12.166      10.434      9.2671      8.5489      8.1333      7.9034      7.7883    
  7.7533      7.7883      7.9034      8.1333      8.5489      9.2671      10.434      12.166      14.726      18.467    
  23.179      28.144      32.453      35.343      56.577      55.002      50.434      43.423      35.015      26.631    
  19.623      14.726      11.770      9.9445      8.8314      8.2129      7.8968      7.7540      7.7139      7.7540    
  7.8968      8.2129      8.8314      9.9445      11.770      14.726      19.623      26.631      35.015      43.423    
  50.434      55.002      80.817      78.693      72.447      62.618      50.425      37.752      26.631      18.467    
  13.485      10.765      9.1731      8.3034      7.8778      7.6982      7.6507      7.6982      7.8778      8.3034    
  9.1731      10.765      13.485      18.467      26.631      37.752      50.425      62.618      72.447      78.693    
  105.52      102.95      95.299      83.001      67.305      50.425      35.015      23.179      15.653      11.654    
  9.5439      8.3983      7.8496      7.6263      7.5694      7.6263      7.8496      8.3983      9.5439      11.654    
  15.653      23.179      35.015      50.425      67.305      83.001      95.299      102.95      127.08      124.20    
  115.57      101.45      83.001      62.618      43.423      28.144      18.043      12.568      9.8981      8.4872    
  7.8170      7.5490      7.4818      7.5490      7.8170      8.4872      9.8981      12.568      18.043      28.144    
  43.423      62.618      83.001      101.45      115.57      124.20      143.07      140.03      130.83      115.57    
  95.299      72.447      50.434      32.453      20.212      13.406      10.188      8.5591      7.7865      7.4797    
  7.4032      7.4797      7.7865      8.5591      10.188      13.406      20.212      32.453      50.434      72.447    
  95.299      115.57      130.83      140.03      152.61      149.50      140.03      124.20      102.95      78.693    
  55.002      35.343      21.716      14.003      10.377      8.6056      7.7648      7.4316      7.3487      7.4316    
  7.7648      8.6056      10.377      14.003      21.716      35.343      55.002      78.693      102.95      124.20    
  140.03      149.50      139.02      136.06      127.08      112.18      92.416      70.180      48.825      31.452    
  19.687      13.179      10.089      8.5082      7.7584      7.4604      7.3861      7.4604      7.7584      8.5082    
  10.089      13.179      19.687      31.452      48.825      70.180      92.416      112.18      127.08      136.06    
  136.06      133.11      124.20      109.49      90.032      68.248      47.431      30.589      19.253      13.016    
  10.040      8.5033      7.7742      7.4841      7.4116      7.4841      7.7742      8.5033      10.040      13.016    
  19.253      30.589      47.431      68.248      90.032      109.49      124.20      133.11      127.08      124.20    
  115.57      101.45      83.001      62.618      43.423      28.144      18.043      12.568      9.8981      8.4872    
  7.8170      7.5490      7.4818      7.5490      7.8170      8.4872      9.8981      12.568      18.043      28.144    
  43.423      62.618      83.001      101.45      115.57      124.20      112.18      109.49      101.45      88.487    
  71.870      53.896      37.363      24.550      16.319      11.933      9.6771      8.4578      7.8757      7.6403    