Nb                                      
   3.30080000000000     
     1.000000    0.000000    0.000000
     0.000000    1.000000    0.000000
     0.000000    0.000000    1.000000
   Nb
     2
Direct
  0.000000  0.000000  0.000000
  0.500000  0.500000  0.500000
 
   28   28   28
 0.16886699322E+03 0.16563364077E+03 0.15574252863E+03 0.13902213412E+03 0.11622772801E+03
 0.89725017113E+02 0.63260152621E+02 0.40728237380E+02 0.24633989263E+02 0.15223938236E+02
 0.10765199278E+02 0.87262577430E+01 0.77592601534E+01 0.73760925102E+01 0.72806852853E+01
 0.73760925102E+01 0.77592601534E+01 0.87262577430E+01 0.10765199278E+02 0.15223938236E+02
 0.24633989263E+02 0.40728237380E+02 0.63260152621E+02 0.89725017113E+02 0.11622772801E+03
 0.13902213412E+03 0.15574252863E+03 0.16563364077E+03 0.16563364077E+03 0.16242319835E+03
 0.15261134595E+03 0.13605628321E+03 0.11355061805E+03 0.87478404522E+02 0.61556840288E+02
 0.39600344998E+02 0.24011176182E+02 0.14957093791E+02 0.10680170382E+02 0.86988206687E+01
 0.77582681082E+01 0.73856986229E+01 0.72929669613E+01 0.73856986229E+01 0.77582681082E+01
 0.86988206687E+01 0.10680170382E+02 0.14957093791E+02 0.24011176182E+02 0.39600344998E+02
 0.61556840288E+02 0.87478404522E+02 0.11355061805E+03 0.13605628321E+03 0.15261134595E+03
 0.16242319835E+03 0.15574252863E+03 0.15261134595E+03 0.14307203783E+03 0.12707532167E+03
 0.10551799766E+03 0.80817055864E+02 0.56576824576E+02 0.36355315608E+02 0.22252414727E+02
 0.14218741834E+02 0.10442395459E+02 0.86215973728E+01 0.77569081699E+01 0.74143881504E+01
 0.73291626387E+01 0.74143881504E+01 0.77569081699E+01 0.86215973728E+01 0.10442395459E+02
 0.14218741834E+02 0.22252414727E+02 0.36355315608E+02 0.56576824576E+02 0.80817055864E+02
 0.10551799766E+03 0.12707532167E+03 0.14307203783E+03 0.15261134595E+03 0.13902213412E+03
 0.13605628321E+03 0.12707532167E+03 0.11218266554E+03 0.92415813170E+02 0.70180276601E+02
 0.48824765328E+02 0.31452372273E+02 0.19686685849E+02 0.13178868767E+02 0.10088822929E+02
 0.85081763280E+01 0.77584015674E+01 0.74604218426E+01 0.73860839772E+01 0.74604218426E+01
 0.77584015674E+01 0.85081763280E+01 0.10088822929E+02 0.13178868767E+02 0.19686685849E+02
 0.31452372273E+02 0.48824765328E+02 0.70180276601E+02 0.92415813170E+02 0.11218266554E+03
 0.12707532167E+03 0.13605628321E+03 0.11622772801E+03 0.11355061805E+03 0.10551799766E+03
 0.92415813170E+02 0.75399340704E+02 0.56746391380E+02 0.39361762221E+02 0.25706941017E+02
 0.16820678284E+02 0.12055761408E+02 0.96619443012E+01 0.83763161695E+01 0.77640202916E+01
 0.75177333366E+01 0.74556000357E+01 0.75177333366E+01 0.77640202916E+01 0.83763161695E+01
 0.96619443012E+01 0.12055761408E+02 0.16820678284E+02 0.25706941017E+02 0.39361762221E+02
 0.56746391380E+02 0.75399340704E+02 0.92415813170E+02 0.10551799766E+03 0.11355061805E+03
 0.89725017113E+02 0.87478404522E+02 0.80817055864E+02 0.70180276601E+02 0.56746391380E+02
 0.42502771332E+02 0.29734017200E+02 0.20147262885E+02 0.14191357243E+02 0.11008567832E+02
 0.92183991174E+01 0.82426324339E+01 0.77704276939E+01 0.75747122610E+01 0.75238901368E+01
 0.75747122610E+01 0.77704276939E+01 0.82426324339E+01 0.92183991174E+01 0.11008567832E+02
 0.14191357243E+02 0.20147262885E+02 0.29734017200E+02 0.42502771332E+02 0.56746391380E+02
 0.70180276601E+02 0.80817055864E+02 0.87478404522E+02 0.63260152621E+02 0.61556840288E+02
 0.56576824576E+02 0.48824765328E+02 0.39361762221E+02 0.29734017200E+02 0.21511527657E+02
 0.15656563360E+02 0.12133642795E+02 0.10065486990E+02 0.88105295064E+01 0.81181074088E+01
 0.77699030627E+01 0.76164353070E+01 0.75742624315E+01 0.76164353070E+01 0.77699030627E+01
 0.81181074088E+01 0.88105295064E+01 0.10065486990E+02 0.12133642795E+02 0.15656563360E+02
 0.21511527657E+02 0.29734017200E+02 0.39361762221E+02 0.48824765328E+02 0.56576824576E+02
 0.61556840288E+02 0.40728237380E+02 0.39600344998E+02 0.36355315608E+02 0.31452372273E+02
 0.25706941017E+02 0.20147262885E+02 0.15656563360E+02 0.12584802838E+02 0.10604927760E+02
 0.92829480196E+01 0.84710210899E+01 0.80058034223E+01 0.77532859330E+01 0.76297690023E+01
 0.75928533465E+01 0.76297690023E+01 0.77532859330E+01 0.80058034223E+01 0.84710210899E+01
 0.92829480196E+01 0.10604927760E+02 0.12584802838E+02 0.15656563360E+02 0.20147262885E+02
 0.25706941017E+02 0.31452372273E+02 0.36355315608E+02 0.39600344998E+02 0.24633989263E+02
 0.24011176182E+02 0.22252414727E+02 0.19686685849E+02 0.16820678284E+02 0.14191357243E+02
 0.12133642795E+02 0.10604927760E+02 0.94678312271E+01 0.86964699619E+01 0.82062458421E+01
 0.79015980825E+01 0.77139082682E+01 0.76086623729E+01 0.75742624315E+01 0.76086623729E+01
 0.77139082682E+01 0.79015980825E+01 0.82062458421E+01 0.86964699619E+01 0.94678312271E+01
 0.10604927760E+02 0.12133642795E+02 0.14191357243E+02 0.16820678284E+02 0.19686685849E+02
 0.22252414727E+02 0.24011176182E+02 0.15223938236E+02 0.14957093791E+02 0.14218741834E+02
 0.13178868767E+02 0.12055761408E+02 0.11008567832E+02 0.10065486990E+02 0.92829480196E+01
 0.86964699619E+01 0.82855561320E+01 0.80014042524E+01 0.77980259000E+01 0.76506902607E+01
 0.75567260969E+01 0.75238901368E+01 0.75567260969E+01 0.76506902607E+01 0.77980259000E+01
 0.80014042524E+01 0.82855561320E+01 0.86964699619E+01 0.92829480196E+01 0.10065486990E+02
 0.11008567832E+02 0.12055761408E+02 0.13178868767E+02 0.14218741834E+02 0.14957093791E+02
 0.10765199278E+02 0.10680170382E+02 0.10442395459E+02 0.10088822929E+02 0.96619443012E+01
 0.92183991174E+01 0.88105295064E+01 0.84710210899E+01 0.82062458421E+01 0.80014042524E+01
 0.78343043208E+01 0.76901076939E+01 0.75693910358E+01 0.74858175905E+01 0.74556000357E+01
 0.74858175905E+01 0.75693910358E+01 0.76901076939E+01 0.78343043208E+01 0.80014042524E+01
 0.82062458421E+01 0.84710210899E+01 0.88105295064E+01 0.92183991174E+01 0.96619443012E+01
 0.10088822929E+02 0.10442395459E+02 0.10680170382E+02 0.87262577430E+01 0.86988206687E+01
 0.86215973728E+01 0.85081763280E+01 0.83763161695E+01 0.82426324339E+01 0.81181074088E+01
 0.80058034223E+01 0.79015980825E+01 0.77980259000E+01 0.76901076939E+01 0.75806315963E+01
 0.74818112232E+01 0.74116184617E+01 0.73860839772E+01 0.74116184617E+01 0.74818112232E+01
 0.75806315963E+01 0.76901076939E+01 0.77980259000E+01 0.79015980825E+01 0.80058034223E+01
 0.81181074088E+01 0.82426324339E+01 0.83763161695E+01 0.85081763280E+01 0.86215973728E+01
 0.86988206687E+01 0.77592601534E+01 0.77582681082E+01 0.77569081699E+01 0.77584015674E+01
 0.77640202916E+01 0.77704276939E+01 0.77699030627E+01 0.77532859330E+01 0.77139082682E+01
 0.76506902607E+01 0.75693910358E+01 0.74818112232E+01 0.74032249862E+01 0.73486824240E+01
 0.73291626387E+01 0.73486824240E+01 0.74032249862E+01 0.74818112232E+01 0.75693910358E+01
 0.76506902607E+01 0.77139082682E+01 0.77532859330E+01 0.77699030627E+01 0.77704276939E+01
 0.77640202916E+01 0.77584015674E+01 0.77569081699E+01 0.77582681082E+01 0.73760925102E+01
 0.73856986229E+01 0.74143881504E+01 0.74604218426E+01 0.75177333366E+01 0.75747122610E+01
 0.76164353070E+01 0.76297690023E+01 0.76086623729E+01 0.75567260969E+01 0.74858175905E+01
 0.74116184617E+01 0.73486824240E+01 0.73073026297E+01 0.72929669613E+01 0.73073026297E+01
 0.73486824240E+01 0.74116184617E+01 0.74858175905E+01 0.75567260969E+01 0.76086623729E+01
 0.76297690023E+01 0.76164353070E+01 0.75747122610E+01 0.75177333366E+01 0.74604218426E+01
 0.74143881504E+01 0.73856986229E+01 0.72806852853E+01 0.72929669613E+01 0.73291626387E+01
 0.73860839772E+01 0.74556000357E+01 0.75238901368E+01 0.75742624315E+01 0.75928533465E+01
 0.75742624315E+01 0.75238901368E+01 0.74556000357E+01 0.73860839772E+01 0.73291626387E+01
 0.72929669613E+01 0.72806852853E+01 0.72929669613E+01 0.73291626387E+01 0.73860839772E+01
 0.74556000357E+01 0.75238901368E+01 0.75742624315E+01 0.75928533465E+01 0.75742624315E+01
 0.75238901368E+01 0.74556000357E+01 0.73860839772E+01 0.73291626387E+01 0.72929669613E+01
 0.73760925102E+01 0.73856986229E+01 0.74143881504E+01 0.74604218426E+01 0.75177333366E+01
 0.75747122610E+01 0.76164353070E+01 0.76297690023E+01 0.76086623729E+01 0.75567260969E+01
 0.74858175905E+01 0.74116184617E+01 0.73486824240E+01 0.73073026297E+01 0.72929669613E+01
 0.73073026297E+01 0.73486824240E+01 0.74116184617E+01 0.74858175905E+01 0.75567260969E+01
 0.76086623729E+01 0.76297690023E+01 0.76164353070E+01 0.75747122610E+01 0.75177333366E+01
 0.74604218426E+01 0.74143881504E+01 0.73856986229E+01 0.77592601534E+01 0.77582681082E+01
 0.77569081699E+01 0.77584015674E+01 0.77640202916E+01 0.77704276939E+01 0.77699030627E+01
 0.77532859330E+01 0.77139082682E+01 0.76506902607E+01 0.75693910358E+01 0.74818112232E+01
 0.74032249862E+01 0.73486824240E+01 0.73291626387E+01 0.73486824240E+01 0.74032249862E+01
 0.74818112232E+01 0.75693910358E+01 0.76506902607E+01 0.77139082682E+01 0.77532859330E+01
 0.77699030627E+01 0.77704276939E+01 0.77640202916E+01 0.77584015674E+01 0.77569081699E+01
 0.77582681082E+01 0.87262577430E+01 0.86988206687E+01 0.86215973728E+01 0.85081763280E+01
 0.83763161695E+01 0.82426324339E+01 0.81181074088E+01 0.80058034223E+01 0.79015980825E+01
 0.77980259000E+01 0.76901076939E+01 0.75806315963E+01 0.74818112232E+01 0.74116184617E+01
 0.73860839772E+01 0.74116184617E+01 0.74818112232E+01 0.75806315963E+01 0.76901076939E+01
 0.77980259000E+01 0.79015980825E+01 0.80058034223E+01 0.81181074088E+01 0.82426324339E+01
 0.83763161695E+01 0.85081763280E+01 0.86215973728E+01 0.86988206687E+01 0.10765199278E+02
 0.10680170382E+02 0.10442395459E+02 0.10088822929E+02 0.96619443012E+01 0.92183991174E+01
 0.88105295064E+01 0.84710210899E+01 0.82062458421E+01 0.80014042524E+01 0.78343043208E+01
 0.76901076939E+01 0.75693910358E+01 0.74858175905E+01 0.74556000357E+01 0.74858175905E+01
 0.75693910358E+01 0.76901076939E+01 0.78343043208E+01 0.80014042524E+01 0.82062458421E+01
 0.84710210899E+01 0.88105295064E+01 0.92183991174E+01 0.96619443012E+01 0.10088822929E+02
 0.10442395459E+02 0.10680170382E+02 0.15223938236E+02 0.14957093791E+02 0.14218741834E+02
 0.13178868767E+02 0.12055761408E+02 0.11008567832E+02 0.10065486990E+02 0.92829480196E+01
 0.86964699619E+01 0.82855561320E+01 0.80014042524E+01 0.77980259000E+01 0.76506902607E+01
 0.75567260969E+01 0.75238901368E+01 0.75567260969E+01 0.76506902607E+01 0.77980259000E+01
 0.80014042524E+01 0.82855561320E+01 0.86964699619E+01 0.92829480196E+01 0.10065486990E+02
 0.11008567832E+02 0.12055761408E+02 0.13178868767E+02 0.14218741834E+02 0.14957093791E+02
 0.24633989263E+02 0.24011176182E+02 0.22252414727E+02 0.19686685849E+02 0.16820678284E+02
 0.14191357243E+02 0.12133642795E+02 0.10604927760E+02 0.94678312271E+01 0.86964699619E+01
 0.82062458421E+01 0.79015980825E+01 0.77139082682E+01 0.76086623729E+01 0.75742624315E+01
 0.76086623729E+01 0.77139082682E+01 0.79015980825E+01 0.82062458421E+01 0.86964699619E+01
 0.94678312271E+01 0.10604927760E+02 0.12133642795E+02 0.14191357243E+02 0.16820678284E+02
 0.19686685849E+02 0.22252414727E+02 0.24011176182E+02 0.40728237380E+02 0.39600344998E+02
 0.36355315608E+02 0.31452372273E+02 0.25706941017E+02 0.20147262885E+02 0.15656563360E+02
 0.12584802838E+02 0.10604927760E+02 0.92829480196E+01 0.84710210899E+01 0.80058034223E+01
 0.77532859330E+01 0.76297690023E+01 0.75928533465E+01 0.76297690023E+01 0.77532859330E+01
 0.80058034223E+01 0.84710210899E+01 0.92829480196E+01 0.10604927760E+02 0.12584802838E+02
 0.15656563360E+02 0.20147262885E+02 0.25706941017E+02 0.31452372273E+02 0.36355315608E+02
 0.39600344998E+02 0.63260152621E+02 0.61556840288E+02 0.56576824576E+02 0.48824765328E+02
 0.39361762221E+02 0.29734017200E+02 0.21511527657E+02 0.15656563360E+02 0.12133642795E+02
 0.10065486990E+02 0.88105295064E+01 0.81181074088E+01 0.77699030627E+01 0.76164353070E+01
 0.75742624315E+01 0.76164353070E+01 0.77699030627E+01 0.81181074088E+01 0.88105295064E+01
 0.10065486990E+02 0.12133642795E+02 0.15656563360E+02 0.21511527657E+02 0.29734017200E+02
 0.39361762221E+02 0.48824765328E+02 0.56576824576E+02 0.61556840288E+02 0.89725017113E+02
 0.87478404522E+02 0.80817055864E+02 0.70180276601E+02 0.56746391380E+02 0.42502771332E+02
 0.29734017200E+02 0.20147262885E+02 0.14191357243E+02 0.11008567832E+02 0.92183991174E+01
 0.82426324339E+01 0.77704276939E+01 0.75747122610E+01 0.75238901368E+01 0.75747122610E+01
 0.77704276939E+01 0.82426324339E+01 0.92183991174E+01 0.11008567832E+02 0.14191357243E+02
 0.20147262885E+02 0.29734017200E+02 0.42502771332E+02 0.56746391380E+02 0.70180276601E+02
 0.80817055864E+02 0.87478404522E+02 0.11622772801E+03 0.11355061805E+03 0.10551799766E+03
 0.92415813170E+02 0.75399340704E+02 0.56746391380E+02 0.39361762221E+02 0.25706941017E+02
 0.16820678284E+02 0.12055761408E+02 0.96619443012E+01 0.83763161695E+01 0.77640202916E+01
 0.75177333366E+01 0.74556000357E+01 0.75177333366E+01 0.77640202916E+01 0.83763161695E+01
 0.96619443012E+01 0.12055761408E+02 0.16820678284E+02 0.25706941017E+02 0.39361762221E+02
 0.56746391380E+02 0.75399340704E+02 0.92415813170E+02 0.10551799766E+03 0.11355061805E+03
 0.13902213412E+03 0.13605628321E+03 0.12707532167E+03 0.11218266554E+03 0.92415813170E+02
 0.70180276601E+02 0.48824765328E+02 0.31452372273E+02 0.19686685849E+02 0.13178868767E+02
 0.10088822929E+02 0.85081763280E+01 0.77584015674E+01 0.74604218426E+01 0.73860839772E+01
 0.74604218426E+01 0.77584015674E+01 0.85081763280E+01 0.10088822929E+02 0.13178868767E+02
 0.19686685849E+02 0.31452372273E+02 0.48824765328E+02 0.70180276601E+02 0.92415813170E+02
 0.11218266554E+03 0.12707532167E+03 0.13605628321E+03 0.15574252863E+03 0.15261134595E+03
 0.14307203783E+03 0.12707532167E+03 0.10551799766E+03 0.80817055864E+02 0.56576824576E+02
 0.36355315608E+02 0.22252414727E+02 0.14218741834E+02 0.10442395459E+02 0.86215973728E+01
 0.77569081699E+01 0.74143881504E+01 0.73291626387E+01 0.74143881504E+01 0.77569081699E+01
 0.86215973728E+01 0.10442395459E+02 0.14218741834E+02 0.22252414727E+02 0.36355315608E+02
 0.56576824576E+02 0.80817055864E+02 0.10551799766E+03 0.12707532167E+03 0.14307203783E+03
 0.15261134595E+03 0.16563364077E+03 0.16242319835E+03 0.15261134595E+03 0.13605628321E+03
 0.11355061805E+03 0.87478404522E+02 0.61556840288E+02 0.39600344998E+02 0.24011176182E+02
 0.14957093791E+02 0.10680170382E+02 0.86988206687E+01 0.77582681082E+01 0.73856986229E+01
 0.72929669613E+01 0.73856986229E+01 0.77582681082E+01 0.86988206687E+01 0.10680170382E+02
 0.14957093791E+02 0.24011176182E+02 0.39600344998E+02 0.61556840288E+02 0.87478404522E+02
 0.11355061805E+03 0.13605628321E+03 0.15261134595E+03 0.16242319835E+03 0.16563364077E+03
 0.16242319835E+03 0.15261134595E+03 0.13605628321E+03 0.11355061805E+03 0.87478404522E+02
 0.61556840288E+02 0.39600344998E+02 0.24011176182E+02 0.14957093791E+02 0.10680170382E+02
 0.86988206687E+01 0.77582681082E+01 0.73856986229E+01 0.72929669613E+01 0.73856986229E+01
 0.77582681082E+01 0.86988206687E+01 0.10680170382E+02 0.14957093791E+02 0.24011176182E+02
 0.39600344998E+02 0.61556840288E+02 0.87478404522E+02 0.11355061805E+03 0.13605628321E+03
 0.15261134595E+03 0.16242319835E+03 0.16242319835E+03 0.15923440455E+03 0.14949954102E+03
 0.13310953764E+03 0.11089578653E+03 0.85258952617E+02 0.59883627023E+02 0.38500805359E+02
 0.23410309473E+02 0.14703556999E+02 0.10600602154E+02 0.86744913567E+01 0.77597415568E+01
 0.73974528042E+01 0.73073026297E+01 0.73974528042E+01 0.77597415568E+01 0.86744913567E+01
 0.10600602154E+02 0.14703556999E+02 0.23410309473E+02 0.38500805359E+02 0.59883627023E+02
 0.85258952617E+02 0.11089578653E+03 0.13310953764E+03 0.14949954102E+03 0.15923440455E+03
 0.15261134595E+03 0.14949954102E+03 0.14003378359E+03 0.12420391559E+03 0.10294761694E+03
 0.78692878593E+02 0.55001957089E+02 0.35343414259E+02 0.21716342450E+02 0.14002617220E+02
 0.10376782365E+02 0.86055965344E+01 0.77647730539E+01 0.74316001189E+01 0.73486824240E+01
 0.74316001189E+01 0.77647730539E+01 0.86055965344E+01 0.10376782365E+02 0.14002617220E+02
 0.21716342450E+02 0.35343414259E+02 0.55001957089E+02 0.78692878593E+02 0.10294761694E+03
 0.12420391559E+03 0.14003378359E+03 0.14949954102E+03 0.13605628321E+03 0.13310953764E+03
 0.12420391559E+03 0.10948585651E+03 0.90031758795E+02 0.68248363841E+02 0.47431005279E+02
 0.30589273026E+02 0.19252566388E+02 0.13016357594E+02 0.10040143845E+02 0.85032801542E+01
 0.77741855886E+01 0.74840741482E+01 0.74116184617E+01 0.74840741482E+01 0.77741855886E+01
 0.85032801542E+01 0.10040143845E+02 0.13016357594E+02 0.19252566388E+02 0.30589273026E+02
 0.47431005279E+02 0.68248363841E+02 0.90031758795E+02 0.10948585651E+03 0.12420391559E+03
 0.13310953764E+03 0.11355061805E+03 0.11089578653E+03 0.10294761694E+03 0.90031758795E+02
 0.73333340666E+02 0.55118926693E+02 0.38231789590E+02 0.25042931784E+02 0.16510764392E+02
 0.11949834037E+02 0.96320823609E+01 0.83826470920E+01 0.77868671027E+01 0.75465907835E+01
 0.74858175905E+01 0.75465907835E+01 0.77868671027E+01 0.83826470920E+01 0.96320823609E+01
 0.11949834037E+02 0.16510764392E+02 0.25042931784E+02 0.38231789590E+02 0.55118926693E+02
 0.73333340666E+02 0.90031758795E+02 0.10294761694E+03 0.11089578653E+03 0.87478404522E+02
 0.85258952617E+02 0.78692878593E+02 0.68248363841E+02 0.55118926693E+02 0.41269031144E+02
 0.28920656661E+02 0.19702543391E+02 0.14003402930E+02 0.10946269540E+02 0.92070462753E+01
 0.82585832543E+01 0.77983493664E+01 0.76067111025E+01 0.75567260969E+01 0.76067111025E+01
 0.77983493664E+01 0.82585832543E+01 0.92070462753E+01 0.10946269540E+02 0.14003402930E+02
 0.19702543391E+02 0.28920656661E+02 0.41269031144E+02 0.55118926693E+02 0.68248363841E+02
 0.78692878593E+02 0.85258952617E+02 0.61556840288E+02 0.59883627023E+02 0.55001957089E+02
 0.47431005279E+02 0.38231789590E+02 0.28920656661E+02 0.21012016878E+02 0.15408868030E+02
 0.12038334520E+02 0.10034169416E+02 0.88154436982E+01 0.81417049628E+01 0.78013800938E+01
 0.76503931665E+01 0.76086623729E+01 0.76503931665E+01 0.78013800938E+01 0.81417049628E+01
 0.88154436982E+01 0.10034169416E+02 0.12038334520E+02 0.15408868030E+02 0.21012016878E+02
 0.28920656661E+02 0.38231789590E+02 0.47431005279E+02 0.55001957089E+02 0.59883627023E+02
 0.39600344998E+02 0.38500805359E+02 0.35343414259E+02 0.30589273026E+02 0.25042931784E+02
 0.19702543391E+02 0.15408868030E+02 0.12474132712E+02 0.10560391403E+02 0.92777657938E+01
 0.84891500537E+01 0.80357885739E+01 0.77882970892E+01 0.76663906508E+01 0.76297690023E+01
 0.76663906508E+01 0.77882970892E+01 0.80357885739E+01 0.84891500537E+01 0.92777657938E+01
 0.10560391403E+02 0.12474132712E+02 0.15408868030E+02 0.19702543391E+02 0.25042931784E+02
 0.30589273026E+02 0.35343414259E+02 0.38500805359E+02 0.24011176182E+02 0.23410309473E+02
 0.21716342450E+02 0.19252566388E+02 0.16510764392E+02 0.14003402930E+02 0.12038334520E+02
 0.10560391403E+02 0.94585904755E+01 0.87108998962E+01 0.82348045087E+01 0.79378486702E+01
 0.77539868722E+01 0.76503931665E+01 0.76164353070E+01 0.76503931665E+01 0.77539868722E+01
 0.79378486702E+01 0.82348045087E+01 0.87108998962E+01 0.94585904755E+01 0.10560391403E+02
 0.12038334520E+02 0.14003402930E+02 0.16510764392E+02 0.19252566388E+02 0.21716342450E+02
 0.23410309473E+02 0.14957093791E+02 0.14703556999E+02 0.14002617220E+02 0.13016357594E+02
 0.11949834037E+02 0.10946269540E+02 0.10034169416E+02 0.92777657938E+01 0.87108998962E+01
 0.83135434376E+01 0.80384952056E+01 0.78413162284E+01 0.76981757679E+01 0.76067111025E+01
 0.75747122610E+01 0.76067111025E+01 0.76981757679E+01 0.78413162284E+01 0.80384952056E+01
 0.83135434376E+01 0.87108998962E+01 0.92777657938E+01 0.10034169416E+02 0.10946269540E+02
 0.11949834037E+02 0.13016357594E+02 0.14002617220E+02 0.14703556999E+02 0.10680170382E+02
 0.10600602154E+02 0.10376782365E+02 0.10040143845E+02 0.96320823609E+01 0.92070462753E+01
 0.88154436982E+01 0.84891500537E+01 0.82348045087E+01 0.80384952056E+01 0.78788791125E+01
 0.77414184523E+01 0.76263397893E+01 0.75465907835E+01 0.75177333366E+01 0.75465907835E+01
 0.76263397893E+01 0.77414184523E+01 0.78788791125E+01 0.80384952056E+01 0.82348045087E+01
 0.84891500537E+01 0.88154436982E+01 0.92070462753E+01 0.96320823609E+01 0.10040143845E+02
 0.10376782365E+02 0.10600602154E+02 0.86988206687E+01 0.86744913567E+01 0.86055965344E+01
 0.85032801542E+01 0.83826470920E+01 0.82585832543E+01 0.81417049628E+01 0.80357885739E+01
 0.79378486702E+01 0.78413162284E+01 0.77414184523E+01 0.76403279184E+01 0.75490246665E+01
 0.74840741482E+01 0.74604218426E+01 0.74840741482E+01 0.75490246665E+01 0.76403279184E+01
 0.77414184523E+01 0.78413162284E+01 0.79378486702E+01 0.80357885739E+01 0.81417049628E+01
 0.82585832543E+01 0.83826470920E+01 0.85032801542E+01 0.86055965344E+01 0.86744913567E+01
 0.77582681082E+01 0.77597415568E+01 0.77647730539E+01 0.77741855886E+01 0.77868671027E+01
 0.77983493664E+01 0.78013800938E+01 0.77882970892E+01 0.77539868722E+01 0.76981757679E+01
 0.76263397893E+01 0.75490246665E+01 0.74796991132E+01 0.74316001189E+01 0.74143881504E+01
 0.74316001189E+01 0.74796991132E+01 0.75490246665E+01 0.76263397893E+01 0.76981757679E+01
 0.77539868722E+01 0.77882970892E+01 0.78013800938E+01 0.77983493664E+01 0.77868671027E+01
 0.77741855886E+01 0.77647730539E+01 0.77597415568E+01 0.73856986229E+01 0.73974528042E+01
 0.74316001189E+01 0.74840741482E+01 0.75465907835E+01 0.76067111025E+01 0.76503931665E+01
 0.76663906508E+01 0.76503931665E+01 0.76067111025E+01 0.75465907835E+01 0.74840741482E+01
 0.74316001189E+01 0.73974528042E+01 0.73856986229E+01 0.73974528042E+01 0.74316001189E+01
 0.74840741482E+01 0.75465907835E+01 0.76067111025E+01 0.76503931665E+01 0.76663906508E+01
 0.76503931665E+01 0.76067111025E+01 0.75465907835E+01 0.74840741482E+01 0.74316001189E+01
 0.73974528042E+01 0.72929669613E+01 0.73073026297E+01 0.73486824240E+01 0.74116184617E+01
 0.74858175905E+01 0.75567260969E+01 0.76086623729E+01 0.76297690023E+01 0.76164353070E+01
 0.75747122610E+01 0.75177333366E+01 0.74604218426E+01 0.74143881504E+01 0.73856986229E+01
 0.73760925102E+01 0.73856986229E+01 0.74143881504E+01 0.74604218426E+01 0.75177333366E+01
 0.75747122610E+01 0.76164353070E+01 0.76297690023E+01 0.76086623729E+01 0.75567260969E+01
 0.74858175905E+01 0.74116184617E+01 0.73486824240E+01 0.73073026297E+01 0.73856986229E+01
 0.73974528042E+01 0.74316001189E+01 0.74840741482E+01 0.75465907835E+01 0.76067111025E+01
 0.76503931665E+01 0.76663906508E+01 0.76503931665E+01 0.76067111025E+01 0.75465907835E+01
 0.74840741482E+01 0.74316001189E+01 0.73974528042E+01 0.73856986229E+01 0.73974528042E+01
 0.74316001189E+01 0.74840741482E+01 0.75465907835E+01 0.76067111025E+01 0.76503931665E+01
 0.76663906508E+01 0.76503931665E+01 0.76067111025E+01 0.75465907835E+01 0.74840741482E+01
 0.74316001189E+01 0.73974528042E+01 0.77582681082E+01 0.77597415568E+01 0.77647730539E+01
 0.77741855886E+01 0.77868671027E+01 0.77983493664E+01 0.78013800938E+01 0.77882970892E+01
 0.77539868722E+01 0.76981757679E+01 0.76263397893E+01 0.75490246665E+01 0.74796991132E+01
 0.74316001189E+01 0.74143881504E+01 0.74316001189E+01 0.74796991132E+01 0.75490246665E+01
 0.76263397893E+01 0.76981757679E+01 0.77539868722E+01 0.77882970892E+01 0.78013800938E+01
 0.77983493664E+01 0.77868671027E+01 0.77741855886E+01 0.77647730539E+01 0.77597415568E+01
 0.86988206687E+01 0.86744913567E+01 0.86055965344E+01 0.85032801542E+01 0.83826470920E+01
 0.82585832543E+01 0.81417049628E+01 0.80357885739E+01 0.79378486702E+01 0.78413162284E+01
 0.77414184523E+01 0.76403279184E+01 0.75490246665E+01 0.74840741482E+01 0.74604218426E+01
 0.74840741482E+01 0.75490246665E+01 0.76403279184E+01 0.77414184523E+01 0.78413162284E+01
 0.79378486702E+01 0.80357885739E+01 0.81417049628E+01 0.82585832543E+01 0.83826470920E+01
 0.85032801542E+01 0.86055965344E+01 0.86744913567E+01 0.10680170382E+02 0.10600602154E+02
 0.10376782365E+02 0.10040143845E+02 0.96320823609E+01 0.92070462753E+01 0.88154436982E+01
 0.84891500537E+01 0.82348045087E+01 0.80384952056E+01 0.78788791125E+01 0.77414184523E+01
 0.76263397893E+01 0.75465907835E+01 0.75177333366E+01 0.75465907835E+01 0.76263397893E+01
 0.77414184523E+01 0.78788791125E+01 0.80384952056E+01 0.82348045087E+01 0.84891500537E+01
 0.88154436982E+01 0.92070462753E+01 0.96320823609E+01 0.10040143845E+02 0.10376782365E+02
 0.10600602154E+02 0.14957093791E+02 0.14703556999E+02 0.14002617220E+02 0.13016357594E+02
 0.11949834037E+02 0.10946269540E+02 0.10034169416E+02 0.92777657938E+01 0.87108998962E+01
 0.83135434376E+01 0.80384952056E+01 0.78413162284E+01 0.76981757679E+01 0.76067111025E+01
 0.75747122610E+01 0.76067111025E+01 0.76981757679E+01 0.78413162284E+01 0.80384952056E+01
 0.83135434376E+01 0.87108998962E+01 0.92777657938E+01 0.10034169416E+02 0.10946269540E+02
 0.11949834037E+02 0.13016357594E+02 0.14002617220E+02 0.14703556999E+02 0.24011176182E+02
 0.23410309473E+02 0.21716342450E+02 0.19252566388E+02 0.16510764392E+02 0.14003402930E+02
 0.12038334520E+02 0.10560391403E+02 0.94585904755E+01 0.87108998962E+01 0.82348045087E+01
 0.79378486702E+01 0.77539868722E+01 0.76503931665E+01 0.76164353070E+01 0.76503931665E+01
 0.77539868722E+01 0.79378486702E+01 0.82348045087E+01 0.87108998962E+01 0.94585904755E+01
 0.10560391403E+02 0.12038334520E+02 0.14003402930E+02 0.16510764392E+02 0.19252566388E+02
 0.21716342450E+02 0.23410309473E+02 0.39600344998E+02 0.38500805359E+02 0.35343414259E+02
 0.30589273026E+02 0.25042931784E+02 0.19702543391E+02 0.15408868030E+02 0.12474132712E+02
 0.10560391403E+02 0.92777657938E+01 0.84891500537E+01 0.80357885739E+01 0.77882970892E+01
 0.76663906508E+01 0.76297690023E+01 0.76663906508E+01 0.77882970892E+01 0.80357885739E+01
 0.84891500537E+01 0.92777657938E+01 0.10560391403E+02 0.12474132712E+02 0.15408868030E+02
 0.19702543391E+02 0.25042931784E+02 0.30589273026E+02 0.35343414259E+02 0.38500805359E+02
 0.61556840288E+02 0.59883627023E+02 0.55001957089E+02 0.47431005279E+02 0.38231789590E+02
 0.28920656661E+02 0.21012016878E+02 0.15408868030E+02 0.12038334520E+02 0.10034169416E+02
 0.88154436982E+01 0.81417049628E+01 0.78013800938E+01 0.76503931665E+01 0.76086623729E+01
 0.76503931665E+01 0.78013800938E+01 0.81417049628E+01 0.88154436982E+01 0.10034169416E+02
 0.12038334520E+02 0.15408868030E+02 0.21012016878E+02 0.28920656661E+02 0.38231789590E+02
 0.47431005279E+02 0.55001957089E+02 0.59883627023E+02 0.87478404522E+02 0.85258952617E+02
 0.78692878593E+02 0.68248363841E+02 0.55118926693E+02 0.41269031144E+02 0.28920656661E+02
 0.19702543391E+02 0.14003402930E+02 0.10946269540E+02 0.92070462753E+01 0.82585832543E+01
 0.77983493664E+01 0.76067111025E+01 0.75567260969E+01 0.76067111025E+01 0.77983493664E+01
 0.82585832543E+01 0.92070462753E+01 0.10946269540E+02 0.14003402930E+02 0.19702543391E+02
 0.28920656661E+02 0.41269031144E+02 0.55118926693E+02 0.68248363841E+02 0.78692878593E+02
 0.85258952617E+02 0.11355061805E+03 0.11089578653E+03 0.10294761694E+03 0.90031758795E+02
 0.73333340666E+02 0.55118926693E+02 0.38231789590E+02 0.25042931784E+02 0.16510764392E+02
 0.11949834037E+02 0.96320823609E+01 0.83826470920E+01 0.77868671027E+01 0.75465907835E+01
 0.74858175905E+01 0.75465907835E+01 0.77868671027E+01 0.83826470920E+01 0.96320823609E+01
 0.11949834037E+02 0.16510764392E+02 0.25042931784E+02 0.38231789590E+02 0.55118926693E+02
 0.73333340666E+02 0.90031758795E+02 0.10294761694E+03 0.11089578653E+03 0.13605628321E+03
 0.13310953764E+03 0.12420391559E+03 0.10948585651E+03 0.90031758795E+02 0.68248363841E+02
 0.47431005279E+02 0.30589273026E+02 0.19252566388E+02 0.13016357594E+02 0.10040143845E+02
 0.85032801542E+01 0.77741855886E+01 0.74840741482E+01 0.74116184617E+01 0.74840741482E+01
 0.77741855886E+01 0.85032801542E+01 0.10040143845E+02 0.13016357594E+02 0.19252566388E+02
 0.30589273026E+02 0.47431005279E+02 0.68248363841E+02 0.90031758795E+02 0.10948585651E+03
 0.12420391559E+03 0.13310953764E+03 0.15261134595E+03 0.14949954102E+03 0.14003378359E+03
 0.12420391559E+03 0.10294761694E+03 0.78692878593E+02 0.55001957089E+02 0.35343414259E+02
 0.21716342450E+02 0.14002617220E+02 0.10376782365E+02 0.86055965344E+01 0.77647730539E+01
 0.74316001189E+01 0.73486824240E+01 0.74316001189E+01 0.77647730539E+01 0.86055965344E+01
 0.10376782365E+02 0.14002617220E+02 0.21716342450E+02 0.35343414259E+02 0.55001957089E+02
 0.78692878593E+02 0.10294761694E+03 0.12420391559E+03 0.14003378359E+03 0.14949954102E+03
 0.16242319835E+03 0.15923440455E+03 0.14949954102E+03 0.13310953764E+03 0.11089578653E+03
 0.85258952617E+02 0.59883627023E+02 0.38500805359E+02 0.23410309473E+02 0.14703556999E+02
 0.10600602154E+02 0.86744913567E+01 0.77597415568E+01 0.73974528042E+01 0.73073026297E+01
 0.73974528042E+01 0.77597415568E+01 0.86744913567E+01 0.10600602154E+02 0.14703556999E+02
 0.23410309473E+02 0.38500805359E+02 0.59883627023E+02 0.85258952617E+02 0.11089578653E+03
 0.13310953764E+03 0.14949954102E+03 0.15923440455E+03 0.15574252863E+03 0.15261134595E+03
 0.14307203783E+03 0.12707532167E+03 0.10551799766E+03 0.80817055864E+02 0.56576824576E+02
 0.36355315608E+02 0.22252414727E+02 0.14218741834E+02 0.10442395459E+02 0.86215973728E+01
 0.77569081699E+01 0.74143881504E+01 0.73291626387E+01 0.74143881504E+01 0.77569081699E+01
 0.86215973728E+01 0.10442395459E+02 0.14218741834E+02 0.22252414727E+02 0.36355315608E+02
 0.56576824576E+02 0.80817055864E+02 0.10551799766E+03 0.12707532167E+03 0.14307203783E+03
 0.15261134595E+03 0.15261134595E+03 0.14949954102E+03 0.14003378359E+03 0.12420391559E+03
 0.10294761694E+03 0.78692878593E+02 0.55001957089E+02 0.35343414259E+02 0.21716342450E+02
 0.14002617220E+02 0.10376782365E+02 0.86055965344E+01 0.77647730539E+01 0.74316001189E+01
 0.73486824240E+01 0.74316001189E+01 0.77647730539E+01 0.86055965344E+01 0.10376782365E+02
 0.14002617220E+02 0.21716342450E+02 0.35343414259E+02 0.55001957089E+02 0.78692878593E+02
 0.10294761694E+03 0.12420391559E+03 0.14003378359E+03 0.14949954102E+03 0.14307203783E+03
 0.14003378359E+03 0.13083404244E+03 0.11557424547E+03 0.95299340301E+02 0.72447339823E+02