   2   2   0   0
  0.1798157E+02  0.3300800E-09  0.3300800E-09  0.3300800E-09  0.5000000E-15
  1.000000000000000E-004
  CAR 
 Nb                                      
     51.05186129    -29.73942857  301      4.83925864      1.00000000
    -29.739  0.0000E+00  0.0000E+00
    -29.470  0.0000E+00  0.0000E+00
    -29.201  0.0000E+00  0.0000E+00
    -28.932  0.0000E+00  0.0000E+00
    -28.662  0.0000E+00  0.0000E+00
    -28.393  0.0000E+00  0.0000E+00
    -28.124  0.0000E+00  0.0000E+00
    -27.854  0.0000E+00  0.0000E+00
    -27.585  0.0000E+00  0.0000E+00
    -27.316  0.0000E+00  0.0000E+00
    -27.046  0.0000E+00  0.0000E+00
    -26.777  0.0000E+00  0.0000E+00
    -26.508  0.0000E+00  0.0000E+00
    -26.238  0.0000E+00  0.0000E+00
    -25.969  0.4269E+01  0.2638E+00
    -25.700  0.7336E+01  0.2705E+01
    -25.431  0.7073E+01  0.4284E+01
    -25.161  0.1058E+02  0.6586E+01
    -24.892  0.1241E+02  0.9270E+01
    -24.623  0.0000E+00  0.1200E+02
    -24.353  0.0000E+00  0.1200E+02
    -24.084  0.0000E+00  0.1200E+02
    -23.815  0.0000E+00  0.1200E+02
    -23.545  0.0000E+00  0.1200E+02
    -23.276  0.0000E+00  0.1200E+02
    -23.007  0.0000E+00  0.1200E+02
    -22.738  0.0000E+00  0.1200E+02
    -22.468  0.0000E+00  0.1200E+02
    -22.199  0.0000E+00  0.1200E+02
    -21.930  0.0000E+00  0.1200E+02
    -21.660  0.0000E+00  0.1200E+02
    -21.391  0.0000E+00  0.1200E+02
    -21.122  0.0000E+00  0.1200E+02
    -20.852  0.0000E+00  0.1200E+02
    -20.583  0.0000E+00  0.1200E+02
    -20.314  0.0000E+00  0.1200E+02
    -20.044  0.0000E+00  0.1200E+02
    -19.775  0.0000E+00  0.1200E+02
    -19.506  0.0000E+00  0.1200E+02
    -19.237  0.0000E+00  0.1200E+02
    -18.967  0.0000E+00  0.1200E+02
    -18.698  0.0000E+00  0.1200E+02
    -18.429  0.0000E+00  0.1200E+02
    -18.159  0.0000E+00  0.1200E+02
    -17.890  0.0000E+00  0.1200E+02
    -17.621  0.0000E+00  0.1200E+02
    -17.351  0.0000E+00  0.1200E+02
    -17.082  0.0000E+00  0.1200E+02
    -16.813  0.0000E+00  0.1200E+02
    -16.544  0.0000E+00  0.1200E+02
    -16.274  0.0000E+00  0.1200E+02
    -16.005  0.0000E+00  0.1200E+02
    -15.736  0.0000E+00  0.1200E+02
    -15.466  0.0000E+00  0.1200E+02
    -15.197  0.0000E+00  0.1200E+02
    -14.928  0.0000E+00  0.1200E+02
    -14.658  0.0000E+00  0.1200E+02
    -14.389  0.0000E+00  0.1200E+02
    -14.120  0.0000E+00  0.1200E+02
    -13.850  0.0000E+00  0.1200E+02
    -13.581  0.0000E+00  0.1200E+02
    -13.312  0.0000E+00  0.1200E+02
    -13.043  0.0000E+00  0.1200E+02
    -12.773  0.0000E+00  0.1200E+02
    -12.504  0.0000E+00  0.1200E+02
    -12.235  0.0000E+00  0.1200E+02
    -11.965  0.0000E+00  0.1200E+02
    -11.696  0.0000E+00  0.1200E+02
    -11.427  0.0000E+00  0.1200E+02
    -11.157  0.0000E+00  0.1200E+02
    -10.888  0.0000E+00  0.1200E+02
    -10.619  0.0000E+00  0.1200E+02
    -10.350  0.0000E+00  0.1200E+02
    -10.080  0.0000E+00  0.1200E+02
     -9.811  0.0000E+00  0.1200E+02
     -9.542  0.0000E+00  0.1200E+02
     -9.272  0.0000E+00  0.1200E+02
     -9.003  0.0000E+00  0.1200E+02
     -8.734  0.0000E+00  0.1200E+02
     -8.464  0.0000E+00  0.1200E+02
     -8.195  0.0000E+00  0.1200E+02
     -7.926  0.0000E+00  0.1200E+02
     -7.656  0.0000E+00  0.1200E+02
     -7.387  0.0000E+00  0.1200E+02
     -7.118  0.0000E+00  0.1200E+02
     -6.849  0.0000E+00  0.1200E+02
     -6.579  0.0000E+00  0.1200E+02
     -6.310  0.0000E+00  0.1200E+02
     -6.041  0.0000E+00  0.1200E+02
     -5.771  0.0000E+00  0.1200E+02
     -5.502  0.0000E+00  0.1200E+02
     -5.233  0.0000E+00  0.1200E+02
     -4.963  0.0000E+00  0.1200E+02
     -4.694  0.0000E+00  0.1200E+02
     -4.425  0.0000E+00  0.1200E+02
     -4.156  0.0000E+00  0.1200E+02
     -3.886  0.0000E+00  0.1200E+02
     -3.617  0.0000E+00  0.1200E+02
     -3.348  0.0000E+00  0.1200E+02
     -3.078  0.0000E+00  0.1200E+02
     -2.809  0.0000E+00  0.1200E+02
     -2.540  0.0000E+00  0.1200E+02
     -2.270  0.0000E+00  0.1200E+02
     -2.001  0.0000E+00  0.1200E+02
     -1.732  0.0000E+00  0.1200E+02
     -1.462  0.0000E+00  0.1200E+02
     -1.193  0.0000E+00  0.1200E+02
     -0.924  0.4616E-01  0.1200E+02
     -0.655  0.8786E-01  0.1202E+02
     -0.385  0.1223E+00  0.1205E+02
     -0.116  0.1602E+00  0.1209E+02
      0.153  0.1953E+00  0.1214E+02
      0.423  0.2434E+00  0.1220E+02
      0.692  0.3002E+00  0.1227E+02
      0.961  0.3888E+00  0.1236E+02
      1.231  0.1313E+01  0.1254E+02
      1.500  0.1972E+01  0.1303E+02
      1.769  0.2237E+01  0.1360E+02
      2.038  0.2755E+01  0.1425E+02
      2.308  0.2557E+01  0.1503E+02
      2.577  0.2733E+01  0.1580E+02
      2.846  0.1095E+01  0.1624E+02
      3.116  0.8417E+00  0.1650E+02
      3.385  0.4606E+01  0.1736E+02
      3.654  0.2928E+01  0.1858E+02
      3.924  0.2269E+01  0.1919E+02
      4.193  0.2017E+01  0.1982E+02
      4.462  0.3001E+01  0.2046E+02
      4.732  0.4013E+01  0.2163E+02
      5.001  0.2596E+01  0.2244E+02
      5.270  0.1209E+01  0.2294E+02
      5.539  0.1033E+01  0.2324E+02
      5.809  0.8167E+00  0.2350E+02
      6.078  0.1023E+01  0.2374E+02
      6.347  0.1121E+01  0.2404E+02
      6.617  0.1315E+01  0.2431E+02
      6.886  0.1973E+01  0.2476E+02
      7.155  0.2019E+01  0.2530E+02
      7.425  0.2429E+01  0.2590E+02
      7.694  0.2718E+01  0.2658E+02
      7.963  0.2898E+01  0.2731E+02
      8.232  0.2664E+01  0.2812E+02
      8.502  0.2861E+01  0.2882E+02
      8.771  0.4794E+01  0.2976E+02
      9.040  0.2883E+01  0.3116E+02
      9.310  0.1645E+01  0.3171E+02
      9.579  0.1512E+01  0.3218E+02
      9.848  0.1354E+01  0.3258E+02
     10.118  0.1156E+01  0.3291E+02
     10.387  0.1343E+01  0.3323E+02
     10.656  0.8475E+00  0.3351E+02
     10.926  0.6349E+00  0.3370E+02
     11.195  0.7963E+00  0.3388E+02
     11.464  0.6977E+00  0.3409E+02
     11.733  0.6506E+00  0.3427E+02
     12.003  0.6300E+00  0.3444E+02
     12.272  0.6117E+00  0.3461E+02
     12.541  0.5914E+00  0.3477E+02
     12.811  0.5757E+00  0.3493E+02
     13.080  0.5550E+00  0.3508E+02
     13.349  0.5551E+00  0.3523E+02
     13.619  0.5225E+00  0.3537E+02
     13.888  0.4986E+00  0.3551E+02
     14.157  0.4337E+00  0.3563E+02
     14.426  0.3615E+00  0.3574E+02
     14.696  0.4814E+00  0.3585E+02
     14.965  0.2872E+00  0.3597E+02
     15.234  0.2070E+00  0.3604E+02
     15.504  0.6406E+00  0.3616E+02
     15.773  0.9136E+00  0.3636E+02
     16.042  0.1061E+01  0.3663E+02
     16.312  0.1051E+01  0.3691E+02
     16.581  0.1160E+01  0.3720E+02
     16.850  0.1260E+01  0.3752E+02
     17.120  0.1115E+01  0.3785E+02
     17.389  0.1069E+01  0.3814E+02
     17.658  0.1279E+01  0.3847E+02
     17.927  0.1493E+01  0.3884E+02
     18.197  0.1724E+01  0.3930E+02
     18.466  0.1705E+01  0.3978E+02
     18.735  0.1641E+01  0.4024E+02
     19.005  0.1555E+01  0.4066E+02
     19.274  0.1543E+01  0.4108E+02
     19.543  0.1404E+01  0.4147E+02
     19.813  0.1324E+01  0.4184E+02
     20.082  0.1322E+01  0.4220E+02
     20.351  0.1140E+01  0.4254E+02
     20.620  0.1223E+01  0.4285E+02
     20.890  0.1417E+01  0.4319E+02
     21.159  0.1565E+01  0.4361E+02
     21.428  0.1567E+01  0.4403E+02
     21.698  0.1838E+01  0.4449E+02
     21.967  0.1925E+01  0.4503E+02
     22.236  0.1373E+01  0.4548E+02
     22.506  0.1422E+01  0.4586E+02
     22.775  0.1387E+01  0.4624E+02
     23.044  0.1118E+01  0.4657E+02
     23.314  0.6421E+00  0.4680E+02
     23.583  0.8247E+00  0.4699E+02
     23.852  0.9515E+00  0.4724E+02
     24.121  0.1154E+01  0.4752E+02
     24.391  0.1344E+01  0.4789E+02
     24.660  0.1524E+01  0.4823E+02
     24.929  0.2023E+01  0.4868E+02
     25.199  0.1591E+01  0.4921E+02
     25.468  0.1390E+01  0.4960E+02
     25.737  0.1277E+01  0.4996E+02
     26.007  0.1163E+01  0.5030E+02
     26.276  0.1148E+01  0.5061E+02
     26.545  0.1135E+01  0.5092E+02
     26.814  0.1065E+01  0.5122E+02
     27.084  0.8471E+00  0.5146E+02
     27.353  0.9034E+00  0.5169E+02
     27.622  0.1228E+01  0.5196E+02
     27.892  0.1346E+01  0.5233E+02
     28.161  0.1228E+01  0.5270E+02
     28.430  0.1077E+01  0.5298E+02
     28.700  0.1400E+01  0.5336E+02
     28.969  0.1554E+01  0.5379E+02
     29.238  0.1616E+01  0.5419E+02
     29.508  0.1451E+01  0.5460E+02
     29.777  0.1605E+01  0.5501E+02
     30.046  0.2088E+01  0.5550E+02
     30.315  0.9091E+00  0.5581E+02
     30.585  0.1009E+01  0.5607E+02
     30.854  0.1336E+01  0.5639E+02
     31.123  0.1744E+01  0.5682E+02
     31.393  0.1364E+01  0.5721E+02
     31.662  0.1187E+01  0.5755E+02
     31.931  0.1299E+01  0.5788E+02
     32.201  0.1574E+01  0.5827E+02
     32.470  0.1845E+01  0.5875E+02
     32.739  0.1864E+01  0.5926E+02
     33.008  0.1585E+01  0.5974E+02
     33.278  0.1767E+01  0.6021E+02
     33.547  0.1766E+01  0.6070E+02
     33.816  0.1516E+01  0.6116E+02
     34.086  0.1663E+01  0.6160E+02
     34.355  0.1687E+01  0.6206E+02
     34.624  0.1765E+01  0.6254E+02
     34.894  0.1509E+01  0.6299E+02
     35.163  0.1331E+01  0.6336E+02
     35.432  0.1274E+01  0.6373E+02
     35.702  0.9953E+00  0.6403E+02
     35.971  0.1106E+01  0.6431E+02
     36.240  0.1105E+01  0.6461E+02
     36.509  0.1251E+01  0.6492E+02
     36.779  0.1469E+01  0.6529E+02
     37.048  0.1840E+01  0.6573E+02
     37.317  0.2234E+01  0.6626E+02
     37.587  0.2182E+01  0.6683E+02
     37.856  0.2021E+01  0.6739E+02
     38.125  0.1970E+01  0.6792E+02
     38.395  0.1689E+01  0.6841E+02
     38.664  0.1359E+01  0.6882E+02
     38.933  0.1181E+01  0.6915E+02
     39.202  0.1705E+01  0.6955E+02
     39.472  0.1350E+01  0.6999E+02
     39.741  0.1652E+01  0.7039E+02
     40.010  0.2026E+01  0.7084E+02
     40.280  0.1547E+01  0.7129E+02
     40.549  0.1640E+01  0.7173E+02
     40.818  0.1697E+01  0.7218E+02
     41.088  0.1755E+01  0.7266E+02
     41.357  0.2273E+01  0.7319E+02
     41.626  0.2901E+01  0.7391E+02
     41.896  0.3652E+01  0.7476E+02
     42.165  0.1047E+02  0.7637E+02
     42.434  0.3192E+01  0.7788E+02
     42.703  0.2309E+01  0.7861E+02
     42.973  0.1760E+01  0.7915E+02
     43.242  0.9881E+00  0.7949E+02
     43.511  0.4604E+00  0.7968E+02
     43.781  0.3382E+00  0.7979E+02
     44.050  0.2558E+00  0.7986E+02
     44.319  0.1634E+00  0.7992E+02
     44.589  0.7106E-01  0.7995E+02
     44.858  0.2598E-01  0.7996E+02
     45.127  0.2291E-01  0.7997E+02
     45.396  0.2001E-01  0.7998E+02
     45.666  0.1728E-01  0.7998E+02
     45.935  0.1505E-01  0.7999E+02
     46.204  0.1216E-01  0.7999E+02
     46.474  0.9950E-02  0.7999E+02
     46.743  0.7924E-02  0.8000E+02
     47.012  0.6086E-02  0.8000E+02
     47.282  0.4435E-02  0.8000E+02
     47.551  0.0000E+00  0.8000E+02
     47.820  0.0000E+00  0.8000E+02
     48.090  0.0000E+00  0.8000E+02
     48.359  0.0000E+00  0.8000E+02
     48.628  0.0000E+00  0.8000E+02
     48.897  0.0000E+00  0.8000E+02
     49.167  0.0000E+00  0.8000E+02
     49.436  0.0000E+00  0.8000E+02
     49.705  0.0000E+00  0.8000E+02
     49.975  0.0000E+00  0.8000E+02
     50.244  0.0000E+00  0.8000E+02
     50.513  0.0000E+00  0.8000E+02
     50.783  0.0000E+00  0.8000E+02
     51.052  0.0000E+00  0.8000E+02
