    2    2    1    1
  0.1798157E+02  0.3300800E-09  0.3300800E-09  0.3300800E-09  0.5000000E-15
  1.000000000000000E-004
  CAR 
 Nb                                      
     22    120     40
 
  0.3125000E-01  0.3125000E-01  0.3125000E-01  0.1953125E-02
    1      -25.639922   1.000000
    2      -25.639922   1.000000
    3      -25.620877   1.000000
    4      -24.715516   1.000000
    5      -24.693913   1.000000
    6      -24.693913   1.000000
    7       -1.026498   1.000000
    8        1.122384   1.000000
    9        1.122384   1.000000
   10        5.140118   0.000000
   11        5.140118   0.000000
   12        5.237024   0.000000
   13        8.043602   0.000000
   14        8.043602   0.000000
   15       10.079979   0.000000
   16       10.377881   0.000000
   17       10.377881   0.000000
   18       14.310379   0.000000
   19       14.310379   0.000000
   20       14.448439   0.000000
   21       20.445185   0.000000
   22       20.527028   0.000000
   23       20.527028   0.000000
   24       23.546948   0.000000
   25       25.868710   0.000000
   26       25.868710   0.000000
   27       30.093655   0.000000
   28       30.093655   0.000000
   29       30.141844   0.000000
   30       33.888784   0.000000
   31       34.705262   0.000000
   32       34.705262   0.000000
   33       40.704382   0.000000
   34       40.980609   0.000000
   35       40.980609   0.000000
   36       41.211032   0.000000
   37       41.676061   0.000000
   38       41.983808   0.000000
   39       41.983808   0.000000
   40       42.222698   0.000000
 
  0.9375000E-01  0.3125000E-01  0.3125000E-01  0.5859375E-02
    1      -25.652217   1.000000
    2      -25.621225   1.000000
    3      -25.592543   1.000000
    4      -24.764333   1.000000
    5      -24.711469   1.000000
    6      -24.702196   1.000000
    7       -0.864487   1.000000
    8        1.210132   1.000000
    9        1.263486   1.000000
   10        5.080152  -0.016495
   11        5.121449   0.000000
   12        5.358252   0.000000
   13        7.819440   0.000000
   14        8.129682   0.000000
   15        9.493112   0.000000
   16        9.845447   0.000000
   17       10.362764   0.000000
   18       13.873721   0.000000
   19       15.018165   0.000000
   20       15.063513   0.000000
   21       20.605468   0.000000
   22       20.792692   0.000000
   23       20.830948   0.000000
   24       23.908310   0.000000
   25       25.766885   0.000000
   26       25.789039   0.000000
   27       28.653296   0.000000
   28       30.365077   0.000000
   29       30.369078   0.000000
   30       33.431986   0.000000
   31       34.403615   0.000000
   32       35.925260   0.000000
   33       40.237678   0.000000
   34       40.257144   0.000000
   35       40.726361   0.000000
   36       40.816935   0.000000
   37       41.072267   0.000000
   38       41.909549   0.000000
   39       41.954437   0.000000
   40       42.545723   0.000000
 
  0.1562500E+00  0.3125000E-01  0.3125000E-01  0.5859375E-02
    1      -25.659710   1.000000
    2      -25.584558   1.000000
    3      -25.551409   1.000000
    4      -24.844375   1.000000
    5      -24.745865   1.000000
    6      -24.731209   1.000000
    7       -0.551143   1.000000
    8        1.385277   1.000000
    9        1.526571   1.000000
   10        5.037109  -0.067678
   11        5.095885  -0.005554
   12        5.534664   0.000000
   13        7.406320   0.000000
   14        8.293482   0.000000
   15        8.769312   0.000000
   16        9.104026   0.000000
   17       10.137500   0.000000
   18       13.125147   0.000000
   19       16.081429   0.000000
   20       16.107431   0.000000
   21       20.952115   0.000000
   22       21.299218   0.000000
   23       21.356403   0.000000
   24       23.880066   0.000000
   25       25.636765   0.000000
   26       26.240127   0.000000
   27       26.807131   0.000000
   28       30.793896   0.000000
   29       30.894721   0.000000
   30       32.842146   0.000000
   31       33.814426   0.000000
   32       36.927017   0.000000
   33       39.016748   0.000000
   34       39.644633   0.000000
   35       39.910519   0.000000
   36       40.421263   0.000000
   37       40.508615   0.000000
   38       41.587112   0.000000
   39       42.105666   0.000000
   40       42.780024   0.000000
 
  0.2187500E+00  0.3125000E-01  0.3125000E-01  0.5859375E-02
    1      -25.660510   1.000000
    2      -25.531461   1.000000
    3      -25.496640   1.000000
    4      -24.949440   1.000000
    5      -24.796002   1.000000
    6      -24.777745   1.000000
    7       -0.107656   1.000000
    8        1.645444   1.000000
    9        1.871830   1.000000
   10        5.022186  -0.040337
   11        5.077036  -0.014656
   12        5.772016   0.000000
   13        6.860782   0.000000
   14        8.034750   0.000000
   15        8.341967   0.000000
   16        8.518083   0.000000
   17        9.777459   0.000000
   18       12.254235   0.000000
   19       17.301886   0.000000
   20       17.382501   0.000000
   21       21.414605   0.000000
   22       21.976586   0.000000
   23       22.078632   0.000000
   24       23.193538   0.000000
   25       25.015623   0.000000
   26       25.412558   0.000000
   27       27.523773   0.000000
   28       31.396390   0.000000
   29       31.483176   0.000000
   30       31.987769   0.000000
   31       33.160120   0.000000
   32       37.506830   0.000000
   33       37.547628   0.000000
   34       37.960035   0.000000
   35       39.564645   0.000000
   36       40.155119   0.000000
   37       40.445412   0.000000
   38       41.158877   0.000000
   39       42.218441   0.000000
   40       42.844864   0.000000
 
  0.2812500E+00  0.3125000E-01  0.3125000E-01  0.5859375E-02
    1      -25.650501   1.000000
    2      -25.464065   1.000000
    3      -25.429149   1.000000
    4      -25.070242   1.000000
    5      -24.860177   1.000000
    6      -24.839016   1.000000
    7        0.434251   1.000000
    8        1.987881   1.000000
    9        2.235138   1.000000
   10        5.050922  -0.014791
   11        5.072122  -0.029248
   12        6.072123   0.000000
   13        6.251140   0.000000
   14        7.354159   0.000000
   15        7.631955   0.000000
   16        8.776822   0.000000
   17        9.331239   0.000000
   18       11.394196   0.000000
   19       18.617405   0.000000
   20       18.758719   0.000000
   21       21.924923   0.000000
   22       22.323486   0.000000
   23       22.443057   0.000000
   24       22.941476   0.000000
   25       23.760202   0.000000
   26       25.126581   0.000000
   27       29.191463   0.000000
   28       30.933569   0.000000
   29       31.196364   0.000000
   30       32.123074   0.000000
   31       33.491610   0.000000
   32       35.918886   0.000000
   33       36.159555   0.000000
   34       37.813429   0.000000
   35       38.867421   0.000000
   36       40.364358   0.000000
   37       40.590740   0.000000
   38       40.746195   0.000000
   39       42.244133   0.000000
   40       42.831864   0.000000
 
  0.3437500E+00  0.3125000E-01  0.3125000E-01  0.5859375E-02
    1      -25.625058   1.000000
    2      -25.385172   1.000000
    3      -25.351065   1.000000
    4      -25.196104   1.000000
    5      -24.936221   1.000000
    6      -24.912407   1.000000
    7        1.031367   1.000000
    8        2.407942   1.000000
    9        2.524564   1.000000
   10        5.021722   0.198148
   11        5.139806  -0.053471
   12        5.703510   0.000000
   13        6.432814   0.000000
   14        6.759629   0.000000
   15        7.003736   0.000000
   16        8.835213   0.000000
   17        9.035397   0.000000
   18       10.643341   0.000000
   19       19.874306   0.000000
   20       20.183182   0.000000
   21       21.608725   0.000000
   22       21.617179   0.000000
   23       22.439839   0.000000
   24       23.802972   0.000000
   25       24.085271   0.000000
   26       24.786896   0.000000
   27       29.887535   0.000000
   28       30.270602   0.000000
   29       31.063846   0.000000
   30       32.829583   0.000000
   31       34.342263   0.000000
   32       34.342989   0.000000
   33       34.768940   0.000000
   34       37.837689   0.000000
   35       38.211909   0.000000
   36       40.351101   0.000000
   37       40.636066   0.000000
   38       40.934018   0.000000
   39       41.990819   0.000000
   40       42.781837   0.000000
 
  0.4062500E+00  0.3125000E-01  0.3125000E-01  0.5859375E-02
    1      -25.580067   1.000000
    2      -25.316961   1.000000
    3      -25.297822   1.000000
    4      -25.265144   1.000000
    5      -25.021271   1.000000
    6      -24.994966   1.000000
    7        1.626794   1.000000
    8        2.638198   1.000000
    9        2.899942   1.000000
   10        4.645472   0.992602
   11        5.301790  -0.026798
   12        5.551735   0.000000
   13        6.264065   0.000000
   14        6.471709   0.000000
   15        6.848372   0.000000
   16        8.319202   0.000000
   17        9.264456   0.000000
   18       10.072825   0.000000
   19       20.310997   0.000000
   20       20.699278   0.000000
   21       21.595100   0.000000
   22       21.912465   0.000000
   23       22.928839   0.000000
   24       24.331485   0.000000
   25       24.412055   0.000000
   26       24.518085   0.000000
   27       29.275517   0.000000
   28       29.664485   0.000000
   29       32.211343   0.000000
   30       32.601115   0.000000
   31       33.081852   0.000000
   32       34.184721   0.000000
   33       36.400221   0.000000
   34       36.995756   0.000000
   35       38.178463   0.000000
   36       39.968770   0.000000
   37       39.991372   0.000000
   38       41.456974   0.000000
   39       41.724842   0.000000
   40       42.308433   0.000000
 
  0.4687500E+00  0.3125000E-01  0.3125000E-01  0.5859375E-02
    1      -25.513144   1.000000
    2      -25.424473   1.000000
    3      -25.205557   1.000000
    4      -25.174754   1.000000
    5      -25.112211   1.000000
    6      -25.083548   1.000000
    7        2.147745   1.000000
    8        2.508763   1.000000
    9        3.453964   1.000000
   10        4.051901   1.000000
   11        5.542709  -0.000049
   12        5.727173   0.000000
   13        5.862324   0.000000
   14        6.044017   0.000000
   15        7.309933   0.000000
   16        7.805307   0.000000
   17        9.465235   0.000000
   18        9.700953   0.000000
   19       20.104986   0.000000
   20       20.182780   0.000000
   21       22.861005   0.000000
   22       23.099741   0.000000
   23       23.318499   0.000000
   24       24.048426   0.000000
   25       24.139464   0.000000
   26       24.144217   0.000000
   27       29.621836   0.000000
   28       29.946323   0.000000
   29       30.767360   0.000000
   30       31.057853   0.000000
   31       35.035652   0.000000
   32       35.177374   0.000000
   33       36.029884   0.000000
   34       37.120724   0.000000
   35       38.262587   0.000000
   36       39.397990   0.000000
   37       39.613934   0.000000
   38       40.280460   0.000000
   39       42.139143   0.000000
   40       42.179365   0.000000
 
  0.9375000E-01  0.9375000E-01  0.3125000E-01  0.5859375E-02
    1      -25.673653   1.000000
    2      -25.610736   1.000000
    3      -25.548346   1.000000
    4      -24.828750   1.000000
    5      -24.725949   1.000000
    6      -24.694958   1.000000
    7       -0.708092   1.000000
    8        1.318995   1.000000
    9        1.380568   1.000000
   10        4.948747   0.000476
   11        5.078100  -0.012086
   12        5.565830   0.000000
   13        7.795188   0.000000
   14        8.061081   0.000000
   15        8.847685   0.000000
   16        9.496897   0.000000
   17       10.432942   0.000000
   18       14.207345   0.000000
   19       14.870986   0.000000
   20       15.516991   0.000000
   21       20.671676   0.000000
   22       21.057524   0.000000
   23       21.132602   0.000000
   24       24.331836   0.000000
   25       25.566168   0.000000
   26       25.778153   0.000000
   27       28.433600   0.000000
   28       29.553760   0.000000
   29       30.580221   0.000000
   30       32.761610   0.000000
   31       34.630820   0.000000
   32       36.982458   0.000000
   33       39.141263   0.000000
   34       39.513535   0.000000
   35       40.447922   0.000000
   36       40.736824   0.000000
   37       40.933488   0.000000
   38       42.036654   0.000000
   39       42.247074   0.000000
   40       42.857583   0.000000
 
  0.1562500E+00  0.9375000E-01  0.3125000E-01  0.1171875E-01
    1      -25.695789   1.000000
    2      -25.575938   1.000000
    3      -25.493929   1.000000
    4      -24.922123   1.000000
    5      -24.758811   1.000000
    6      -24.706638   1.000000
    7       -0.406648   1.000000
    8        1.492401   1.000000
    9        1.637607   1.000000
   10        4.828371   0.600754
   11        5.023849  -0.022428
   12        5.826592   0.000000
   13        7.499916   0.000000
   14        8.127322   0.000000
   15        8.186921   0.000000
   16        8.821359   0.000000
   17       10.370410   0.000000
   18       13.617425   0.000000
   19       15.668058   0.000000
   20       16.374028   0.000000
   21       20.900641   0.000000
   22       21.532550   0.000000
   23       21.603472   0.000000
   24       24.254719   0.000000
   25       25.443935   0.000000
   26       26.313214   0.000000
   27       27.028462   0.000000
   28       29.706497   0.000000
   29       30.986826   0.000000
   30       32.186265   0.000000
   31       34.210767   0.000000
   32       37.919461   0.000000
   33       37.979526   0.000000
   34       39.182714   0.000000
   35       39.645992   0.000000
   36       40.149964   0.000000
   37       40.813503   0.000000
   38       42.119133   0.000000
   39       42.132485   0.000000
   40       43.317244   0.000000
 
  0.2187500E+00  0.9375000E-01  0.3125000E-01  0.1171875E-01
    1      -25.709340   1.000000
    2      -25.524057   1.000000
    3      -25.429872   1.000000
    4      -25.035497   1.000000
    5      -24.807050   1.000000
    6      -24.739109   1.000000
    7        0.017632   1.000000
    8        1.738571   1.000000
    9        1.982693   1.000000
   10        4.751031   0.900090
   11        4.963634   0.023041
   12        6.132838   0.000000
   13        7.049098   0.000000
   14        7.425431   0.000000
   15        8.111161   0.000000
   16        8.422346   0.000000
   17       10.115495   0.000000
   18       12.721781   0.000000
   19       16.792276   0.000000
   20       17.494135   0.000000
   21       21.241999   0.000000
   22       21.989541   0.000000
   23       22.293590   0.000000
   24       23.523524   0.000000
   25       25.258961   0.000000
   26       25.514612   0.000000
   27       27.661538   0.000000
   28       30.138338   0.000000
   29       31.471694   0.000000
   30       31.539797   0.000000
   31       33.681290   0.000000
   32       36.748916   0.000000
   33       37.677553   0.000000
   34       38.139121   0.000000
   35       39.780424   0.000000
   36       39.954575   0.000000
   37       40.741348   0.000000
   38       41.786985   0.000000
   39       42.218356   0.000000
   40       43.215173   0.000000
 
  0.2812500E+00  0.9375000E-01  0.3125000E-01  0.1171875E-01
    1      -25.709726   1.000000
    2      -25.457947   1.000000
    3      -25.356812   1.000000
    4      -25.160190   1.000000
    5      -24.869022   1.000000
    6      -24.789420   1.000000
    7        0.531743   1.000000
    8        2.053720   1.000000
    9        2.347188   1.000000
   10        4.728984   0.922545
   11        4.895763   0.277834
   12        6.483820   0.000000
   13        6.561733   0.000000
   14        6.792557   0.000000
   15        7.461005   0.000000
   16        8.696782   0.000000
   17        9.728468   0.000000
   18       11.803726   0.000000
   19       17.970185   0.000000
   20       18.771516   0.000000
   21       21.539858   0.000000
   22       22.085028   0.000000
   23       22.703409   0.000000
   24       23.136211   0.000000
   25       24.700654   0.000000
   26       25.007540   0.000000
   27       29.334330   0.000000
   28       29.967967   0.000000
   29       30.810024   0.000000
   30       32.147581   0.000000
   31       33.632901   0.000000
   32       35.433652   0.000000
   33       36.490726   0.000000
   34       37.435691   0.000000
   35       39.169672   0.000000
   36       40.497888   0.000000
   37       41.090348   0.000000
   38       41.216517   0.000000
   39       42.350845   0.000000
   40       42.913624   0.000000
 
  0.3437500E+00  0.9375000E-01  0.3125000E-01  0.1171875E-01
    1      -25.692724   1.000000
    2      -25.380552   1.000000
    3      -25.286606   1.000000
    4      -25.276118   1.000000
    5      -24.942591   1.000000
    6      -24.854262   1.000000
    7        1.092363   1.000000
    8        2.405921   1.000000
    9        2.659077   1.000000
   10        4.713211   0.959244
   11        4.826899   0.543689
   12        6.153546   0.000000
   13        6.254455   0.000000
   14        6.886794   0.000000
   15        6.919060   0.000000
   16        8.971478   0.000000
   17        9.268412   0.000000
   18       10.965104   0.000000
   19       19.014209   0.000000
   20       20.126627   0.000000
   21       21.089126   0.000000
   22       22.119419   0.000000
   23       22.225050   0.000000
   24       23.961394   0.000000
   25       24.725159   0.000000
   26       24.852426   0.000000
   27       29.157776   0.000000
   28       30.193765   0.000000
   29       31.146280   0.000000
   30       32.510769   0.000000
   31       34.091595   0.000000
   32       34.467139   0.000000
   33       35.087093   0.000000
   34       37.408118   0.000000
   35       38.388278   0.000000
   36       40.539333   0.000000
   37       40.864788   0.000000
   38       41.335740   0.000000
   39       42.643689   0.000000
   40       42.690801   0.000000
 
  0.4062500E+00  0.9375000E-01  0.3125000E-01  0.1171875E-01
    1      -25.654735   1.000000
    2      -25.405683   1.000000
    3      -25.295005   1.000000
    4      -25.190077   1.000000
    5      -25.025152   1.000000
    6      -24.930242   1.000000
    7        1.646480   1.000000
    8        2.603009   1.000000
    9        3.000010   1.000000
   10        4.431930   1.015127
   11        4.937309   0.199860
   12        5.810730   0.000000
   13        5.976656   0.000000
   14        6.511734   0.000000
   15        7.328412   0.000000
   16        8.780640   0.000000
   17        9.223005   0.000000
   18       10.278960   0.000000
   19       19.570038   0.000000
   20       20.325666   0.000000
   21       21.463658   0.000000
   22       22.210200   0.000000
   23       22.558416   0.000000
   24       24.434339   0.000000
   25       24.462728   0.000000
   26       25.035804   0.000000
   27       28.716906   0.000000
   28       29.800383   0.000000
   29       31.686805   0.000000
   30       32.644841   0.000000
   31       33.191448   0.000000
   32       34.910568   0.000000
   33       35.732090   0.000000
   34       37.274368   0.000000
   35       37.750427   0.000000
   36       39.881728   0.000000
   37       40.532682   0.000000
   38       41.568665   0.000000
   39       41.879825   0.000000
   40       42.735071   0.000000
 
  0.4687500E+00  0.9375000E-01  0.3125000E-01  0.1171875E-01
    1      -25.593743   1.000000
    2      -25.509791   1.000000
    3      -25.204834   1.000000
    4      -25.113698   1.000000
    5      -25.101615   1.000000
    6      -25.013848   1.000000
    7        2.132651   1.000000
    8        2.479603   1.000000
    9        3.471011   1.000000
   10        3.976329   1.000000
   11        5.150826  -0.037868
   12        5.444432   0.000000
   13        6.034500   0.000000
   14        6.226025   0.000000
   15        7.800902   0.000000
   16        8.288819   0.000000
   17        9.468376   0.000000
   18        9.788767   0.000000
   19       19.662468   0.000000
   20       19.832434   0.000000
   21       22.466158   0.000000
   22       22.754717   0.000000
   23       23.089251   0.000000
   24       24.110011   0.000000
   25       24.358348   0.000000
   26       24.657195   0.000000
   27       29.256754   0.000000
   28       30.158490   0.000000
   29       30.429263   0.000000
   30       31.225704   0.000000
   31       34.998962   0.000000
   32       35.597463   0.000000
   33       36.288823   0.000000
   34       36.440285   0.000000
   35       38.172178   0.000000
   36       39.228735   0.000000
   37       39.793724   0.000000
   38       40.322096   0.000000
   39       42.167720   0.000000
   40       42.579296   0.000000
 
  0.1562500E+00  0.1562500E+00  0.3125000E-01  0.5859375E-02
    1      -25.735412   1.000000
    2      -25.543857   1.000000
    3      -25.425391   1.000000
    4      -25.029554   1.000000
    5      -24.788487   1.000000
    6      -24.696877   1.000000
    7       -0.130469   1.000000
    8        1.659351   1.000000
    9        1.884871   1.000000
   10        4.619992   1.036088
   11        4.929788   0.073497
   12        6.185876   0.000000
   13        7.426112   0.000000
   14        7.546408   0.000000
   15        8.105148   0.000000
   16        8.233330   0.000000
   17       10.535028   0.000000
   18       13.942347   0.000000
   19       15.405438   0.000000
   20       16.949013   0.000000
   21       20.906406   0.000000
   22       21.866210   0.000000
   23       22.038941   0.000000
   24       24.303468   0.000000
   25       25.185447   0.000000
   26       26.918972   0.000000
   27       27.044076   0.000000
   28       28.643054   0.000000
   29       31.342221   0.000000
   30       31.582177   0.000000
   31       34.017853   0.000000
   32       36.895811   0.000000
   33       37.953995   0.000000
   34       39.272851   0.000000
   35       39.647634   0.000000
   36       39.990208   0.000000
   37       41.026339   0.000000
   38       42.153853   0.000000
   39       42.200589   0.000000
   40       43.166168   0.000000
 
  0.2187500E+00  0.1562500E+00  0.3125000E-01  0.1171875E-01
    1      -25.766189   1.000000
    2      -25.495396   1.000000
    3      -25.349871   1.000000
    4      -25.153063   1.000000
    5      -24.832242   1.000000
    6      -24.708901   1.000000
    7        0.251951   1.000000
    8        1.867685   1.000000
    9        2.237506   1.000000
   10        4.462719   1.000000
   11        4.833243   0.666714
   12        6.582798   0.000000
   13        6.757964   0.000000
   14        7.327774   0.000000
   15        7.616415   0.000000
   16        8.266755   0.000000
   17       10.480810   0.000000
   18       13.311333   0.000000
   19       16.093081   0.000000
   20       17.806570   0.000000
   21       20.951335   0.000000
   22       22.018165   0.000000
   23       22.732417   0.000000
   24       23.670239   0.000000
   25       25.063735   0.000000
   26       26.243889   0.000000
   27       28.156418   0.000000
   28       28.791558   0.000000
   29       30.800477   0.000000
   30       31.792995   0.000000
   31       33.628331   0.000000
   32       35.852804   0.000000
   33       37.293490   0.000000
   34       38.351169   0.000000
   35       39.893958   0.000000
   36       40.373033   0.000000
   37       41.602719   0.000000
   38       42.074591   0.000000
   39       42.225595   0.000000
   40       42.876975   0.000000
 
  0.2812500E+00  0.1562500E+00  0.3125000E-01  0.1171875E-01
    1      -25.782319   1.000000
    2      -25.433550   1.000000
    3      -25.283216   1.000000
    4      -25.268879   1.000000
    5      -24.888665   1.000000
    6      -24.741319   1.000000
    7        0.704106   1.000000
    8        2.105127   1.000000
    9        2.626628   1.000000
   10        4.372133   1.000000
   11        4.743106   1.009040
   12        6.165951  -0.001405
   13        6.967466   0.000000
   14        7.035117   0.000000
   15        7.091141   0.000000
   16        8.550829   0.000000
   17       10.227487   0.000000
   18       12.372892   0.000000
   19       17.084828   0.000000
   20       18.883134   0.000000
   21       20.885284   0.000000
   22       21.884885   0.000000
   23       22.871686   0.000000
   24       23.563085   0.000000
   25       24.930039   0.000000
   26       25.770594   0.000000
   27       28.913618   0.000000
   28       29.708620   0.000000
   29       30.123596   0.000000
   30       32.207682   0.000000
   31       33.359479   0.000000
   32       34.819281   0.000000
   33       37.058400   0.000000
   34       37.111989   0.000000
   35       39.522431   0.000000
   36       40.625254   0.000000
   37       41.617814   0.000000
   38       41.977923   0.000000
   39       42.855775   0.000000
   40       42.957540   0.000000
 
  0.3437500E+00  0.1562500E+00  0.3125000E-01  0.1171875E-01
    1      -25.779218   1.000000
    2      -25.410784   1.000000
    3      -25.361148   1.000000
    4      -25.184078   1.000000
    5      -24.955870   1.000000
    6      -24.791162   1.000000
    7        1.181549   1.000000
    8        2.321562   1.000000
    9        2.990570   1.000000
   10        4.351901   1.000000
   11        4.636389   1.036263
   12        5.665434  -0.027871
   13        6.689251   0.000000
   14        6.734196   0.000000
   15        7.478935   0.000000
   16        8.849603   0.000000
   17        9.841585   0.000000
   18       11.440317   0.000000
   19       18.012883   0.000000
   20       20.093369   0.000000
   21       20.420993   0.000000
   22       21.780204   0.000000
   23       22.221671   0.000000
   24       24.358936   0.000000
   25       24.814278   0.000000
   26       25.849643   0.000000
   27       28.319676   0.000000
   28       29.865010   0.000000
   29       31.235845   0.000000
   30       32.385545   0.000000
   31       33.646757   0.000000
   32       33.765013   0.000000
   33       36.128621   0.000000
   34       37.262884   0.000000
   35       38.868289   0.000000
   36       40.670372   0.000000
   37       41.016184   0.000000
   38       41.888275   0.000000
   39       42.534153   0.000000
   40       43.053548   0.000000
 
  0.4062500E+00  0.1562500E+00  0.3125000E-01  0.1171875E-01
    1      -25.753187   1.000000
    2      -25.527348   1.000000
    3      -25.281370   1.000000
    4      -25.097487   1.000000
    5      -25.031676   1.000000
    6      -24.855202   1.000000
    7        1.637854   1.000000
    8        2.415173   1.000000
    9        3.329852   1.000000
   10        4.318406   1.000000
   11        4.542041   1.037093
   12        5.250582  -0.055640
   13        6.531589   0.000000
   14        6.571959   0.000000
   15        7.962447   0.000000
   16        9.140538   0.000000
   17        9.389933   0.000000
   18       10.610712   0.000000
   19       18.666580   0.000000
   20       19.773630   0.000000
   21       21.272276   0.000000
   22       21.830231   0.000000
   23       22.026968   0.000000
   24       24.683069   0.000000
   25       24.800739   0.000000
   26       25.779621   0.000000
   27       28.152870   0.000000
   28       29.814859   0.000000
   29       31.240666   0.000000
   30       32.518873   0.000000
   31       33.412166   0.000000
   32       34.385386   0.000000
   33       35.967311   0.000000
   34       37.733002   0.000000
   35       38.150487   0.000000
   36       39.682434   0.000000
   37       41.304647   0.000000
   38       41.643935   0.000000
   39       42.000029   0.000000
   40       42.775167   0.000000
 
  0.4687500E+00  0.1562500E+00  0.3125000E-01  0.1171875E-01
    1      -25.702105   1.000000
    2      -25.626086   1.000000
    3      -25.197595   1.000000
    4      -25.113253   1.000000
    5      -25.011725   1.000000
    6      -24.929858   1.000000
    7        2.029131   1.000000
    8        2.308326   1.000000
    9        3.689450   1.000000
   10        4.051552   1.000000
   11        4.664435   0.927912
   12        4.914105   0.205769
   13        6.508793   0.000000
   14        6.529679   0.000000
   15        8.449516   0.000000
   16        8.922751   0.000000
   17        9.471395   0.000000
   18        9.944533   0.000000
   19       19.003078   0.000000
   20       19.292437   0.000000
   21       21.739440   0.000000
   22       21.850301   0.000000
   23       22.893655   0.000000
   24       24.046134   0.000000
   25       24.991131   0.000000
   26       25.377038   0.000000
   27       28.953862   0.000000
   28       30.139965   0.000000
   29       30.316827   0.000000
   30       31.321290   0.000000
   31       34.638656   0.000000
   32       34.960418   0.000000
   33       36.434420   0.000000
   34       37.164090   0.000000
   35       38.605916   0.000000
   36       39.031971   0.000000
   37       40.612726   0.000000
   38       40.980768   0.000000
   39       42.170999   0.000000
   40       42.562209   0.000000
 
  0.2187500E+00  0.2187500E+00  0.3125000E-01  0.5859375E-02
    1      -25.815048   1.000000
    2      -25.451885   1.000000
    3      -25.283706   1.000000
    4      -25.264818   1.000000
    5      -24.869576   1.000000
    6      -24.699408   1.000000
    7        0.563797   1.000000
    8        2.000886   1.000000
    9        2.614351   1.000000
   10        4.228489   1.000000
   11        4.739298   1.010974
   12        6.126268  -0.006067
   13        7.067396   0.000000
   14        7.119739   0.000000
   15        7.515694   0.000000
   16        8.189531   0.000000
   17       10.666476   0.000000
   18       13.432227   0.000000
   19       15.848642   0.000000
   20       18.354224   0.000000
   21       20.645643   0.000000