       N       E                     dE             d eps       ncg     rms          rms(c)
DAV:   1    -0.351823933745E+01   -0.35182E+01   -0.11031E+04 10160   0.403E+02
DAV:   2    -0.233462449900E+02   -0.19828E+02   -0.19455E+02 12480   0.546E+01
DAV:   3    -0.233695515582E+02   -0.23307E-01   -0.23374E-01 12360   0.201E+00
DAV:   4    -0.233695578873E+02   -0.63290E-05   -0.63474E-05 16000   0.301E-02
DAV:   5    -0.233695578871E+02    0.11551E-09   -0.83896E-11 12480   0.326E-05    0.257E+01
DAV:   6    -0.224871591586E+02    0.88240E+00   -0.13465E+00 16360   0.474E+00    0.116E+01
DAV:   7    -0.222782685734E+02    0.20889E+00   -0.70358E-01 15720   0.322E+00    0.828E-01
DAV:   8    -0.222716125581E+02    0.66560E-02   -0.93484E-03 13360   0.445E-01    0.459E-02
DAV:   9    -0.222716006233E+02    0.11935E-04   -0.31188E-05 12560   0.278E-02    0.127E-02
DAV:  10    -0.222715957975E+02    0.48258E-05   -0.34095E-06 16320   0.813E-03    0.252E-03
DAV:  11    -0.222715957832E+02    0.14258E-07   -0.63361E-08 11480   0.109E-03
   1 F= -.22271596E+02 E0= -.22271596E+02  d E =0.000000E+00
