 vasp.5.4.4.18Apr17-6-g9f103f2a35 (build May 20 2018 16:52:39) complex          
  
 executed on             LinuxIFC date 2022.11.17  21:34:41
 running on   40 total cores
 distrk:  each k-point on   40 cores,    1 groups
 distr:  one band on NCORES_PER_BAND=   1 cores,   40 groups


--------------------------------------------------------------------------------------------------------


 INCAR:
 POTCAR:    PAW Nb_pv 09Jan2002                   

 ----------------------------------------------------------------------------- 
|                                                                             |
|           W    W    AA    RRRRR   N    N  II  N    N   GGGG   !!!           |
|           W    W   A  A   R    R  NN   N  II  NN   N  G    G  !!!           |
|           W    W  A    A  R    R  N N  N  II  N N  N  G       !!!           |
|           W WW W  AAAAAA  RRRRR   N  N N  II  N  N N  G  GGG   !            |
|           WW  WW  A    A  R   R   N   NN  II  N   NN  G    G                |
|           W    W  A    A  R    R  N    N  II  N    N   GGGG   !!!           |
|                                                                             |
|      For optimal performance we recommend to set                            |
|        NCORE= 4 - approx SQRT( number of cores)                             |
|      NCORE specifies how many cores store one orbital (NPAR=cpu/NCORE).     |
|      This setting can  greatly improve the performance of VASP for DFT.     |
|      The default,   NCORE=1            might be grossly inefficient         |
|      on modern multi-core architectures or massively parallel machines.     |
|      Do your own testing !!!!                                               |
|      Unfortunately you need to use the default for GW and RPA calculations. |
|      (for HF NCORE is supported but not extensively tested yet)             |
|                                                                             |
 ----------------------------------------------------------------------------- 

 POTCAR:    PAW Nb_pv 09Jan2002                   
   VRHFIN =Nb: s1d4                                                             
   LEXCH  = CA                                                                  
   EATOM  =  1046.3740 eV,   76.9063 Ry                                         
                                                                                
   TITEL  = PAW Nb_pv 09Jan2002                                                 
   LULTRA =        F    use ultrasoft PP ?                                      
   IUNSCR =        1    unscreen: 0-lin 1-nonlin 2-no                           
   RPACOR =    2.200    partial core radius                                     
   POMASS =   92.910; ZVAL   =   11.000    mass and valenz                      
   RCORE  =    2.750    outmost cutoff radius                                   
   RWIGS  =    2.840; RWIGS  =    1.503    wigner-seitz radius (au A)           
   ENMAX  =  207.263; ENMIN  =  155.447 eV                                      
   RCLOC  =    2.209    cutoff for local pot                                    
   LCOR   =        T    correct aug charges                                     
   LPAW   =        T    paw PP                                                  
   EAUG   =  352.745                                                            
   DEXC   =    0.000                                                            
   RMAX   =    2.814    core radius for proj-oper                               
   RAUG   =    1.300    factor for augmentation sphere                          
   RDEP   =    2.785    radius for radial grids                                 
   RDEPT  =    2.205    core radius for aug-charge                              
                                                                                
   Atomic configuration                                                         
   11 entries                                                                   
     n  l   j            E        occ.                                          
     1  0  0.50    -18704.9804   2.0000                                         
     2  0  0.50     -2619.6337   2.0000                                         
     2  1  1.50     -2343.2033   6.0000                                         
     3  0  0.50      -436.6391   2.0000                                         
     3  1  1.50      -345.9106   6.0000                                         
     3  2  2.50      -196.5794  10.0000                                         
     4  0  0.50       -58.2950   2.0000                                         
     4  1  1.50       -34.5590   6.0000                                         
     4  2  2.50        -3.2208   4.0000                                         
     5  0  0.50        -4.1880   1.0000                                         
     4  3  2.50        -1.3606   0.0000                                         
   Description                                                                  
     l       E           TYP  RCUT    TYP  RCUT                                 
     1    -34.5590103     23  2.600                                             
     1     -1.3605826     23  2.600                                             
     2     -3.2207521     23  2.600                                             
     2     -1.6263194     23  2.600                                             
     0     -4.1879630     23  2.750                                             
     0     20.4087390     23  2.750                                             
  local pseudopotential read in
  partial core-charges read in
  partial kinetic energy density read in
  atomic valenz-charges read in
  non local Contribution for L=           1  read in
    real space projection operators read in
  non local Contribution for L=           1  read in
    real space projection operators read in
  non local Contribution for L=           2  read in
    real space projection operators read in
  non local Contribution for L=           2  read in
    real space projection operators read in
  non local Contribution for L=           0  read in
    real space projection operators read in
  non local Contribution for L=           0  read in
    real space projection operators read in
    PAW grid and wavefunctions read in
 
   number of l-projection  operators is LMAX  =           6
   number of lm-projection operators is LMMAX =          18
 
  PAW Nb_pv 09Jan2002                   :
 energy of atom  1       EATOM=-1046.3740
 kinetic energy error for atom=    0.0109 (will be added to EATOM!!)
 
 
 POSCAR: sic2 Nb                                 
  positions in direct lattice
  No initial velocities read in
 exchange correlation table for  LEXCH =        2
   RHO(1)=    0.500       N(1)  =     2000
   RHO(2)=  100.500       N(2)  =     4000
 


--------------------------------------------------------------------------------------------------------


 ion  position               nearest neighbor table
   1  0.000  0.000  0.000-   2 2.86   2 2.86   2 2.86   2 2.86   2 2.86   2 2.86   2 2.86   2 2.86

   2  0.500  0.500  0.500-   1 2.86   1 2.86   1 2.86   1 2.86   1 2.86   1 2.86   1 2.86   1 2.86

 
  LATTYP: Found a simple cubic cell.
 ALAT       =     3.3008000000
  
  Lattice vectors:
  
 A1 = (   3.3008000000,   0.0000000000,   0.0000000000)
 A2 = (   0.0000000000,   3.3008000000,   0.0000000000)
 A3 = (   0.0000000000,   0.0000000000,   3.3008000000)


Analysis of symmetry for initial positions (statically):
=====================================================================
 Subroutine PRICEL returns following result:
 
  LATTYP: Found a body centered cubic cell.
 ALAT       =     3.3008000000
  
  Lattice vectors:
  
 A1 = (   1.6504000000,   1.6504000000,   1.6504000000)
 A2 = (   1.6504000000,  -1.6504000000,  -1.6504000000)
 A3 = (  -1.6504000000,   1.6504000000,  -1.6504000000)
 
   2 primitive cells build up your supercell.
 

 Routine SETGRP: Setting up the symmetry group for a 
 simple cubic supercell.


 Subroutine GETGRP returns: Found 48 space group operations
 (whereof 48 operations were pure point group operations)
 out of a pool of 48 trial point group operations.


The static configuration has the point symmetry O_h .


Analysis of symmetry for dynamics (positions and initial velocities):
=====================================================================
 Subroutine PRICEL returns following result:
 
  LATTYP: Found a body centered cubic cell.
 ALAT       =     3.3008000000
  
  Lattice vectors:
  
 A1 = (   1.6504000000,   1.6504000000,   1.6504000000)
 A2 = (   1.6504000000,  -1.6504000000,  -1.6504000000)
 A3 = (  -1.6504000000,   1.6504000000,  -1.6504000000)
 
   2 primitive cells build up your supercell.
 

 Routine SETGRP: Setting up the symmetry group for a 
 simple cubic supercell.


 Subroutine GETGRP returns: Found 48 space group operations
 (whereof 48 operations were pure point group operations)
 out of a pool of 48 trial point group operations.


The dynamic configuration has the point symmetry O_h .


 Subroutine INISYM returns: Found 48 space group operations
 (whereof 48 operations are pure point group operations),
 and found     2 'primitive' translations

 
 
 KPOINTS: 16*16*16                                

Automatic generation of k-mesh.
Space group operators:
 irot       det(A)        alpha          n_x          n_y          n_z        tau_x        tau_y        tau_z
    1     1.000000     0.000000     1.000000     0.000000     0.000000     0.000000     0.000000     0.000000
    2    -1.000000     0.000000     1.000000     0.000000     0.000000     0.000000     0.000000     0.000000
    3     1.000000   120.000000    -0.577350    -0.577350    -0.577350     0.000000     0.000000     0.000000
    4    -1.000000   120.000000    -0.577350    -0.577350    -0.577350     0.000000     0.000000     0.000000
    5     1.000000   120.000000     0.577350     0.577350     0.577350     0.000000     0.000000     0.000000
    6    -1.000000   120.000000     0.577350     0.577350     0.577350     0.000000     0.000000     0.000000
    7     1.000000    90.000000     0.000000     0.000000    -1.000000     0.000000     0.000000     0.000000
    8    -1.000000    90.000000     0.000000     0.000000    -1.000000     0.000000     0.000000     0.000000
    9     1.000000   180.000000     0.000000     0.707107     0.707107     0.000000     0.000000     0.000000
   10    -1.000000   180.000000     0.000000     0.707107     0.707107     0.000000     0.000000     0.000000
   11     1.000000    90.000000     0.000000     1.000000     0.000000     0.000000     0.000000     0.000000
   12    -1.000000    90.000000     0.000000     1.000000     0.000000     0.000000     0.000000     0.000000
   13     1.000000   180.000000     0.000000     0.000000     1.000000     0.000000     0.000000     0.000000
   14    -1.000000   180.000000     0.000000     0.000000     1.000000     0.000000     0.000000     0.000000
   15     1.000000   120.000000    -0.577350     0.577350     0.577350     0.000000     0.000000     0.000000
   16    -1.000000   120.000000    -0.577350     0.577350     0.577350     0.000000     0.000000     0.000000
   17     1.000000   120.000000    -0.577350     0.577350    -0.577350     0.000000     0.000000     0.000000
   18    -1.000000   120.000000    -0.577350     0.577350    -0.577350     0.000000     0.000000     0.000000
   19     1.000000    90.000000     0.000000     0.000000     1.000000     0.000000     0.000000     0.000000
   20    -1.000000    90.000000     0.000000     0.000000     1.000000     0.000000     0.000000     0.000000
   21     1.000000    90.000000    -1.000000     0.000000     0.000000     0.000000     0.000000     0.000000
   22    -1.000000    90.000000    -1.000000     0.000000     0.000000     0.000000     0.000000     0.000000
   23     1.000000   180.000000     0.707107     0.000000     0.707107     0.000000     0.000000     0.000000
   24    -1.000000   180.000000     0.707107     0.000000     0.707107     0.000000     0.000000     0.000000
   25     1.000000   120.000000     0.577350    -0.577350     0.577350     0.000000     0.000000     0.000000
   26    -1.000000   120.000000     0.577350    -0.577350     0.577350     0.000000     0.000000     0.000000
   27     1.000000   120.000000    -0.577350    -0.577350     0.577350     0.000000     0.000000     0.000000
   28    -1.000000   120.000000    -0.577350    -0.577350     0.577350     0.000000     0.000000     0.000000
   29     1.000000   180.000000     1.000000     0.000000     0.000000     0.000000     0.000000     0.000000
   30    -1.000000   180.000000     1.000000     0.000000     0.000000     0.000000     0.000000     0.000000
   31     1.000000    90.000000     0.000000    -1.000000     0.000000     0.000000     0.000000     0.000000
   32    -1.000000    90.000000     0.000000    -1.000000     0.000000     0.000000     0.000000     0.000000
   33     1.000000   180.000000     0.707107     0.707107     0.000000     0.000000     0.000000     0.000000
   34    -1.000000   180.000000     0.707107     0.707107     0.000000     0.000000     0.000000     0.000000
   35     1.000000    90.000000     1.000000     0.000000     0.000000     0.000000     0.000000     0.000000
   36    -1.000000    90.000000     1.000000     0.000000     0.000000     0.000000     0.000000     0.000000
   37     1.000000   120.000000     0.577350    -0.577350    -0.577350     0.000000     0.000000     0.000000
   38    -1.000000   120.000000     0.577350    -0.577350    -0.577350     0.000000     0.000000     0.000000
   39     1.000000   180.000000     0.000000     1.000000     0.000000     0.000000     0.000000     0.000000
   40    -1.000000   180.000000     0.000000     1.000000     0.000000     0.000000     0.000000     0.000000
   41     1.000000   120.000000     0.577350     0.577350    -0.577350     0.000000     0.000000     0.000000
   42    -1.000000   120.000000     0.577350     0.577350    -0.577350     0.000000     0.000000     0.000000
   43     1.000000   180.000000     0.000000    -0.707107     0.707107     0.000000     0.000000     0.000000
   44    -1.000000   180.000000     0.000000    -0.707107     0.707107     0.000000     0.000000     0.000000
   45     1.000000   180.000000     0.707107    -0.707107     0.000000     0.000000     0.000000     0.000000
   46    -1.000000   180.000000     0.707107    -0.707107     0.000000     0.000000     0.000000     0.000000
   47     1.000000   180.000000     0.707107     0.000000    -0.707107     0.000000     0.000000     0.000000
   48    -1.000000   180.000000     0.707107     0.000000    -0.707107     0.000000     0.000000     0.000000
 
 Subroutine IBZKPT returns following result:
 ===========================================
 
 Found    120 irreducible k-points:
 
 Following reciprocal coordinates:
            Coordinates               Weight
  0.031250  0.031250  0.031250      8.000000
  0.093750  0.031250  0.031250     24.000000
  0.156250  0.031250  0.031250     24.000000
  0.218750  0.031250  0.031250     24.000000
  0.281250  0.031250  0.031250     24.000000
  0.343750  0.031250  0.031250     24.000000
  0.406250  0.031250  0.031250     24.000000
  0.468750  0.031250  0.031250     24.000000
  0.093750  0.093750  0.031250     24.000000
  0.156250  0.093750  0.031250     48.000000
  0.218750  0.093750  0.031250     48.000000
  0.281250  0.093750  0.031250     48.000000
  0.343750  0.093750  0.031250     48.000000
  0.406250  0.093750  0.031250     48.000000
  0.468750  0.093750  0.031250     48.000000
  0.156250  0.156250  0.031250     24.000000
  0.218750  0.156250  0.031250     48.000000
  0.281250  0.156250  0.031250     48.000000
  0.343750  0.156250  0.031250     48.000000
  0.406250  0.156250  0.031250     48.000000
  0.468750  0.156250  0.031250     48.000000
  0.218750  0.218750  0.031250     24.000000
  0.281250  0.218750  0.031250     48.000000
  0.343750  0.218750  0.031250     48.000000
  0.406250  0.218750  0.031250     48.000000
  0.468750  0.218750  0.031250     48.000000
  0.281250  0.281250  0.031250     24.000000
  0.343750  0.281250  0.031250     48.000000
  0.406250  0.281250  0.031250     48.000000
  0.468750  0.281250  0.031250     48.000000
  0.343750  0.343750  0.031250     24.000000
  0.406250  0.343750  0.031250     48.000000
  0.468750  0.343750  0.031250     48.000000
  0.406250  0.406250  0.031250     24.000000
  0.468750  0.406250  0.031250     48.000000
  0.468750  0.468750  0.031250     24.000000
  0.093750  0.093750  0.093750      8.000000
  0.156250  0.093750  0.093750     24.000000
  0.218750  0.093750  0.093750     24.000000
  0.281250  0.093750  0.093750     24.000000
  0.343750  0.093750  0.093750     24.000000
  0.406250  0.093750  0.093750     24.000000
  0.468750  0.093750  0.093750     24.000000
  0.156250  0.156250  0.093750     24.000000
  0.218750  0.156250  0.093750     48.000000
  0.281250  0.156250  0.093750     48.000000
  0.343750  0.156250  0.093750     48.000000
  0.406250  0.156250  0.093750     48.000000
  0.468750  0.156250  0.093750     48.000000
  0.218750  0.218750  0.093750     24.000000
  0.281250  0.218750  0.093750     48.000000
  0.343750  0.218750  0.093750     48.000000
  0.406250  0.218750  0.093750     48.000000
  0.468750  0.218750  0.093750     48.000000
  0.281250  0.281250  0.093750     24.000000
  0.343750  0.281250  0.093750     48.000000
  0.406250  0.281250  0.093750     48.000000
  0.468750  0.281250  0.093750     48.000000
  0.343750  0.343750  0.093750     24.000000
  0.406250  0.343750  0.093750     48.000000
  0.468750  0.343750  0.093750     48.000000
  0.406250  0.406250  0.093750     24.000000
  0.468750  0.406250  0.093750     48.000000
  0.468750  0.468750  0.093750     24.000000
  0.156250  0.156250  0.156250      8.000000
  0.218750  0.156250  0.156250     24.000000
  0.281250  0.156250  0.156250     24.000000
  0.343750  0.156250  0.156250     24.000000
  0.406250  0.156250  0.156250     24.000000
  0.468750  0.156250  0.156250     24.000000
  0.218750  0.218750  0.156250     24.000000
  0.281250  0.218750  0.156250     48.000000
  0.343750  0.218750  0.156250     48.000000
  0.406250  0.218750  0.156250     48.000000
  0.468750  0.218750  0.156250     48.000000
  0.281250  0.281250  0.156250     24.000000
  0.343750  0.281250  0.156250     48.000000
  0.406250  0.281250  0.156250     48.000000
  0.468750  0.281250  0.156250     48.000000
  0.343750  0.343750  0.156250     24.000000
  0.406250  0.343750  0.156250     48.000000
  0.468750  0.343750  0.156250     48.000000
  0.406250  0.406250  0.156250     24.000000
  0.468750  0.406250  0.156250     48.000000
  0.468750  0.468750  0.156250     24.000000
  0.218750  0.218750  0.218750      8.000000
  0.281250  0.218750  0.218750     24.000000
  0.343750  0.218750  0.218750     24.000000
  0.406250  0.218750  0.218750     24.000000
  0.468750  0.218750  0.218750     24.000000
  0.281250  0.281250  0.218750     24.000000
  0.343750  0.281250  0.218750     48.000000
  0.406250  0.281250  0.218750     48.000000
  0.468750  0.281250  0.218750     48.000000
  0.343750  0.343750  0.218750     24.000000
  0.406250  0.343750  0.218750     48.000000
  0.468750  0.343750  0.218750     48.000000
  0.406250  0.406250  0.218750     24.000000
  0.468750  0.406250  0.218750     48.000000
  0.468750  0.468750  0.218750     24.000000
  0.281250  0.281250  0.281250      8.000000
  0.343750  0.281250  0.281250     24.000000
  0.406250  0.281250  0.281250     24.000000
  0.468750  0.281250  0.281250     24.000000
  0.343750  0.343750  0.281250     24.000000
  0.406250  0.343750  0.281250     48.000000
  0.468750  0.343750  0.281250     48.000000
  0.406250  0.406250  0.281250     24.000000
  0.468750  0.406250  0.281250     48.000000
  0.468750  0.468750  0.281250     24.000000
  0.343750  0.343750  0.343750      8.000000
  0.406250  0.343750  0.343750     24.000000
  0.468750  0.343750  0.343750     24.000000
  0.406250  0.406250  0.343750     24.000000
  0.468750  0.406250  0.343750     48.000000
  0.468750  0.468750  0.343750     24.000000
  0.406250  0.406250  0.406250      8.000000
  0.468750  0.406250  0.406250     24.000000
  0.468750  0.468750  0.406250     24.000000
  0.468750  0.468750  0.468750      8.000000
 
 Following cartesian coordinates:
            Coordinates               Weight
  0.031250  0.031250  0.031250      8.000000
  0.093750  0.031250  0.031250     24.000000
  0.156250  0.031250  0.031250     24.000000
  0.218750  0.031250  0.031250     24.000000
  0.281250  0.031250  0.031250     24.000000
  0.343750  0.031250  0.031250     24.000000
  0.406250  0.031250  0.031250     24.000000
  0.468750  0.031250  0.031250     24.000000
  0.093750  0.093750  0.031250     24.000000
  0.156250  0.093750  0.031250     48.000000
  0.218750  0.093750  0.031250     48.000000
  0.281250  0.093750  0.031250     48.000000
  0.343750  0.093750  0.031250     48.000000
  0.406250  0.093750  0.031250     48.000000
  0.468750  0.093750  0.031250     48.000000
  0.156250  0.156250  0.031250     24.000000
  0.218750  0.156250  0.031250     48.000000
  0.281250  0.156250  0.031250     48.000000
  0.343750  0.156250  0.031250     48.000000
  0.406250  0.156250  0.031250     48.000000
  0.468750  0.156250  0.031250     48.000000
  0.218750  0.218750  0.031250     24.000000
  0.281250  0.218750  0.031250     48.000000
  0.343750  0.218750  0.031250     48.000000
  0.406250  0.218750  0.031250     48.000000
  0.468750  0.218750  0.031250     48.000000
  0.281250  0.281250  0.031250     24.000000
  0.343750  0.281250  0.031250     48.000000
  0.406250  0.281250  0.031250     48.000000
  0.468750  0.281250  0.031250     48.000000
  0.343750  0.343750  0.031250     24.000000
  0.406250  0.343750  0.031250     48.000000
  0.468750  0.343750  0.031250     48.000000
  0.406250  0.406250  0.031250     24.000000
  0.468750  0.406250  0.031250     48.000000
  0.468750  0.468750  0.031250     24.000000
  0.093750  0.093750  0.093750      8.000000
  0.156250  0.093750  0.093750     24.000000
  0.218750  0.093750  0.093750     24.000000
  0.281250  0.093750  0.093750     24.000000
  0.343750  0.093750  0.093750     24.000000
  0.406250  0.093750  0.093750     24.000000
  0.468750  0.093750  0.093750     24.000000
  0.156250  0.156250  0.093750     24.000000
  0.218750  0.156250  0.093750     48.000000
  0.281250  0.156250  0.093750     48.000000
  0.343750  0.156250  0.093750     48.000000
  0.406250  0.156250  0.093750     48.000000
  0.468750  0.156250  0.093750     48.000000
  0.218750  0.218750  0.093750     24.000000
  0.281250  0.218750  0.093750     48.000000
  0.343750  0.218750  0.093750     48.000000
  0.406250  0.218750  0.093750     48.000000
  0.468750  0.218750  0.093750     48.000000
  0.281250  0.281250  0.093750     24.000000
  0.343750  0.281250  0.093750     48.000000
  0.406250  0.281250  0.093750     48.000000
  0.468750  0.281250  0.093750     48.000000
  0.343750  0.343750  0.093750     24.000000
  0.406250  0.343750  0.093750     48.000000
  0.468750  0.343750  0.093750     48.000000
  0.406250  0.406250  0.093750     24.000000
  0.468750  0.406250  0.093750     48.000000
  0.468750  0.468750  0.093750     24.000000
  0.156250  0.156250  0.156250      8.000000
  0.218750  0.156250  0.156250     24.000000
  0.281250  0.156250  0.156250     24.000000
  0.343750  0.156250  0.156250     24.000000
  0.406250  0.156250  0.156250     24.000000
  0.468750  0.156250  0.156250     24.000000
  0.218750  0.218750  0.156250     24.000000
  0.281250  0.218750  0.156250     48.000000
  0.343750  0.218750  0.156250     48.000000
  0.406250  0.218750  0.156250     48.000000
  0.468750  0.218750  0.156250     48.000000
  0.281250  0.281250  0.156250     24.000000
  0.343750  0.281250  0.156250     48.000000
  0.406250  0.281250  0.156250     48.000000
  0.468750  0.281250  0.156250     48.000000
  0.343750  0.343750  0.156250     24.000000
  0.406250  0.343750  0.156250     48.000000
  0.468750  0.343750  0.156250     48.000000
  0.406250  0.406250  0.156250     24.000000
  0.468750  0.406250  0.156250     48.000000
  0.468750  0.468750  0.156250     24.000000
  0.218750  0.218750  0.218750      8.000000
  0.281250  0.218750  0.218750     24.000000
  0.343750  0.218750  0.218750     24.000000
  0.406250  0.218750  0.218750     24.000000
  0.468750  0.218750  0.218750     24.000000
  0.281250  0.281250  0.218750     24.000000
  0.343750  0.281250  0.218750     48.000000
  0.406250  0.281250  0.218750     48.000000
  0.468750  0.281250  0.218750     48.000000
  0.343750  0.343750  0.218750     24.000000
  0.406250  0.343750  0.218750     48.000000
  0.468750  0.343750  0.218750     48.000000
  0.406250  0.406250  0.218750     24.000000
  0.468750  0.406250  0.218750     48.000000
  0.468750  0.468750  0.218750     24.000000
  0.281250  0.281250  0.281250      8.000000
  0.343750  0.281250  0.281250     24.000000
  0.406250  0.281250  0.281250     24.000000
  0.468750  0.281250  0.281250     24.000000
  0.343750  0.343750  0.281250     24.000000
  0.406250  0.343750  0.281250     48.000000
  0.468750  0.343750  0.281250     48.000000
  0.406250  0.406250  0.281250     24.000000
  0.468750  0.406250  0.281250     48.000000
  0.468750  0.468750  0.281250     24.000000
  0.343750  0.343750  0.343750      8.000000
  0.406250  0.343750  0.343750     24.000000
  0.468750  0.343750  0.343750     24.000000
  0.406250  0.406250  0.343750     24.000000
  0.468750  0.406250  0.343750     48.000000
  0.468750  0.468750  0.343750     24.000000
  0.406250  0.406250  0.406250      8.000000
  0.468750  0.406250  0.406250     24.000000
  0.468750  0.468750  0.406250     24.000000
  0.468750  0.468750  0.468750      8.000000
 
 TETIRR: Found   1993 inequivalent tetrahedra from    24576


--------------------------------------------------------------------------------------------------------




 Dimension of arrays:
   k-points           NKPTS =    120   k-points in BZ     NKDIM =    120   number of bands    NBANDS=     40
   number of dos      NEDOS =    301   number of ions     NIONS =      2
   non local maximal  LDIM  =      6   non local SUM 2l+1 LMDIM =     18
   total plane-waves  NPLWV =   2744
   max r-space proj   IRMAX =      1   max aug-charges    IRDMAX=   4943
   dimension x,y,z NGX =    14 NGY =   14 NGZ =   14
   dimension x,y,z NGXF=    28 NGYF=   28 NGZF=   28
   support grid    NGXF=    28 NGYF=   28 NGZF=   28
   ions per type =               2
   NGX,Y,Z   is equivalent  to a cutoff of   7.05,  7.05,  7.05 a.u.
   NGXF,Y,Z  is equivalent  to a cutoff of  14.10, 14.10, 14.10 a.u.

 SYSTEM =  Nb                                      
 POSCAR =  sic2 Nb                                 

 Startparameter for this run:
   NWRITE =      2    write-flag & timer
   PREC   = normal    normal or accurate (medium, high low for compatibility)
   ISTART =      0    job   : 0-new  1-cont  2-samecut
   ICHARG =      2    charge: 1-file 2-atom 10-const
   ISPIN  =      1    spin polarized calculation?
   LNONCOLLINEAR =      F non collinear calculations
   LSORBIT =      F    spin-orbit coupling
   INIWAV =      1    electr: 0-lowe 1-rand  2-diag
   LASPH  =      F    aspherical Exc in radial PAW
   METAGGA=      F    non-selfconsistent MetaGGA calc.

 Electronic Relaxation 1
   ENCUT  =  300.0 eV  22.05 Ry    4.70 a.u.   4.66  4.66  4.66*2*pi/ulx,y,z
   ENINI  =  300.0     initial cutoff
   ENAUG  =  352.7 eV  augmentation charge cutoff
   NELM   =     60;   NELMIN=  2; NELMDL= -5     # of ELM steps 
   EDIFF  = 0.1E-06   stopping-criterion for ELM
   LREAL  =      F    real-space projection
   NLSPLINE    = F    spline interpolate recip. space projectors
   LCOMPAT=      F    compatible to vasp.4.4
   GGA_COMPAT  = T    GGA compatible to vasp.4.4-vasp.4.6
   LMAXPAW     = -100 max onsite density
   LMAXMIX     =    2 max onsite mixed and CHGCAR
   VOSKOWN=      0    Vosko Wilk Nusair interpolation
   ROPT   =    0.00000
 Ionic relaxation
   EDIFFG = 0.1E-05   stopping-criterion for IOM
   NSW    =      0    number of steps for IOM
   NBLOCK =      1;   KBLOCK =      1    inner block; outer block 
   IBRION =     -1    ionic relax: 0-MD 1-quasi-New 2-CG
   NFREE  =      0    steps in history (QN), initial steepest desc. (CG)
   ISIF   =      2    stress and relaxation
   IWAVPR =     10    prediction:  0-non 1-charg 2-wave 3-comb
   ISYM   =      2    0-nonsym 1-usesym 2-fastsym
   LCORR  =      T    Harris-Foulkes like correction to forces

   POTIM  = 0.5000    time-step for ionic-motion
   TEIN   =    0.0    initial temperature
   TEBEG  =    0.0;   TEEND  =   0.0 temperature during run
   SMASS  =  -3.00    Nose mass-parameter (am)
   estimated Nose-frequenzy (Omega)   =  0.10E-29 period in steps =****** mass=  -0.249E-27a.u.
   SCALEE = 1.0000    scale energy and forces
   NPACO  =    256;   APACO  = 16.0  distance and # of slots for P.C.
   PSTRESS=    0.0 pullay stress

  Mass of Ions in am
   POMASS =  92.91
  Ionic Valenz
   ZVAL   =  11.00
  Atomic Wigner-Seitz radii
   RWIGS  =  -1.00
  virtual crystal weights 
   VCA    =   1.00
   NELECT =      22.0000    total number of electrons
   NUPDOWN=      -1.0000    fix difference up-down

 DOS related values:
   EMIN   =  10.00;   EMAX   =-10.00  energy-range for DOS
   EFERMI =   0.00
   ISMEAR =    -5;   SIGMA  =   0.20  broadening in eV -4-tet -1-fermi 0-gaus

 Electronic relaxation 2 (details)
   IALGO  =     38    algorithm
   LDIAG  =      T    sub-space diagonalisation (order eigenvalues)
   LSUBROT=      F    optimize rotation matrix (better conditioning)
   TURBO    =      0    0=normal 1=particle mesh
   IRESTART =      0    0=no restart 2=restart with 2 vectors
   NREBOOT  =      0    no. of reboots
   NMIN     =      0    reboot dimension
   EREF     =   0.00    reference energy to select bands
   IMIX   =      4    mixing-type and parameters
     AMIX     =   0.40;   BMIX     =  1.00
     AMIX_MAG =   1.60;   BMIX_MAG =  1.00
     AMIN     =   0.10
     WC   =   100.;   INIMIX=   1;  MIXPRE=   1;  MAXMIX= -45

 Intra band minimization:
   WEIMIN = 0.0000     energy-eigenvalue tresh-hold
   EBREAK =  0.63E-09  absolut break condition
   DEPER  =   0.30     relativ break condition  

   TIME   =   0.40     timestep for ELM

  volume/ion in A,a.u.               =      17.98       121.35
  Fermi-wavevector in a.u.,A,eV,Ry     =   1.389728  2.626205 26.277534  1.931344
  Thomas-Fermi vector in A             =   2.513731
 
 Write flags
   LWAVE        =      T    write WAVECAR
   LDOWNSAMPLE  =      F    k-point downsampling of WAVECAR
   LCHARG       =      T    write CHGCAR
   LVTOT        =      F    write LOCPOT, total local potential
   LVHAR        =      F    write LOCPOT, Hartree potential only
   LELF         =      F    write electronic localiz. function (ELF)
   LORBIT       =      0    0 simple, 1 ext, 2 COOP (PROOUT), +10 PAW based schemes


 Dipole corrections
   LMONO  =      F    monopole corrections only (constant potential shift)
   LDIPOL =      F    correct potential (dipole corrections)
   IDIPOL =      0    1-x, 2-y, 3-z, 4-all directions 
   EPSILON=  1.0000000 bulk dielectric constant

 Exchange correlation treatment:
   GGA     =    --    GGA type
   LEXCH   =     2    internal setting for exchange type
   VOSKOWN=      0    Vosko Wilk Nusair interpolation
   LHFCALC =     F    Hartree Fock is set to
   LHFONE  =     F    Hartree Fock one center treatment
   AEXX    =    0.0000 exact exchange contribution

 Linear response parameters
   LEPSILON=     F    determine dielectric tensor
   LRPA    =     F    only Hartree local field effects (RPA)
   LNABLA  =     F    use nabla operator in PAW spheres
   LVEL    =     F    velocity operator in full k-point grid
   LINTERFAST=   F  fast interpolation
   KINTER  =     0    interpolate to denser k-point grid
   CSHIFT  =0.1000    complex shift for real part using Kramers Kronig
   OMEGAMAX=  -1.0    maximum frequency
   DEG_THRESHOLD= 0.2000000E-02 threshold for treating states as degnerate
   RTIME   =   -0.100 relaxation time in fs
  (WPLASMAI=    0.000 imaginary part of plasma frequency in eV, 0.658/RTIME)
   DFIELD  = 0.0000000 0.0000000 0.0000000 field for delta impulse in time
 
 Orbital magnetization related:
   ORBITALMAG=     F  switch on orbital magnetization
   LCHIMAG   =     F  perturbation theory with respect to B field
   DQ        =  0.001000  dq finite difference perturbation B field
   LLRAUG    =     F  two centre corrections for induced B field



--------------------------------------------------------------------------------------------------------


 Static calculation
 charge density and potential will be updated during run
 non-spin polarized calculation
 Variant of blocked Davidson
 Davidson routine will perform the subspace rotation
 perform sub-space diagonalisation
    after iterative eigenvector-optimisation
 modified Broyden-mixing scheme, WC =      100.0
 initial mixing is a Kerker type mixing with AMIX =  0.4000 and BMIX =      1.0000
 Hartree-type preconditioning will be used
 using additional bands           29
 reciprocal scheme for non local part
 use partial core corrections
 calculate Harris-corrections to forces 
   (improved forces if not selfconsistent)
 use of overlap-Matrix (Vanderbilt PP)
 Fermi weights with tetrahedron method with Bloechl corrections


--------------------------------------------------------------------------------------------------------


  energy-cutoff  :      300.00
  volume of cell :       35.96
      direct lattice vectors                 reciprocal lattice vectors
     3.300800000  0.000000000  0.000000000     0.302956859  0.000000000  0.000000000
     0.000000000  3.300800000  0.000000000     0.000000000  0.302956859  0.000000000
     0.000000000  0.000000000  3.300800000     0.000000000  0.000000000  0.302956859

  length of vectors
     3.300800000  3.300800000  3.300800000     0.302956859  0.302956859  0.302956859


 
 k-points in units of 2pi/SCALE and weight: 16*16*16                                
   0.03125000  0.03125000  0.03125000       0.002
   0.09375000  0.03125000  0.03125000       0.006
   0.15625000  0.03125000  0.03125000       0.006
   0.21875000  0.03125000  0.03125000       0.006
   0.28125000  0.03125000  0.03125000       0.006
   0.34375000  0.03125000  0.03125000       0.006
   0.40625000  0.03125000  0.03125000       0.006
   0.46875000  0.03125000  0.03125000       0.006
   0.09375000  0.09375000  0.03125000       0.006
   0.15625000  0.09375000  0.03125000       0.012
   0.21875000  0.09375000  0.03125000       0.012
   0.28125000  0.09375000  0.03125000       0.012
   0.34375000  0.09375000  0.03125000       0.012
   0.40625000  0.09375000  0.03125000       0.012
   0.46875000  0.09375000  0.03125000       0.012
   0.15625000  0.15625000  0.03125000       0.006
   0.21875000  0.15625000  0.03125000       0.012
   0.28125000  0.15625000  0.03125000       0.012
   0.34375000  0.15625000  0.03125000       0.012
   0.40625000  0.15625000  0.03125000       0.012
   0.46875000  0.15625000  0.03125000       0.012
   0.21875000  0.21875000  0.03125000       0.006
   0.28125000  0.21875000  0.03125000       0.012
   0.34375000  0.21875000  0.03125000       0.012
   0.40625000  0.21875000  0.03125000       0.012
   0.46875000  0.21875000  0.03125000       0.012
   0.28125000  0.28125000  0.03125000       0.006
   0.34375000  0.28125000  0.03125000       0.012
   0.40625000  0.28125000  0.03125000       0.012
   0.46875000  0.28125000  0.03125000       0.012
   0.34375000  0.34375000  0.03125000       0.006
   0.40625000  0.34375000  0.03125000       0.012
   0.46875000  0.34375000  0.03125000       0.012
   0.40625000  0.40625000  0.03125000       0.006
   0.46875000  0.40625000  0.03125000       0.012
   0.46875000  0.46875000  0.03125000       0.006
   0.09375000  0.09375000  0.09375000       0.002
   0.15625000  0.09375000  0.09375000       0.006
   0.21875000  0.09375000  0.09375000       0.006
   0.28125000  0.09375000  0.09375000       0.006
   0.34375000  0.09375000  0.09375000       0.006
   0.40625000  0.09375000  0.09375000       0.006
   0.46875000  0.09375000  0.09375000       0.006
   0.15625000  0.15625000  0.09375000       0.006
   0.21875000  0.15625000  0.09375000       0.012
   0.28125000  0.15625000  0.09375000       0.012
   0.34375000  0.15625000  0.09375000       0.012
   0.40625000  0.15625000  0.09375000       0.012
   0.46875000  0.15625000  0.09375000       0.012
   0.21875000  0.21875000  0.09375000       0.006
   0.28125000  0.21875000  0.09375000       0.012
   0.34375000  0.21875000  0.09375000       0.012
   0.40625000  0.21875000  0.09375000       0.012
   0.46875000  0.21875000  0.09375000       0.012
   0.28125000  0.28125000  0.09375000       0.006
   0.34375000  0.28125000  0.09375000       0.012
   0.40625000  0.28125000  0.09375000       0.012
   0.46875000  0.28125000  0.09375000       0.012
   0.34375000  0.34375000  0.09375000       0.006
   0.40625000  0.34375000  0.09375000       0.012
   0.46875000  0.34375000  0.09375000       0.012
   0.40625000  0.40625000  0.09375000       0.006
   0.46875000  0.40625000  0.09375000       0.012
   0.46875000  0.46875000  0.09375000       0.006
   0.15625000  0.15625000  0.15625000       0.002
   0.21875000  0.15625000  0.15625000       0.006
   0.28125000  0.15625000  0.15625000       0.006
   0.34375000  0.15625000  0.15625000       0.006
   0.40625000  0.15625000  0.15625000       0.006
   0.46875000  0.15625000  0.15625000       0.006
   0.21875000  0.21875000  0.15625000       0.006
   0.28125000  0.21875000  0.15625000       0.012
   0.34375000  0.21875000  0.15625000       0.012
   0.40625000  0.21875000  0.15625000       0.012
   0.46875000  0.21875000  0.15625000       0.012
   0.28125000  0.28125000  0.15625000       0.006
   0.34375000  0.28125000  0.15625000       0.012
   0.40625000  0.28125000  0.15625000       0.012
   0.46875000  0.28125000  0.15625000       0.012
   0.34375000  0.34375000  0.15625000       0.006
   0.40625000  0.34375000  0.15625000       0.012
   0.46875000  0.34375000  0.15625000       0.012
   0.40625000  0.40625000  0.15625000       0.006
   0.46875000  0.40625000  0.15625000       0.012
   0.46875000  0.46875000  0.15625000       0.006
   0.21875000  0.21875000  0.21875000       0.002
   0.28125000  0.21875000  0.21875000       0.006
   0.34375000  0.21875000  0.21875000       0.006
   0.40625000  0.21875000  0.21875000       0.006
   0.46875000  0.21875000  0.21875000       0.006
   0.28125000  0.28125000  0.21875000       0.006
   0.34375000  0.28125000  0.21875000       0.012
   0.40625000  0.28125000  0.21875000       0.012
   0.46875000  0.28125000  0.21875000       0.012
   0.34375000  0.34375000  0.21875000       0.006
   0.40625000  0.34375000  0.21875000       0.012
   0.46875000  0.34375000  0.21875000       0.012
   0.40625000  0.40625000  0.21875000       0.006
   0.46875000  0.40625000  0.21875000       0.012
   0.46875000  0.46875000  0.21875000       0.006
   0.28125000  0.28125000  0.28125000       0.002
   0.34375000  0.28125000  0.28125000       0.006
   0.40625000  0.28125000  0.28125000       0.006
   0.46875000  0.28125000  0.28125000       0.006
   0.34375000  0.34375000  0.28125000       0.006
   0.40625000  0.34375000  0.28125000       0.012
   0.46875000  0.34375000  0.28125000       0.012
   0.40625000  0.40625000  0.28125000       0.006
   0.46875000  0.40625000  0.28125000       0.012
   0.46875000  0.46875000  0.28125000       0.006
   0.34375000  0.34375000  0.34375000       0.002
   0.40625000  0.34375000  0.34375000       0.006
   0.46875000  0.34375000  0.34375000       0.006
   0.40625000  0.40625000  0.34375000       0.006
   0.46875000  0.40625000  0.34375000       0.012
   0.46875000  0.46875000  0.34375000       0.006
   0.40625000  0.40625000  0.40625000       0.002
   0.46875000  0.40625000  0.40625000       0.006
   0.46875000  0.46875000  0.40625000       0.006
   0.46875000  0.46875000  0.46875000       0.002
 
 k-points in reciprocal lattice and weights: 16*16*16                                
   0.03125000  0.03125000  0.03125000       0.002
   0.09375000  0.03125000  0.03125000       0.006
   0.15625000  0.03125000  0.03125000       0.006
   0.21875000  0.03125000  0.03125000       0.006
   0.28125000  0.03125000  0.03125000       0.006
   0.34375000  0.03125000  0.03125000       0.006
   0.40625000  0.03125000  0.03125000       0.006
   0.46875000  0.03125000  0.03125000       0.006
   0.09375000  0.09375000  0.03125000       0.006
   0.15625000  0.09375000  0.03125000       0.012
   0.21875000  0.09375000  0.03125000       0.012
   0.28125000  0.09375000  0.03125000       0.012
   0.34375000  0.09375000  0.03125000       0.012
   0.40625000  0.09375000  0.03125000       0.012
   0.46875000  0.09375000  0.03125000       0.012
   0.15625000  0.15625000  0.03125000       0.006
   0.21875000  0.15625000  0.03125000       0.012
   0.28125000  0.15625000  0.03125000       0.012
   0.34375000  0.15625000  0.03125000       0.012
   0.40625000  0.15625000  0.03125000       0.012
   0.46875000  0.15625000  0.03125000       0.012
   0.21875000  0.21875000  0.03125000       0.006
   0.28125000  0.21875000  0.03125000       0.012
   0.34375000  0.21875000  0.03125000       0.012
   0.40625000  0.21875000  0.03125000       0.012
   0.46875000  0.21875000  0.03125000       0.012
   0.28125000  0.28125000  0.03125000       0.006
   0.34375000  0.28125000  0.03125000       0.012
   0.40625000  0.28125000  0.03125000       0.012
   0.46875000  0.28125000  0.03125000       0.012
   0.34375000  0.34375000  0.03125000       0.006
   0.40625000  0.34375000  0.03125000       0.012
   0.46875000  0.34375000  0.03125000       0.012
   0.40625000  0.40625000  0.03125000       0.006
   0.46875000  0.40625000  0.03125000       0.012
   0.46875000  0.46875000  0.03125000       0.006
   0.09375000  0.09375000  0.09375000       0.002
   0.15625000  0.09375000  0.09375000       0.006
   0.21875000  0.09375000  0.09375000       0.006
   0.28125000  0.09375000  0.09375000       0.006
   0.34375000  0.09375000  0.09375000       0.006
   0.40625000  0.09375000  0.09375000       0.006
   0.46875000  0.09375000  0.09375000       0.006
   0.15625000  0.15625000  0.09375000       0.006
   0.21875000  0.15625000  0.09375000       0.012
   0.28125000  0.15625000  0.09375000       0.012
   0.34375000  0.15625000  0.09375000       0.012
   0.40625000  0.15625000  0.09375000       0.012
   0.46875000  0.15625000  0.09375000       0.012
   0.21875000  0.21875000  0.09375000       0.006
   0.28125000  0.21875000  0.09375000       0.012
   0.34375000  0.21875000  0.09375000       0.012
   0.40625000  0.21875000  0.09375000       0.012
   0.46875000  0.21875000  0.09375000       0.012
   0.28125000  0.28125000  0.09375000       0.006
   0.34375000  0.28125000  0.09375000       0.012
   0.40625000  0.28125000  0.09375000       0.012
   0.46875000  0.28125000  0.09375000       0.012
   0.34375000  0.34375000  0.09375000       0.006
   0.40625000  0.34375000  0.09375000       0.012
   0.46875000  0.34375000  0.09375000       0.012
   0.40625000  0.40625000  0.09375000       0.006
   0.46875000  0.40625000  0.09375000       0.012
   0.46875000  0.46875000  0.09375000       0.006
   0.15625000  0.15625000  0.15625000       0.002
   0.21875000  0.15625000  0.15625000       0.006
   0.28125000  0.15625000  0.15625000       0.006
   0.34375000  0.15625000  0.15625000       0.006
   0.40625000  0.15625000  0.15625000       0.006
   0.46875000  0.15625000  0.15625000       0.006
   0.21875000  0.21875000  0.15625000       0.006
   0.28125000  0.21875000  0.15625000       0.012
   0.34375000  0.21875000  0.15625000       0.012
   0.40625000  0.21875000  0.15625000       0.012
   0.46875000  0.21875000  0.15625000       0.012
   0.28125000  0.28125000  0.15625000       0.006
   0.34375000  0.28125000  0.15625000       0.012
   0.40625000  0.28125000  0.15625000       0.012
   0.46875000  0.28125000  0.15625000       0.012
   0.34375000  0.34375000  0.15625000       0.006
   0.40625000  0.34375000  0.15625000       0.012
   0.46875000  0.34375000  0.15625000       0.012
   0.40625000  0.40625000  0.15625000       0.006
   0.46875000  0.40625000  0.15625000       0.012
   0.46875000  0.46875000  0.15625000       0.006
   0.21875000  0.21875000  0.21875000       0.002
   0.28125000  0.21875000  0.21875000       0.006
   0.34375000  0.21875000  0.21875000       0.006
   0.40625000  0.21875000  0.21875000       0.006
   0.46875000  0.21875000  0.21875000       0.006
   0.28125000  0.28125000  0.21875000       0.006
   0.34375000  0.28125000  0.21875000       0.012
   0.40625000  0.28125000  0.21875000       0.012
   0.46875000  0.28125000  0.21875000       0.012
   0.34375000  0.34375000  0.21875000       0.006
   0.40625000  0.34375000  0.21875000       0.012
   0.46875000  0.34375000  0.21875000       0.012
   0.40625000  0.40625000  0.21875000       0.006
   0.46875000  0.40625000  0.21875000       0.012
   0.46875000  0.46875000  0.21875000       0.006
   0.28125000  0.28125000  0.28125000       0.002
   0.34375000  0.28125000  0.28125000       0.006
   0.40625000  0.28125000  0.28125000       0.006
   0.46875000  0.28125000  0.28125000       0.006
   0.34375000  0.34375000  0.28125000       0.006
   0.40625000  0.34375000  0.28125000       0.012
   0.46875000  0.34375000  0.28125000       0.012
   0.40625000  0.40625000  0.28125000       0.006
   0.46875000  0.40625000  0.28125000       0.012
   0.46875000  0.46875000  0.28125000       0.006
   0.34375000  0.34375000  0.34375000       0.002
   0.40625000  0.34375000  0.34375000       0.006
   0.46875000  0.34375000  0.34375000       0.006
   0.40625000  0.40625000  0.34375000       0.006
   0.46875000  0.40625000  0.34375000       0.012
   0.46875000  0.46875000  0.34375000       0.006
   0.40625000  0.40625000  0.40625000       0.002
   0.46875000  0.40625000  0.40625000       0.006
   0.46875000  0.46875000  0.40625000       0.006
   0.46875000  0.46875000  0.46875000       0.002
 
 position of ions in fractional coordinates (direct lattice) 
   0.00000000  0.00000000  0.00000000
   0.50000000  0.50000000  0.50000000
 
 position of ions in cartesian coordinates  (Angst):
   0.00000000  0.00000000  0.00000000
   1.65040000  1.65040000  1.65040000
 


--------------------------------------------------------------------------------------------------------


 k-point  1 :   0.0312 0.0312 0.0312  plane waves:     440
 k-point  2 :   0.0938 0.0312 0.0312  plane waves:     442
 k-point  3 :   0.1563 0.0312 0.0312  plane waves:     436
 k-point  4 :   0.2188 0.0312 0.0312  plane waves:     431
 k-point  5 :   0.2812 0.0312 0.0312  plane waves:     426
 k-point  6 :   0.3438 0.0312 0.0312  plane waves:     428
 k-point  7 :   0.4063 0.0312 0.0312  plane waves:     426
 k-point  8 :   0.4688 0.0312 0.0312  plane waves:     418
 k-point  9 :   0.0938 0.0938 0.0312  plane waves:     435
 k-point 10 :   0.1563 0.0938 0.0312  plane waves:     432
 k-point 11 :   0.2188 0.0938 0.0312  plane waves:     430
 k-point 12 :   0.2812 0.0938 0.0312  plane waves:     428
 k-point 13 :   0.3438 0.0938 0.0312  plane waves:     427
 k-point 14 :   0.4063 0.0938 0.0312  plane waves:     426
 k-point 15 :   0.4688 0.0938 0.0312  plane waves:     429
 k-point 16 :   0.1563 0.1563 0.0312  plane waves:     425
 k-point 17 :   0.2188 0.1563 0.0312  plane waves:     425
 k-point 18 :   0.2812 0.1563 0.0312  plane waves:     428
 k-point 19 :   0.3438 0.1563 0.0312  plane waves:     427
 k-point 20 :   0.4063 0.1563 0.0312  plane waves:     429
 k-point 21 :   0.4688 0.1563 0.0312  plane waves:     429
 k-point 22 :   0.2188 0.2188 0.0312  plane waves:     422
 k-point 23 :   0.2812 0.2188 0.0312  plane waves:     424
 k-point 24 :   0.3438 0.2188 0.0312  plane waves:     424
 k-point 25 :   0.4063 0.2188 0.0312  plane waves:     425
 k-point 26 :   0.4688 0.2188 0.0312  plane waves:     429
 k-point 27 :   0.2812 0.2812 0.0312  plane waves:     422
 k-point 28 :   0.3438 0.2812 0.0312  plane waves:     419
 k-point 29 :   0.4063 0.2812 0.0312  plane waves:     421
 k-point 30 :   0.4688 0.2812 0.0312  plane waves:     424
 k-point 31 :   0.3438 0.3438 0.0312  plane waves:     417
 k-point 32 :   0.4063 0.3438 0.0312  plane waves:     417
 k-point 33 :   0.4688 0.3438 0.0312  plane waves:     420
 k-point 34 :   0.4063 0.4063 0.0312  plane waves:     418
 k-point 35 :   0.4688 0.4063 0.0312  plane waves:     415
 k-point 36 :   0.4688 0.4688 0.0312  plane waves:     417
 k-point 37 :   0.0938 0.0938 0.0938  plane waves:     437
 k-point 38 :   0.1563 0.0938 0.0938  plane waves:     433
 k-point 39 :   0.2188 0.0938 0.0938  plane waves:     429
 k-point 40 :   0.2812 0.0938 0.0938  plane waves:     427
 k-point 41 :   0.3438 0.0938 0.0938  plane waves:     428
 k-point 42 :   0.4063 0.0938 0.0938  plane waves:     427
 k-point 43 :   0.4688 0.0938 0.0938  plane waves:     427
 k-point 44 :   0.1563 0.1563 0.0938  plane waves:     429
 k-point 45 :   0.2188 0.1563 0.0938  plane waves:     429
 k-point 46 :   0.2812 0.1563 0.0938  plane waves:     424
 k-point 47 :   0.3438 0.1563 0.0938  plane waves:     426
 k-point 48 :   0.4063 0.1563 0.0938  plane waves:     424
 k-point 49 :   0.4688 0.1563 0.0938  plane waves:     427
 k-point 50 :   0.2188 0.2188 0.0938  plane waves:     425
 k-point 51 :   0.2812 0.2188 0.0938  plane waves:     422
 k-point 52 :   0.3438 0.2188 0.0938  plane waves:     421
 k-point 53 :   0.4063 0.2188 0.0938  plane waves:     424
 k-point 54 :   0.4688 0.2188 0.0938  plane waves:     426
 k-point 55 :   0.2812 0.2812 0.0938  plane waves:     418
 k-point 56 :   0.3438 0.2812 0.0938  plane waves:     419
 k-point 57 :   0.4063 0.2812 0.0938  plane waves:     423
 k-point 58 :   0.4688 0.2812 0.0938  plane waves:     424
 k-point 59 :   0.3438 0.3438 0.0938  plane waves:     419
 k-point 60 :   0.4063 0.3438 0.0938  plane waves:     420
 k-point 61 :   0.4688 0.3438 0.0938  plane waves:     418
 k-point 62 :   0.4063 0.4063 0.0938  plane waves:     419
 k-point 63 :   0.4688 0.4063 0.0938  plane waves:     421
 k-point 64 :   0.4688 0.4688 0.0938  plane waves:     416
 k-point 65 :   0.1563 0.1563 0.1563  plane waves:     428
 k-point 66 :   0.2188 0.1563 0.1563  plane waves:     424
 k-point 67 :   0.2812 0.1563 0.1563  plane waves:     422
 k-point 68 :   0.3438 0.1563 0.1563  plane waves:     427
 k-point 69 :   0.4063 0.1563 0.1563  plane waves:     426
 k-point 70 :   0.4688 0.1563 0.1563  plane waves:     424
 k-point 71 :   0.2188 0.2188 0.1563  plane waves:     423
 k-point 72 :   0.2812 0.2188 0.1563  plane waves:     423
 k-point 73 :   0.3438 0.2188 0.1563  plane waves:     423
 k-point 74 :   0.4063 0.2188 0.1563  plane waves:     427
 k-point 75 :   0.4688 0.2188 0.1563  plane waves:     427
 k-point 76 :   0.2812 0.2812 0.1563  plane waves:     420
 k-point 77 :   0.3438 0.2812 0.1563  plane waves:     419
 k-point 78 :   0.4063 0.2812 0.1563  plane waves:     424
 k-point 79 :   0.4688 0.2812 0.1563  plane waves:     423
 k-point 80 :   0.3438 0.3438 0.1563  plane waves:     419
 k-point 81 :   0.4063 0.3438 0.1563  plane waves:     421
 k-point 82 :   0.4688 0.3438 0.1563  plane waves:     421
 k-point 83 :   0.4063 0.4063 0.1563  plane waves:     422
 k-point 84 :   0.4688 0.4063 0.1563  plane waves:     420
 k-point 85 :   0.4688 0.4688 0.1563  plane waves:     419
 k-point 86 :   0.2188 0.2188 0.2188  plane waves:     425
 k-point 87 :   0.2812 0.2188 0.2188  plane waves:     423
 k-point 88 :   0.3438 0.2188 0.2188  plane waves:     424
 k-point 89 :   0.4063 0.2188 0.2188  plane waves:     425
 k-point 90 :   0.4688 0.2188 0.2188  plane waves:     430
 k-point 91 :   0.2812 0.2812 0.2188  plane waves:     426
 k-point 92 :   0.3438 0.2812 0.2188  plane waves:     424
 k-point 93 :   0.4063 0.2812 0.2188  plane waves:     426
 k-point 94 :   0.4688 0.2812 0.2188  plane waves:     425
 k-point 95 :   0.3438 0.3438 0.2188  plane waves:     425
 k-point 96 :   0.4063 0.3438 0.2188  plane waves:     424
 k-point 97 :   0.4688 0.3438 0.2188  plane waves:     421
 k-point 98 :   0.4063 0.4063 0.2188  plane waves:     420
 k-point 99 :   0.4688 0.4063 0.2188  plane waves:     420
 k-point ** :   0.4688 0.4688 0.2188  plane waves:     418
 k-point ** :   0.2812 0.2812 0.2812  plane waves:     422
 k-point ** :   0.3438 0.2812 0.2812  plane waves:     427
 k-point ** :   0.4063 0.2812 0.2812  plane waves:     428
 k-point ** :   0.4688 0.2812 0.2812  plane waves:     428
 k-point ** :   0.3438 0.3438 0.2812  plane waves:     422
 k-point ** :   0.4063 0.3438 0.2812  plane waves:     423
 k-point ** :   0.4688 0.3438 0.2812  plane waves:     426
 k-point ** :   0.4063 0.4063 0.2812  plane waves:     426
 k-point ** :   0.4688 0.4063 0.2812  plane waves:     421
 k-point ** :   0.4688 0.4688 0.2812  plane waves:     420
 k-point ** :   0.3438 0.3438 0.3438  plane waves:     426
 k-point ** :   0.4063 0.3438 0.3438  plane waves:     423
 k-point ** :   0.4688 0.3438 0.3438  plane waves:     424
 k-point ** :   0.4063 0.4063 0.3438  plane waves:     428
 k-point ** :   0.4688 0.4063 0.3438  plane waves:     426
 k-point ** :   0.4688 0.4688 0.3438  plane waves:     428
 k-point ** :   0.4063 0.4063 0.4063  plane waves:     429
 k-point ** :   0.4688 0.4063 0.4063  plane waves:     426
 k-point ** :   0.4688 0.4688 0.4063  plane waves:     432
 k-point ** :   0.4688 0.4688 0.4688  plane waves:     432

 maximum and minimum number of plane-waves per node :       442      415

 maximum number of plane-waves:       442
 maximum index in each direction: 
   IXMAX=    4   IYMAX=    4   IZMAX=    4
   IXMIN=   -5   IYMIN=   -5   IZMIN=   -5


 serial   3D FFT for wavefunctions
 parallel 3D FFT for charge:
    minimum data exchange during FFTs selected (reduces bandwidth)


 total amount of memory used by VASP MPI-rank0    39567. kBytes
=======================================================================

   base      :      30000. kBytes
   nonl-proj :       8309. kBytes
   fftplans  :         79. kBytes
   grid      :        150. kBytes
   one-center:         31. kBytes
   wavefun   :        998. kBytes
 
     INWAV:  cpu time    0.0000: real time    0.0000
 Broyden mixing: mesh for mixing (old mesh)
   NGX =  9   NGY =  9   NGZ =  9
  (NGX  = 28   NGY  = 28   NGZ  = 28)
  gives a total of    729 points

 initial charge density was supplied:
 charge density of overlapping atoms calculated
 number of electron      22.0000000 magnetization 
 keeping initial charge density in first step


--------------------------------------------------------------------------------------------------------


 Maximum index for augmentation-charges          341 (set IRDMAX)


--------------------------------------------------------------------------------------------------------


 First call to EWALD:  gamma=   0.537
 Maximum number of real-space cells 3x 3x 3
 Maximum number of reciprocal cells 3x 3x 3

    FEWALD:  cpu time    0.0591: real time    0.0598


--------------------------------------- Iteration      1(   1)  ---------------------------------------


    POTLOK:  cpu time    0.2823: real time    0.3084
    SETDIJ:  cpu time    0.0415: real time    0.0421
     EDDAV:  cpu time    5.2565: real time    5.3052
 BZINTS: Fermi energy:  6.900465; 22.000000 electrons
         Band energy:-231.155475;  BLOECHL correction: -0.161849
       DOS:  cpu time    0.1540: real time    0.1574
    --------------------------------------------
      LOOP:  cpu time    5.7342: real time    5.8131

 eigenvalue-minimisations  : 10160
 total energy-change (2. order) :-0.3518239E+01  (-0.1103072E+04)
 number of electron      22.0000000 magnetization 
 augmentation part       22.0000000 magnetization 

 Free energy of the ion-electron system (eV)
  ---------------------------------------------------
  alpha Z        PSCENC =       249.60523850
  Ewald energy   TEWEN  =     -1921.02116984
  -Hartree energ DENC   =      -271.93837114
  -exchange      EXHF   =         0.00000000
  -V(xc)+E(xc)   XCENC  =        54.59193041
  PAW double counting   =      1667.18158126    -1643.50825161
  entropy T*S    EENTRO =         0.00000000
  eigenvalues    EBANDS =      -231.15547540
  atomic energy  EATOM  =      2092.72627849
  Solvation  Ediel_sol  =         0.00000000
  ---------------------------------------------------
  free energy    TOTEN  =        -3.51823934 eV

  energy without entropy =       -3.51823934  energy(sigma->0) =       -3.51823934


--------------------------------------------------------------------------------------------------------




--------------------------------------- Iteration      1(   2)  ---------------------------------------


     EDDAV:  cpu time    5.9935: real time    6.0119
 BZINTS: Fermi energy:  5.355871; 22.000000 electrons
         Band energy:-250.983481;  BLOECHL correction: -0.053353
       DOS:  cpu time    0.1504: real time    0.1507
    --------------------------------------------
      LOOP:  cpu time    6.1438: real time    6.1626

 eigenvalue-minimisations  : 12480
 total energy-change (2. order) :-0.1982801E+02  (-0.1945547E+02)
 number of electron      22.0000000 magnetization 
 augmentation part       22.0000000 magnetization 

 Free energy of the ion-electron system (eV)
  ---------------------------------------------------
  alpha Z        PSCENC =       249.60523850
  Ewald energy   TEWEN  =     -1921.02116984
  -Hartree energ DENC   =      -271.93837114
  -exchange      EXHF   =         0.00000000
  -V(xc)+E(xc)   XCENC  =        54.59193041
  PAW double counting   =      1667.18158126    -1643.50825161
  entropy T*S    EENTRO =         0.00000000
  eigenvalues    EBANDS =      -250.98348105
  atomic energy  EATOM  =      2092.72627849
  Solvation  Ediel_sol  =         0.00000000
  ---------------------------------------------------
  free energy    TOTEN  =       -23.34624499 eV

  energy without entropy =      -23.34624499  energy(sigma->0) =      -23.34624499


--------------------------------------------------------------------------------------------------------




--------------------------------------- Iteration      1(   3)  ---------------------------------------


     EDDAV:  cpu time    7.1880: real time    7.2145
 BZINTS: Fermi energy:  5.353831; 22.000000 electrons
         Band energy:-251.006788;  BLOECHL correction: -0.053244
       DOS:  cpu time    0.1464: real time    0.1467
    --------------------------------------------
      LOOP:  cpu time    7.3343: real time    7.3612

 eigenvalue-minimisations  : 12360
 total energy-change (2. order) :-0.2330657E-01  (-0.2337395E-01)
 number of electron      22.0000000 magnetization 
 augmentation part       22.0000000 magnetization 

 Free energy of the ion-electron system (eV)
  ---------------------------------------------------
  alpha Z        PSCENC =       249.60523850
  Ewald energy   TEWEN  =     -1921.02116984
  -Hartree energ DENC   =      -271.93837114
  -exchange      EXHF   =         0.00000000
  -V(xc)+E(xc)   XCENC  =        54.59193041
  PAW double counting   =      1667.18158126    -1643.50825161
  entropy T*S    EENTRO =         0.00000000
  eigenvalues    EBANDS =      -251.00678762
  atomic energy  EATOM  =      2092.72627849
  Solvation  Ediel_sol  =         0.00000000
  ---------------------------------------------------
  free energy    TOTEN  =       -23.36955156 eV

  energy without entropy =      -23.36955156  energy(sigma->0) =      -23.36955156


--------------------------------------------------------------------------------------------------------




--------------------------------------- Iteration      1(   4)  ---------------------------------------


     EDDAV:  cpu time   10.3236: real time   10.3873
 BZINTS: Fermi energy:  5.353831; 22.000000 electrons
         Band energy:-251.006794;  BLOECHL correction: -0.053244
       DOS:  cpu time    0.1462: real time    0.1465
    --------------------------------------------
      LOOP:  cpu time   10.4697: real time   10.5338

 eigenvalue-minimisations  : 16000
 total energy-change (2. order) :-0.6329046E-05  (-0.6347422E-05)
 number of electron      22.0000000 magnetization 
 augmentation part       22.0000000 magnetization 

 Free energy of the ion-electron system (eV)
  ---------------------------------------------------
  alpha Z        PSCENC =       249.60523850
  Ewald energy   TEWEN  =     -1921.02116984
  -Hartree energ DENC   =      -271.93837114
  -exchange      EXHF   =         0.00000000
  -V(xc)+E(xc)   XCENC  =        54.59193041
  PAW double counting   =      1667.18158126    -1643.50825161
  entropy T*S    EENTRO =         0.00000000
  eigenvalues    EBANDS =      -251.00679395
  atomic energy  EATOM  =      2092.72627849
  Solvation  Ediel_sol  =         0.00000000
  ---------------------------------------------------
  free energy    TOTEN  =       -23.36955789 eV

  energy without entropy =      -23.36955789  energy(sigma->0) =      -23.36955789


--------------------------------------------------------------------------------------------------------




--------------------------------------- Iteration      1(   5)  ---------------------------------------


     EDDAV:  cpu time    6.8623: real time    6.8851
 BZINTS: Fermi energy:  5.353831; 22.000000 electrons
         Band energy:-251.006794;  BLOECHL correction: -0.053244
       DOS:  cpu time    0.1504: real time    0.1508
    CHARGE:  cpu time    0.5047: real time    0.5098
    MIXING:  cpu time    0.0803: real time    0.0849
    --------------------------------------------
      LOOP:  cpu time    7.5978: real time    7.6305

 eigenvalue-minimisations  : 12480
 total energy-change (2. order) : 0.1155058E-09  (-0.8389572E-11)
 number of electron      22.0000103 magnetization 
 augmentation part        7.7773164 magnetization 

 Broyden mixing:
  rms(total) = 0.25744E+01    rms(broyden)= 0.25743E+01
  rms(prec ) = 0.29636E+01
  weight for this iteration     100.00

 Free energy of the ion-electron system (eV)
  ---------------------------------------------------
  alpha Z        PSCENC =       249.60523850
  Ewald energy   TEWEN  =     -1921.02116984
  -Hartree energ DENC   =      -271.93837114
  -exchange      EXHF   =         0.00000000
  -V(xc)+E(xc)   XCENC  =        54.59193041
  PAW double counting   =      1667.18158126    -1643.50825161
  entropy T*S    EENTRO =         0.00000000
  eigenvalues    EBANDS =      -251.00679395
  atomic energy  EATOM  =      2092.72627849
  Solvation  Ediel_sol  =         0.00000000
  ---------------------------------------------------
  free energy    TOTEN  =       -23.36955789 eV

  energy without entropy =      -23.36955789  energy(sigma->0) =      -23.36955789


--------------------------------------------------------------------------------------------------------




--------------------------------------- Iteration      1(   6)  ---------------------------------------


    POTLOK:  cpu time    0.4066: real time    0.4080
    SETDIJ:  cpu time    0.0040: real time    0.0040
     EDDAV:  cpu time    8.9855: real time   11.2038
 BZINTS: Fermi energy:  5.045004; 22.000000 electrons
         Band energy:-264.404957;  BLOECHL correction: -0.052336
       DOS:  cpu time    0.1514: real time    0.1520
    CHARGE:  cpu time    0.6284: real time    0.6302
    MIXING:  cpu time    0.0213: real time    0.0230
    --------------------------------------------
      LOOP:  cpu time   10.1973: real time   12.4210

 eigenvalue-minimisations  : 16360
 total energy-change (2. order) : 0.8823987E+00  (-0.1346467E+00)
 number of electron      22.0000104 magnetization 
 augmentation part        7.9471053 magnetization 

 Broyden mixing:
  rms(total) = 0.11555E+01    rms(broyden)= 0.11555E+01
  rms(prec ) = 0.13126E+01
  weight for this iteration     100.00

 eigenvalues of (default mixing * dielectric matrix)
  average eigenvalue GAMMA=   1.8112
  1.8112

 Free energy of the ion-electron system (eV)
  ---------------------------------------------------
  alpha Z        PSCENC =       249.60523850
  Ewald energy   TEWEN  =     -1921.02116984
  -Hartree energ DENC   =      -253.16798422
  -exchange      EXHF   =         0.00000000
  -V(xc)+E(xc)   XCENC  =        53.56766385
  PAW double counting   =      2226.11612002    -2205.90834894
  entropy T*S    EENTRO =         0.00000000
  eigenvalues    EBANDS =      -264.40495702
  atomic energy  EATOM  =      2092.72627849
  Solvation  Ediel_sol  =         0.00000000
  ---------------------------------------------------
  free energy    TOTEN  =       -22.48715916 eV

  energy without entropy =      -22.48715916  energy(sigma->0) =      -22.48715916


--------------------------------------------------------------------------------------------------------




--------------------------------------- Iteration      1(   7)  ---------------------------------------


    POTLOK:  cpu time    0.1778: real time    0.2383
    SETDIJ:  cpu time    0.0546: real time    0.0547
     EDDAV:  cpu time    7.2839: real time    7.3106
 BZINTS: Fermi energy:  4.818888; 22.000000 electrons
         Band energy:-273.806422;  BLOECHL correction: -0.051685
       DOS:  cpu time    0.1321: real time    0.1324
    CHARGE:  cpu time    0.0043: real time    0.0044
    MIXING:  cpu time    0.0002: real time    0.0002
    --------------------------------------------
      LOOP:  cpu time    7.6530: real time    7.7408

 eigenvalue-minimisations  : 15720
 total energy-change (2. order) : 0.2088906E+00  (-0.7035794E-01)
 number of electron      22.0000104 magnetization 
 augmentation part        8.0702022 magnetization 

 Broyden mixing:
  rms(total) = 0.82840E-01    rms(broyden)= 0.82811E-01
  rms(prec ) = 0.10586E+00
  weight for this iteration     100.00

 eigenvalues of (default mixing * dielectric matrix)
  average eigenvalue GAMMA=   2.0611
  1.6078  2.5145

 Free energy of the ion-electron system (eV)
  ---------------------------------------------------
  alpha Z        PSCENC =       249.60523850
  Ewald energy   TEWEN  =     -1921.02116984
  -Hartree energ DENC   =      -239.78640738
  -exchange      EXHF   =         0.00000000
  -V(xc)+E(xc)   XCENC  =        52.84916308
  PAW double counting   =      2838.22985191    -2821.07480118
  entropy T*S    EENTRO =         0.00000000
  eigenvalues    EBANDS =      -273.80642215
  atomic energy  EATOM  =      2092.72627849
  Solvation  Ediel_sol  =         0.00000000
  ---------------------------------------------------
  free energy    TOTEN  =       -22.27826857 eV

  energy without entropy =      -22.27826857  energy(sigma->0) =      -22.27826857


--------------------------------------------------------------------------------------------------------




--------------------------------------- Iteration      1(   8)  ---------------------------------------


    POTLOK:  cpu time    0.0012: real time    0.0060
    SETDIJ:  cpu time    0.0014: real time    0.0014
     EDDAV:  cpu time    1.9933: real time    2.0069
 BZINTS: Fermi energy:  4.841071; 22.000000 electrons
         Band energy:-272.770634;  BLOECHL correction: -0.051833
       DOS:  cpu time    0.1467: real time    0.1474
    CHARGE:  cpu time    0.0040: real time    0.0041
    MIXING:  cpu time    0.0002: real time    0.0002
    --------------------------------------------
      LOOP:  cpu time    2.1470: real time    2.1660

 eigenvalue-minimisations  : 13360
 total energy-change (2. order) : 0.6656015E-02  (-0.9348416E-03)
 number of electron      22.0000104 magnetization 
 augmentation part        8.0592383 magnetization 

 Broyden mixing:
  rms(total) = 0.45865E-02    rms(broyden)= 0.45827E-02
  rms(prec ) = 0.52140E-02
  weight for this iteration     100.00

 eigenvalues of (default mixing * dielectric matrix)
  average eigenvalue GAMMA=   1.7436
  1.0521  1.6251  2.5537

 Free energy of the ion-electron system (eV)
  ---------------------------------------------------
  alpha Z        PSCENC =       249.60523850
  Ewald energy   TEWEN  =     -1921.02116984
  -Hartree energ DENC   =      -240.19128172
  -exchange      EXHF   =         0.00000000
  -V(xc)+E(xc)   XCENC  =        52.87056564
  PAW double counting   =      2994.36829299    -2977.85890212
  entropy T*S    EENTRO =         0.00000000
  eigenvalues    EBANDS =      -272.77063449
  atomic energy  EATOM  =      2092.72627849
  Solvation  Ediel_sol  =         0.00000000
  ---------------------------------------------------
  free energy    TOTEN  =       -22.27161256 eV

  energy without entropy =      -22.27161256  energy(sigma->0) =      -22.27161256


--------------------------------------------------------------------------------------------------------




--------------------------------------- Iteration      1(   9)  ---------------------------------------


    POTLOK:  cpu time    0.0012: real time    0.0060
    SETDIJ:  cpu time    0.0014: real time    0.0014
     EDDAV:  cpu time    1.8310: real time    1.8528
 BZINTS: Fermi energy:  4.839589; 22.000000 electrons
         Band energy:-272.831324;  BLOECHL correction: -0.051830
       DOS:  cpu time    0.1428: real time    0.1435
    CHARGE:  cpu time    0.0040: real time    0.0040
    MIXING:  cpu time    0.0003: real time    0.0003
    --------------------------------------------
      LOOP:  cpu time    1.9807: real time    2.0080

 eigenvalue-minimisations  : 12560
 total energy-change (2. order) : 0.1193479E-04  (-0.3118801E-05)
 number of electron      22.0000104 magnetization 
 augmentation part        8.0599887 magnetization 

 Broyden mixing:
  rms(total) = 0.12746E-02    rms(broyden)= 0.12739E-02
  rms(prec ) = 0.27231E-02
  weight for this iteration     100.00

 eigenvalues of (default mixing * dielectric matrix)
  average eigenvalue GAMMA=   1.8799
  1.0074  1.6066  2.4528  2.4528

 Free energy of the ion-electron system (eV)
  ---------------------------------------------------
  alpha Z        PSCENC =       249.60523850
  Ewald energy   TEWEN  =     -1921.02116984
  -Hartree energ DENC   =      -240.17799330
  -exchange      EXHF   =         0.00000000
  -V(xc)+E(xc)   XCENC  =        52.86996512
  PAW double counting   =      2997.44672368    -2980.88931950
  entropy T*S    EENTRO =         0.00000000
  eigenvalues    EBANDS =      -272.83132377
  atomic energy  EATOM  =      2092.72627849
  Solvation  Ediel_sol  =         0.00000000
  ---------------------------------------------------
  free energy    TOTEN  =       -22.27160062 eV

  energy without entropy =      -22.27160062  energy(sigma->0) =      -22.27160062


--------------------------------------------------------------------------------------------------------




--------------------------------------- Iteration      1(  10)  ---------------------------------------


    POTLOK:  cpu time    0.0012: real time    0.0059
    SETDIJ:  cpu time    0.0014: real time    0.0014
     EDDAV:  cpu time    2.7450: real time    2.7531
 BZINTS: Fermi energy:  4.839344; 22.000000 electrons
         Band energy:-272.840410;  BLOECHL correction: -0.051826
       DOS:  cpu time    0.1319: real time    0.1322
    CHARGE:  cpu time    0.0043: real time    0.0043
    MIXING:  cpu time    0.0003: real time    0.0003
    --------------------------------------------
      LOOP:  cpu time    2.8840: real time    2.8972

 eigenvalue-minimisations  : 16320
 total energy-change (2. order) : 0.4825812E-05  (-0.3409533E-06)
 number of electron      22.0000104 magnetization 
 augmentation part        8.0600575 magnetization 

 Broyden mixing:
  rms(total) = 0.25174E-03    rms(broyden)= 0.25170E-03
  rms(prec ) = 0.28686E-03
  weight for this iteration     100.00

 eigenvalues of (default mixing * dielectric matrix)
  average eigenvalue GAMMA=   1.9554
  0.9984  1.6150  2.5274  2.3181  2.3181

 Free energy of the ion-electron system (eV)
  ---------------------------------------------------
  alpha Z        PSCENC =       249.60523850
  Ewald energy   TEWEN  =     -1921.02116984
  -Hartree energ DENC   =      -240.24236961
  -exchange      EXHF   =         0.00000000
  -V(xc)+E(xc)   XCENC  =        52.87348884
  PAW double counting   =      2998.00510652    -2981.37775896
  entropy T*S    EENTRO =         0.00000000
  eigenvalues    EBANDS =      -272.84040973
  atomic energy  EATOM  =      2092.72627849
  Solvation  Ediel_sol  =         0.00000000
  ---------------------------------------------------
  free energy    TOTEN  =       -22.27159580 eV

  energy without entropy =      -22.27159580  energy(sigma->0) =      -22.27159580


--------------------------------------------------------------------------------------------------------




--------------------------------------- Iteration      1(  11)  ---------------------------------------


    POTLOK:  cpu time    0.0055: real time    0.0060
    SETDIJ:  cpu time    0.0014: real time    0.0014
     EDDAV:  cpu time    1.6037: real time    1.6085
 BZINTS: Fermi energy:  4.839259; 22.000000 electrons
         Band energy:-272.843682;  BLOECHL correction: -0.051826
       DOS:  cpu time    0.1469: real time    0.1473
    --------------------------------------------
      LOOP:  cpu time    1.7575: real time    1.7631

 eigenvalue-minimisations  : 11480
 total energy-change (2. order) : 0.1425769E-07  (-0.6336117E-08)
 number of electron      22.0000104 magnetization 
 augmentation part        8.0600575 magnetization 

 Free energy of the ion-electron system (eV)
  ---------------------------------------------------
  alpha Z        PSCENC =       249.60523850
  Ewald energy   TEWEN  =     -1921.02116984
  -Hartree energ DENC   =      -240.24001886
  -exchange      EXHF   =         0.00000000
  -V(xc)+E(xc)   XCENC  =        52.87337562
  PAW double counting   =      2997.95225258    -2981.32387073
  entropy T*S    EENTRO =         0.00000000
  eigenvalues    EBANDS =      -272.84368154
  atomic energy  EATOM  =      2092.72627849
  Solvation  Ediel_sol  =         0.00000000
  ---------------------------------------------------
  free energy    TOTEN  =       -22.27159578 eV

  energy without entropy =      -22.27159578  energy(sigma->0) =      -22.27159578


--------------------------------------------------------------------------------------------------------




 average (electrostatic) potential at core
  the test charge radii are     1.2165
  (the norm of the test charge is              1.0000)
       1 -34.9059       2 -34.9059
 
 
 
 E-fermi :   4.8393     XC(G=0): -12.6480     alpha+bet :-12.9149


 k-point     1 :       0.0312    0.0312    0.0312
  band No.  band energies     occupation 
      1     -25.6399      2.00000
      2     -25.6399      2.00000
      3     -25.6209      2.00000
      4     -24.7155      2.00000
      5     -24.6939      2.00000
      6     -24.6939      2.00000
      7      -1.0265      2.00000
      8       1.1224      2.00000
      9       1.1224      2.00000
     10       5.1401      0.00000
     11       5.1401      0.00000
     12       5.2370      0.00000
     13       8.0436      0.00000
     14       8.0436      0.00000
     15      10.0800      0.00000
     16      10.3779      0.00000
     17      10.3779      0.00000
     18      14.3104      0.00000
     19      14.3104      0.00000
     20      14.4484      0.00000
     21      20.4452      0.00000
     22      20.5270      0.00000
     23      20.5270      0.00000
     24      23.5469      0.00000
     25      25.8687      0.00000
     26      25.8687      0.00000
     27      30.0937      0.00000
     28      30.0937      0.00000
     29      30.1418      0.00000
     30      33.8888      0.00000
     31      34.7053      0.00000
     32      34.7053      0.00000
     33      40.7044      0.00000
     34      40.9806      0.00000
     35      40.9806      0.00000
     36      41.2110      0.00000
     37      41.6761      0.00000
     38      41.9838      0.00000
     39      41.9838      0.00000
     40      42.2227      0.00000

 k-point     2 :       0.0938    0.0312    0.0312
  band No.  band energies     occupation 
      1     -25.6522      2.00000
      2     -25.6212      2.00000
      3     -25.5925      2.00000
      4     -24.7643      2.00000
      5     -24.7115      2.00000
      6     -24.7022      2.00000
      7      -0.8645      2.00000
      8       1.2101      2.00000
      9       1.2635      2.00000
     10       5.0802     -0.03299
     11       5.1214      0.00000
     12       5.3583      0.00000
     13       7.8194      0.00000
     14       8.1297      0.00000
     15       9.4931      0.00000
     16       9.8454      0.00000
     17      10.3628      0.00000
     18      13.8737      0.00000
     19      15.0182      0.00000
     20      15.0635      0.00000
     21      20.6055      0.00000
     22      20.7927      0.00000
     23      20.8309      0.00000
     24      23.9083      0.00000
     25      25.7669      0.00000
     26      25.7890      0.00000
     27      28.6533      0.00000
     28      30.3651      0.00000
     29      30.3691      0.00000
     30      33.4320      0.00000
     31      34.4036      0.00000
     32      35.9253      0.00000
     33      40.2377      0.00000
     34      40.2571      0.00000
     35      40.7264      0.00000
     36      40.8169      0.00000
     37      41.0723      0.00000
     38      41.9095      0.00000
     39      41.9544      0.00000
     40      42.5457      0.00000

 k-point     3 :       0.1563    0.0312    0.0312
  band No.  band energies     occupation 
      1     -25.6597      2.00000
      2     -25.5846      2.00000
      3     -25.5514      2.00000
      4     -24.8444      2.00000
      5     -24.7459      2.00000
      6     -24.7312      2.00000
      7      -0.5511      2.00000
      8       1.3853      2.00000
      9       1.5266      2.00000
     10       5.0371     -0.13536
     11       5.0959     -0.01111
     12       5.5347      0.00000
     13       7.4063      0.00000
     14       8.2935      0.00000
     15       8.7693      0.00000
     16       9.1040      0.00000
     17      10.1375      0.00000
     18      13.1251      0.00000
     19      16.0814      0.00000
     20      16.1074      0.00000
     21      20.9521      0.00000
     22      21.2992      0.00000
     23      21.3564      0.00000
     24      23.8801      0.00000
     25      25.6368      0.00000
     26      26.2401      0.00000
     27      26.8071      0.00000
     28      30.7939      0.00000
     29      30.8947      0.00000
     30      32.8421      0.00000
     31      33.8144      0.00000
     32      36.9270      0.00000
     33      39.0167      0.00000
     34      39.6446      0.00000
     35      39.9105      0.00000
     36      40.4213      0.00000
     37      40.5086      0.00000
     38      41.5871      0.00000
     39      42.1057      0.00000
     40      42.7800      0.00000

 k-point     4 :       0.2188    0.0312    0.0312
  band No.  band energies     occupation 
      1     -25.6605      2.00000
      2     -25.5315      2.00000
      3     -25.4966      2.00000
      4     -24.9494      2.00000
      5     -24.7960      2.00000
      6     -24.7777      2.00000
      7      -0.1077      2.00000
      8       1.6454      2.00000
      9       1.8718      2.00000
     10       5.0222     -0.08067
     11       5.0770     -0.02931
     12       5.7720      0.00000
     13       6.8608      0.00000
     14       8.0347      0.00000
     15       8.3420      0.00000
     16       8.5181      0.00000
[...]
     20      16.3102      0.00000
     21      16.8241      0.00000
     22      18.6077      0.00000
     23      18.6214      0.00000
     24      20.2801      0.00000
     25      26.5835      0.00000
     26      27.4740      0.00000
     27      28.0726      0.00000
     28      30.9768      0.00000
     29      32.3857      0.00000
     30      32.7437      0.00000
     31      34.1046      0.00000
     32      34.2276      0.00000
     33      36.6126      0.00000
     34      36.7494      0.00000
     35      37.9361      0.00000
     36      38.1419      0.00000
     37      41.1207      0.00000
     38      41.8096      0.00000
     39      41.8495      0.00000
     40      42.1226      0.00000

 k-point   115 :       0.4688    0.4063    0.3438
  band No.  band energies     occupation 
      1     -25.7484      2.00000
      2     -25.7184      2.00000
      3     -25.4037      2.00000
      4     -25.2932      2.00000
      5     -25.0399      2.00000
      6     -24.9966      2.00000
      7       2.7737      2.00000
      8       2.9528      2.00000
      9       3.3871      2.00000
     10       3.5780      2.00000
     11       4.4468      2.04354
     12       4.5517      2.02774
     13       8.6334      0.00000
     14       8.6498      0.00000
     15       8.8443      0.00000
     16       8.8532      0.00000
     17      14.3457      0.00000
     18      14.8097      0.00000
     19      15.2910      0.00000
     20      15.6886      0.00000
     21      17.3860      0.00000
     22      18.0259      0.00000
     23      18.9105      0.00000
     24      19.5165      0.00000
     25      27.2367      0.00000
     26      27.5758      0.00000
     27      29.1090      0.00000
     28      30.2706      0.00000
     29      32.2955      0.00000
     30      32.9713      0.00000
     31      33.0872      0.00000
     32      33.6702      0.00000
     33      36.6435      0.00000
     34      37.0552      0.00000
     35      37.1553      0.00000
     36      37.5121      0.00000
     37      41.9940      0.00000
     38      42.0080      0.00000
     39      42.4848      0.00000
     40      43.3438      0.00000

 k-point   116 :       0.4688    0.4688    0.3438
  band No.  band energies     occupation 
      1     -25.7261      2.00000
      2     -25.7135      2.00000
      3     -25.3637      2.00000
      4     -25.3170      2.00000
      5     -25.0688      2.00000
      6     -25.0475      2.00000
      7       2.9165      2.00000
      8       3.0477      2.00000
      9       3.2404      2.00000
     10       3.3770      2.00000
     11       4.6531      1.90121
     12       4.6905      1.79642
     13       8.6958      0.00000
     14       8.7035      0.00000
     15       8.8741      0.00000
     16       8.8784      0.00000
     17      14.6993      0.00000
     18      14.9621      0.00000
     19      15.0479      0.00000
     20      15.2827      0.00000
     21      17.7064      0.00000
     22      18.2545      0.00000
     23      18.3090      0.00000
     24      18.8389      0.00000
     25      27.8843      0.00000
     26      28.0578      0.00000
     27      29.7641      0.00000
     28      30.5149      0.00000
     29      31.4284      0.00000
     30      31.9541      0.00000
     31      33.1884      0.00000
     32      33.4238      0.00000
     33      36.2930      0.00000
     34      36.5089      0.00000
     35      36.9521      0.00000
     36      37.1055      0.00000
     37      42.0666      0.00000
     38      42.0790      0.00000
     39      44.0167      0.00000
     40      44.7157      0.00000

 k-point   117 :       0.4063    0.4063    0.4063
  band No.  band energies     occupation 
      1     -25.7229      2.00000
      2     -25.5686      2.00000
      3     -25.5686      2.00000
      4     -25.1804      2.00000
      5     -25.1804      2.00000
      6     -25.0140      2.00000
      7       2.8105      2.00000
      8       3.3761      2.00000
      9       3.3761      2.00000
     10       4.0151      2.00000
     11       4.0926      2.00000
     12       4.0926      2.00000
     13       8.7751      0.00000
     14       8.7751      0.00000
     15       8.7830      0.00000
     16       8.7830      0.00000
     17      14.4284      0.00000
     18      14.8652      0.00000
     19      15.8604      0.00000
     20      16.1636      0.00000
     21      16.1636      0.00000
     22      18.2355      0.00000
     23      18.2355      0.00000
     24      19.6349      0.00000
     25      27.1809      0.00000
     26      28.2687      0.00000
     27      28.2687      0.00000
     28      31.6433      0.00000
     29      32.1168      0.00000
     30      32.1168      0.00000
     31      34.1928      0.00000
     32      34.1928      0.00000
     33      34.8345      0.00000
     34      36.1341      0.00000
     35      36.9337      0.00000
     36      36.9337      0.00000
     37      42.0180      0.00000
     38      42.0795      0.00000
     39      42.9271      0.00000
     40      42.9271      0.00000

 k-point   118 :       0.4688    0.4063    0.4063
  band No.  band energies     occupation 
      1     -25.6762      2.00000
      2     -25.6264      2.00000
      3     -25.4403      2.00000
      4     -25.3092      2.00000
      5     -25.1394      2.00000
      6     -25.0806      2.00000
      7       2.9832      2.00000
      8       3.1989      2.00000
      9       3.5509      2.00000
     10       3.7918      2.00000
     11       4.1984      2.00000
     12       4.2578      2.00000
     13       8.7741      0.00000
     14       8.7798      0.00000
     15       8.8605      0.00000
     16       8.8613      0.00000
     17      14.7748      0.00000
     18      14.8296      0.00000
     19      15.5408      0.00000
     20      15.6708      0.00000
     21      16.9526      0.00000
     22      17.6599      0.00000
     23      18.4059      0.00000
     24      18.9502      0.00000
     25      27.8492      0.00000
     26      28.2417      0.00000
     27      29.4294      0.00000
     28      30.7444      0.00000
     29      32.2636      0.00000
     30      32.6679      0.00000
     31      33.0669      0.00000
     32      33.5387      0.00000
     33      35.0431      0.00000
     34      35.8713      0.00000
     35      36.1222      0.00000
     36      36.3968      0.00000
     37      42.0519      0.00000
     38      42.0655      0.00000
     39      44.1283      0.00000
     40      44.7467      0.00000

 k-point   119 :       0.4688    0.4688    0.4063
  band No.  band energies     occupation 
      1     -25.6196      2.00000
      2     -25.5903      2.00000
      3     -25.4126      2.00000
      4     -25.3389      2.00000
      5     -25.1934      2.00000
      6     -25.1566      2.00000
      7       3.1888      2.00000
      8       3.3828      2.00000
      9       3.4576      2.00000
     10       3.6650      2.00000
     11       4.2377      2.00000
     12       4.2548      2.00000
     13       8.8272      0.00000
     14       8.8298      0.00000
     15       8.8910      0.00000
     16       8.8915      0.00000
     17      14.7218      0.00000
     18      14.7568      0.00000
     19      15.6934      0.00000
     20      15.8391      0.00000
     21      17.1162      0.00000
     22      17.5883      0.00000
     23      17.9776      0.00000
     24      18.3454      0.00000
     25      28.5428      0.00000
     26      28.7894      0.00000
     27      30.0163      0.00000
     28      31.1373      0.00000
     29      31.3266      0.00000
     30      32.1700      0.00000
     31      33.0960      0.00000
     32      33.7196      0.00000
     33      34.3112      0.00000
     34      34.9493      0.00000
     35      35.7102      0.00000
     36      35.7905      0.00000
     37      42.0579      0.00000
     38      42.0611      0.00000
     39      45.7962      0.00000
     40      45.9902      0.00000

 k-point   120 :       0.4688    0.4688    0.4688
  band No.  band energies     occupation 
      1     -25.5241      2.00000
      2     -25.4592      2.00000
      3     -25.4592      2.00000
      4     -25.3252      2.00000
      5     -25.3252      2.00000
      6     -25.2586      2.00000
      7       3.4176      2.00000
      8       3.5976      2.00000
      9       3.5976      2.00000
     10       3.8885      2.00000
     11       3.8885      2.00000
     12       3.9883      2.00000
     13       8.8996      0.00000
     14       8.8996      0.00000
     15       8.9002      0.00000
     16       8.9002      0.00000
     17      14.5528      0.00000
     18      14.5726      0.00000
     19      16.3010      0.00000
     20      16.6692      0.00000
     21      16.6692      0.00000
     22      17.4047      0.00000
     23      17.4047      0.00000
     24      17.7937      0.00000
     25      29.4197      0.00000
     26      29.9400      0.00000
     27      29.9400      0.00000
     28      31.2159      0.00000
     29      31.2159      0.00000
     30      31.9725      0.00000
     31      32.9774      0.00000
     32      33.6304      0.00000
     33      33.6304      0.00000
     34      34.5502      0.00000
     35      34.5502      0.00000
     36      34.7723      0.00000
     37      42.0496      0.00000
     38      42.0501      0.00000
     39      47.3158      0.00000
     40      47.3795      0.00000


--------------------------------------------------------------------------------------------------------


 soft charge-density along one line, spin component           1
         0         1         2         3         4         5         6         7         8         9
 total charge-density along one line
 
 pseudopotential strength for first ion, spin component:           1
-27.829   0.000  -0.000   0.000   0.000   0.000   5.816   0.000   0.000   0.000  -0.000   0.000  -0.000   0.000  -0.000   0.000
 -0.000   0.000 -27.829   0.000   0.000   0.000   0.000   0.000   5.816   0.000  -0.000   0.000   0.000   0.000  -0.000   0.000
  0.000   0.000   0.000   0.000 -27.829   0.000  -0.000   0.000  -0.000   0.000   5.816   0.000  -0.000   0.000   0.000   0.000
  5.816   0.000   0.000   0.000  -0.000   0.000   4.386   0.000  -0.000   0.000   0.000   0.000   0.000   0.000   0.000   0.000
  0.000   0.000   5.816   0.000  -0.000   0.000  -0.000   0.000   4.386   0.000   0.000   0.000  -0.000   0.000   0.000   0.000
 -0.000   0.000  -0.000   0.000   5.816   0.000   0.000   0.000   0.000   0.000   4.386   0.000   0.000   0.000  -0.000   0.000
 -0.000   0.000   0.000   0.000  -0.000   0.000   0.000   0.000  -0.000   0.000   0.000   0.000  -6.224   0.000   0.000   0.000
 -0.000   0.000  -0.000   0.000   0.000   0.000   0.000   0.000   0.000   0.000  -0.000   0.000   0.000   0.000  -6.224   0.000
  0.000   0.000  -0.000   0.000   0.000   0.000  -0.000   0.000   0.000   0.000  -0.000   0.000  -0.000   0.000   0.000   0.000
  0.000   0.000  -0.000   0.000  -0.000   0.000  -0.000   0.000   0.000   0.000   0.000   0.000  -0.000   0.000   0.000   0.000
  0.000   0.000   0.000   0.000  -0.000   0.000  -0.000   0.000  -0.000   0.000   0.000   0.000  -0.000   0.000   0.000   0.000
 -0.000   0.000   0.000   0.000  -0.000   0.000   0.000   0.000  -0.000   0.000   0.000   0.000  -7.053   0.000   0.000   0.000
 -0.000   0.000  -0.000   0.000   0.000   0.000   0.000   0.000   0.000   0.000  -0.000   0.000   0.000   0.000  -7.053   0.000
  0.000   0.000  -0.000   0.000   0.000   0.000  -0.000   0.000   0.000   0.000  -0.000   0.000  -0.000   0.000   0.000   0.000
  0.000   0.000  -0.000   0.000  -0.000   0.000  -0.000   0.000   0.000   0.000   0.000   0.000  -0.000   0.000   0.000   0.000
  0.000   0.000   0.000   0.000  -0.000   0.000  -0.000   0.000  -0.000   0.000   0.000   0.000  -0.000   0.000   0.000   0.000
  0.000   0.000   0.000   0.000   0.000   0.000  -0.000   0.000  -0.000   0.000  -0.000   0.000  -0.000   0.000   0.000   0.000
 -0.000   0.000  -0.000   0.000  -0.000   0.000  -0.000   0.000  -0.000   0.000  -0.000   0.000   0.000   0.000  -0.000   0.000
 total augmentation occupancy for first ion, spin component:           1
  1.996  -0.000  -0.000  -0.006  -0.000  -0.000   0.000  -0.000   0.000   0.000   0.000   0.000   0.000   0.000   0.000  -0.000
 -0.000   1.996  -0.000  -0.000  -0.006  -0.000   0.000  -0.000   0.000  -0.000   0.000   0.000   0.000   0.000   0.000   0.000
 -0.000  -0.000   1.996   0.000   0.000  -0.006   0.000   0.000   0.000  -0.000   0.000   0.000   0.000  -0.000   0.000   0.000
 -0.006  -0.000  -0.000   0.209  -0.000  -0.000   0.000   0.000   0.000  -0.000   0.000   0.000   0.000   0.000  -0.000   0.000
 -0.000  -0.006  -0.000  -0.000   0.209  -0.000   0.000   0.000   0.000   0.000   0.000   0.000   0.000   0.000   0.000   0.000
 -0.000   0.000  -0.006   0.000  -0.000   0.209   0.000   0.000   0.000   0.000   0.000   0.000  -0.000  -0.000   0.000   0.000
  0.000   0.000   0.000   0.000   0.000   0.000   6.615   0.000  -0.000  -0.000  -0.000  -3.781   0.000   0.000  -0.000  -0.000
 -0.000  -0.000   0.000   0.000   0.000   0.000   0.000   6.615   0.000   0.000  -0.000  -0.000  -3.781   0.000   0.000  -0.000
 -0.000   0.000  -0.000   0.000   0.000  -0.000  -0.000   0.000   6.127   0.000   0.000  -0.000  -0.000  -3.669   0.000  -0.000
  0.000  -0.000  -0.000   0.000   0.000   0.000  -0.000   0.000   0.000   6.615   0.000  -0.000   0.000   0.000  -3.781   0.000
 -0.000   0.000   0.000   0.000   0.000   0.000   0.000   0.000  -0.000   0.000   6.127   0.000  -0.000   0.000   0.000  -3.669
  0.000   0.000   0.000   0.000   0.000   0.000  -3.781   0.000   0.000  -0.000   0.000   2.202  -0.000  -0.000  -0.000  -0.000
  0.000   0.000   0.000   0.000   0.000  -0.000   0.000  -3.781  -0.000   0.000   0.000   0.000   2.202   0.000   0.000   0.000
 -0.000   0.000   0.000   0.000   0.000   0.000   0.000   0.000  -3.669   0.000   0.000   0.000   0.000   2.216  -0.000   0.000
  0.000   0.000   0.000  -0.000   0.000   0.000   0.000  -0.000  -0.000  -3.781  -0.000   0.000   0.000   0.000   2.202   0.000
  0.000  -0.000  -0.000  -0.000  -0.000  -0.000   0.000  -0.000  -0.000  -0.000  -3.669   0.000   0.000  -0.000  -0.000   2.216
  0.000   0.000   0.000   0.000   0.000   0.000  -0.000  -0.000   0.000   0.000  -0.000   0.000   0.000   0.000  -0.000  -0.000
  0.000   0.000   0.000   0.000   0.000   0.000  -0.000  -0.000   0.000   0.000   0.000   0.000   0.000   0.000   0.000  -0.000


------------------------ aborting loop because EDIFF is reached ----------------------------------------


    CHARGE:  cpu time    0.0053: real time    0.0054
    FORLOC:  cpu time    0.0010: real time    0.0012
    FORNL :  cpu time    0.0183: real time    0.0202
    STRESS:  cpu time    0.1753: real time    0.1777
    FORCOR:  cpu time    0.0014: real time    0.0029
    FORHAR:  cpu time    0.0010: real time    0.0020
    MIXING:  cpu time    0.0005: real time    0.0005
    OFIELD:  cpu time    0.0002: real time    0.0012

  FORCE on cell =-STRESS in cart. coord.  units (eV):
  Direction    XX          YY          ZZ          XY          YZ          ZX
  --------------------------------------------------------------------------------------
  Alpha Z   249.60524   249.60524   249.60524
  Ewald    -640.34034  -640.34034  -640.34034    -0.00000     0.00000    -0.00000
  Hartree    80.08056    80.08056    80.08056    -0.00000    -0.00000    -0.00000
  E(xc)     -93.76969   -93.76969   -93.76969    -0.00000    -0.00000    -0.00000
  Local     205.55825   205.55825   205.55825    -0.00000     0.00000     0.00000
  n-local   -89.24880   -84.34431   -77.71861     2.26506    -0.97552     0.41220
  augment    52.35014    52.35014    52.35014     0.00000     0.00000    -0.00000
  Kinetic   219.43480   225.01872   241.83425     3.28574    -2.11519     1.21083
  Fock        0.00000     0.00000     0.00000     0.00000     0.00000     0.00000
  -------------------------------------------------------------------------------------
  Total      -1.52383    -1.52383    -1.52383     0.00000    -0.00000     0.00000
  in kB     -67.88738   -67.88738   -67.88738     0.00000    -0.00000     0.00000
  external pressure =      -67.89 kB  Pullay stress =        0.00 kB


 VOLUME and BASIS-vectors are now :
 -----------------------------------------------------------------------------
  energy-cutoff  :      300.00
  volume of cell :       35.96
      direct lattice vectors                 reciprocal lattice vectors
     3.300800000  0.000000000  0.000000000     0.302956859  0.000000000  0.000000000
     0.000000000  3.300800000  0.000000000     0.000000000  0.302956859  0.000000000
     0.000000000  0.000000000  3.300800000     0.000000000  0.000000000  0.302956859

  length of vectors
     3.300800000  3.300800000  3.300800000     0.302956859  0.302956859  0.302956859


 FORCES acting on ions
    electron-ion (+dipol)            ewald-force                    non-local-force                 convergence-correction
 -----------------------------------------------------------------------------------------------
   -.154E-13 -.217E-13 -.174E-13   0.268E-14 -.614E-14 -.437E-14   -.242E-26 0.000E+00 0.000E+00   -.593E-14 -.111E-13 -.105E-13
   0.119E-12 0.117E-12 0.124E-12   -.201E-14 0.363E-14 0.345E-14   0.000E+00 0.000E+00 0.000E+00   -.394E-13 -.318E-13 -.325E-13
 -----------------------------------------------------------------------------------------------
   0.103E-12 0.954E-13 0.106E-12   0.666E-15 -.251E-14 -.919E-15   -.242E-26 0.000E+00 0.000E+00   -.454E-13 -.429E-13 -.430E-13
 
 
 POSITION                                       TOTAL-FORCE (eV/Angst)
 -----------------------------------------------------------------------------------
      0.00000      0.00000      0.00000         0.000000      0.000000      0.000000
      1.65040      1.65040      1.65040        -0.000000     -0.000000     -0.000000
 -----------------------------------------------------------------------------------
    total drift:                                0.000000      0.000000      0.000000


--------------------------------------------------------------------------------------------------------



  FREE ENERGIE OF THE ION-ELECTRON SYSTEM (eV)
  ---------------------------------------------------
  free  energy   TOTEN  =       -22.27159578 eV

  energy  without entropy=      -22.27159578  energy(sigma->0) =      -22.27159578
 


--------------------------------------------------------------------------------------------------------


    POTLOK:  cpu time    0.0033: real time    0.0047


--------------------------------------------------------------------------------------------------------


 writing wavefunctions
     LOOP+:  cpu time   64.4057: real time   67.0826
    4ORBIT:  cpu time    0.0000: real time    0.0000
 BZINTS: Fermi energy:  4.839259; 22.000000 electrons
         Band energy:-272.843682;  BLOECHL correction: -0.051826

 total amount of memory used by VASP MPI-rank0    39567. kBytes
=======================================================================

   base      :      30000. kBytes
   nonl-proj :       8309. kBytes
   fftplans  :         79. kBytes
   grid      :        150. kBytes
   one-center:         31. kBytes
   wavefun   :        998. kBytes
 
  
  
 General timing and accounting informations for this job:
 ========================================================
  
                  Total CPU time used (sec):       74.650
                            User time (sec):       72.371
                          System time (sec):        2.279
                         Elapsed time (sec):       77.798
  
                   Maximum memory used (kb):       61132.
                   Average memory used (kb):           0.
  
                          Minor page faults:        34370
                          Major page faults:           44
                 Voluntary context switches:         1066
