<?xml version="1.0" encoding="ISO-8859-1"?>
<modeling>
 <generator>
  <i name="program" type="string">vasp </i>
  <i name="version" type="string">5.4.4.18Apr17-6-g9f103f2a35  </i>
  <i name="subversion" type="string">(build May 20 2018 16:52:39) complex            parallel </i>
  <i name="platform" type="string">LinuxIFC </i>
  <i name="date" type="string">2022 11 17 </i>
  <i name="time" type="string">21:34:41 </i>
 </generator>
 <incar>
  <i type="string" name="SYSTEM"> Nb</i>
  <i type="string" name="PREC">normal</i>
  <i name="EDIFF">      0.00000010</i>
  <i name="ENCUT">    300.00000000</i>
  <i type="int" name="ISMEAR">    -5</i>
  <v type="int" name="KPOINT_BSE">    -1     0     0     0</v>
 </incar>
 <structure name="primitive_cell" >
  <crystal>
   <varray name="basis" >
    <v>       1.65040000       1.65040000       1.65040000 </v>
    <v>       1.65040000      -1.65040000      -1.65040000 </v>
    <v>      -1.65040000       1.65040000      -1.65040000 </v>
   </varray>
   <i name="volume">     17.98157117 </i>
   <varray name="rec_basis" >
    <v>       0.30295686       0.30295686       0.00000000 </v>
    <v>       0.30295686      -0.00000000      -0.30295686 </v>
    <v>      -0.00000000       0.30295686      -0.30295686 </v>
   </varray>
  </crystal>
  <varray name="positions" >
   <v>       0.00000000       0.00000000       0.00000000 </v>
  </varray>
 </structure>
 <varray name="primitive_index" >
  <v type="int" >        1 </v>
 </varray>
 <kpoints>
  <generation param="Monkhorst-Pack">
   <v type="int" name="divisions">      16       16       16 </v>
   <v name="usershift">      0.00000000       0.00000000       0.00000000 </v>
   <v name="genvec1">      0.06250000       0.00000000       0.00000000 </v>
   <v name="genvec2">      0.00000000       0.06250000       0.00000000 </v>
   <v name="genvec3">      0.00000000       0.00000000       0.06250000 </v>
   <v name="shift">      0.50000000       0.50000000       0.50000000 </v>
  </generation>
  <varray name="kpointlist" >
   <v>       0.03125000       0.03125000       0.03125000 </v>
   <v>       0.09375000       0.03125000       0.03125000 </v>
   <v>       0.15625000       0.03125000       0.03125000 </v>
   <v>       0.21875000       0.03125000       0.03125000 </v>
   <v>       0.28125000       0.03125000       0.03125000 </v>
   <v>       0.34375000       0.03125000       0.03125000 </v>
   <v>       0.40625000       0.03125000       0.03125000 </v>
   <v>       0.46875000       0.03125000       0.03125000 </v>
   <v>       0.09375000       0.09375000       0.03125000 </v>
   <v>       0.15625000       0.09375000       0.03125000 </v>
   <v>       0.21875000       0.09375000       0.03125000 </v>
   <v>       0.28125000       0.09375000       0.03125000 </v>
   <v>       0.34375000       0.09375000       0.03125000 </v>
   <v>       0.40625000       0.09375000       0.03125000 </v>
   <v>       0.46875000       0.09375000       0.03125000 </v>
   <v>       0.15625000       0.15625000       0.03125000 </v>
   <v>       0.21875000       0.15625000       0.03125000 </v>
   <v>       0.28125000       0.15625000       0.03125000 </v>
   <v>       0.34375000       0.15625000       0.03125000 </v>
   <v>       0.40625000       0.15625000       0.03125000 </v>
   <v>       0.46875000       0.15625000       0.03125000 </v>
   <v>       0.21875000       0.21875000       0.03125000 </v>
   <v>       0.28125000       0.21875000       0.03125000 </v>
   <v>       0.34375000       0.21875000       0.03125000 </v>
   <v>       0.40625000       0.21875000       0.03125000 </v>
   <v>       0.46875000       0.21875000       0.03125000 </v>
   <v>       0.28125000       0.28125000       0.03125000 </v>
   <v>       0.34375000       0.28125000       0.03125000 </v>
   <v>       0.40625000       0.28125000       0.03125000 </v>
   <v>       0.46875000       0.28125000       0.03125000 </v>
   <v>       0.34375000       0.34375000       0.03125000 </v>
   <v>       0.40625000       0.34375000       0.03125000 </v>
   <v>       0.46875000       0.34375000       0.03125000 </v>
   <v>       0.40625000       0.40625000       0.03125000 </v>
   <v>       0.46875000       0.40625000       0.03125000 </v>
   <v>       0.46875000       0.46875000       0.03125000 </v>
   <v>       0.09375000       0.09375000       0.09375000 </v>
   <v>       0.15625000       0.09375000       0.09375000 </v>
   <v>       0.21875000       0.09375000       0.09375000 </v>
   <v>       0.28125000       0.09375000       0.09375000 </v>
   <v>       0.34375000       0.09375000       0.09375000 </v>
   <v>       0.40625000       0.09375000       0.09375000 </v>
   <v>       0.46875000       0.09375000       0.09375000 </v>
   <v>       0.15625000       0.15625000       0.09375000 </v>
   <v>       0.21875000       0.15625000       0.09375000 </v>
   <v>       0.28125000       0.15625000       0.09375000 </v>
   <v>       0.34375000       0.15625000       0.09375000 </v>
   <v>       0.40625000       0.15625000       0.09375000 </v>
   <v>       0.46875000       0.15625000       0.09375000 </v>
   <v>       0.21875000       0.21875000       0.09375000 </v>
   <v>       0.28125000       0.21875000       0.09375000 </v>
   <v>       0.34375000       0.21875000       0.09375000 </v>
   <v>       0.40625000       0.21875000       0.09375000 </v>
   <v>       0.46875000       0.21875000       0.09375000 </v>
   <v>       0.28125000       0.28125000       0.09375000 </v>
   <v>       0.34375000       0.28125000       0.09375000 </v>
   <v>       0.40625000       0.28125000       0.09375000 </v>
   <v>       0.46875000       0.28125000       0.09375000 </v>
   <v>       0.34375000       0.34375000       0.09375000 </v>
   <v>       0.40625000       0.34375000       0.09375000 </v>
   <v>       0.46875000       0.34375000       0.09375000 </v>
   <v>       0.40625000       0.40625000       0.09375000 </v>
   <v>       0.46875000       0.40625000       0.09375000 </v>
   <v>       0.46875000       0.46875000       0.09375000 </v>
   <v>       0.15625000       0.15625000       0.15625000 </v>
   <v>       0.21875000       0.15625000       0.15625000 </v>
   <v>       0.28125000       0.15625000       0.15625000 </v>
   <v>       0.34375000       0.15625000       0.15625000 </v>
   <v>       0.40625000       0.15625000       0.15625000 </v>
   <v>       0.46875000       0.15625000       0.15625000 </v>
   <v>       0.21875000       0.21875000       0.15625000 </v>
   <v>       0.28125000       0.21875000       0.15625000 </v>
   <v>       0.34375000       0.21875000       0.15625000 </v>
   <v>       0.40625000       0.21875000       0.15625000 </v>
   <v>       0.46875000       0.21875000       0.15625000 </v>
   <v>       0.28125000       0.28125000       0.15625000 </v>
   <v>       0.34375000       0.28125000       0.15625000 </v>
   <v>       0.40625000       0.28125000       0.15625000 </v>
   <v>       0.46875000       0.28125000       0.15625000 </v>
   <v>       0.34375000       0.34375000       0.15625000 </v>
   <v>       0.40625000       0.34375000       0.15625000 </v>
   <v>       0.46875000       0.34375000       0.15625000 </v>
   <v>       0.40625000       0.40625000       0.15625000 </v>
   <v>       0.46875000       0.40625000       0.15625000 </v>
   <v>       0.46875000       0.46875000       0.15625000 </v>
   <v>       0.21875000       0.21875000       0.21875000 </v>
   <v>       0.28125000       0.21875000       0.21875000 </v>
   <v>       0.34375000       0.21875000       0.21875000 </v>
   <v>       0.40625000       0.21875000       0.21875000 </v>
   <v>       0.46875000       0.21875000       0.21875000 </v>
   <v>       0.28125000       0.28125000       0.21875000 </v>
   <v>       0.34375000       0.28125000       0.21875000 </v>
   <v>       0.40625000       0.28125000       0.21875000 </v>
   <v>       0.46875000       0.28125000       0.21875000 </v>
   <v>       0.34375000       0.34375000       0.21875000 </v>
   <v>       0.40625000       0.34375000       0.21875000 </v>
   <v>       0.46875000       0.34375000       0.21875000 </v>
   <v>       0.40625000       0.40625000       0.21875000 </v>
   <v>       0.46875000       0.40625000       0.21875000 </v>
   <v>       0.46875000       0.46875000       0.21875000 </v>
   <v>       0.28125000       0.28125000       0.28125000 </v>
   <v>       0.34375000       0.28125000       0.28125000 </v>
   <v>       0.40625000       0.28125000       0.28125000 </v>
   <v>       0.46875000       0.28125000       0.28125000 </v>
   <v>       0.34375000       0.34375000       0.28125000 </v>
   <v>       0.40625000       0.34375000       0.28125000 </v>
   <v>       0.46875000       0.34375000       0.28125000 </v>
   <v>       0.40625000       0.40625000       0.28125000 </v>
   <v>       0.46875000       0.40625000       0.28125000 </v>
   <v>       0.46875000       0.46875000       0.28125000 </v>
   <v>       0.34375000       0.34375000       0.34375000 </v>
   <v>       0.40625000       0.34375000       0.34375000 </v>
   <v>       0.46875000       0.34375000       0.34375000 </v>
   <v>       0.40625000       0.40625000       0.34375000 </v>
   <v>       0.46875000       0.40625000       0.34375000 </v>
   <v>       0.46875000       0.46875000       0.34375000 </v>
   <v>       0.40625000       0.40625000       0.40625000 </v>
   <v>       0.46875000       0.40625000       0.40625000 </v>
   <v>       0.46875000       0.46875000       0.40625000 </v>
   <v>       0.46875000       0.46875000       0.46875000 </v>
  </varray>
  <varray name="weights" >
   <v>       0.00195312 </v>
   <v>       0.00585938 </v>
   <v>       0.00585938 </v>
   <v>       0.00585938 </v>
   <v>       0.00585938 </v>
   <v>       0.00585938 </v>
   <v>       0.00585938 </v>
   <v>       0.00585938 </v>
   <v>       0.00585938 </v>
   <v>       0.01171875 </v>
   <v>       0.01171875 </v>
   <v>       0.01171875 </v>
   <v>       0.01171875 </v>
   <v>       0.01171875 </v>
   <v>       0.01171875 </v>
   <v>       0.00585938 </v>
   <v>       0.01171875 </v>
   <v>       0.01171875 </v>
   <v>       0.01171875 </v>
   <v>       0.01171875 </v>
   <v>       0.01171875 </v>
   <v>       0.00585938 </v>
   <v>       0.01171875 </v>
   <v>       0.01171875 </v>
   <v>       0.01171875 </v>
   <v>       0.01171875 </v>
   <v>       0.00585938 </v>
   <v>       0.01171875 </v>
   <v>       0.01171875 </v>
   <v>       0.01171875 </v>
   <v>       0.00585938 </v>
   <v>       0.01171875 </v>
   <v>       0.01171875 </v>
   <v>       0.00585938 </v>
   <v>       0.01171875 </v>
   <v>       0.00585938 </v>
   <v>       0.00195312 </v>
   <v>       0.00585938 </v>
   <v>       0.00585938 </v>
   <v>       0.00585938 </v>
   <v>       0.00585938 </v>
   <v>       0.00585938 </v>
   <v>       0.00585938 </v>
   <v>       0.00585938 </v>
   <v>       0.01171875 </v>
   <v>       0.01171875 </v>
   <v>       0.01171875 </v>
   <v>       0.01171875 </v>
   <v>       0.01171875 </v>
   <v>       0.00585938 </v>
   <v>       0.01171875 </v>
   <v>       0.01171875 </v>
   <v>       0.01171875 </v>
   <v>       0.01171875 </v>
   <v>       0.00585938 </v>
   <v>       0.01171875 </v>
   <v>       0.01171875 </v>
   <v>       0.01171875 </v>
   <v>       0.00585938 </v>
   <v>       0.01171875 </v>
   <v>       0.01171875 </v>
   <v>       0.00585938 </v>
   <v>       0.01171875 </v>
   <v>       0.00585938 </v>
   <v>       0.00195312 </v>
   <v>       0.00585938 </v>
   <v>       0.00585938 </v>
   <v>       0.00585938 </v>
   <v>       0.00585938 </v>
   <v>       0.00585938 </v>
   <v>       0.00585938 </v>
   <v>       0.01171875 </v>
   <v>       0.01171875 </v>
   <v>       0.01171875 </v>
   <v>       0.01171875 </v>
   <v>       0.00585938 </v>
   <v>       0.01171875 </v>
   <v>       0.01171875 </v>
   <v>       0.01171875 </v>
   <v>       0.00585938 </v>
   <v>       0.01171875 </v>
   <v>       0.01171875 </v>
   <v>       0.00585938 </v>
   <v>       0.01171875 </v>
   <v>       0.00585938 </v>
   <v>       0.00195312 </v>
   <v>       0.00585938 </v>
   <v>       0.00585938 </v>
   <v>       0.00585938 </v>
   <v>       0.00585938 </v>
   <v>       0.00585938 </v>
   <v>       0.01171875 </v>
   <v>       0.01171875 </v>
   <v>       0.01171875 </v>
   <v>       0.00585938 </v>
   <v>       0.01171875 </v>
   <v>       0.01171875 </v>
   <v>       0.00585938 </v>
   <v>       0.01171875 </v>
   <v>       0.00585938 </v>
   <v>       0.00195312 </v>
   <v>       0.00585938 </v>
   <v>       0.00585938 </v>
   <v>       0.00585938 </v>
   <v>       0.00585938 </v>
   <v>       0.01171875 </v>
   <v>       0.01171875 </v>
   <v>       0.00585938 </v>
   <v>       0.01171875 </v>
   <v>       0.00585938 </v>
   <v>       0.00195312 </v>
   <v>       0.00585938 </v>
   <v>       0.00585938 </v>
   <v>       0.00585938 </v>
   <v>       0.01171875 </v>
   <v>       0.00585938 </v>
   <v>       0.00195312 </v>
   <v>       0.00585938 </v>
   <v>       0.00585938 </v>
   <v>       0.00195312 </v>
  </varray>
  <varray name="tetrahedronlist"  type="int" >
   <v type="int" >       24        1        2        2        9 </v>
   <v type="int" >       18        2        2        9        9 </v>
   <v type="int" >       12        2        9        9       37 </v>
   <v type="int" >       12        2        3        9       10 </v>
   <v type="int" >       24        2        9        9       10 </v>
   <v type="int" >       12        9        9       10       37 </v>
   <v type="int" >       24        3        9       10       10 </v>
   <v type="int" >       24        9       10       10       38 </v>
   <v type="int" >       24        9       10       37       38 </v>
   <v type="int" >       12        3        4       10       11 </v>
   <v type="int" >       24        3       10       10       11 </v>
   <v type="int" >       12       10       10       11       38 </v>
   <v type="int" >       24        4       10       11       11 </v>
   <v type="int" >       12       10       11       11       39 </v>
   <v type="int" >       12       10       11       38       39 </v>
   <v type="int" >       12        4        5       11       12 </v>
   <v type="int" >       24        4       11       11       12 </v>
   <v type="int" >       12       11       11       12       39 </v>
   <v type="int" >       24        5       11       12       12 </v>
   <v type="int" >       12       11       12       12       40 </v>
   <v type="int" >       12       11       12       39       40 </v>
   <v type="int" >       12        5        6       12       13 </v>
   <v type="int" >       24        5       12       12       13 </v>
   <v type="int" >       12       12       12       13       40 </v>
   <v type="int" >       24        6       12       13       13 </v>
   <v type="int" >       12       12       13       13       41 </v>
   <v type="int" >       12       12       13       40       41 </v>
   <v type="int" >       12        6        7       13       14 </v>
   <v type="int" >       24        6       13       13       14 </v>
   <v type="int" >       12       13       13       14       41 </v>
   <v type="int" >       24        7       13       14       14 </v>
   <v type="int" >       12       13       14       14       42 </v>
   <v type="int" >       12       13       14       41       42 </v>
   <v type="int" >       12        7        8       14       15 </v>
   <v type="int" >       24        7       14       14       15 </v>
   <v type="int" >       12       14       14       15       42 </v>
   <v type="int" >       24        8       14       15       15 </v>
   <v type="int" >       12       14       15       15       43 </v>
   <v type="int" >       12       14       15       42       43 </v>
   <v type="int" >       30        8        8       15       15 </v>
   <v type="int" >       36        8       15       15       15 </v>
   <v type="int" >       12       15       15       15       43 </v>
   <v type="int" >        6       15       15       43       43 </v>
   <v type="int" >       18        1        1        2        2 </v>
   <v type="int" >       24        1        2        2        2 </v>
   <v type="int" >       12        2        2        2        9 </v>
   <v type="int" >       12        9       10       16       37 </v>
   <v type="int" >       12       10       16       37       38 </v>
   <v type="int" >       12       16       37       38       44 </v>
   <v type="int" >       12       10       11       17       38 </v>
   <v type="int" >       12       10       16       17       38 </v>
   <v type="int" >       12       16       17       38       44 </v>
   <v type="int" >       12       11       17       38       39 </v>
   <v type="int" >       12       17       38       39       45 </v>
   <v type="int" >       12       17       38       44       45 </v>
   <v type="int" >       12       11       12       18       39 </v>
   <v type="int" >       12       11       17       18       39 </v>
   <v type="int" >       12       17       18       39       45 </v>
   <v type="int" >       12       12       18       39       40 </v>
   <v type="int" >       12       18       39       40       46 </v>
   <v type="int" >       12       18       39       45       46 </v>
   <v type="int" >       12       12       13       19       40 </v>
   <v type="int" >       12       12       18       19       40 </v>
   <v type="int" >       12       18       19       40       46 </v>
   <v type="int" >       12       13       19       40       41 </v>
   <v type="int" >       12       19       40       41       47 </v>
   <v type="int" >       12       19       40       46       47 </v>
   <v type="int" >       12       13       14       20       41 </v>
   <v type="int" >       12       13       19       20       41 </v>
   <v type="int" >       12       19       20       41       47 </v>
   <v type="int" >       12       14       20       41       42 </v>
   <v type="int" >       12       20       41       42       48 </v>
   <v type="int" >       12       20       41       47       48 </v>
   <v type="int" >       12       14       15       21       42 </v>
   <v type="int" >       12       14       20       21       42 </v>
   <v type="int" >       12       20       21       42       48 </v>
   <v type="int" >       12       15       21       42       43 </v>
   <v type="int" >       12       21       42       43       49 </v>
   <v type="int" >       12       21       42       48       49 </v>
   <v type="int" >       12       15       15       21       43 </v>
   <v type="int" >       12       15       21       21       43 </v>
   <v type="int" >       12       21       21       43       49 </v>
   <v type="int" >       12       15       21       43       43 </v>
   <v type="int" >       12       21       43       43       49 </v>
   <v type="int" >       12       21       43       49       49 </v>
   <v type="int" >       12       14       15       20       43 </v>
   <v type="int" >       12       15       20       21       43 </v>
   <v type="int" >       12       20       21       43       49 </v>
   <v type="int" >       12       14       20       42       43 </v>
   <v type="int" >       12       20       42       43       48 </v>
   <v type="int" >       12       20       43       48       49 </v>
   <v type="int" >       12       13       14       19       42 </v>
   <v type="int" >       12       14       19       20       42 </v>
   <v type="int" >       12       19       20       42       48 </v>
   <v type="int" >       12       13       19       41       42 </v>
   <v type="int" >       12       19       41       42       47 </v>
   <v type="int" >       12       19       42       47       48 </v>
   <v type="int" >       12       12       13       18       41 </v>
   <v type="int" >       12       13       18       19       41 </v>
   <v type="int" >       12       18       19       41       47 </v>
   <v type="int" >       12       12       18       40       41 </v>
   <v type="int" >       12       18       40       41       46 </v>
   <v type="int" >       12       18       41       46       47 </v>
   <v type="int" >       12       11       12       17       40 </v>
   <v type="int" >       12       12       17       18       40 </v>
   <v type="int" >       12       17       18       40       46 </v>
   <v type="int" >       12       11       17       39       40 </v>
   <v type="int" >       12       17       39       40       45 </v>
   <v type="int" >       12       17       40       45       46 </v>
   <v type="int" >       12       10       11       16       39 </v>
   <v type="int" >       12       11       16       17       39 </v>
   <v type="int" >       12       16       17       39       45 </v>
   <v type="int" >       12       10       16       38       39 </v>
   <v type="int" >       12       16       38       39       44 </v>
   <v type="int" >       12       16       39       44       45 </v>
   <v type="int" >       12       10       10       16       38 </v>
   <v type="int" >       12       10       16       38       44 </v>
   <v type="int" >       12       10       37       38       38 </v>
   <v type="int" >       12       10       38       38       44 </v>
   <v type="int" >       12        2        3        9       37 </v>
   <v type="int" >       12        3        9       10       37 </v>
   <v type="int" >       12        3       10       37       38 </v>
   <v type="int" >       12        2        2        3        9 </v>
   <v type="int" >       12        2        3        3        9 </v>
   <v type="int" >       12        3        3        9       10 </v>
   <v type="int" >       12        2        3        9        9 </v>
   <v type="int" >       12        3        9        9       10 </v>
   <v type="int" >       12       16       17       22       44 </v>
   <v type="int" >       12       17       22       44       45 </v>
   <v type="int" >       12       22       44       45       50 </v>
   <v type="int" >       12       17       18       23       45 </v>
   <v type="int" >       12       17       22       23       45 </v>
   <v type="int" >       12       22       23       45       50 </v>
   <v type="int" >       12       18       23       45       46 </v>
   <v type="int" >       12       23       45       46       51 </v>
   <v type="int" >       12       23       45       50       51 </v>
   <v type="int" >       12       18       19       24       46 </v>
   <v type="int" >       12       18       23       24       46 </v>
   <v type="int" >       12       23       24       46       51 </v>
   <v type="int" >       12       19       24       46       47 </v>
   <v type="int" >       12       24       46       47       52 </v>
   <v type="int" >       12       24       46       51       52 </v>
   <v type="int" >       12       19       20       25       47 </v>
   <v type="int" >       12       19       24       25       47 </v>
   <v type="int" >       12       24       25       47       52 </v>
   <v type="int" >       12       20       25       47       48 </v>
   <v type="int" >       12       25       47       48       53 </v>
   <v type="int" >       12       25       47       52       53 </v>
   <v type="int" >       12       20       21       26       48 </v>
   <v type="int" >       12       20       25       26       48 </v>
   <v type="int" >       12       25       26       48       53 </v>
   <v type="int" >       12       21       26       48       49 </v>
   <v type="int" >       12       26       48       49       54 </v>
   <v type="int" >       12       26       48       53       54 </v>
   <v type="int" >       12       21       21       26       49 </v>
   <v type="int" >       12       21       26       26       49 </v>
   <v type="int" >       12       26       26       49       54 </v>
   <v type="int" >       12       21       26       49       49 </v>
   <v type="int" >       12       26       49       49       54 </v>
   <v type="int" >       12       26       49       54       54 </v>
   <v type="int" >       12       20       21       25       49 </v>
   <v type="int" >       12       21       25       26       49 </v>
   <v type="int" >       12       25       26       49       54 </v>
   <v type="int" >       12       20       25       48       49 </v>
   <v type="int" >       12       25       48       49       53 </v>
   <v type="int" >       12       25       49       53       54 </v>
   <v type="int" >       12       19       20       24       48 </v>
   <v type="int" >       12       20       24       25       48 </v>
   <v type="int" >       12       24       25       48       53 </v>
   <v type="int" >       12       19       24       47       48 </v>
   <v type="int" >       12       24       47       48       52 </v>
   <v type="int" >       12       24       48       52       53 </v>
   <v type="int" >       12       18       19       23       47 </v>
   <v type="int" >       12       19       23       24       47 </v>
   <v type="int" >       12       23       24       47       52 </v>
   <v type="int" >       12       18       23       46       47 </v>
   <v type="int" >       12       23       46       47       51 </v>
   <v type="int" >       12       23       47       51       52 </v>
   <v type="int" >       12       17       18       22       46 </v>
   <v type="int" >       12       18       22       23       46 </v>
   <v type="int" >       12       22       23       46       51 </v>
   <v type="int" >       12       17       22       45       46 </v>
   <v type="int" >       12       22       45       46       50 </v>
   <v type="int" >       12       22       46       50       51 </v>
   <v type="int" >       12       16       17       17       45 </v>
   <v type="int" >       12       17       17       22       45 </v>
   <v type="int" >       12       17       22       45       50 </v>
   <v type="int" >       12       16       17       44       45 </v>
   <v type="int" >       12       17       44       45       45 </v>
   <v type="int" >       12       17       45       45       50 </v>
   <v type="int" >       12       10       11       16       44 </v>
   <v type="int" >       12       11       16       17       44 </v>
   <v type="int" >       12       11       17       44       45 </v>
   <v type="int" >       12       10       11       38       44 </v>
   <v type="int" >       12       11       38       39       44 </v>
   <v type="int" >       12       11       39       44       45 </v>
   <v type="int" >       12        3        4       10       38 </v>
   <v type="int" >       12        4       10       11       38 </v>
   <v type="int" >       12        4       11       38       39 </v>
   <v type="int" >       12        3        3        4       10 </v>
   <v type="int" >       12        3        4        4       10 </v>
   <v type="int" >       12        4        4       10       11 </v>
   <v type="int" >       12        3        4       10       10 </v>
   <v type="int" >       12        4       10       10       11 </v>
   <v type="int" >       12       22       23       27       50 </v>
   <v type="int" >       12       23       27       50       51 </v>
   <v type="int" >       12       27       50       51       55 </v>
   <v type="int" >       12       23       24       28       51 </v>
   <v type="int" >       12       23       27       28       51 </v>
   <v type="int" >       12       27       28       51       55 </v>
   <v type="int" >       12       24       28       51       52 </v>
   <v type="int" >       12       28       51       52       56 </v>
   <v type="int" >       12       28       51       55       56 </v>
   <v type="int" >       12       24       25       29       52 </v>
   <v type="int" >       12       24       28       29       52 </v>
   <v type="int" >       12       28       29       52       56 </v>
   <v type="int" >       12       25       29       52       53 </v>
   <v type="int" >       12       29       52       53       57 </v>
   <v type="int" >       12       29       52       56       57 </v>
   <v type="int" >       12       25       26       30       53 </v>
   <v type="int" >       12       25       29       30       53 </v>
   <v type="int" >       12       29       30       53       57 </v>
   <v type="int" >       12       26       30       53       54 </v>
   <v type="int" >       12       30       53       54       58 </v>
   <v type="int" >       12       30       53       57       58 </v>
   <v type="int" >       12       26       26       30       54 </v>
   <v type="int" >       12       26       30       30       54 </v>
   <v type="int" >       12       30       30       54       58 </v>
   <v type="int" >       12       26       30       54       54 </v>
   <v type="int" >       12       30       54       54       58 </v>
   <v type="int" >       12       30       54       58       58 </v>
   <v type="int" >       12       25       26       29       54 </v>
   <v type="int" >       12       26       29       30       54 </v>
   <v type="int" >       12       29       30       54       58 </v>
   <v type="int" >       12       25       29       53       54 </v>
   <v type="int" >       12       29       53       54       57 </v>
   <v type="int" >       12       29       54       57       58 </v>
   <v type="int" >       12       24       25       28       53 </v>
   <v type="int" >       12       25       28       29       53 </v>
   <v type="int" >       12       28       29       53       57 </v>
   <v type="int" >       12       24       28       52       53 </v>
   <v type="int" >       12       28       52       53       56 </v>
   <v type="int" >       12       28       53       56       57 </v>
   <v type="int" >       12       23       24       27       52 </v>
   <v type="int" >       12       24       27       28       52 </v>
   <v type="int" >       12       27       28       52       56 </v>
   <v type="int" >       12       23       27       51       52 </v>
   <v type="int" >       12       27       51       52       55 </v>
   <v type="int" >       12       27       52       55       56 </v>
   <v type="int" >       12       22       23       23       51 </v>
   <v type="int" >       12       23       23       27       51 </v>
   <v type="int" >       12       23       27       51       55 </v>
   <v type="int" >       12       22       23       50       51 </v>
   <v type="int" >       12       23       50       51       51 </v>
   <v type="int" >       12       23       51       51       55 </v>
   <v type="int" >       12       17       18       22       50 </v>
   <v type="int" >       12       18       22       23       50 </v>
   <v type="int" >       12       18       23       50       51 </v>
   <v type="int" >       12       17       18       45       50 </v>
   <v type="int" >       12       18       45       46       50 </v>
   <v type="int" >       12       18       46       50       51 </v>
   <v type="int" >       12       11       12       17       45 </v>
   <v type="int" >       12       12       17       18       45 </v>
   <v type="int" >       12       12       18       45       46 </v>
   <v type="int" >       12       11       12       39       45 </v>
   <v type="int" >       12       12       39       40       45 </v>
   <v type="int" >       12       12       40       45       46 </v>
   <v type="int" >       12        4        5       11       39 </v>
   <v type="int" >       12        5       11       12       39 </v>
   <v type="int" >       12        5       12       39       40 </v>
   <v type="int" >       12        4        4        5       11 </v>
   <v type="int" >       12        4        5        5       11 </v>
   <v type="int" >       12        5        5       11       12 </v>
   <v type="int" >       12        4        5       11       11 </v>
   <v type="int" >       12        5       11       11       12 </v>
   <v type="int" >       12       27       28       31       55 </v>
   <v type="int" >       12       28       31       55       56 </v>
   <v type="int" >       12       31       55       56       59 </v>
   <v type="int" >       12       28       29       32       56 </v>
   <v type="int" >       12       28       31       32       56 </v>
   <v type="int" >       12       31       32       56       59 </v>
   <v type="int" >       12       29       32       56       57 </v>
   <v type="int" >       12       32       56       57       60 </v>
   <v type="int" >       12       32       56       59       60 </v>
   <v type="int" >       12       29       30       33       57 </v>
   <v type="int" >       12       29       32       33       57 </v>
   <v type="int" >       12       32       33       57       60 </v>
   <v type="int" >       12       30       33       57       58 </v>
   <v type="int" >       12       33       57       58       61 </v>
   <v type="int" >       12       33       57       60       61 </v>
   <v type="int" >       12       30       30       33       58 </v>
   <v type="int" >       12       30       33       33       58 </v>
   <v type="int" >       12       33       33       58       61 </v>
   <v type="int" >       12       30       33       58       58 </v>
   <v type="int" >       12       33       58       58       61 </v>
   <v type="int" >       12       33       58       61       61 </v>
   <v type="int" >       12       29       30       32       58 </v>
   <v type="int" >       12       30       32       33       58 </v>
   <v type="int" >       12       32       33       58       61 </v>
   <v type="int" >       12       29       32       57       58 </v>
   <v type="int" >       12       32       57       58       60 </v>
   <v type="int" >       12       32       58       60       61 </v>
   <v type="int" >       12       28       29       31       57 </v>
   <v type="int" >       12       29       31       32       57 </v>
   <v type="int" >       12       31       32       57       60 </v>
   <v type="int" >       12       28       31       56       57 </v>
   <v type="int" >       12       31       56       57       59 </v>
   <v type="int" >       12       31       57       59       60 </v>
   <v type="int" >       12       27       28       28       56 </v>
   <v type="int" >       12       28       28       31       56 </v>
   <v type="int" >       12       28       31       56       59 </v>
   <v type="int" >       12       27       28       55       56 </v>
   <v type="int" >       12       28       55       56       56 </v>
   <v type="int" >       12       28       56       56       59 </v>
   <v type="int" >       12       23       24       27       55 </v>
   <v type="int" >       12       24       27       28       55 </v>
   <v type="int" >       12       24       28       55       56 </v>
   <v type="int" >       12       23       24       51       55 </v>
   <v type="int" >       12       24       51       52       55 </v>
   <v type="int" >       12       24       52       55       56 </v>
   <v type="int" >       12       18       19       23       51 </v>
   <v type="int" >       12       19       23       24       51 </v>
   <v type="int" >       12       19       24       51       52 </v>
   <v type="int" >       12       18       19       46       51 </v>
   <v type="int" >       12       19       46       47       51 </v>
   <v type="int" >       12       19       47       51       52 </v>
   <v type="int" >       12       12       13       18       46 </v>
   <v type="int" >       12       13       18       19       46 </v>
   <v type="int" >       12       13       19       46       47 </v>
   <v type="int" >       12       12       13       40       46 </v>
   <v type="int" >       12       13       40       41       46 </v>
   <v type="int" >       12       13       41       46       47 </v>
   <v type="int" >       12        5        6       12       40 </v>
   <v type="int" >       12        6       12       13       40 </v>
   <v type="int" >       12        6       13       40       41 </v>
   <v type="int" >       12        5        5        6       12 </v>
   <v type="int" >       12        5        6        6       12 </v>
   <v type="int" >       12        6        6       12       13 </v>
   <v type="int" >       12        5        6       12       12 </v>
   <v type="int" >       12        6       12       12       13 </v>
   <v type="int" >       12       31       32       34       59 </v>
   <v type="int" >       12       32       34       59       60 </v>
   <v type="int" >       12       34       59       60       62 </v>
   <v type="int" >       12       32       33       35       60 </v>
   <v type="int" >       12       32       34       35       60 </v>
   <v type="int" >       12       34       35       60       62 </v>
   <v type="int" >       12       33       35       60       61 </v>
   <v type="int" >       12       35       60       61       63 </v>
   <v type="int" >       12       35       60       62       63 </v>
   <v type="int" >       12       33       33       35       61 </v>
   <v type="int" >       12       33       35       35       61 </v>
   <v type="int" >       12       35       35       61       63 </v>
   <v type="int" >       12       33       35       61       61 </v>
   <v type="int" >       12       35       61       61       63 </v>
   <v type="int" >       12       35       61       63       63 </v>
   <v type="int" >       12       32       33       34       61 </v>
   <v type="int" >       12       33       34       35       61 </v>
   <v type="int" >       12       34       35       61       63 </v>
   <v type="int" >       12       32       34       60       61 </v>
   <v type="int" >       12       34       60       61       62 </v>
   <v type="int" >       12       34       61       62       63 </v>
   <v type="int" >       12       31       32       32       60 </v>
   <v type="int" >       12       32       32       34       60 </v>
   <v type="int" >       12       32       34       60       62 </v>
   <v type="int" >       12       31       32       59       60 </v>
   <v type="int" >       12       32       59       60       60 </v>
   <v type="int" >       12       32       60       60       62 </v>
   <v type="int" >       12       28       29       31       59 </v>
   <v type="int" >       12       29       31       32       59 </v>
   <v type="int" >       12       29       32       59       60 </v>
   <v type="int" >       12       28       29       56       59 </v>
   <v type="int" >       12       29       56       57       59 </v>
   <v type="int" >       12       29       57       59       60 </v>
   <v type="int" >       12       24       25       28       56 </v>
   <v type="int" >       12       25       28       29       56 </v>
   <v type="int" >       12       25       29       56       57 </v>
   <v type="int" >       12       24       25       52       56 </v>
   <v type="int" >       12       25       52       53       56 </v>
   <v type="int" >       12       25       53       56       57 </v>
   <v type="int" >       12       19       20       24       52 </v>
   <v type="int" >       12       20       24       25       52 </v>
   <v type="int" >       12       20       25       52       53 </v>
   <v type="int" >       12       19       20       47       52 </v>
   <v type="int" >       12       20       47       48       52 </v>
   <v type="int" >       12       20       48       52       53 </v>
   <v type="int" >       12       13       14       19       47 </v>
   <v type="int" >       12       14       19       20       47 </v>
   <v type="int" >       12       14       20       47       48 </v>
   <v type="int" >       12       13       14       41       47 </v>
   <v type="int" >       12       14       41       42       47 </v>
   <v type="int" >       12       14       42       47       48 </v>
   <v type="int" >       12        6        7       13       41 </v>
   <v type="int" >       12        7       13       14       41 </v>
   <v type="int" >       12        7       14       41       42 </v>
   <v type="int" >       12        6        6        7       13 </v>
   <v type="int" >       12        6        7        7       13 </v>
   <v type="int" >       12        7        7       13       14 </v>
   <v type="int" >       12        6        7       13       13 </v>
   <v type="int" >       12        7       13       13       14 </v>
   <v type="int" >       12       34       35       36       62 </v>
   <v type="int" >       12       35       36       62       63 </v>
   <v type="int" >       12       36       62       63       64 </v>
   <v type="int" >       24       35       35       36       63 </v>
   <v type="int" >       12       35       36       36       63 </v>
   <v type="int" >       12       36       36       63       64 </v>
   <v type="int" >       12       35       36       63       63 </v>
   <v type="int" >       12       36       63       63       64 </v>
   <v type="int" >       12       36       63       64       64 </v>
   <v type="int" >       12       34       35       35       63 </v>
   <v type="int" >       12       35       36       63       64 </v>
   <v type="int" >       12       34       35       62       63 </v>
   <v type="int" >       12       35       62       63       63 </v>
   <v type="int" >       24       35       63       63       64 </v>
   <v type="int" >       12       32       33       34       62 </v>
   <v type="int" >       12       33       34       35       62 </v>
   <v type="int" >       12       33       35       62       63 </v>
   <v type="int" >       12       32       33       60       62 </v>
   <v type="int" >       12       33       60       61       62 </v>
   <v type="int" >       12       33       61       62       63 </v>
   <v type="int" >       12       29       30       32       60 </v>
   <v type="int" >       12       30       32       33       60 </v>
   <v type="int" >       12       30       33       60       61 </v>
   <v type="int" >       12       29       30       57       60 </v>
   <v type="int" >       12       30       57       58       60 </v>
   <v type="int" >       12       30       58       60       61 </v>
   <v type="int" >       12       25       26       29       57 </v>
   <v type="int" >       12       26       29       30       57 </v>
   <v type="int" >       12       26       30       57       58 </v>
   <v type="int" >       12       25       26       53       57 </v>
   <v type="int" >       12       26       53       54       57 </v>
   <v type="int" >       12       26       54       57       58 </v>
   <v type="int" >       12       20       21       25       53 </v>
   <v type="int" >       12       21       25       26       53 </v>
   <v type="int" >       12       21       26       53       54 </v>
   <v type="int" >       12       20       21       48       53 </v>
   <v type="int" >       12       21       48       49       53 </v>
   <v type="int" >       12       21       49       53       54 </v>
   <v type="int" >       12       14       15       20       48 </v>
   <v type="int" >       12       15       20       21       48 </v>
   <v type="int" >       12       15       21       48       49 </v>
   <v type="int" >       12       14       15       42       48 </v>
   <v type="int" >       12       15       42       43       48 </v>
   <v type="int" >       12       15       43       48       49 </v>
   <v type="int" >       12        7        8       14       42 </v>
   <v type="int" >       12        8       14       15       42 </v>
   <v type="int" >       12        8       15       42       43 </v>
   <v type="int" >       12        7        7        8       14 </v>
   <v type="int" >       12        7        8        8       14 </v>
   <v type="int" >       12        8        8       14       15 </v>
   <v type="int" >       12        7        8       14       14 </v>
   <v type="int" >       12        8       14       14       15 </v>
   <v type="int" >       12       36       36       36       64 </v>
   <v type="int" >       12       36       36       64       64 </v>
   <v type="int" >       12       36       64       64       64 </v>
   <v type="int" >       12       35       35       36       64 </v>
   <v type="int" >       12       35       36       36       64 </v>
   <v type="int" >       12       35       36       64       64 </v>
   <v type="int" >       12       35       35       63       64 </v>
   <v type="int" >       12       35       63       64       64 </v>
   <v type="int" >       12       33       33       35       63 </v>
   <v type="int" >       12       33       35       35       63 </v>
   <v type="int" >       12       33       35       63       63 </v>
   <v type="int" >       12       33       33       61       63 </v>
   <v type="int" >       12       33       61       61       63 </v>
   <v type="int" >       12       33       61       63       63 </v>
   <v type="int" >       12       30       30       33       61 </v>
   <v type="int" >       12       30       33       33       61 </v>
   <v type="int" >       12       30       33       61       61 </v>
   <v type="int" >       12       30       30       58       61 </v>
   <v type="int" >       12       30       58       58       61 </v>
   <v type="int" >       12       30       58       61       61 </v>
   <v type="int" >       12       26       26       30       58 </v>
   <v type="int" >       12       26       30       30       58 </v>
   <v type="int" >       12       26       30       58       58 </v>
   <v type="int" >       12       26       26       54       58 </v>
   <v type="int" >       12       26       54       54       58 </v>
   <v type="int" >       12       26       54       58       58 </v>
   <v type="int" >       12       21       21       26       54 </v>
   <v type="int" >       12       21       26       26       54 </v>
   <v type="int" >       12       21       26       54       54 </v>
   <v type="int" >       12       21       21       49       54 </v>
   <v type="int" >       12       21       49       49       54 </v>
   <v type="int" >       12       21       49       54       54 </v>
   <v type="int" >       12       15       15       21       49 </v>
   <v type="int" >       12       15       21       21       49 </v>
   <v type="int" >       12       15       21       49       49 </v>
   <v type="int" >       12       15       15       43       49 </v>
   <v type="int" >       12       15       43       43       49 </v>
   <v type="int" >       12       15       43       49       49 </v>
   <v type="int" >       12        8        8       15       43 </v>
   <v type="int" >       12        8       15       15       43 </v>
   <v type="int" >       12        8       15       43       43 </v>
   <v type="int" >       24        8        8        8       15 </v>
   <v type="int" >       12       34       35       36       64 </v>
   <v type="int" >       12       34       35       63       64 </v>
   <v type="int" >       12       34       62       63       64 </v>
   <v type="int" >       12       32       33       35       63 </v>
   <v type="int" >       12       32       34       35       63 </v>
   <v type="int" >       12       32       34       62       63 </v>
   <v type="int" >       12       32       33       61       63 </v>
   <v type="int" >       12       32       60       61       63 </v>
   <v type="int" >       12       32       60       62       63 </v>
   <v type="int" >       12       29       30       33       61 </v>
   <v type="int" >       12       29       32       33       61 </v>
   <v type="int" >       12       29       32       60       61 </v>
   <v type="int" >       12       29       30       58       61 </v>
   <v type="int" >       12       29       57       58       61 </v>
   <v type="int" >       12       29       57       60       61 </v>
   <v type="int" >       12       25       26       30       58 </v>
   <v type="int" >       12       25       29       30       58 </v>
   <v type="int" >       12       25       29       57       58 </v>
   <v type="int" >       12       25       26       54       58 </v>
   <v type="int" >       12       25       53       54       58 </v>
   <v type="int" >       12       25       53       57       58 </v>
   <v type="int" >       12       20       21       26       54 </v>
   <v type="int" >       12       20       25       26       54 </v>
   <v type="int" >       12       20       25       53       54 </v>
   <v type="int" >       12       20       21       49       54 </v>
   <v type="int" >       12       20       48       49       54 </v>
   <v type="int" >       12       20       48       53       54 </v>
   <v type="int" >       12       14       15       21       49 </v>
   <v type="int" >       12       14       20       21       49 </v>
   <v type="int" >       12       14       20       48       49 </v>
   <v type="int" >       12       14       15       43       49 </v>
   <v type="int" >       12       14       42       43       49 </v>
   <v type="int" >       12       14       42       48       49 </v>
   <v type="int" >       12        7        8       15       43 </v>
   <v type="int" >       12        7       14       15       43 </v>
   <v type="int" >       12        7       14       42       43 </v>
   <v type="int" >       12        7        8        8       15 </v>
   <v type="int" >       12        7        7        8       15 </v>
   <v type="int" >       12        7        7       14       15 </v>
   <v type="int" >       12        7        8       15       15 </v>
   <v type="int" >       12        7       14       15       15 </v>
   <v type="int" >       12       31       32       34       62 </v>
   <v type="int" >       12       31       32       60       62 </v>
   <v type="int" >       12       31       59       60       62 </v>
   <v type="int" >       12       28       29       32       60 </v>
   <v type="int" >       12       28       31       32       60 </v>
   <v type="int" >       12       28       31       59       60 </v>
   <v type="int" >       12       28       29       57       60 </v>
   <v type="int" >       12       28       56       57       60 </v>
   <v type="int" >       12       28       56       59       60 </v>
   <v type="int" >       12       24       25       29       57 </v>
   <v type="int" >       12       24       28       29       57 </v>
   <v type="int" >       12       24       28       56       57 </v>
   <v type="int" >       12       24       25       53       57 </v>
   <v type="int" >       12       24       52       53       57 </v>
   <v type="int" >       12       24       52       56       57 </v>
   <v type="int" >       12       19       20       25       53 </v>
   <v type="int" >       12       19       24       25       53 </v>
   <v type="int" >       12       19       24       52       53 </v>
   <v type="int" >       12       19       20       48       53 </v>
   <v type="int" >       12       19       47       48       53 </v>
   <v type="int" >       12       19       47       52       53 </v>
   <v type="int" >       12       13       14       20       48 </v>
   <v type="int" >       12       13       19       20       48 </v>
   <v type="int" >       12       13       19       47       48 </v>
   <v type="int" >       12       13       14       42       48 </v>
   <v type="int" >       12       13       41       42       48 </v>
   <v type="int" >       12       13       41       47       48 </v>
   <v type="int" >       12        6        7       14       42 </v>
   <v type="int" >       12        6       13       14       42 </v>
   <v type="int" >       12        6       13       41       42 </v>
   <v type="int" >       12        6        7        7       14 </v>
   <v type="int" >       12        6        6        7       14 </v>
   <v type="int" >       12        6        6       13       14 </v>
   <v type="int" >       12        6        7       14       14 </v>
   <v type="int" >       12        6       13       14       14 </v>
   <v type="int" >       12       27       28       31       59 </v>
   <v type="int" >       12       27       28       56       59 </v>
   <v type="int" >       12       27       55       56       59 </v>
   <v type="int" >       12       23       24       28       56 </v>
   <v type="int" >       12       23       27       28       56 </v>
   <v type="int" >       12       23       27       55       56 </v>
   <v type="int" >       12       23       24       52       56 </v>
   <v type="int" >       12       23       51       52       56 </v>
   <v type="int" >       12       23       51       55       56 </v>
   <v type="int" >       12       18       19       24       52 </v>
   <v type="int" >       12       18       23       24       52 </v>
   <v type="int" >       12       18       23       51       52 </v>
   <v type="int" >       12       18       19       47       52 </v>
   <v type="int" >       12       18       46       47       52 </v>
   <v type="int" >       12       18       46       51       52 </v>
   <v type="int" >       12       12       13       19       47 </v>
   <v type="int" >       12       12       18       19       47 </v>
   <v type="int" >       12       12       18       46       47 </v>
   <v type="int" >       12       12       13       41       47 </v>
   <v type="int" >       12       12       40       41       47 </v>
   <v type="int" >       12       12       40       46       47 </v>
   <v type="int" >       12        5        6       13       41 </v>
   <v type="int" >       12        5       12       13       41 </v>
   <v type="int" >       12        5       12       40       41 </v>
   <v type="int" >       12        5        6        6       13 </v>
   <v type="int" >       12        5        5        6       13 </v>
   <v type="int" >       12        5        5       12       13 </v>
   <v type="int" >       12        5        6       13       13 </v>
   <v type="int" >       12        5       12       13       13 </v>
   <v type="int" >       12       22       23       27       55 </v>
   <v type="int" >       12       22       23       51       55 </v>
   <v type="int" >       12       22       50       51       55 </v>
   <v type="int" >       12       17       18       23       51 </v>
   <v type="int" >       12       17       22       23       51 </v>
   <v type="int" >       12       17       22       50       51 </v>
   <v type="int" >       12       17       18       46       51 </v>
   <v type="int" >       12       17       45       46       51 </v>
   <v type="int" >       12       17       45       50       51 </v>
   <v type="int" >       12       11       12       18       46 </v>
   <v type="int" >       12       11       17       18       46 </v>
   <v type="int" >       12       11       17       45       46 </v>
   <v type="int" >       12       11       12       40       46 </v>
   <v type="int" >       12       11       39       40       46 </v>
   <v type="int" >       12       11       39       45       46 </v>
   <v type="int" >       12        4        5       12       40 </v>
   <v type="int" >       12        4       11       12       40 </v>
   <v type="int" >       12        4       11       39       40 </v>
   <v type="int" >       12        4        5        5       12 </v>
   <v type="int" >       12        4        4        5       12 </v>
   <v type="int" >       12        4        4       11       12 </v>
   <v type="int" >       12        4        5       12       12 </v>
   <v type="int" >       12        4       11       12       12 </v>
   <v type="int" >       12       16       17       22       50 </v>
   <v type="int" >       12       16       17       45       50 </v>
   <v type="int" >       12       16       44       45       50 </v>
   <v type="int" >       12       10       11       17       45 </v>
   <v type="int" >       12       10       16       17       45 </v>
   <v type="int" >       12       10       16       44       45 </v>
   <v type="int" >       12       10       11       39       45 </v>
   <v type="int" >       12       10       38       39       45 </v>
   <v type="int" >       12       10       38       44       45 </v>
   <v type="int" >       12        3        4       11       39 </v>
   <v type="int" >       12        3       10       11       39 </v>
   <v type="int" >       12        3       10       38       39 </v>
   <v type="int" >       12        3        4        4       11 </v>
   <v type="int" >       12        3        3        4       11 </v>
   <v type="int" >       12        3        3       10       11 </v>
   <v type="int" >       12        3        4       11       11 </v>
   <v type="int" >       12        3       10       11       11 </v>
   <v type="int" >       12        9       10       16       44 </v>
   <v type="int" >       12        9       10       38       44 </v>
   <v type="int" >       12        9       37       38       44 </v>
   <v type="int" >       12        2        3       10       38 </v>
   <v type="int" >       12        2        9       10       38 </v>
   <v type="int" >       12        2        9       37       38 </v>
   <v type="int" >       12        2        3        3       10 </v>
   <v type="int" >       12        2        2        3       10 </v>
   <v type="int" >       12        2        2        9       10 </v>
   <v type="int" >       12        2        3       10       10 </v>
   <v type="int" >       12        2        9       10       10 </v>
   <v type="int" >       12        1        2        9       37 </v>
   <v type="int" >       12        1        1        2        9 </v>
   <v type="int" >       12        1        2        9        9 </v>
   <v type="int" >       12        1        1        1        2 </v>
   <v type="int" >       12       37       38       38       44 </v>
   <v type="int" >       12       38       38       44       44 </v>
   <v type="int" >       12       38       44       44       65 </v>
   <v type="int" >       12       38       39       44       45 </v>
   <v type="int" >       12       38       44       44       45 </v>
   <v type="int" >       12       44       44       45       65 </v>
   <v type="int" >       12       39       44       45       45 </v>
   <v type="int" >       24       44       45       45       66 </v>
   <v type="int" >       24       44       45       65       66 </v>
   <v type="int" >       12       39       40       45       46 </v>
   <v type="int" >       12       39       45       45       46 </v>
   <v type="int" >       12       45       45       46       66 </v>
   <v type="int" >       12       40       45       46       46 </v>
   <v type="int" >       12       45       46       46       67 </v>
   <v type="int" >       12       45       46       66       67 </v>
   <v type="int" >       12       40       41       46       47 </v>
   <v type="int" >       12       40       46       46       47 </v>
   <v type="int" >       12       46       46       47       67 </v>
   <v type="int" >       12       41       46       47       47 </v>
   <v type="int" >       12       46       47       47       68 </v>
   <v type="int" >       12       46       47       67       68 </v>
   <v type="int" >       12       41       42       47       48 </v>
   <v type="int" >       12       41       47       47       48 </v>
   <v type="int" >       12       47       47       48       68 </v>
   <v type="int" >       12       42       47       48       48 </v>
   <v type="int" >       12       47       48       48       69 </v>
   <v type="int" >       12       47       48       68       69 </v>
   <v type="int" >       12       42       43       48       49 </v>
   <v type="int" >       12       42       48       48       49 </v>
   <v type="int" >       12       48       48       49       69 </v>
   <v type="int" >       12       43       48       49       49 </v>
   <v type="int" >       12       48       49       49       70 </v>
   <v type="int" >       12       48       49       69       70 </v>
   <v type="int" >        6       43       43       49       49 </v>
   <v type="int" >       12       43       49       49       49 </v>
   <v type="int" >       12       49       49       49       70 </v>
   <v type="int" >        6       49       49       70       70 </v>
   <v type="int" >        6        9        9       10       10 </v>
   <v type="int" >       12        9       10       10       10 </v>
   <v type="int" >       12       10       10       10       16 </v>
   <v type="int" >        6       10       10       16       16 </v>
   <v type="int" >       12       44       45       50       65 </v>
   <v type="int" >       12       45       50       65       66 </v>
   <v type="int" >       12       50       65       66       71 </v>
   <v type="int" >       12       45       46       51       66 </v>
   <v type="int" >       12       45       50       51       66 </v>
   <v type="int" >       12       50       51       66       71 </v>
   <v type="int" >       12       46       51       66       67 </v>
   <v type="int" >       12       51       66       67       72 </v>
   <v type="int" >       12       51       66       71       72 </v>
   <v type="int" >       12       46       47       52       67 </v>
   <v type="int" >       12       46       51       52       67 </v>
   <v type="int" >       12       51       52       67       72 </v>
   <v type="int" >       12       47       52       67       68 </v>
   <v type="int" >       12       52       67       68       73 </v>
   <v type="int" >       12       52       67       72       73 </v>
   <v type="int" >       12       47       48       53       68 </v>
   <v type="int" >       12       47       52       53       68 </v>
   <v type="int" >       12       52       53       68       73 </v>
   <v type="int" >       12       48       53       68       69 </v>
   <v type="int" >       12       53       68       69       74 </v>
   <v type="int" >       12       53       68       73       74 </v>
   <v type="int" >       12       48       49       54       69 </v>
   <v type="int" >       12       48       53       54       69 </v>
   <v type="int" >       12       53       54       69       74 </v>
   <v type="int" >       12       49       54       69       70 </v>
   <v type="int" >       12       54       69       70       75 </v>
   <v type="int" >       12       54       69       74       75 </v>
   <v type="int" >       12       49       49       54       70 </v>
   <v type="int" >       12       49       54       54       70 </v>
   <v type="int" >       12       54       54       70       75 </v>
   <v type="int" >       12       49       54       70       70 </v>
   <v type="int" >       12       54       70       70       75 </v>
   <v type="int" >       12       54       70       75       75 </v>
   <v type="int" >       12       48       49       53       70 </v>
   <v type="int" >       12       49       53       54       70 </v>
   <v type="int" >       12       53       54       70       75 </v>
   <v type="int" >       12       48       53       69       70 </v>
   <v type="int" >       12       53       69       70       74 </v>
   <v type="int" >       12       53       70       74       75 </v>
   <v type="int" >       12       47       48       52       69 </v>
   <v type="int" >       12       48       52       53       69 </v>
   <v type="int" >       12       52       53       69       74 </v>
   <v type="int" >       12       47       52       68       69 </v>
   <v type="int" >       12       52       68       69       73 </v>
   <v type="int" >       12       52       69       73       74 </v>
   <v type="int" >       12       46       47       51       68 </v>
   <v type="int" >       12       47       51       52       68 </v>
   <v type="int" >       12       51       52       68       73 </v>
   <v type="int" >       12       46       51       67       68 </v>
   <v type="int" >       12       51       67       68       72 </v>
   <v type="int" >       12       51       68       72       73 </v>
   <v type="int" >       12       45       46       50       67 </v>
   <v type="int" >       12       46       50       51       67 </v>
   <v type="int" >       12       50       51       67       72 </v>
   <v type="int" >       12       45       50       66       67 </v>
   <v type="int" >       12       50       66       67       71 </v>
   <v type="int" >       12       50       67       71       72 </v>
   <v type="int" >       12       45       45       50       66 </v>
   <v type="int" >       12       45       50       66       71 </v>
   <v type="int" >       12       45       65       66       66 </v>
   <v type="int" >       12       45       66       66       71 </v>
   <v type="int" >       12       38       39       44       65 </v>
   <v type="int" >       12       39       44       45       65 </v>
   <v type="int" >       12       39       45       65       66 </v>
   <v type="int" >       12       10       10       11       16 </v>
   <v type="int" >       12       10       11       11       16 </v>
   <v type="int" >       12       11       11       16       17 </v>
   <v type="int" >       12       10       11       16       16 </v>
   <v type="int" >       12       11       16       16       17 </v>
   <v type="int" >       12       11       16       17       17 </v>
   <v type="int" >       12       50       51       55       71 </v>
   <v type="int" >       12       51       55       71       72 </v>
   <v type="int" >       12       55       71       72       76 </v>
   <v type="int" >       12       51       52       56       72 </v>
   <v type="int" >       12       51       55       56       72 </v>
   <v type="int" >       12       55       56       72       76 </v>
   <v type="int" >       12       52       56       72       73 </v>
   <v type="int" >       12       56       72       73       77 </v>
   <v type="int" >       12       56       72       76       77 </v>
   <v type="int" >       12       52       53       57       73 </v>
   <v type="int" >       12       52       56       57       73 </v>
   <v type="int" >       12       56       57       73       77 </v>
   <v type="int" >       12       53       57       73       74 </v>
   <v type="int" >       12       57       73       74       78 </v>
   <v type="int" >       12       57       73       77       78 </v>
   <v type="int" >       12       53       54       58       74 </v>
   <v type="int" >       12       53       57       58       74 </v>
   <v type="int" >       12       57       58       74       78 </v>
   <v type="int" >       12       54       58       74       75 </v>
   <v type="int" >       12       58       74       75       79 </v>
   <v type="int" >       12       58       74       78       79 </v>
   <v type="int" >       12       54       54       58       75 </v>
   <v type="int" >       12       54       58       58       75 </v>
   <v type="int" >       12       58       58       75       79 </v>
   <v type="int" >       12       54       58       75       75 </v>
   <v type="int" >       12       58       75       75       79 </v>
   <v type="int" >       12       58       75       79       79 </v>
   <v type="int" >       12       53       54       57       75 </v>
   <v type="int" >       12       54       57       58       75 </v>
   <v type="int" >       12       57       58       75       79 </v>
   <v type="int" >       12       53       57       74       75 </v>
   <v type="int" >       12       57       74       75       78 </v>
   <v type="int" >       12       57       75       78       79 </v>
   <v type="int" >       12       52       53       56       74 </v>
   <v type="int" >       12       53       56       57       74 </v>
   <v type="int" >       12       56       57       74       78 </v>
   <v type="int" >       12       52       56       73       74 </v>
   <v type="int" >       12       56       73       74       77 </v>
   <v type="int" >       12       56       74       77       78 </v>
   <v type="int" >       12       51       52       55       73 </v>
   <v type="int" >       12       52       55       56       73 </v>
   <v type="int" >       12       55       56       73       77 </v>
   <v type="int" >       12       51       55       72       73 </v>
   <v type="int" >       12       55       72       73       76 </v>
   <v type="int" >       12       55       73       76       77 </v>
   <v type="int" >       12       50       51       51       72 </v>
   <v type="int" >       12       51       51       55       72 </v>
   <v type="int" >       12       51       55       72       76 </v>
   <v type="int" >       12       50       51       71       72 </v>
   <v type="int" >       12       51       71       72       72 </v>
   <v type="int" >       12       51       72       72       76 </v>
   <v type="int" >       12       45       46       50       71 </v>
   <v type="int" >       12       46       50       51       71 </v>
   <v type="int" >       12       46       51       71       72 </v>
   <v type="int" >       12       45       46       66       71 </v>
   <v type="int" >       12       46       66       67       71 </v>
   <v type="int" >       12       46       67       71       72 </v>
   <v type="int" >       12       39       40       45       66 </v>
   <v type="int" >       12       40       45       46       66 </v>
   <v type="int" >       12       40       46       66       67 </v>
   <v type="int" >       12       11       11       12       17 </v>
   <v type="int" >       12       11       12       12       17 </v>
   <v type="int" >       12       12       12       17       18 </v>
   <v type="int" >       12       11       12       17       17 </v>
   <v type="int" >       12       12       17       17       18 </v>
   <v type="int" >       12       12       17       18       18 </v>
   <v type="int" >       12       55       56       59       76 </v>
   <v type="int" >       12       56       59       76       77 </v>
   <v type="int" >       12       59       76       77       80 </v>
   <v type="int" >       12       56       57       60       77 </v>
   <v type="int" >       12       56       59       60       77 </v>
   <v type="int" >       12       59       60       77       80 </v>
   <v type="int" >       12       57       60       77       78 </v>
   <v type="int" >       12       60       77       78       81 </v>
   <v type="int" >       12       60       77       80       81 </v>
   <v type="int" >       12       57       58       61       78 </v>
   <v type="int" >       12       57       60       61       78 </v>
   <v type="int" >       12       60       61       78       81 </v>
   <v type="int" >       12       58       61       78       79 </v>
   <v type="int" >       12       61       78       79       82 </v>
   <v type="int" >       12       61       78       81       82 </v>
   <v type="int" >       12       58       58       61       79 </v>
   <v type="int" >       12       58       61       61       79 </v>
   <v type="int" >       12       61       61       79       82 </v>
   <v type="int" >       12       58       61       79       79 </v>
   <v type="int" >       12       61       79       79       82 </v>
   <v type="int" >       12       61       79       82       82 </v>
   <v type="int" >       12       57       58       60       79 </v>
   <v type="int" >       12       58       60       61       79 </v>
   <v type="int" >       12       60       61       79       82 </v>
   <v type="int" >       12       57       60       78       79 </v>
   <v type="int" >       12       60       78       79       81 </v>
   <v type="int" >       12       60       79       81       82 </v>
   <v type="int" >       12       56       57       59       78 </v>
   <v type="int" >       12       57       59       60       78 </v>
   <v type="int" >       12       59       60       78       81 </v>
   <v type="int" >       12       56       59       77       78 </v>
   <v type="int" >       12       59       77       78       80 </v>
   <v type="int" >       12       59       78       80       81 </v>
   <v type="int" >       12       55       56       56       77 </v>
   <v type="int" >       12       56       56       59       77 </v>
   <v type="int" >       12       56       59       77       80 </v>
   <v type="int" >       12       55       56       76       77 </v>
   <v type="int" >       12       56       76       77       77 </v>
   <v type="int" >       12       56       77       77       80 </v>
   <v type="int" >       12       51       52       55       76 </v>
   <v type="int" >       12       52       55       56       76 </v>
   <v type="int" >       12       52       56       76       77 </v>
   <v type="int" >       12       51       52       72       76 </v>
   <v type="int" >       12       52       72       73       76 </v>
   <v type="int" >       12       52       73       76       77 </v>
   <v type="int" >       12       46       47       51       72 </v>
   <v type="int" >       12       47       51       52       72 </v>
   <v type="int" >       12       47       52       72       73 </v>
   <v type="int" >       12       46       47       67       72 </v>
   <v type="int" >       12       47       67       68       72 </v>
   <v type="int" >       12       47       68       72       73 </v>
   <v type="int" >       12       40       41       46       67 </v>
   <v type="int" >       12       41       46       47       67 </v>
   <v type="int" >       12       41       47       67       68 </v>
   <v type="int" >       12       12       12       13       18 </v>
   <v type="int" >       12       12       13       13       18 </v>
   <v type="int" >       12       13       13       18       19 </v>
   <v type="int" >       12       12       13       18       18 </v>
   <v type="int" >       12       13       18       18       19 </v>
   <v type="int" >       12       13       18       19       19 </v>
   <v type="int" >       12       59       60       62       80 </v>
   <v type="int" >       12       60       62       80       81 </v>
   <v type="int" >       12       62       80       81       83 </v>
   <v type="int" >       12       60       61       63       81 </v>
   <v type="int" >       12       60       62       63       81 </v>
   <v type="int" >       12       62       63       81       83 </v>
   <v type="int" >       12       61       63       81       82 </v>
   <v type="int" >       12       63       81       82       84 </v>
   <v type="int" >       12       63       81       83       84 </v>
   <v type="int" >       12       61       61       63       82 </v>
   <v type="int" >       12       61       63       63       82 </v>
   <v type="int" >       12       63       63       82       84 </v>
   <v type="int" >       12       61       63       82       82 </v>
   <v type="int" >       12       63       82       82       84 </v>
   <v type="int" >       12       63       82       84       84 </v>
   <v type="int" >       12       60       61       62       82 </v>
   <v type="int" >       12       61       62       63       82 </v>
   <v type="int" >       12       62       63       82       84 </v>
   <v type="int" >       12       60       62       81       82 </v>
   <v type="int" >       12       62       81       82       83 </v>
   <v type="int" >       12       62       82       83       84 </v>
   <v type="int" >       12       59       60       60       81 </v>
   <v type="int" >       12       60       60       62       81 </v>
   <v type="int" >       12       60       62       81       83 </v>
   <v type="int" >       12       59       60       80       81 </v>
   <v type="int" >       12       60       80       81       81 </v>
   <v type="int" >       12       60       81       81       83 </v>
   <v type="int" >       12       56       57       59       80 </v>
   <v type="int" >       12       57       59       60       80 </v>
   <v type="int" >       12       57       60       80       81 </v>
   <v type="int" >       12       56       57       77       80 </v>
   <v type="int" >       12       57       77       78       80 </v>
   <v type="int" >       12       57       78       80       81 </v>
   <v type="int" >       12       52       53       56       77 </v>
   <v type="int" >       12       53       56       57       77 </v>
   <v type="int" >       12       53       57       77       78 </v>
   <v type="int" >       12       52       53       73       77 </v>
   <v type="int" >       12       53       73       74       77 </v>
   <v type="int" >       12       53       74       77       78 </v>
   <v type="int" >       12       47       48       52       73 </v>
   <v type="int" >       12       48       52       53       73 </v>
   <v type="int" >       12       48       53       73       74 </v>
   <v type="int" >       12       47       48       68       73 </v>
   <v type="int" >       12       48       68       69       73 </v>
   <v type="int" >       12       48       69       73       74 </v>
   <v type="int" >       12       41       42       47       68 </v>
   <v type="int" >       12       42       47       48       68 </v>
   <v type="int" >       12       42       48       68       69 </v>
   <v type="int" >       12       13       13       14       19 </v>
   <v type="int" >       12       13       14       14       19 </v>
   <v type="int" >       12       14       14       19       20 </v>
   <v type="int" >       12       13       14       19       19 </v>
   <v type="int" >       12       14       19       19       20 </v>
   <v type="int" >       12       14       19       20       20 </v>
   <v type="int" >       12       62       63       64       83 </v>
   <v type="int" >       12       63       64       83       84 </v>
   <v type="int" >       12       64       83       84       85 </v>
   <v type="int" >       24       63       63       64       84 </v>
   <v type="int" >       12       63       64       64       84 </v>
   <v type="int" >       12       64       64       84       85 </v>
   <v type="int" >       12       63       64       84       84 </v>
   <v type="int" >       12       64       84       84       85 </v>
   <v type="int" >       12       64       84       85       85 </v>
   <v type="int" >       12       62       63       63       84 </v>
   <v type="int" >       12       63       64       84       85 </v>
   <v type="int" >       12       62       63       83       84 </v>
   <v type="int" >       12       63       83       84       84 </v>
   <v type="int" >       24       63       84       84       85 </v>
   <v type="int" >       12       60       61       62       83 </v>
   <v type="int" >       12       61       62       63       83 </v>
   <v type="int" >       12       61       63       83       84 </v>
   <v type="int" >       12       60       61       81       83 </v>
   <v type="int" >       12       61       81       82       83 </v>
   <v type="int" >       12       61       82       83       84 </v>
   <v type="int" >       12       57       58       60       81 </v>
   <v type="int" >       12       58       60       61       81 </v>
   <v type="int" >       12       58       61       81       82 </v>
   <v type="int" >       12       57       58       78       81 </v>
[...]
       <r>    8.8605    0.0000 </r>
       <r>    8.8613    0.0000 </r>
       <r>   14.7748    0.0000 </r>
       <r>   14.8296    0.0000 </r>
       <r>   15.5408    0.0000 </r>
       <r>   15.6708    0.0000 </r>
       <r>   16.9526    0.0000 </r>
       <r>   17.6599    0.0000 </r>
       <r>   18.4059    0.0000 </r>
       <r>   18.9502    0.0000 </r>
       <r>   27.8492    0.0000 </r>
       <r>   28.2417    0.0000 </r>
       <r>   29.4294    0.0000 </r>
       <r>   30.7444    0.0000 </r>
       <r>   32.2636    0.0000 </r>
       <r>   32.6679    0.0000 </r>
       <r>   33.0669    0.0000 </r>
       <r>   33.5387    0.0000 </r>
       <r>   35.0431    0.0000 </r>
       <r>   35.8713    0.0000 </r>
       <r>   36.1222    0.0000 </r>
       <r>   36.3968    0.0000 </r>
       <r>   42.0519    0.0000 </r>
       <r>   42.0655    0.0000 </r>
       <r>   44.1283    0.0000 </r>
       <r>   44.7467    0.0000 </r>
      </set>
      <set comment="kpoint 119">
       <r>  -25.6196    1.0000 </r>
       <r>  -25.5903    1.0000 </r>
       <r>  -25.4126    1.0000 </r>
       <r>  -25.3389    1.0000 </r>
       <r>  -25.1934    1.0000 </r>
       <r>  -25.1566    1.0000 </r>
       <r>    3.1888    1.0000 </r>
       <r>    3.3828    1.0000 </r>
       <r>    3.4576    1.0000 </r>
       <r>    3.6650    1.0000 </r>
       <r>    4.2377    1.0000 </r>
       <r>    4.2548    1.0000 </r>
       <r>    8.8272    0.0000 </r>
       <r>    8.8298    0.0000 </r>
       <r>    8.8910    0.0000 </r>
       <r>    8.8915    0.0000 </r>
       <r>   14.7218    0.0000 </r>
       <r>   14.7568    0.0000 </r>
       <r>   15.6934    0.0000 </r>
       <r>   15.8391    0.0000 </r>
       <r>   17.1162    0.0000 </r>
       <r>   17.5883    0.0000 </r>
       <r>   17.9776    0.0000 </r>
       <r>   18.3454    0.0000 </r>
       <r>   28.5428    0.0000 </r>
       <r>   28.7894    0.0000 </r>
       <r>   30.0163    0.0000 </r>
       <r>   31.1373    0.0000 </r>
       <r>   31.3266    0.0000 </r>
       <r>   32.1700    0.0000 </r>
       <r>   33.0960    0.0000 </r>
       <r>   33.7196    0.0000 </r>
       <r>   34.3112    0.0000 </r>
       <r>   34.9493    0.0000 </r>
       <r>   35.7102    0.0000 </r>
       <r>   35.7905    0.0000 </r>
       <r>   42.0579    0.0000 </r>
       <r>   42.0611    0.0000 </r>
       <r>   45.7962    0.0000 </r>
       <r>   45.9902    0.0000 </r>
      </set>
      <set comment="kpoint 120">
       <r>  -25.5241    1.0000 </r>
       <r>  -25.4592    1.0000 </r>
       <r>  -25.4592    1.0000 </r>
       <r>  -25.3252    1.0000 </r>
       <r>  -25.3252    1.0000 </r>
       <r>  -25.2586    1.0000 </r>
       <r>    3.4176    1.0000 </r>
       <r>    3.5976    1.0000 </r>
       <r>    3.5976    1.0000 </r>
       <r>    3.8885    1.0000 </r>
       <r>    3.8885    1.0000 </r>
       <r>    3.9883    1.0000 </r>
       <r>    8.8996    0.0000 </r>
       <r>    8.8996    0.0000 </r>
       <r>    8.9002    0.0000 </r>
       <r>    8.9002    0.0000 </r>
       <r>   14.5528    0.0000 </r>
       <r>   14.5726    0.0000 </r>
       <r>   16.3010    0.0000 </r>
       <r>   16.6692    0.0000 </r>
       <r>   16.6692    0.0000 </r>
       <r>   17.4047    0.0000 </r>
       <r>   17.4047    0.0000 </r>
       <r>   17.7937    0.0000 </r>
       <r>   29.4197    0.0000 </r>
       <r>   29.9400    0.0000 </r>
       <r>   29.9400    0.0000 </r>
       <r>   31.2159    0.0000 </r>
       <r>   31.2159    0.0000 </r>
       <r>   31.9725    0.0000 </r>
       <r>   32.9774    0.0000 </r>
       <r>   33.6304    0.0000 </r>
       <r>   33.6304    0.0000 </r>
       <r>   34.5502    0.0000 </r>
       <r>   34.5502    0.0000 </r>
       <r>   34.7723    0.0000 </r>
       <r>   42.0496    0.0000 </r>
       <r>   42.0501    0.0000 </r>
       <r>   47.3158    0.0000 </r>
       <r>   47.3795    0.0000 </r>
      </set>
     </set>
    </set>
   </array>
  </eigenvalues>
  <separator name="orbital magnetization" >
   <v name="MAGDIPOLOUT">      0.00000000      0.00000000      0.00000000</v>
  </separator>
  <dos>
   <i name="efermi">      4.83925864 </i>
   <total>
    <array>
     <dimension dim="1">gridpoints</dimension>
     <dimension dim="2">spin</dimension>
     <field>energy</field>
     <field>total</field>
     <field>integrated</field>
     <set>
      <set comment="spin 1">
       <r>   -29.7394     0.0000     0.0000 </r>
       <r>   -29.4701     0.0000     0.0000 </r>
       <r>   -29.2008     0.0000     0.0000 </r>
       <r>   -28.9315     0.0000     0.0000 </r>
       <r>   -28.6622     0.0000     0.0000 </r>
       <r>   -28.3929     0.0000     0.0000 </r>
       <r>   -28.1236     0.0000     0.0000 </r>
       <r>   -27.8543     0.0000     0.0000 </r>
       <r>   -27.5850     0.0000     0.0000 </r>
       <r>   -27.3157     0.0000     0.0000 </r>
       <r>   -27.0464     0.0000     0.0000 </r>
       <r>   -26.7771     0.0000     0.0000 </r>
       <r>   -26.5078     0.0000     0.0000 </r>
       <r>   -26.2385     0.0000     0.0000 </r>
       <r>   -25.9692     4.2693     0.2638 </r>
       <r>   -25.6999     7.3358     2.7052 </r>
       <r>   -25.4306     7.0725     4.2839 </r>
       <r>   -25.1613    10.5786     6.5862 </r>
       <r>   -24.8920    12.4051     9.2697 </r>
       <r>   -24.6226     0.0000    12.0000 </r>
       <r>   -24.3533     0.0000    12.0000 </r>
       <r>   -24.0840     0.0000    12.0000 </r>
       <r>   -23.8147     0.0000    12.0000 </r>
       <r>   -23.5454     0.0000    12.0000 </r>
       <r>   -23.2761     0.0000    12.0000 </r>
       <r>   -23.0068     0.0000    12.0000 </r>
       <r>   -22.7375     0.0000    12.0000 </r>
       <r>   -22.4682     0.0000    12.0000 </r>
       <r>   -22.1989     0.0000    12.0000 </r>
       <r>   -21.9296     0.0000    12.0000 </r>
       <r>   -21.6603     0.0000    12.0000 </r>
       <r>   -21.3910     0.0000    12.0000 </r>
       <r>   -21.1217     0.0000    12.0000 </r>
       <r>   -20.8524     0.0000    12.0000 </r>
       <r>   -20.5831     0.0000    12.0000 </r>
       <r>   -20.3138     0.0000    12.0000 </r>
       <r>   -20.0445     0.0000    12.0000 </r>
       <r>   -19.7752     0.0000    12.0000 </r>
       <r>   -19.5059     0.0000    12.0000 </r>
       <r>   -19.2366     0.0000    12.0000 </r>
       <r>   -18.9673     0.0000    12.0000 </r>
       <r>   -18.6980     0.0000    12.0000 </r>
       <r>   -18.4286     0.0000    12.0000 </r>
       <r>   -18.1593     0.0000    12.0000 </r>
       <r>   -17.8900     0.0000    12.0000 </r>
       <r>   -17.6207     0.0000    12.0000 </r>
       <r>   -17.3514     0.0000    12.0000 </r>
       <r>   -17.0821     0.0000    12.0000 </r>
       <r>   -16.8128     0.0000    12.0000 </r>
       <r>   -16.5435     0.0000    12.0000 </r>
       <r>   -16.2742     0.0000    12.0000 </r>
       <r>   -16.0049     0.0000    12.0000 </r>
       <r>   -15.7356     0.0000    12.0000 </r>
       <r>   -15.4663     0.0000    12.0000 </r>
       <r>   -15.1970     0.0000    12.0000 </r>
       <r>   -14.9277     0.0000    12.0000 </r>
       <r>   -14.6584     0.0000    12.0000 </r>
       <r>   -14.3891     0.0000    12.0000 </r>
       <r>   -14.1198     0.0000    12.0000 </r>
       <r>   -13.8505     0.0000    12.0000 </r>
       <r>   -13.5812     0.0000    12.0000 </r>
       <r>   -13.3119     0.0000    12.0000 </r>
       <r>   -13.0426     0.0000    12.0000 </r>
       <r>   -12.7733     0.0000    12.0000 </r>
       <r>   -12.5040     0.0000    12.0000 </r>
       <r>   -12.2346     0.0000    12.0000 </r>
       <r>   -11.9653     0.0000    12.0000 </r>
       <r>   -11.6960     0.0000    12.0000 </r>
       <r>   -11.4267     0.0000    12.0000 </r>
       <r>   -11.1574     0.0000    12.0000 </r>
       <r>   -10.8881     0.0000    12.0000 </r>
       <r>   -10.6188     0.0000    12.0000 </r>
       <r>   -10.3495     0.0000    12.0000 </r>
       <r>   -10.0802     0.0000    12.0000 </r>
       <r>    -9.8109     0.0000    12.0000 </r>
       <r>    -9.5416     0.0000    12.0000 </r>
       <r>    -9.2723     0.0000    12.0000 </r>
       <r>    -9.0030     0.0000    12.0000 </r>
       <r>    -8.7337     0.0000    12.0000 </r>
       <r>    -8.4644     0.0000    12.0000 </r>
       <r>    -8.1951     0.0000    12.0000 </r>
       <r>    -7.9258     0.0000    12.0000 </r>
       <r>    -7.6565     0.0000    12.0000 </r>
       <r>    -7.3872     0.0000    12.0000 </r>
       <r>    -7.1179     0.0000    12.0000 </r>
       <r>    -6.8486     0.0000    12.0000 </r>
       <r>    -6.5793     0.0000    12.0000 </r>
       <r>    -6.3100     0.0000    12.0000 </r>
       <r>    -6.0407     0.0000    12.0000 </r>
       <r>    -5.7713     0.0000    12.0000 </r>
       <r>    -5.5020     0.0000    12.0000 </r>
       <r>    -5.2327     0.0000    12.0000 </r>
       <r>    -4.9634     0.0000    12.0000 </r>
       <r>    -4.6941     0.0000    12.0000 </r>
       <r>    -4.4248     0.0000    12.0000 </r>
       <r>    -4.1555     0.0000    12.0000 </r>
       <r>    -3.8862     0.0000    12.0000 </r>
       <r>    -3.6169     0.0000    12.0000 </r>
       <r>    -3.3476     0.0000    12.0000 </r>
       <r>    -3.0783     0.0000    12.0000 </r>
       <r>    -2.8090     0.0000    12.0000 </r>
       <r>    -2.5397     0.0000    12.0000 </r>
       <r>    -2.2704     0.0000    12.0000 </r>
       <r>    -2.0011     0.0000    12.0000 </r>
       <r>    -1.7318     0.0000    12.0000 </r>
       <r>    -1.4625     0.0000    12.0000 </r>
       <r>    -1.1932     0.0000    12.0000 </r>
       <r>    -0.9239     0.0462    12.0037 </r>
       <r>    -0.6546     0.0879    12.0224 </r>
       <r>    -0.3853     0.1223    12.0514 </r>
       <r>    -0.1160     0.1602    12.0893 </r>
       <r>     0.1533     0.1953    12.1370 </r>
       <r>     0.4227     0.2434    12.1956 </r>
       <r>     0.6920     0.3002    12.2679 </r>
       <r>     0.9613     0.3888    12.3592 </r>
       <r>     1.2306     1.3130    12.5396 </r>
       <r>     1.4999     1.9717    13.0348 </r>
       <r>     1.7692     2.2373    13.6032 </r>
       <r>     2.0385     2.7550    14.2529 </r>
       <r>     2.3078     2.5567    15.0283 </r>
       <r>     2.5771     2.7326    15.8041 </r>
       <r>     2.8464     1.0948    16.2398 </r>
       <r>     3.1157     0.8417    16.4953 </r>
       <r>     3.3850     4.6059    17.3638 </r>
       <r>     3.6543     2.9280    18.5842 </r>
       <r>     3.9236     2.2687    19.1898 </r>
       <r>     4.1929     2.0173    19.8167 </r>
       <r>     4.4622     3.0005    20.4636 </r>
       <r>     4.7315     4.0127    21.6348 </r>
       <r>     5.0008     2.5961    22.4439 </r>
       <r>     5.2701     1.2095    22.9415 </r>
       <r>     5.5394     1.0333    23.2378 </r>
       <r>     5.8087     0.8167    23.4994 </r>
       <r>     6.0780     1.0227    23.7436 </r>
       <r>     6.3473     1.1208    24.0383 </r>
       <r>     6.6167     1.3151    24.3121 </r>
       <r>     6.8860     1.9728    24.7638 </r>
       <r>     7.1553     2.0186    25.2990 </r>
       <r>     7.4246     2.4286    25.8992 </r>
       <r>     7.6939     2.7184    26.5839 </r>
       <r>     7.9632     2.8982    27.3115 </r>
       <r>     8.2325     2.6643    28.1203 </r>
       <r>     8.5018     2.8610    28.8235 </r>
       <r>     8.7711     4.7940    29.7597 </r>
       <r>     9.0404     2.8829    31.1621 </r>
       <r>     9.3097     1.6450    31.7089 </r>
       <r>     9.5790     1.5124    32.1834 </r>
       <r>     9.8483     1.3535    32.5762 </r>
       <r>    10.1176     1.1561    32.9056 </r>
       <r>    10.3869     1.3425    33.2271 </r>
       <r>    10.6562     0.8475    33.5074 </r>
       <r>    10.9255     0.6349    33.6966 </r>
       <r>    11.1948     0.7963    33.8810 </r>
       <r>    11.4641     0.6977    34.0853 </r>
       <r>    11.7334     0.6506    34.2678 </r>
       <r>    12.0027     0.6300    34.4407 </r>
       <r>    12.2720     0.6117    34.6080 </r>
       <r>    12.5413     0.5914    34.7700 </r>
       <r>    12.8107     0.5757    34.9281 </r>
       <r>    13.0800     0.5550    35.0805 </r>
       <r>    13.3493     0.5551    35.2279 </r>
       <r>    13.6186     0.5225    35.3695 </r>
       <r>    13.8879     0.4986    35.5052 </r>
       <r>    14.1572     0.4337    35.6316 </r>
       <r>    14.4265     0.3615    35.7378 </r>
       <r>    14.6958     0.4814    35.8470 </r>
       <r>    14.9651     0.2872    35.9731 </r>
       <r>    15.2344     0.2070    36.0380 </r>
       <r>    15.5037     0.6406    36.1571 </r>
       <r>    15.7730     0.9136    36.3645 </r>
       <r>    16.0423     1.0605    36.6310 </r>
       <r>    16.3116     1.0514    36.9064 </r>
       <r>    16.5809     1.1604    37.1984 </r>
       <r>    16.8502     1.2603    37.5228 </r>
       <r>    17.1195     1.1151    37.8511 </r>
       <r>    17.3888     1.0691    38.1411 </r>
       <r>    17.6581     1.2791    38.4687 </r>
       <r>    17.9274     1.4927    38.8421 </r>
       <r>    18.1967     1.7243    39.3006 </r>
       <r>    18.4660     1.7054    39.7796 </r>
       <r>    18.7353     1.6407    40.2362 </r>
       <r>    19.0046     1.5547    40.6641 </r>
       <r>    19.2740     1.5434    41.0779 </r>
       <r>    19.5433     1.4038    41.4740 </r>
       <r>    19.8126     1.3241    41.8396 </r>
       <r>    20.0819     1.3219    42.1977 </r>
       <r>    20.3512     1.1399    42.5353 </r>
       <r>    20.6205     1.2231    42.8461 </r>
       <r>    20.8898     1.4166    43.1936 </r>
       <r>    21.1591     1.5652    43.6094 </r>
       <r>    21.4284     1.5668    44.0251 </r>
       <r>    21.6977     1.8379    44.4898 </r>
       <r>    21.9670     1.9255    45.0340 </r>
       <r>    22.2363     1.3725    45.4793 </r>
       <r>    22.5056     1.4223    45.8567 </r>
       <r>    22.7749     1.3870    46.2402 </r>
       <r>    23.0442     1.1183    46.5729 </r>
       <r>    23.3135     0.6421    46.7972 </r>
       <r>    23.5828     0.8247    46.9898 </r>
       <r>    23.8521     0.9515    47.2375 </r>
       <r>    24.1214     1.1540    47.5205 </r>
       <r>    24.3907     1.3435    47.8905 </r>
       <r>    24.6600     1.5237    48.2251 </r>
       <r>    24.9293     2.0234    48.6760 </r>
       <r>    25.1986     1.5908    49.2065 </r>
       <r>    25.4680     1.3896    49.5985 </r>
       <r>    25.7373     1.2772    49.9606 </r>
       <r>    26.0066     1.1632    50.2983 </r>
       <r>    26.2759     1.1479    50.6133 </r>
       <r>    26.5452     1.1354    50.9170 </r>
       <r>    26.8145     1.0647    51.2157 </r>
       <r>    27.0838     0.8471    51.4552 </r>
       <r>    27.3531     0.9034    51.6856 </r>
       <r>    27.6224     1.2282    51.9626 </r>
       <r>    27.8917     1.3457    52.3348 </r>
       <r>    28.1610     1.2283    52.6952 </r>
       <r>    28.4303     1.0768    52.9779 </r>
       <r>    28.6996     1.4000    53.3591 </r>
       <r>    28.9689     1.5542    53.7886 </r>
       <r>    29.2382     1.6162    54.1914 </r>
       <r>    29.5075     1.4510    54.5990 </r>
       <r>    29.7768     1.6054    55.0119 </r>
       <r>    30.0461     2.0877    55.4956 </r>
       <r>    30.3154     0.9091    55.8128 </r>
       <r>    30.5847     1.0089    56.0710 </r>
       <r>    30.8540     1.3361    56.3892 </r>
       <r>    31.1233     1.7438    56.8230 </r>
       <r>    31.3926     1.3637    57.2089 </r>
       <r>    31.6620     1.1870    57.5469 </r>
       <r>    31.9313     1.2994    57.8820 </r>
       <r>    32.2006     1.5739    58.2749 </r>
       <r>    32.4699     1.8450    58.7480 </r>
       <r>    32.7392     1.8639    59.2604 </r>
       <r>    33.0085     1.5851    59.7366 </r>
       <r>    33.2778     1.7665    60.2070 </r>
       <r>    33.5471     1.7655    60.7027 </r>
       <r>    33.8164     1.5165    61.1628 </r>
       <r>    34.0857     1.6635    61.6050 </r>
       <r>    34.3550     1.6871    62.0576 </r>
       <r>    34.6243     1.7652    62.5396 </r>
       <r>    34.8936     1.5089    62.9855 </r>
       <r>    35.1629     1.3311    63.3643 </r>
       <r>    35.4322     1.2744    63.7272 </r>
       <r>    35.7015     0.9953    64.0293 </r>
       <r>    35.9708     1.1058    64.3101 </r>
       <r>    36.2401     1.1048    64.6131 </r>
       <r>    36.5094     1.2505    64.9207 </r>
       <r>    36.7787     1.4692    65.2865 </r>
       <r>    37.0480     1.8396    65.7257 </r>
       <r>    37.3173     2.2342    66.2607 </r>
       <r>    37.5866     2.1823    66.8266 </r>
       <r>    37.8560     2.0207    67.3949 </r>
       <r>    38.1253     1.9703    67.9200 </r>
       <r>    38.3946     1.6890    68.4147 </r>
       <r>    38.6639     1.3589    68.8234 </r>
       <r>    38.9332     1.1812    69.1549 </r>
       <r>    39.2025     1.7046    69.5522 </r>
       <r>    39.4718     1.3500    69.9949 </r>
       <r>    39.7411     1.6522    70.3878 </r>
       <r>    40.0104     2.0265    70.8421 </r>
       <r>    40.2797     1.5474    71.2935 </r>
       <r>    40.5490     1.6401    71.7330 </r>
       <r>    40.8183     1.6973    72.1850 </r>
       <r>    41.0876     1.7547    72.6556 </r>
       <r>    41.3569     2.2726    73.1909 </r>
       <r>    41.6262     2.9009    73.9150 </r>
       <r>    41.8955     3.6519    74.7592 </r>
       <r>    42.1648    10.4725    76.3662 </r>
       <r>    42.4341     3.1918    77.8754 </r>
       <r>    42.7034     2.3092    78.6093 </r>
       <r>    42.9727     1.7604    79.1462 </r>
       <r>    43.2420     0.9881    79.4949 </r>
       <r>    43.5113     0.4604    79.6820 </r>
       <r>    43.7806     0.3382    79.7879 </r>
       <r>    44.0499     0.2558    79.8646 </r>
       <r>    44.3193     0.1634    79.9232 </r>
       <r>    44.5886     0.0711    79.9536 </r>
       <r>    44.8579     0.0260    79.9647 </r>
       <r>    45.1272     0.0229    79.9713 </r>
       <r>    45.3965     0.0200    79.9771 </r>
       <r>    45.6658     0.0173    79.9821 </r>
       <r>    45.9351     0.0150    79.9864 </r>
       <r>    46.2044     0.0122    79.9901 </r>
       <r>    46.4737     0.0099    79.9930 </r>
       <r>    46.7430     0.0079    79.9954 </r>
       <r>    47.0123     0.0061    79.9973 </r>
       <r>    47.2816     0.0044    79.9987 </r>
       <r>    47.5509     0.0000    80.0000 </r>
       <r>    47.8202     0.0000    80.0000 </r>
       <r>    48.0895     0.0000    80.0000 </r>
       <r>    48.3588     0.0000    80.0000 </r>
       <r>    48.6281     0.0000    80.0000 </r>
       <r>    48.8974     0.0000    80.0000 </r>
       <r>    49.1667     0.0000    80.0000 </r>
       <r>    49.4360     0.0000    80.0000 </r>
       <r>    49.7053     0.0000    80.0000 </r>
       <r>    49.9746     0.0000    80.0000 </r>
       <r>    50.2439     0.0000    80.0000 </r>
       <r>    50.5133     0.0000    80.0000 </r>
       <r>    50.7826     0.0000    80.0000 </r>
       <r>    51.0519     0.0000    80.0000 </r>
      </set>
     </set>
    </array>
   </total>
  </dos>
 </calculation>
 <structure name="finalpos" >
  <crystal>
   <varray name="basis" >
    <v>       3.30080000       0.00000000       0.00000000 </v>
    <v>       0.00000000       3.30080000       0.00000000 </v>
    <v>       0.00000000       0.00000000       3.30080000 </v>
   </varray>
   <i name="volume">     35.96314234 </i>
   <varray name="rec_basis" >
    <v>       0.30295686       0.00000000       0.00000000 </v>
    <v>       0.00000000       0.30295686       0.00000000 </v>
    <v>       0.00000000       0.00000000       0.30295686 </v>
   </varray>
  </crystal>
  <varray name="positions" >
   <v>       0.00000000       0.00000000       0.00000000 </v>
   <v>       0.50000000       0.50000000       0.50000000 </v>
  </varray>
 </structure>
</modeling>
