   1   1   0   0
  0.1798157E+02  0.2858577E-09  0.2858577E-09  0.2858577E-09  0.5000000E-15
  1.000000000000000E-004
  CAR 
 Nb tetrahedron                          
    100.23707884    -32.04635031  301      4.85167472      1.00000000
    -32.046  0.0000E+00  0.0000E+00
    -31.605  0.0000E+00  0.0000E+00
    -31.164  0.0000E+00  0.0000E+00
    -30.724  0.0000E+00  0.0000E+00
    -30.283  0.0000E+00  0.0000E+00
    -29.842  0.0000E+00  0.0000E+00
    -29.401  0.0000E+00  0.0000E+00
    -28.960  0.0000E+00  0.0000E+00
    -28.519  0.0000E+00  0.0000E+00
    -28.078  0.0000E+00  0.0000E+00
    -27.637  0.0000E+00  0.0000E+00
    -27.196  0.0000E+00  0.0000E+00
    -26.755  0.0000E+00  0.0000E+00
    -26.314  0.0000E+00  0.0000E+00
    -25.873  0.4089E+01  0.3446E+00
    -25.432  0.3189E+01  0.2071E+01
    -24.991  0.4400E+01  0.4089E+01
    -24.550  0.0000E+00  0.6000E+01
    -24.109  0.0000E+00  0.6000E+01
    -23.668  0.0000E+00  0.6000E+01
    -23.227  0.0000E+00  0.6000E+01
    -22.787  0.0000E+00  0.6000E+01
    -22.346  0.0000E+00  0.6000E+01
    -21.905  0.0000E+00  0.6000E+01
    -21.464  0.0000E+00  0.6000E+01
    -21.023  0.0000E+00  0.6000E+01
    -20.582  0.0000E+00  0.6000E+01
    -20.141  0.0000E+00  0.6000E+01
    -19.700  0.0000E+00  0.6000E+01
    -19.259  0.0000E+00  0.6000E+01
    -18.818  0.0000E+00  0.6000E+01
    -18.377  0.0000E+00  0.6000E+01
    -17.936  0.0000E+00  0.6000E+01
    -17.495  0.0000E+00  0.6000E+01
    -17.054  0.0000E+00  0.6000E+01
    -16.613  0.0000E+00  0.6000E+01
    -16.172  0.0000E+00  0.6000E+01
    -15.731  0.0000E+00  0.6000E+01
    -15.290  0.0000E+00  0.6000E+01
    -14.850  0.0000E+00  0.6000E+01
    -14.409  0.0000E+00  0.6000E+01
    -13.968  0.0000E+00  0.6000E+01
    -13.527  0.0000E+00  0.6000E+01
    -13.086  0.0000E+00  0.6000E+01
    -12.645  0.0000E+00  0.6000E+01
    -12.204  0.0000E+00  0.6000E+01
    -11.763  0.0000E+00  0.6000E+01
    -11.322  0.0000E+00  0.6000E+01
    -10.881  0.0000E+00  0.6000E+01
    -10.440  0.0000E+00  0.6000E+01
     -9.999  0.0000E+00  0.6000E+01
     -9.558  0.0000E+00  0.6000E+01
     -9.117  0.0000E+00  0.6000E+01
     -8.676  0.0000E+00  0.6000E+01
     -8.235  0.0000E+00  0.6000E+01
     -7.794  0.0000E+00  0.6000E+01
     -7.353  0.0000E+00  0.6000E+01
     -6.912  0.0000E+00  0.6000E+01
     -6.472  0.0000E+00  0.6000E+01
     -6.031  0.0000E+00  0.6000E+01
     -5.590  0.0000E+00  0.6000E+01
     -5.149  0.0000E+00  0.6000E+01
     -4.708  0.0000E+00  0.6000E+01
     -4.267  0.0000E+00  0.6000E+01
     -3.826  0.0000E+00  0.6000E+01
     -3.385  0.0000E+00  0.6000E+01
     -2.944  0.0000E+00  0.6000E+01
     -2.503  0.0000E+00  0.6000E+01
     -2.062  0.0000E+00  0.6000E+01
     -1.621  0.0000E+00  0.6000E+01
     -1.180  0.0000E+00  0.6000E+01
     -0.739  0.2897E-01  0.6004E+01
     -0.298  0.6691E-01  0.6024E+01
      0.143  0.9436E-01  0.6059E+01
      0.584  0.1386E+00  0.6110E+01
      1.025  0.2192E+00  0.6187E+01
      1.465  0.9644E+00  0.6433E+01
      1.906  0.1277E+01  0.6937E+01
      2.347  0.1754E+01  0.7611E+01
      2.788  0.6257E+00  0.8103E+01
      3.229  0.1583E+01  0.8326E+01
      3.670  0.1635E+01  0.9334E+01
      4.111  0.7985E+00  0.9781E+01
      4.552  0.2385E+01  0.1036E+02
      4.993  0.1408E+01  0.1122E+02
      5.434  0.5569E+00  0.1158E+02
      5.875  0.5070E+00  0.1179E+02
      6.316  0.4648E+00  0.1199E+02
      6.757  0.7001E+00  0.1223E+02
      7.198  0.1226E+01  0.1264E+02
      7.639  0.1376E+01  0.1322E+02
      8.080  0.1550E+01  0.1387E+02
      8.521  0.1283E+01  0.1444E+02
      8.962  0.1814E+01  0.1535E+02
      9.402  0.8953E+00  0.1594E+02
      9.843  0.6815E+00  0.1627E+02
     10.284  0.7582E+00  0.1659E+02
     10.725  0.3044E+00  0.1676E+02
     11.166  0.3851E+00  0.1692E+02
     11.607  0.3596E+00  0.1709E+02
     12.048  0.3256E+00  0.1724E+02
     12.489  0.3207E+00  0.1738E+02
     12.930  0.3011E+00  0.1752E+02
     13.371  0.2948E+00  0.1765E+02
     13.812  0.2625E+00  0.1777E+02
     14.253  0.2157E+00  0.1788E+02
     14.694  0.1639E+00  0.1796E+02
     15.135  0.4867E-01  0.1801E+02
     15.576  0.2355E+00  0.1808E+02
     16.017  0.4123E+00  0.1821E+02
     16.458  0.5729E+00  0.1848E+02
     16.899  0.5986E+00  0.1873E+02
     17.339  0.7226E+00  0.1900E+02
     17.780  0.6925E+00  0.1929E+02
     18.221  0.8941E+00  0.1964E+02
     18.662  0.8080E+00  0.2004E+02
     19.103  0.8116E+00  0.2040E+02
     19.544  0.7673E+00  0.2076E+02
     19.985  0.6454E+00  0.2107E+02
     20.426  0.5745E+00  0.2134E+02
     20.867  0.7464E+00  0.2162E+02
     21.308  0.6079E+00  0.2195E+02
     21.749  0.8916E+00  0.2227E+02
     22.190  0.8218E+00  0.2264E+02
     22.631  0.7090E+00  0.2302E+02
     23.072  0.5542E+00  0.2329E+02
     23.513  0.4879E+00  0.2352E+02
     23.954  0.5000E+00  0.2374E+02
     24.395  0.4859E+00  0.2395E+02
     24.836  0.6962E+00  0.2418E+02
     25.276  0.9484E+00  0.2464E+02
     25.717  0.6794E+00  0.2499E+02
     26.158  0.5593E+00  0.2526E+02
     26.599  0.4989E+00  0.2549E+02
     27.040  0.4690E+00  0.2571E+02
     27.481  0.4962E+00  0.2592E+02
     27.922  0.3877E+00  0.2614E+02
     28.363  0.5906E+00  0.2633E+02
     28.804  0.9099E+00  0.2666E+02
     29.245  0.1034E+01  0.2711E+02
     29.686  0.8123E+00  0.2752E+02
     30.127  0.6703E+00  0.2785E+02
     30.568  0.5502E+00  0.2811E+02
     31.009  0.5079E+00  0.2834E+02
     31.450  0.6062E+00  0.2858E+02
     31.891  0.7028E+00  0.2887E+02
     32.332  0.8688E+00  0.2921E+02
     32.773  0.8585E+00  0.2962E+02
     33.213  0.9218E+00  0.3000E+02
     33.654  0.1048E+01  0.3046E+02
     34.095  0.9000E+00  0.3088E+02
     34.536  0.7486E+00  0.3129E+02
     34.977  0.6238E+00  0.3159E+02
     35.418  0.4858E+00  0.3184E+02
     35.859  0.4081E+00  0.3203E+02
     36.300  0.5580E+00  0.3224E+02
     36.741  0.7888E+00  0.3254E+02
     37.182  0.1094E+01  0.3294E+02
     37.623  0.1071E+01  0.3344E+02
     38.064  0.9948E+00  0.3390E+02
     38.505  0.8094E+00  0.3429E+02
     38.946  0.8112E+00  0.3464E+02
     39.387  0.9034E+00  0.3503E+02
     39.828  0.7691E+00  0.3540E+02
     40.269  0.5777E+00  0.3569E+02
     40.710  0.7838E+00  0.3598E+02
     41.150  0.8083E+00  0.3631E+02
     41.591  0.2095E+01  0.3689E+02
     42.032  0.1875E+01  0.3780E+02
     42.473  0.2076E+01  0.3888E+02
     42.914  0.1253E+01  0.3957E+02
     43.355  0.9930E+00  0.4005E+02
     43.796  0.1386E+01  0.4058E+02
     44.237  0.1410E+01  0.4121E+02
     44.678  0.9601E+00  0.4172E+02
     45.119  0.7195E+00  0.4207E+02
     45.560  0.8260E+00  0.4240E+02
     46.001  0.7372E+00  0.4277E+02
     46.442  0.6831E+00  0.4307E+02
     46.883  0.7145E+00  0.4338E+02
     47.324  0.6892E+00  0.4370E+02
     47.765  0.8088E+00  0.4404E+02
     48.206  0.7917E+00  0.4440E+02
     48.647  0.7398E+00  0.4473E+02
     49.087  0.6065E+00  0.4503E+02
     49.528  0.6668E+00  0.4532E+02
     49.969  0.8100E+00  0.4565E+02
     50.410  0.1377E+01  0.4608E+02
     50.851  0.8998E+00  0.4655E+02
     51.292  0.1050E+01  0.4697E+02
     51.733  0.9854E+00  0.4742E+02
     52.174  0.7822E+00  0.4783E+02
     52.615  0.7379E+00  0.4816E+02
     53.056  0.9119E+00  0.4852E+02
     53.497  0.1027E+01  0.4894E+02
     53.938  0.1065E+01  0.4942E+02
     54.379  0.8568E+00  0.4984E+02
     54.820  0.8024E+00  0.5020E+02
     55.261  0.8527E+00  0.5058E+02
     55.702  0.1122E+01  0.5101E+02
     56.143  0.9321E+00  0.5146E+02
     56.584  0.9452E+00  0.5191E+02
     57.024  0.7647E+00  0.5228E+02
     57.465  0.8645E+00  0.5263E+02
     57.906  0.1014E+01  0.5305E+02
     58.347  0.1107E+01  0.5353E+02
     58.788  0.1177E+01  0.5403E+02
     59.229  0.1165E+01  0.5454E+02
     59.670  0.1049E+01  0.5504E+02
     60.111  0.9953E+00  0.5548E+02
     60.552  0.1050E+01  0.5595E+02
     60.993  0.1026E+01  0.5641E+02
     61.434  0.9974E+00  0.5685E+02
     61.875  0.1245E+01  0.5733E+02
     62.316  0.1157E+01  0.5794E+02
     62.757  0.4880E+00  0.5830E+02
     63.198  0.7089E+00  0.5852E+02
     63.639  0.1115E+01  0.5893E+02
     64.080  0.1098E+01  0.5942E+02
     64.521  0.8256E+00  0.5986E+02
     64.961  0.6285E+00  0.6017E+02
     65.402  0.6472E+00  0.6045E+02
     65.843  0.9699E+00  0.6081E+02
     66.284  0.1115E+01  0.6127E+02
     66.725  0.1432E+01  0.6181E+02
     67.166  0.1068E+01  0.6236E+02
     67.607  0.1126E+01  0.6282E+02
     68.048  0.1413E+01  0.6339E+02
     68.489  0.1208E+01  0.6399E+02
     68.930  0.9727E+00  0.6447E+02
     69.371  0.8692E+00  0.6488E+02
     69.812  0.8581E+00  0.6523E+02
     70.253  0.7907E+00  0.6557E+02
     70.694  0.8634E+00  0.6594E+02
     71.135  0.9081E+00  0.6633E+02
     71.576  0.8651E+00  0.6672E+02
     72.017  0.1056E+01  0.6716E+02
     72.458  0.1057E+01  0.6761E+02
     72.899  0.1245E+01  0.6813E+02
     73.339  0.1156E+01  0.6864E+02
     73.780  0.1064E+01  0.6915E+02
     74.221  0.1144E+01  0.6965E+02
     74.662  0.1231E+01  0.7017E+02
     75.103  0.1184E+01  0.7068E+02
     75.544  0.1310E+01  0.7123E+02
     75.985  0.1050E+01  0.7176E+02
     76.426  0.9497E+00  0.7220E+02
     76.867  0.9329E+00  0.7261E+02
     77.308  0.1085E+01  0.7305E+02
     77.749  0.1225E+01  0.7360E+02
     78.190  0.1011E+01  0.7409E+02
     78.631  0.8233E+00  0.7449E+02
     79.072  0.7757E+00  0.7485E+02
     79.513  0.7959E+00  0.7519E+02
     79.954  0.8497E+00  0.7556E+02
     80.395  0.9434E+00  0.7597E+02
     80.836  0.1097E+01  0.7641E+02
     81.276  0.1250E+01  0.7694E+02
     81.717  0.1154E+01  0.7747E+02
     82.158  0.1225E+01  0.7802E+02
     82.599  0.1271E+01  0.7854E+02
     83.040  0.8921E+00  0.7905E+02
     83.481  0.5370E+00  0.7935E+02
     83.922  0.3475E+00  0.7954E+02
     84.363  0.2315E+00  0.7967E+02
     84.804  0.1844E+00  0.7976E+02
     85.245  0.1145E+00  0.7983E+02
     85.686  0.7587E-01  0.7987E+02
     86.127  0.5805E-01  0.7990E+02
     86.568  0.4340E-01  0.7992E+02
     87.009  0.3053E-01  0.7994E+02
     87.450  0.1906E-01  0.7995E+02
     87.891  0.1127E-01  0.7995E+02
     88.332  0.1057E-01  0.7996E+02
     88.773  0.9890E-02  0.7996E+02
     89.213  0.9231E-02  0.7997E+02
     89.654  0.8595E-02  0.7997E+02
     90.095  0.7981E-02  0.7997E+02
     90.536  0.7389E-02  0.7998E+02
     90.977  0.6820E-02  0.7998E+02
     91.418  0.6273E-02  0.7998E+02
     91.859  0.5748E-02  0.7999E+02
     92.300  0.5245E-02  0.7999E+02
     92.741  0.4765E-02  0.7999E+02
     93.182  0.4308E-02  0.7999E+02
     93.623  0.6020E-02  0.7999E+02
     94.064  0.8191E-02  0.8000E+02
     94.505  0.0000E+00  0.8000E+02
     94.946  0.0000E+00  0.8000E+02
     95.387  0.0000E+00  0.8000E+02
     95.828  0.0000E+00  0.8000E+02
     96.269  0.0000E+00  0.8000E+02
     96.710  0.0000E+00  0.8000E+02
     97.150  0.0000E+00  0.8000E+02
     97.591  0.0000E+00  0.8000E+02
     98.032  0.0000E+00  0.8000E+02
     98.473  0.0000E+00  0.8000E+02
     98.914  0.0000E+00  0.8000E+02
     99.355  0.0000E+00  0.8000E+02
     99.796  0.0000E+00  0.8000E+02
    100.237  0.0000E+00  0.8000E+02
