       N       E                     dE             d eps       ncg     rms          rms(c)
DAV:   1    -0.997146336787E+01   -0.99715E+01   -0.55710E+03  4840   0.184E+02
DAV:   2    -0.111536471162E+02   -0.11822E+01   -0.11410E+01  3800   0.979E+00
DAV:   3    -0.111540054766E+02   -0.35836E-03   -0.35966E-03  6160   0.163E-01
DAV:   4    -0.111540054780E+02   -0.13940E-08   -0.10439E-08  3960   0.170E-04
DAV:   5    -0.111540054780E+02   -0.17963E-10   -0.39722E-12  5880   0.130E-06
DAV:   6    -0.111540054778E+02    0.25261E-09    0.43536E-13  3240   0.480E-08
   1 F= -.11154005E+02 E0= -.11154005E+02  d E =0.000000E+00
