fcc Al                                  
   4.20000000000000     
     0.500000    0.500000    0.000000
     0.000000    0.500000    0.500000
     0.500000    0.000000    0.500000
   Al
     1
Direct
  0.000000  0.000000  0.000000
 
   24   24   24
 -.27981     -.99388E-01 0.41235      1.1649      2.0123      2.7841      3.3402      3.6211      3.6615      3.5603    
  3.4153      3.2983      3.2543      3.2983      3.4153      3.5603      3.6615      3.6211      3.3402      2.7841    
  2.0123      1.1649     0.41235     -.99388E-01 -.99388E-01 0.24682     0.87906      1.6777      2.4814      3.1319    
  3.5292      3.6648      3.6121      3.4753      3.3359      3.2515      3.2515      3.3358      3.4753      3.6122    
  3.6648      3.5292      3.1319      2.4814      1.6777     0.87897     0.24668     -.99457E-01 0.41235     0.87906    
  1.5569      2.3065      2.9720      3.4313      3.6390      3.6354      3.5140      3.3619      3.2438      3.2001    
  3.2438      3.3619      3.5140      3.6354      3.6390      3.4313      2.9720      2.3065      1.5568     0.87899    
 0.41229     0.24668      1.1649      1.6777      2.3065      2.9123      3.3695      3.6090      3.6401      3.5347    
  3.3768      3.2329      3.1496      3.1496      3.2329      3.3768      3.5347      3.6401      3.6090      3.3695    
  2.9123      2.3065      1.6777      1.1649     0.87899     0.87897      2.0123      2.4814      2.9720      3.3695    
  3.5963      3.6384      3.5433      3.3835      3.2215      3.1057      3.0642      3.1057      3.2215      3.3835    
  3.5433      3.6383      3.5963      3.3695      2.9720      2.4814      2.0123      1.6777      1.5568      1.6777    
  2.7841      3.1319      3.4313      3.6090      3.6384      3.5455      3.3856      3.2128      3.0733      2.9968    
  2.9968      3.0733      3.2128      3.3856      3.5455      3.6384      3.6090      3.4313      3.1319      2.7840    
  2.4814      2.3065      2.3065      2.4814      3.3402      3.5292      3.6390      3.6401      3.5433      3.3856    
  3.2096      3.0561      2.9540      2.9185      2.9540      3.0561      3.2096      3.3856      3.5433      3.6401    
  3.6390      3.5292      3.3402      3.1319      2.9720      2.9123      2.9720      3.1319      3.6211      3.6648    
  3.6354      3.5347      3.3835      3.2128      3.0561      2.9393      2.8778      2.8779      2.9393      3.0561    
  3.2128      3.3835      3.5347      3.6354      3.6648      3.6211      3.5292      3.4313      3.3695      3.3695    
  3.4313      3.5292      3.6615      3.6121      3.5140      3.3768      3.2215      3.0733      2.9540      2.8778    
  2.8518      2.8778      2.9540      3.0733      3.2215      3.3768      3.5140      3.6122      3.6616      3.6648    
  3.6390      3.6090      3.5963      3.6090      3.6390      3.6648      3.5603      3.4753      3.3619      3.2329    
  3.1057      2.9968      2.9185      2.8779      2.8778      2.9185      2.9968      3.1057      3.2329      3.3618    
  3.4753      3.5603      3.6122      3.6354      3.6401      3.6384      3.6383      3.6401      3.6354      3.6122    
  3.4153      3.3359      3.2438      3.1496      3.0642      2.9968      2.9540      2.9393      2.9540      2.9968    
  3.0642      3.1496      3.2438      3.3358      3.4153      3.4753      3.5140      3.5347      3.5433      3.5455    
  3.5433      3.5347      3.5140      3.4753      3.2983      3.2515      3.2001      3.1496      3.1057      3.0733    
  3.0561      3.0561      3.0733      3.1057      3.1496      3.2001      3.2516      3.2983      3.3358      3.3618    
  3.3768      3.3835      3.3856      3.3856      3.3835      3.3768      3.3619      3.3358      3.2543      3.2515    
  3.2438      3.2329      3.2215      3.2128      3.2096      3.2128      3.2215      3.2329      3.2438      3.2516    
  3.2543      3.2516      3.2438      3.2329      3.2215      3.2128      3.2096      3.2128      3.2215      3.2329    
  3.2438      3.2515      3.2983      3.3358      3.3619      3.3768      3.3835      3.3856      3.3856      3.3835    
  3.3768      3.3618      3.3358      3.2983      3.2516      3.2001      3.1496      3.1057      3.0733      3.0561    
  3.0561      3.0733      3.1057      3.1496      3.2001      3.2515      3.4153      3.4753      3.5140      3.5347    
  3.5433      3.5455      3.5433      3.5347      3.5140      3.4753      3.4153      3.3358      3.2438      3.1496    
  3.0642      2.9968      2.9540      2.9393      2.9540      2.9968      3.0642      3.1496      3.2438      3.3359    
  3.5603      3.6122      3.6354      3.6401      3.6383      3.6384      3.6401      3.6354      3.6122      3.5603    
  3.4753      3.3618      3.2329      3.1057      2.9968      2.9185      2.8778      2.8779      2.9185      2.9968    
  3.1057      3.2329      3.3619      3.4753      3.6615      3.6648      3.6390      3.6090      3.5963      3.6090    
  3.6390      3.6648      3.6616      3.6122      3.5140      3.3768      3.2215      3.0733      2.9540      2.8778    
  2.8518      2.8778      2.9540      3.0733      3.2215      3.3768      3.5140      3.6121      3.6211      3.5292    
  3.4313      3.3695      3.3695      3.4313      3.5292      3.6211      3.6648      3.6354      3.5347      3.3835    
  3.2128      3.0561      2.9393      2.8779      2.8778      2.9393      3.0561      3.2128      3.3835      3.5347    
  3.6354      3.6648      3.3402      3.1319      2.9720      2.9123      2.9720      3.1319      3.3402      3.5292    
  3.6390      3.6401      3.5433      3.3856      3.2096      3.0561      2.9540      2.9185      2.9540      3.0561    
  3.2096      3.3856      3.5433      3.6401      3.6390      3.5292      2.7841      2.4814      2.3065      2.3065    
  2.4814      2.7840      3.1319      3.4313      3.6090      3.6384      3.5455      3.3856      3.2128      3.0733    
  2.9968      2.9968      3.0733      3.2128      3.3856      3.5455      3.6384      3.6090      3.4313      3.1319    
  2.0123      1.6777      1.5568      1.6777      2.0123      2.4814      2.9720      3.3695      3.5963      3.6383    
  3.5433      3.3835      3.2215      3.1057      3.0642      3.1057      3.2215      3.3835      3.5433      3.6384    
  3.5963      3.3695      2.9720      2.4814      1.1649     0.87897     0.87899      1.1649      1.6777      2.3065    
  2.9123      3.3695      3.6090      3.6401      3.5347      3.3768      3.2329      3.1496      3.1496      3.2329    
  3.3768      3.5347      3.6401      3.6090      3.3695      2.9123      2.3065      1.6777     0.41235     0.24668    
 0.41229     0.87899      1.5568      2.3065      2.9720      3.4313      3.6390      3.6354      3.5140      3.3619    
  3.2438      3.2001      3.2438      3.3619      3.5140      3.6354      3.6390      3.4313      2.9720      2.3065    
  1.5569     0.87906     -.99388E-01 -.99457E-01 0.24668     0.87897      1.6777      2.4814      3.1319      3.5292    
  3.6648      3.6122      3.4753      3.3358      3.2515      3.2515      3.3359      3.4753      3.6121      3.6648    
  3.5292      3.1319      2.4814      1.6777     0.87906     0.24682     -.99388E-01 0.24682     0.87906      1.6777    
  2.4814      3.1319      3.5292      3.6648      3.6121      3.4753      3.3359      3.2515      3.2515      3.3358    
  3.4753      3.6122      3.6648      3.5292      3.1319      2.4814      1.6777     0.87897     0.24668     -.99457E-01
 0.24682     0.73121      1.4371      2.2218      2.9241      3.4160      3.6478      3.6581      3.5430      3.3929    
  3.2751      3.2312      3.2751      3.3929      3.5430      3.6581      3.6477      3.4161      2.9242      2.2218    
  1.4370     0.73103     0.24666     0.75129E-01 0.87906      1.4371      2.1272      2.8014      3.3227      3.6128    
  3.6761      3.5863      3.4343      3.2913      3.2074      3.2074      3.2913      3.4343      3.5863      3.6761    
  3.6128      3.3227      2.8014      2.1272      1.4370     0.87898     0.56936     0.56940      1.6777      2.2218    
  2.8014      3.2869      3.5869      3.6789      3.6099      3.4607      3.3007      3.1837      3.1413      3.1836    
  3.3007      3.4607      3.6099      3.6789      3.5869      3.2869      2.8014      2.2218      1.6777      1.2937    
  1.1557      1.2937      2.4814      2.9241      3.3227      3.5869      3.6782      3.6197      3.4746      3.3050    
  3.1634      3.0845      3.0845      3.1633      3.3050      3.4746      3.6197      3.6782      3.5869      3.3227    
  2.9242      2.4814      2.1049      1.8899      1.8898      2.1049      3.1319      3.4160      3.6128      3.6789    
  3.6197      3.4788      3.3063      3.1496      3.0433      3.0060      3.0433      3.1496      3.3063      3.4788    
  3.6198      3.6789      3.6128      3.4160      3.1319      2.8381      2.6192      2.5385      2.6192      2.8381    
  3.5292      3.6478      3.6761      3.6099      3.4746      3.3063      3.1448      3.0217      2.9562      2.9562    
  3.0218      3.1448      3.3063      3.4746      3.6099      3.6762      3.6477      3.5292      3.3595      3.1974    
  3.0994      3.0994      3.1974      3.3595      3.6648      3.6581      3.5863      3.4607      3.3050      3.1496    
  3.0217      2.9392      2.9109      2.9392      3.0217      3.1497      3.3050      3.4607      3.5863      3.6581    
  3.6648      3.6143      3.5358      3.4674      3.4406      3.4674      3.5358      3.6143      3.6121      3.5430    
  3.4343      3.3007      3.1634      3.0433      2.9562      2.9109      2.9109      2.9562      3.0433      3.1634    
  3.3007      3.4343      3.5430      3.6122      3.6391      3.6319      3.6088      3.5905      3.5905      3.6088    
  3.6319      3.6390      3.4753      3.3929      3.2913      3.1837      3.0845      3.0060      2.9562      2.9392    
  2.9562      3.0060      3.0845      3.1837      3.2913      3.3929      3.4753      3.5307      3.5589      3.5671    
  3.5658      3.5641      3.5658      3.5671      3.5589      3.5307      3.3359      3.2751      3.2074      3.1413    
  3.0845      3.0433      3.0218      3.0217      3.0433      3.0845      3.1413      3.2074      3.2751      3.3358    
  3.3831      3.4137      3.4290      3.4340      3.4345      3.4345      3.4340      3.4291      3.4137      3.3831    
  3.2515      3.2312      3.2074      3.1836      3.1633      3.1496      3.1448      3.1497      3.1634      3.1837    
  3.2074      3.2312      3.2516      3.2657      3.2722      3.2715      3.2665      3.2610      3.2587      3.2610    
  3.2665      3.2715      3.2722      3.2657      3.2515      3.2751      3.2913      3.3007      3.3050      3.3063    
  3.3063      3.3050      3.3007      3.2913      3.2751      3.2516      3.2218      3.1880      3.1533      3.1217    
  3.0973      3.0840      3.0840      3.0973      3.1217      3.1533      3.1880      3.2218      3.3358      3.3929    
  3.4343      3.4607      3.4746      3.4788      3.4746      3.4607      3.4343      3.3929      3.3358      3.2657    
  3.1880      3.1101      3.0398      2.9840      2.9483      2.9360      2.9483      2.9840      3.0398      3.1101    
  3.1880      3.2657      3.4753      3.5430      3.5863      3.6099      3.6197      3.6198      3.6099      3.5863    
  3.5430      3.4753      3.3831      3.2722      3.1533      3.0398      2.9439      2.8753      2.8397      2.8397    
  2.8753      2.9439      3.0398      3.1533      3.2722      3.3831      3.6122      3.6581      3.6761      3.6789    
  3.6782      3.6789      3.6762      3.6581      3.6122      3.5307      3.4137      3.2715      3.1217      2.9840    
  2.8753      2.8064      2.7830      2.8065      2.8753      2.9840      3.1217      3.2715      3.4137      3.5307    
  3.6648      3.6477      3.6128      3.5869      3.5869      3.6128      3.6477      3.6648      3.6391      3.5589    
  3.4290      3.2665      3.0973      2.9483      2.8397      2.7830      2.7830      2.8397      2.9483      3.0973    
  3.2665      3.4290      3.5589      3.6390      3.5292      3.4161      3.3227      3.2869      3.3227      3.4160    
  3.5292      3.6143      3.6319      3.5671      3.4340      3.2610      3.0840      2.9360      2.8397      2.8065    
  2.8397      2.9360      3.0840      3.2610      3.4340      3.5671      3.6319      3.6143      3.1319      2.9242    
  2.8014      2.8014      2.9242      3.1319      3.3595      3.5358      3.6088      3.5658      3.4345      3.2587    
  3.0840      2.9483      2.8753      2.8753      2.9483      3.0840      3.2587      3.4345      3.5658      3.6088    
  3.5358      3.3595      2.4814      2.2218      2.1272      2.2218      2.4814      2.8381      3.1974      3.4674    
  3.5905      3.5641      3.4345      3.2610      3.0973      2.9840      2.9439      2.9840      3.0973      3.2610    
  3.4345      3.5641      3.5905      3.4674      3.1975      2.8381      1.6777      1.4370      1.4370      1.6777    
  2.1049      2.6192      3.0994      3.4406      3.5905      3.5658      3.4340      3.2665      3.1217      3.0398    
  3.0398      3.1217      3.2665      3.4340      3.5658      3.5905      3.4406      3.0994      2.6192      2.1049    
 0.87897     0.73103     0.87898      1.2937      1.8899      2.5385      3.0994      3.4674      3.6088      3.5671    
  3.4291      3.2715      3.1533      3.1101      3.1533      3.2715      3.4290      3.5671      3.6088      3.4674    
  3.0994      2.5385      1.8898      1.2937     0.24668     0.24666     0.56936      1.1557      1.8898      2.6192    
  3.1974      3.5358      3.6319      3.5589      3.4137      3.2722      3.1880      3.1880      3.2722      3.4137    
  3.5589      3.6319      3.5358      3.1975      2.6192      1.8898      1.1557     0.56940     -.99457E-01 0.75129E-01
 0.56940      1.2937      2.1049      2.8381      3.3595      3.6143      3.6390      3.5307      3.3831      3.2657    
  3.2218      3.2657      3.3831      3.5307      3.6390      3.6143      3.3595      2.8381      2.1049      1.2937    
 0.56940     0.75129E-01 0.41235     0.87906      1.5569      2.3065      2.9720      3.4313      3.6390      3.6354    
  3.5140      3.3619      3.2438      3.2001      3.2438      3.3619      3.5140      3.6354      3.6390      3.4313    
  2.9720      2.3065      1.5568     0.87899     0.41229     0.24668     0.87906      1.4371      2.1272      2.8014    
  3.3227      3.6128      3.6761      3.5863      3.4343      3.2913      3.2074      3.2074      3.2913      3.4343    
  3.5863      3.6761      3.6128      3.3227      2.8014      2.1272      1.4370     0.87898     0.56936     0.56940    
  1.5569      2.1272      2.7381      3.2550      3.5813      3.6916      3.6323      3.4870      3.3279      3.2105    
  3.1678      3.2105      3.3279      3.4870      3.6323      3.6916      3.5813      3.2550      2.7382      2.1272    
  1.5569      1.1556      1.0117      1.1557      2.3065      2.8014      3.2550      3.5679      3.6949      3.6568    
  3.5203      3.3529      3.2104      3.1304      3.1304      3.2104      3.3529      3.5204      3.6568      3.6949    
  3.5679      3.2550      2.8014      2.3066      1.8899      1.6530      1.6530      1.8898      2.9720      3.3227    
  3.5813      3.6949      3.6643      3.5362      3.3672      3.2089      3.0999      3.0615      3.0999      3.2089    
  3.3672      3.5362      3.6643      3.6949      3.5813      3.3227      2.9720      2.6192      2.3600      2.2649    
  2.3599      2.6192      3.4313      3.6128      3.6916      3.6568      3.5362      3.3717      3.2075      3.0800    
  3.0115      3.0115      3.0800      3.2075      3.3717      3.5362      3.6568      3.6916      3.6128      3.4313    
  3.1974      2.9832      2.8560      2.8560      2.9832      3.1975      3.6390      3.6761      3.6323      3.5203    
  3.3672      3.2075      3.0731      2.9854      2.9551      2.9854      3.0731      3.2075      3.3672      3.5203    
  3.6323      3.6762      3.6390      3.5358      3.4068      3.3023      3.2624      3.3023      3.4069      3.5358    
  3.6354      3.5863      3.4870      3.3529      3.2089      3.0800      2.9854      2.9359      2.9359      2.9854    
  3.0800      3.2089      3.3529      3.4870      3.5863      3.6354      3.6319      3.5893      3.5350      3.4985    
  3.4985      3.5350      3.5893      3.6319      3.5140      3.4343      3.3279      3.2104      3.0999      3.0115    
  2.9551      2.9359      2.9551      3.0115      3.0999      3.2104      3.3279      3.4343      3.5140      3.5589    
  3.5713      3.5621      3.5470      3.5401      3.5470      3.5621      3.5713      3.5589      3.3619      3.2913    
  3.2105      3.1304      3.0615      3.0115      2.9854      2.9854      3.0115      3.0614      3.1304      3.2105    
  3.2913      3.3618      3.4137      3.4437      3.4546      3.4542      3.4511      3.4511      3.4542      3.4546    
  3.4437      3.4137      3.2438      3.2074      3.1678      3.1304      3.0999      3.0800      3.0731      3.0800    
  3.0999      3.1304      3.1679      3.2074      3.2438      3.2722      3.2894      3.2955      3.2938      3.2896    
  3.2876      3.2896      3.2938      3.2955      3.2894      3.2722      3.2001      3.2074      3.2105      3.2104    
  3.2089      3.2075      3.2075      3.2089      3.2104      3.2105      3.2074      3.2001      3.1880      3.1712    
  3.1510      3.1301      3.1125      3.1024      3.1024      3.1125      3.1301      3.1510      3.1712      3.1880    
  3.2438      3.2913      3.3279      3.3529      3.3672      3.3717      3.3672      3.3529      3.3279      3.2913    
  3.2438      3.1880      3.1276      3.0674      3.0125      2.9683      2.9394      2.9293      2.9394      2.9683    
  3.0125      3.0674      3.1276      3.1880      3.3619      3.4343      3.4870      3.5204      3.5362      3.5362    
  3.5203      3.4870      3.4343      3.3618      3.2722      3.1712      3.0674      2.9703      2.8888      2.8304    
  2.7998      2.7998      2.8304      2.8888      2.9703      3.0674      3.1712      3.2722      3.5140      3.5863    
  3.6323      3.6568      3.6643      3.6568      3.6323      3.5863      3.5140      3.4137      3.2894      3.1510    
  3.0125      2.8888      2.7923      2.7314      2.7107      2.7314      2.7923      2.8888      3.0125      3.1510    
  3.2894      3.4137      3.6354      3.6761      3.6916      3.6949      3.6949      3.6916      3.6762      3.6354    
  3.5589      3.4437      3.2955      3.1301      2.9683      2.8304      2.7314      2.6802      2.6802      2.7314    
  2.8304      2.9683      3.1301      3.2955      3.4437      3.5589      3.6390      3.6128      3.5813      3.5679    
  3.5813      3.6128      3.6390      3.6319      3.5713      3.4546      3.2938      3.1125      2.9394      2.7998    
  2.7107      2.6802      2.7107      2.7998      2.9394      3.1125      3.2938      3.4546      3.5713      3.6319    
  3.4313      3.3227      3.2550      3.2550      3.3227      3.4313      3.5358      3.5893      3.5621      3.4542    
  3.2896      3.1024      2.9293      2.7998      2.7314      2.7314      2.7998      2.9293      3.1024      3.2896    
  3.4542      3.5621      3.5893      3.5358      2.9720      2.8014      2.7382      2.8014      2.9720      3.1974    
  3.4068      3.5350      3.5470      3.4511      3.2876      3.1024      2.9394      2.8304      2.7923      2.8304    
  2.9394      3.1024      3.2876      3.4511      3.5470      3.5351      3.4069      3.1974      2.3065      2.1272    
  2.1272      2.3066      2.6192      2.9832      3.3023      3.4985      3.5401      3.4511      3.2896      3.1125    
  2.9683      2.8888      2.8888      2.9683      3.1125      3.2896      3.4511      3.5401      3.4985      3.3024    
  2.9832      2.6192      1.5568      1.4370      1.5569      1.8899      2.3600      2.8560      3.2624      3.4985    
  3.5470      3.4542      3.2938      3.1301      3.0125      2.9703      3.0125      3.1301      3.2938      3.4542    
  3.5470      3.4985      3.2624      2.8560      2.3599      1.8898     0.87899     0.87898      1.1556      1.6530    
  2.2649      2.8560      3.3023      3.5350      3.5621      3.4546      3.2955      3.1510      3.0674      3.0674    
  3.1510      3.2955      3.4546      3.5621      3.5351      3.3024      2.8560      2.2649      1.6530      1.1557    
 0.41229     0.56936      1.0117      1.6530      2.3599      2.9832      3.4069      3.5893      3.5713      3.4437    
  3.2894      3.1712      3.1276      3.1712      3.2894      3.4437      3.5713      3.5893      3.4069      2.9832    
  2.3599      1.6530      1.0117     0.56936     0.24668     0.56940      1.1557      1.8898      2.6192      3.1975    
  3.5358      3.6319      3.5589      3.4137      3.2722      3.1880      3.1880      3.2722      3.4137      3.5589    
  3.6319      3.5358      3.1974      2.6192      1.8898      1.1557     0.56936     0.24666      1.1649      1.6777    
  2.3065      2.9123      3.3695      3.6090      3.6401      3.5347      3.3768      3.2329      3.1496      3.1496    
  3.2329      3.3768      3.5347      3.6401      3.6090      3.3695      2.9123      2.3065      1.6777      1.1649    
 0.87899     0.87897      1.6777      2.2218      2.8014      3.2869      3.5869      3.6789      3.6099      3.4607    
  3.3007      3.1837      3.1413      3.1836      3.3007      3.4607      3.6099      3.6789      3.5869      3.2869    
  2.8014      2.2218      1.6777      1.2937      1.1557      1.2937      2.3065      2.8014      3.2550      3.5679    
  3.6949      3.6568      3.5203      3.3529      3.2104      3.1304      3.1304      3.2104      3.3529      3.5204    
  3.6568      3.6949      3.5679      3.2550      2.8014      2.3066      1.8899      1.6530      1.6530      1.8898    
  2.9123      3.2869      3.5679      3.6987      3.6788      3.5556      3.3879      3.2291      3.1192      3.0804    
  3.1192      3.2291      3.3879      3.5556      3.6788      3.6987      3.5678      3.2869      2.9124      2.5386    
  2.2650      2.1648      2.2649      2.5385      3.3695      3.5869      3.6949      3.6788      3.5672      3.4052    
  3.2399      3.1100      3.0399      3.0399      3.1100      3.2399      3.4052      3.5672      3.6788      3.6949    
  3.5869      3.3694      3.0994      2.8560      2.7126      2.7125      2.8560      3.0994      3.6090      3.6789    
  3.6568      3.5556      3.4052      3.2433      3.1048      3.0137      2.9821      3.0137      3.1048      3.2433    
  3.4052      3.5556      3.6568      3.6789      3.6090      3.4674      3.3023      3.1721      3.1229      3.1722    
  3.3024      3.4674      3.6401      3.6099      3.5203      3.3879      3.2399      3.1048      3.0046      2.9519    
  2.9519      3.0046      3.1048      3.2399      3.3879      3.5203      3.6099      3.6401      3.6088      3.5350    
  3.4538      3.4018      3.4018      3.4539      3.5351      3.6088      3.5347      3.4607      3.3529      3.2291    
  3.1100      3.0137      2.9519      2.9308      2.9519      3.0137      3.1100      3.2291      3.3529      3.4607    
  3.5347      3.5671      3.5621      3.5342      3.5047      3.4924      3.5047      3.5342      3.5621      3.5671    
  3.3768      3.3007      3.2104      3.1192      3.0399      2.9821      2.9519      2.9519      2.9821      3.0399    
  3.1192      3.2104      3.3007      3.3768      3.4291      3.4546      3.4583      3.4506      3.4431      3.4431    
  3.4506      3.4583      3.4546      3.4290      3.2329      3.1837      3.1304      3.0804      3.0399      3.0137    
  3.0046      3.0137      3.0399      3.0804      3.1304      3.1837      3.2329      3.2715      3.2955      3.3049    
  3.3040      3.2994      3.2970      3.2994      3.3040      3.3050      3.2955      3.2715      3.1496      3.1413    
  3.1304      3.1192      3.1100      3.1048      3.1048      3.1100      3.1192      3.1304      3.1413      3.1496    
  3.1533      3.1510      3.1426      3.1302      3.1179      3.1102      3.1102      3.1179      3.1302      3.1426    
  3.1510      3.1533      3.1496      3.1836      3.2104      3.2291      3.2399      3.2433      3.2399      3.2291    
  3.2104      3.1837      3.1496      3.1101      3.0674      3.0242      2.9838      2.9501      2.9276      2.9196    
  2.9276      2.9501      2.9838      3.0242      3.0674      3.1101      3.2329      3.3007      3.3529      3.3879    
  3.4052      3.4052      3.3879      3.3529      3.3007      3.2329      3.1533      3.0674      2.9814      2.9019    
  2.8352      2.7869      2.7615      2.7615      2.7869      2.8352      2.9019      2.9814      3.0674      3.1533    
  3.3768      3.4607      3.5204      3.5556      3.5672      3.5556      3.5203      3.4607      3.3768      3.2715    
  3.1510      3.0242      2.9019      2.7947      2.7114      2.6589      2.6409      2.6589      2.7114      2.7947    
  2.9019      3.0242      3.1510      3.2715      3.5347      3.6099      3.6568      3.6788      3.6788      3.6568    
  3.6099      3.5347      3.4291      3.2955      3.1426      2.9838      2.8352      2.7114      2.6235      2.5781    
  2.5781      2.6235      2.7114      2.8352      2.9838      3.1426      3.2955      3.4291      3.6401      3.6789    
  3.6949      3.6987      3.6949      3.6789      3.6401      3.5671      3.4546      3.3049      3.1302      2.9501    
  2.7869      2.6589      2.5781      2.5507      2.5781      2.6589      2.7869      2.9501      3.1302      3.3050    
  3.4546      3.5671      3.6090      3.5869      3.5679      3.5678      3.5869      3.6090      3.6088      3.5621    
  3.4583      3.3040      3.1179      2.9276      2.7615      2.6409      2.5781      2.5781      2.6409      2.7615    
  2.9276      3.1179      3.3040      3.4583      3.5621      3.6088      3.3695      3.2869      3.2550      3.2869    
  3.3694      3.4674      3.5350      3.5342      3.4506      3.2994      3.1102      2.9196      2.7615      2.6589    
  2.6235      2.6589      2.7615      2.9196      3.1102      3.2994      3.4506      3.5342      3.5350      3.4674    
  2.9123      2.8014      2.8014      2.9124      3.0994      3.3023      3.4538      3.5047      3.4431      3.2970    
  3.1102      2.9276      2.7869      2.7114      2.7114      2.7869      2.9276      3.1102      3.2970      3.4431    
  3.5047      3.4539      3.3023      3.0994      2.3065      2.2218      2.3066      2.5386      2.8560      3.1721    
  3.4018      3.4924      3.4431      3.2994      3.1179      2.9501      2.8352      2.7947      2.8352      2.9501    
  3.1179      3.2994      3.4431      3.4924      3.4018      3.1722      2.8560      2.5385      1.6777      1.6777    
  1.8899      2.2650      2.7126      3.1229      3.4018      3.5047      3.4506      3.3040      3.1302      2.9838    
  2.9019      2.9019      2.9838      3.1302      3.3040      3.4506      3.5047      3.4018      3.1229      2.7125    
  2.2649      1.8899      1.1649      1.2937      1.6530      2.1648      2.7125      3.1722      3.4539      3.5342    
  3.4583      3.3050      3.1426      3.0242      2.9814      3.0242      3.1426      3.3050      3.4583      3.5342    
  3.4539      3.1722      2.7125      2.1648      1.6530      1.2937     0.87899      1.1557      1.6530      2.2649    
  2.8560      3.3024      3.5351      3.5621      3.4546      3.2955      3.1510      3.0674      3.0674      3.1510    
  3.2955      3.4546      3.5621      3.5350      3.3023      2.8560      2.2649      1.6530      1.1556     0.87898    
 0.87897      1.2937      1.8898      2.5385      3.0994      3.4674      3.6088      3.5671      3.4290      3.2715    
  3.1533      3.1101      3.1533      3.2715      3.4291      3.5671      3.6088      3.4674      3.0994      2.5385    
  1.8899      1.2937     0.87898     0.73103      2.0123      2.4814      2.9720      3.3695      3.5963      3.6384    
  3.5433      3.3835      3.2215      3.1057      3.0642      3.1057      3.2215      3.3835      3.5433      3.6383    
  3.5963      3.3695      2.9720      2.4814      2.0123      1.6777      1.5568      1.6777      2.4814      2.9241    
  3.3227      3.5869      3.6782      3.6197      3.4746      3.3050      3.1634      3.0845      3.0845      3.1633    
  3.3050      3.4746      3.6197      3.6782      3.5869      3.3227      2.9242      2.4814      2.1049      1.8899    
  1.8898      2.1049      2.9720      3.3227      3.5813      3.6949      3.6643      3.5362      3.3672      3.2089    
  3.0999      3.0615      3.0999      3.2089      3.3672      3.5362      3.6643      3.6949      3.5813      3.3227    
  2.9720      2.6192      2.3600      2.2649      2.3599      2.6192      3.3695      3.5869      3.6949      3.6788    
  3.5672      3.4052      3.2399      3.1100      3.0399      3.0399      3.1100      3.2399      3.4052      3.5672    
  3.6788      3.6949      3.5869      3.3694      3.0994      2.8560      2.7126      2.7125      2.8560      3.0994    
  3.5963      3.6782      3.6643      3.5672      3.4180      3.2554      3.1155      3.0231      2.9911      3.0231    
  3.1155      3.2554      3.4180      3.5672      3.6643      3.6782      3.5963      3.4405      3.2624      3.1229    
  3.0704      3.1229      3.2624      3.4406      3.6384      3.6197      3.5362      3.4052      3.2554      3.1171    
  3.0139      2.9595      2.9595      3.0139      3.1171      3.2554      3.4052      3.5362      3.6197      3.6384    
  3.5905      3.4985      3.4018      3.3408      3.3409      3.4018      3.4985      3.5905      3.5433      3.4746    