fcc Al                                  
   4.20000000000000     
     0.500000    0.500000    0.000000
     0.000000    0.500000    0.500000
     0.500000    0.000000    0.500000
   Al
     1
Direct
  0.000000  0.000000  0.000000
 
   24   24   24
 -.27980503824E+00 -.99387551098E-01 0.41234774267E+00 0.11649061549E+01 0.20122703956E+01
 0.27840500315E+01 0.33402056392E+01 0.36210865389E+01 0.36615115544E+01 0.35602983243E+01
 0.34153484343E+01 0.32982961858E+01 0.32542821941E+01 0.32982961858E+01 0.34153484343E+01
 0.35602983243E+01 0.36615115544E+01 0.36210865389E+01 0.33402056392E+01 0.27840500315E+01
 0.20122703956E+01 0.11649061549E+01 0.41234774267E+00 -.99387551098E-01 -.99387551098E-01
 0.24681967272E+00 0.87905508811E+00 0.16776834216E+01 0.24813837888E+01 0.31318926129E+01
 0.35292169535E+01 0.36648210986E+01 0.36121467020E+01 0.34753160524E+01 0.33358666623E+01
 0.32515481601E+01 0.32515312258E+01 0.33358431900E+01 0.34753237042E+01 0.36121715220E+01
 0.36648193188E+01 0.35291890179E+01 0.31318884533E+01 0.24814190826E+01 0.16776929164E+01
 0.87897126149E+00 0.24668093524E+00 -.99456894809E-01 0.41234774267E+00 0.87905508811E+00
 0.15568633353E+01 0.23064874154E+01 0.29719972135E+01 0.34313065471E+01 0.36390272445E+01
 0.36353621087E+01 0.35140116364E+01 0.33618504668E+01 0.32438369041E+01 0.32001191448E+01
 0.32438329830E+01 0.33618533044E+01 0.35140210740E+01 0.36353627563E+01 0.36390134206E+01
 0.34312970537E+01 0.29720092744E+01 0.23065028802E+01 0.15568425215E+01 0.87899073347E+00
 0.41228769939E+00 0.24668093524E+00 0.11649061549E+01 0.16776834216E+01 0.23064874154E+01
 0.29123257850E+01 0.33694760056E+01 0.36090468375E+01 0.36400912791E+01 0.35346877163E+01
 0.33767867341E+01 0.32328750884E+01 0.31496012001E+01 0.31496098940E+01 0.32328905641E+01
 0.33767911784E+01 0.35346783174E+01 0.36400801139E+01 0.36090418752E+01 0.33694734514E+01
 0.29123242711E+01 0.23064984504E+01 0.16777166645E+01 0.11649480166E+01 0.87899073347E+00
 0.87897126149E+00 0.20122703956E+01 0.24813837888E+01 0.29719972135E+01 0.33694760056E+01
 0.35962855405E+01 0.36383532611E+01 0.35433181809E+01 0.33834828511E+01 0.32214668540E+01
 0.31056761453E+01 0.30641506496E+01 0.31056737020E+01 0.32214649737E+01 0.33834830625E+01
 0.35433172151E+01 0.36383458023E+01 0.35962712699E+01 0.33694634978E+01 0.29719989275E+01
 0.24814051385E+01 0.20123024569E+01 0.16777166645E+01 0.15568425215E+01 0.16776929164E+01
 0.27840500315E+01 0.31318926129E+01 0.34313065471E+01 0.36090468375E+01 0.36383532611E+01
 0.35454564112E+01 0.33855716036E+01 0.32128077765E+01 0.30732751230E+01 0.29967960536E+01
 0.29967903346E+01 0.30732638719E+01 0.32128023744E+01 0.33855766848E+01 0.35454647516E+01
 0.36383524859E+01 0.36090303511E+01 0.34312782139E+01 0.31318623031E+01 0.27840262183E+01
 0.24814051385E+01 0.23064984504E+01 0.23065028802E+01 0.24814190826E+01 0.33402056392E+01
 0.35292169535E+01 0.36390272445E+01 0.36400912791E+01 0.35433181809E+01 0.33855716036E+01
 0.32095723492E+01 0.30560677835E+01 0.29539852169E+01 0.29184910956E+01 0.29539910443E+01
 0.30560720978E+01 0.32095725550E+01 0.33855742272E+01 0.35433268818E+01 0.36400961106E+01
 0.36390130947E+01 0.35291824428E+01 0.33401668378E+01 0.31318623031E+01 0.29719989275E+01
 0.29123242711E+01 0.29720092744E+01 0.31318884533E+01 0.36210865389E+01 0.36648210986E+01
 0.36353621087E+01 0.35346877163E+01 0.33834828511E+01 0.32128077765E+01 0.30560677835E+01
 0.29393319604E+01 0.28778472415E+01 0.28778536656E+01 0.29393460002E+01 0.30560780542E+01
 0.32128067894E+01 0.33834750952E+01 0.35346867964E+01 0.36353772449E+01 0.36648452994E+01
 0.36211011084E+01 0.35291824428E+01 0.34312782139E+01 0.33694634978E+01 0.33694734514E+01
 0.34312970537E+01 0.35291890179E+01 0.36615115544E+01 0.36121467020E+01 0.35140116364E+01
 0.33767867341E+01 0.32214668540E+01 0.30732751230E+01 0.29539852169E+01 0.28778472415E+01
 0.28518253660E+01 0.28778444304E+01 0.29539843399E+01 0.30732758052E+01 0.32214627577E+01
 0.33767788800E+01 0.35140146596E+01 0.36121728287E+01 0.36615507481E+01 0.36648452994E+01
 0.36390130947E+01 0.36090303511E+01 0.35962712699E+01 0.36090418752E+01 0.36390134206E+01
 0.36648193188E+01 0.35602983243E+01 0.34753160524E+01 0.33618504668E+01 0.32328750884E+01
 0.31056761453E+01 0.29967960536E+01 0.29184910956E+01 0.28778536656E+01 0.28778444304E+01
 0.29184734039E+01 0.29967876740E+01 0.31056813430E+01 0.32328806288E+01 0.33618427947E+01
 0.34752975756E+01 0.35602840705E+01 0.36121728287E+01 0.36353772449E+01 0.36400961106E+01
 0.36383524859E+01 0.36383458023E+01 0.36400801139E+01 0.36353627563E+01 0.36121715220E+01
 0.34153484343E+01 0.33358666623E+01 0.32438369041E+01 0.31496012001E+01 0.30641506496E+01
 0.29967903346E+01 0.29539910443E+01 0.29393460002E+01 0.29539843399E+01 0.29967876740E+01
 0.30641585073E+01 0.31496109451E+01 0.32438322003E+01 0.33358410232E+01 0.34153130743E+01
 0.34752975756E+01 0.35140146596E+01 0.35346867964E+01 0.35433268818E+01 0.35454647516E+01
 0.35433172151E+01 0.35346783174E+01 0.35140210740E+01 0.34753237042E+01 0.32982961858E+01
 0.32515481601E+01 0.32001191448E+01 0.31496098940E+01 0.31056737020E+01 0.30732638719E+01
 0.30560720978E+01 0.30560780542E+01 0.30732758052E+01 0.31056813430E+01 0.31496109451E+01
 0.32001201207E+01 0.32515535857E+01 0.32983015767E+01 0.33358410232E+01 0.33618427947E+01
 0.33767788800E+01 0.33834750952E+01 0.33855742272E+01 0.33855766848E+01 0.33834830625E+01
 0.33767911784E+01 0.33618533044E+01 0.33358431900E+01 0.32542821941E+01 0.32515312258E+01
 0.32438329830E+01 0.32328905641E+01 0.32214649737E+01 0.32128023744E+01 0.32095725550E+01
 0.32128067894E+01 0.32214627577E+01 0.32328806288E+01 0.32438322003E+01 0.32515535857E+01
 0.32543172030E+01 0.32515535857E+01 0.32438322003E+01 0.32328806288E+01 0.32214627577E+01
 0.32128067894E+01 0.32095725550E+01 0.32128023744E+01 0.32214649737E+01 0.32328905641E+01
 0.32438329830E+01 0.32515312258E+01 0.32982961858E+01 0.33358431900E+01 0.33618533044E+01
 0.33767911784E+01 0.33834830625E+01 0.33855766848E+01 0.33855742272E+01 0.33834750952E+01
 0.33767788800E+01 0.33618427947E+01 0.33358410232E+01 0.32983015767E+01 0.32515535857E+01
 0.32001201207E+01 0.31496109451E+01 0.31056813430E+01 0.30732758052E+01 0.30560780542E+01
 0.30560720978E+01 0.30732638719E+01 0.31056737020E+01 0.31496098940E+01 0.32001191448E+01
 0.32515481601E+01 0.34153484343E+01 0.34753237042E+01 0.35140210740E+01 0.35346783174E+01
 0.35433172151E+01 0.35454647516E+01 0.35433268818E+01 0.35346867964E+01 0.35140146596E+01
 0.34752975756E+01 0.34153130743E+01 0.33358410232E+01 0.32438322003E+01 0.31496109451E+01
 0.30641585073E+01 0.29967876740E+01 0.29539843399E+01 0.29393460002E+01 0.29539910443E+01
 0.29967903346E+01 0.30641506496E+01 0.31496012001E+01 0.32438369041E+01 0.33358666623E+01
 0.35602983243E+01 0.36121715220E+01 0.36353627563E+01 0.36400801139E+01 0.36383458023E+01
 0.36383524859E+01 0.36400961106E+01 0.36353772449E+01 0.36121728287E+01 0.35602840705E+01
 0.34752975756E+01 0.33618427947E+01 0.32328806288E+01 0.31056813430E+01 0.29967876740E+01
 0.29184734039E+01 0.28778444304E+01 0.28778536656E+01 0.29184910956E+01 0.29967960536E+01
 0.31056761453E+01 0.32328750884E+01 0.33618504668E+01 0.34753160524E+01 0.36615115544E+01
 0.36648193188E+01 0.36390134206E+01 0.36090418752E+01 0.35962712699E+01 0.36090303511E+01
 0.36390130947E+01 0.36648452994E+01 0.36615507481E+01 0.36121728287E+01 0.35140146596E+01
 0.33767788800E+01 0.32214627577E+01 0.30732758052E+01 0.29539843399E+01 0.28778444304E+01
 0.28518253660E+01 0.28778472415E+01 0.29539852169E+01 0.30732751230E+01 0.32214668540E+01
 0.33767867341E+01 0.35140116364E+01 0.36121467020E+01 0.36210865389E+01 0.35291890179E+01
 0.34312970537E+01 0.33694734514E+01 0.33694634978E+01 0.34312782139E+01 0.35291824428E+01
 0.36211011084E+01 0.36648452994E+01 0.36353772449E+01 0.35346867964E+01 0.33834750952E+01
 0.32128067894E+01 0.30560780542E+01 0.29393460002E+01 0.28778536656E+01 0.28778472415E+01
 0.29393319604E+01 0.30560677835E+01 0.32128077765E+01 0.33834828511E+01 0.35346877163E+01
 0.36353621087E+01 0.36648210986E+01 0.33402056392E+01 0.31318884533E+01 0.29720092744E+01
 0.29123242711E+01 0.29719989275E+01 0.31318623031E+01 0.33401668378E+01 0.35291824428E+01
 0.36390130947E+01 0.36400961106E+01 0.35433268818E+01 0.33855742272E+01 0.32095725550E+01
 0.30560720978E+01 0.29539910443E+01 0.29184910956E+01 0.29539852169E+01 0.30560677835E+01
 0.32095723492E+01 0.33855716036E+01 0.35433181809E+01 0.36400912791E+01 0.36390272445E+01
 0.35292169535E+01 0.27840500315E+01 0.24814190826E+01 0.23065028802E+01 0.23064984504E+01
 0.24814051385E+01 0.27840262183E+01 0.31318623031E+01 0.34312782139E+01 0.36090303511E+01
 0.36383524859E+01 0.35454647516E+01 0.33855766848E+01 0.32128023744E+01 0.30732638719E+01
 0.29967903346E+01 0.29967960536E+01 0.30732751230E+01 0.32128077765E+01 0.33855716036E+01
 0.35454564112E+01 0.36383532611E+01 0.36090468375E+01 0.34313065471E+01 0.31318926129E+01
 0.20122703956E+01 0.16776929164E+01 0.15568425215E+01 0.16777166645E+01 0.20123024569E+01
 0.24814051385E+01 0.29719989275E+01 0.33694634978E+01 0.35962712699E+01 0.36383458023E+01
 0.35433172151E+01 0.33834830625E+01 0.32214649737E+01 0.31056737020E+01 0.30641506496E+01
 0.31056761453E+01 0.32214668540E+01 0.33834828511E+01 0.35433181809E+01 0.36383532611E+01
 0.35962855405E+01 0.33694760056E+01 0.29719972135E+01 0.24813837888E+01 0.11649061549E+01
 0.87897126149E+00 0.87899073347E+00 0.11649480166E+01 0.16777166645E+01 0.23064984504E+01
 0.29123242711E+01 0.33694734514E+01 0.36090418752E+01 0.36400801139E+01 0.35346783174E+01
 0.33767911784E+01 0.32328905641E+01 0.31496098940E+01 0.31496012001E+01 0.32328750884E+01
 0.33767867341E+01 0.35346877163E+01 0.36400912791E+01 0.36090468375E+01 0.33694760056E+01
 0.29123257850E+01 0.23064874154E+01 0.16776834216E+01 0.41234774267E+00 0.24668093524E+00
 0.41228769939E+00 0.87899073347E+00 0.15568425215E+01 0.23065028802E+01 0.29720092744E+01
 0.34312970537E+01 0.36390134206E+01 0.36353627563E+01 0.35140210740E+01 0.33618533044E+01
 0.32438329830E+01 0.32001191448E+01 0.32438369041E+01 0.33618504668E+01 0.35140116364E+01
 0.36353621087E+01 0.36390272445E+01 0.34313065471E+01 0.29719972135E+01 0.23064874154E+01
 0.15568633353E+01 0.87905508811E+00 -.99387551098E-01 -.99456894809E-01 0.24668093524E+00
 0.87897126149E+00 0.16776929164E+01 0.24814190826E+01 0.31318884533E+01 0.35291890179E+01
 0.36648193188E+01 0.36121715220E+01 0.34753237042E+01 0.33358431900E+01 0.32515312258E+01
 0.32515481601E+01 0.33358666623E+01 0.34753160524E+01 0.36121467020E+01 0.36648210986E+01
 0.35292169535E+01 0.31318926129E+01 0.24813837888E+01 0.16776834216E+01 0.87905508811E+00
 0.24681967272E+00 -.99387551098E-01 0.24681967272E+00 0.87905508811E+00 0.16776834216E+01
 0.24813837888E+01 0.31318926129E+01 0.35292169535E+01 0.36648210986E+01 0.36121467020E+01
 0.34753160524E+01 0.33358666623E+01 0.32515481601E+01 0.32515312258E+01 0.33358431900E+01
 0.34753237042E+01 0.36121715220E+01 0.36648193188E+01 0.35291890179E+01 0.31318884533E+01
 0.24814190826E+01 0.16776929164E+01 0.87897126149E+00 0.24668093524E+00 -.99456894809E-01
 0.24681967272E+00 0.73121312569E+00 0.14370688105E+01 0.22218054068E+01 0.29241422715E+01
 0.34160463195E+01 0.36477534098E+01 0.36581265503E+01 0.35429781172E+01 0.33929006335E+01
 0.32750565057E+01 0.32311991666E+01 0.32750517692E+01 0.33929047654E+01 0.35429870304E+01
 0.36581183602E+01 0.36477315945E+01 0.34160522985E+01 0.29241941956E+01 0.22218410507E+01
 0.14369960098E+01 0.73103190586E+00 0.24665947932E+00 0.75128529691E-01 0.87905508811E+00
 0.14370688105E+01 0.21272164449E+01 0.28013674716E+01 0.33226916581E+01 0.36128062124E+01
 0.36761417583E+01 0.35863277974E+01 0.34343140588E+01 0.32912738898E+01 0.32074252891E+01
 0.32074337214E+01 0.32912905649E+01 0.34343212706E+01 0.35863170434E+01 0.36761257074E+01
 0.36128091915E+01 0.33227224026E+01 0.28014014376E+01 0.21272128587E+01 0.14370125593E+01
 0.87898054315E+00 0.56936072182E+00 0.56939513024E+00 0.16776834216E+01 0.22218054068E+01
 0.28013674716E+01 0.32868864945E+01 0.35869032864E+01 0.36788880749E+01 0.36099183937E+01
 0.34606569770E+01 0.33006810797E+01 0.31836526095E+01 0.31412829493E+01 0.31836470468E+01
 0.33006816792E+01 0.34606681933E+01 0.36099276213E+01 0.36788809735E+01 0.35868848028E+01
 0.32868790626E+01 0.28013878315E+01 0.22218479739E+01 0.16777271605E+01 0.12936982872E+01
 0.11556523459E+01 0.12936721870E+01 0.24813837888E+01 0.29241422715E+01 0.33226916581E+01
 0.35869032864E+01 0.36782410452E+01 0.36197411036E+01 0.34745585425E+01 0.33049591874E+01
 0.31633520262E+01 0.30845300815E+01 0.30845203127E+01 0.31633363978E+01 0.33049593947E+01
 0.34745732017E+01 0.36197464119E+01 0.36782225201E+01 0.35868760298E+01 0.33226831626E+01
 0.29241618552E+01 0.24814163969E+01 0.21049351319E+01 0.18898516497E+01 0.18898426930E+01
 0.21049096308E+01 0.31318926129E+01 0.34160463195E+01 0.36128062124E+01 0.36788880749E+01
 0.36197411036E+01 0.34788209002E+01 0.33063473757E+01 0.31496477241E+01 0.30433241195E+01
 0.30060373464E+01 0.30433275324E+01 0.31496453579E+01 0.33063381377E+01 0.34788173662E+01
 0.36197511907E+01 0.36788986623E+01 0.36127955365E+01 0.34160113355E+01 0.31318541291E+01
 0.28380806248E+01 0.26192026642E+01 0.25385024727E+01 0.26192077356E+01 0.28381021810E+01
 0.35292169535E+01 0.36477534098E+01 0.36761417583E+01 0.36099183937E+01 0.34745585425E+01
 0.33063473757E+01 0.31448129871E+01 0.30217388670E+01 0.29562058110E+01 0.29562136015E+01
 0.30217511904E+01 0.31448140729E+01 0.33063420916E+01 0.34745655233E+01 0.36099394675E+01
 0.36761534689E+01 0.36477359319E+01 0.35291810392E+01 0.33594808739E+01 0.31974334028E+01
 0.30994483541E+01 0.30994467447E+01 0.31974391464E+01 0.33595072087E+01 0.36648210986E+01
 0.36581265503E+01 0.35863277974E+01 0.34606569770E+01 0.33049591874E+01 0.31496477241E+01
 0.30217388670E+01 0.29391916291E+01 0.29108591705E+01 0.29391955059E+01 0.30217475740E+01
 0.31496575390E+01 0.33049626287E+01 0.34606531511E+01 0.35863274478E+01 0.36581412795E+01
 0.36648480604E+01 0.36143324028E+01 0.35357656078E+01 0.34673830669E+01 0.34405829126E+01
 0.34673842170E+01 0.35357569749E+01 0.36143090786E+01 0.36121467020E+01 0.35429781172E+01
 0.34343140588E+01 0.33006810797E+01 0.31633520262E+01 0.30433241195E+01 0.29562058110E+01
 0.29108591705E+01 0.29108551593E+01 0.29561992302E+01 0.30433219973E+01 0.31633507174E+01
 0.33006727637E+01 0.34343038808E+01 0.35429836035E+01 0.36121755643E+01 0.36390706760E+01
 0.36319149759E+01 0.36088116302E+01 0.35905098680E+01 0.35905135830E+01 0.36088117780E+01
 0.36318949836E+01 0.36390344932E+01 0.34753160524E+01 0.33929006335E+01 0.32912738898E+01
 0.31836526095E+01 0.30845300815E+01 0.30060373464E+01 0.29562136015E+01 0.29391955059E+01
 0.29561992302E+01 0.30060205028E+01 0.30845226989E+01 0.31836553477E+01 0.32912767092E+01
 0.33928939772E+01 0.34753005796E+01 0.35306571308E+01 0.35589074183E+01 0.35671078417E+01
 0.35657583267E+01 0.35640605357E+01 0.35657516026E+01 0.35671025786E+01 0.35589120254E+01
 0.35306716914E+01 0.33358666623E+01 0.32750565057E+01 0.32074252891E+01 0.31412829493E+01
 0.30845203127E+01 0.30433275324E+01 0.30217511904E+01 0.30217475740E+01 0.30433219973E+01
 0.30845226989E+01 0.31412955720E+01 0.32074377539E+01 0.32750537012E+01 0.33358432363E+01
 0.33831067000E+01 0.34137254047E+01 0.34290499426E+01 0.34339826790E+01 0.34344590520E+01
 0.34344534863E+01 0.34339740282E+01 0.34290539736E+01 0.34137489903E+01 0.33831396438E+01
 0.32515481601E+01 0.32311991666E+01 0.32074337214E+01 0.31836470468E+01 0.31633363978E+01
 0.31496453579E+01 0.31448140729E+01 0.31496575390E+01 0.31633507174E+01 0.31836553477E+01
 0.32074377539E+01 0.32312050867E+01 0.32515564511E+01 0.32656982263E+01 0.32721623989E+01
 0.32715108402E+01 0.32664642869E+01 0.32610173587E+01 0.32587271954E+01 0.32610172209E+01
 0.32664667749E+01 0.32715155671E+01 0.32721640972E+01 0.32656932699E+01 0.32515312258E+01
 0.32750517692E+01 0.32912905649E+01 0.33006816792E+01 0.33049593947E+01 0.33063381377E+01
 0.33063420916E+01 0.33049626287E+01 0.33006727637E+01 0.32912767092E+01 0.32750537012E+01
 0.32515564511E+01 0.32217903415E+01 0.31879828582E+01 0.31533097339E+01 0.31216764063E+01
 0.30973190453E+01 0.30840063498E+01 0.30840039063E+01 0.30973171221E+01 0.31216804370E+01
 0.31533110106E+01 0.31879668472E+01 0.32217589311E+01 0.33358431900E+01 0.33929047654E+01
 0.34343212706E+01 0.34606681933E+01 0.34745732017E+01 0.34788173662E+01 0.34745655233E+01
 0.34606531511E+01 0.34343038808E+01 0.33928939772E+01 0.33358432363E+01 0.32656982263E+01
 0.31879828582E+01 0.31100745879E+01 0.30397596925E+01 0.29840290094E+01 0.29483050777E+01
 0.29360044822E+01 0.29482980873E+01 0.29840237826E+01 0.30397617565E+01 0.31100791088E+01
 0.31879821456E+01 0.32656932699E+01 0.34753237042E+01 0.35429870304E+01 0.35863170434E+01
 0.36099276213E+01 0.36197464119E+01 0.36197511907E+01 0.36099394675E+01 0.35863274478E+01
 0.35429836035E+01 0.34753005796E+01 0.33831067000E+01 0.32721623989E+01 0.31533097339E+01
 0.30397596925E+01 0.29439357366E+01 0.28752911462E+01 0.28396562047E+01 0.28396602479E+01
 0.28752966846E+01 0.29439332259E+01 0.30397527095E+01 0.31533136298E+01 0.32721858550E+01
 0.33831396438E+01 0.36121715220E+01 0.36581183602E+01 0.36761257074E+01 0.36788809735E+01
 0.36782225201E+01 0.36788986623E+01 0.36761534689E+01 0.36581412795E+01 0.36121755643E+01
 0.35306571308E+01 0.34137254047E+01 0.32715108402E+01 0.31216764063E+01 0.29840290094E+01
 0.28752911462E+01 0.28064461267E+01 0.27829851379E+01 0.28064583921E+01 0.28752998722E+01
 0.29840239444E+01 0.31216667751E+01 0.32715133010E+01 0.34137420039E+01 0.35306716914E+01
 0.36648193188E+01 0.36477315945E+01 0.36128091915E+01 0.35868848028E+01 0.35868760298E+01
 0.36127955365E+01 0.36477359319E+01 0.36648480604E+01 0.36390706760E+01 0.35589074183E+01
 0.34290499426E+01 0.32664642869E+01 0.30973190453E+01 0.29483050777E+01 0.28396562047E+01
 0.27829851379E+01 0.27829837372E+01 0.28396528037E+01 0.29483027620E+01 0.30973216154E+01
 0.32664695864E+01 0.34290467074E+01 0.35588851086E+01 0.36390344932E+01 0.35291890179E+01
 0.34160522985E+01 0.33227224026E+01 0.32868790626E+01 0.33226831626E+01 0.34160113355E+01
 0.35291810392E+01 0.36143324028E+01 0.36319149759E+01 0.35671078417E+01 0.34339826790E+01
 0.32610173587E+01 0.30840063498E+01 0.29360044822E+01 0.28396602479E+01 0.28064583921E+01
 0.28396528037E+01 0.29359943933E+01 0.30840023806E+01 0.32610243619E+01 0.34339919205E+01
 0.35671019209E+01 0.36318894737E+01 0.36143090786E+01 0.31318884533E+01 0.29241941956E+01
 0.28014014376E+01 0.28013878315E+01 0.29241618552E+01 0.31318541291E+01 0.33594808739E+01
 0.35357656078E+01 0.36088116302E+01 0.35657583267E+01 0.34344590520E+01 0.32587271954E+01
 0.30840039063E+01 0.29482980873E+01 0.28752966846E+01 0.28752998722E+01 0.29483027620E+01
 0.30840023806E+01 0.32587199265E+01 0.34344545152E+01 0.35657628540E+01 0.36088243531E+01
 0.35357842674E+01 0.33595072087E+01 0.24814190826E+01 0.22218410507E+01 0.21272128587E+01
 0.22218479739E+01 0.24814163969E+01 0.28380806248E+01 0.31974334028E+01 0.34673830669E+01
 0.35905098680E+01 0.35640605357E+01 0.34344534863E+01 0.32610172209E+01 0.30973171221E+01
 0.29840237826E+01 0.29439332259E+01 0.29840239444E+01 0.30973216154E+01 0.32610243619E+01
 0.34344545152E+01 0.35640530035E+01 0.35905060821E+01 0.34673970190E+01 0.31974611787E+01
 0.28381021810E+01 0.16776929164E+01 0.14369960098E+01 0.14370125593E+01 0.16777271605E+01
 0.21049351319E+01 0.26192026642E+01 0.30994483541E+01 0.34405829126E+01 0.35905135830E+01
 0.35657516026E+01 0.34339740282E+01 0.32664667749E+01 0.31216804370E+01 0.30397617565E+01
 0.30397527095E+01 0.31216667751E+01 0.32664695864E+01 0.34339919205E+01 0.35657628540E+01
 0.35905060821E+01 0.34405676799E+01 0.30994385786E+01 0.26191920286E+01 0.21049096308E+01
 0.87897126149E+00 0.73103190586E+00 0.87898054315E+00 0.12936982872E+01 0.18898516497E+01
 0.25385024727E+01 0.30994467447E+01 0.34673842170E+01 0.36088117780E+01 0.35671025786E+01
 0.34290539736E+01 0.32715155671E+01 0.31533110106E+01 0.31100791088E+01 0.31533136298E+01
 0.32715133010E+01 0.34290467074E+01 0.35671019209E+01 0.36088243531E+01 0.34673970190E+01
 0.30994385786E+01 0.25384691215E+01 0.18898117409E+01 0.12936721870E+01 0.24668093524E+00
 0.24665947932E+00 0.56936072182E+00 0.11556523459E+01 0.18898426930E+01 0.26192077356E+01
 0.31974391464E+01 0.35357569749E+01 0.36318949836E+01 0.35589120254E+01 0.34137489903E+01
 0.32721640972E+01 0.31879668472E+01 0.31879821456E+01 0.32721858550E+01 0.34137420039E+01
 0.35588851086E+01 0.36318894737E+01 0.35357842674E+01 0.31974611787E+01 0.26191920286E+01
 0.18898117409E+01 0.11556527544E+01 0.56939513024E+00 -.99456894809E-01 0.75128529691E-01
 0.56939513024E+00 0.12936721870E+01 0.21049096308E+01 0.28381021810E+01 0.33595072087E+01
 0.36143090786E+01 0.36390344932E+01 0.35306716914E+01 0.33831396438E+01 0.32656932699E+01
 0.32217589311E+01 0.32656932699E+01 0.33831396438E+01 0.35306716914E+01 0.36390344932E+01
 0.36143090786E+01 0.33595072087E+01 0.28381021810E+01 0.21049096308E+01 0.12936721870E+01
 0.56939513024E+00 0.75128529691E-01 0.41234774267E+00 0.87905508811E+00 0.15568633353E+01
 0.23064874154E+01 0.29719972135E+01 0.34313065471E+01 0.36390272445E+01 0.36353621087E+01
 0.35140116364E+01 0.33618504668E+01 0.32438369041E+01 0.32001191448E+01 0.32438329830E+01
 0.33618533044E+01 0.35140210740E+01 0.36353627563E+01 0.36390134206E+01 0.34312970537E+01
 0.29720092744E+01 0.23065028802E+01 0.15568425215E+01 0.87899073347E+00 0.41228769939E+00
 0.24668093524E+00 0.87905508811E+00 0.14370688105E+01 0.21272164449E+01 0.28013674716E+01
 0.33226916581E+01 0.36128062124E+01 0.36761417583E+01 0.35863277974E+01 0.34343140588E+01
 0.32912738898E+01 0.32074252891E+01 0.32074337214E+01 0.32912905649E+01 0.34343212706E+01
 0.35863170434E+01 0.36761257074E+01 0.36128091915E+01 0.33227224026E+01 0.28014014376E+01
 0.21272128587E+01 0.14370125593E+01 0.87898054315E+00 0.56936072182E+00 0.56939513024E+00
 0.15568633353E+01 0.21272164449E+01 0.27381222145E+01 0.32549621712E+01 0.35813283537E+01
 0.36915571521E+01 0.36323069206E+01 0.34870034237E+01 0.33278872251E+01 0.32104897066E+01
 0.31678420627E+01 0.32104842502E+01 0.33278884135E+01 0.34870150459E+01 0.36323167067E+01
 0.36915558777E+01 0.35813273786E+01 0.32549801300E+01 0.27381573066E+01 0.21272446666E+01
 0.15568679330E+01 0.11556446541E+01 0.10116619482E+01 0.11556527544E+01 0.23064874154E+01
 0.28013674716E+01 0.32549621712E+01 0.35678771293E+01 0.36948613940E+01 0.36567604256E+01
 0.35203274111E+01 0.33529319088E+01 0.32104344721E+01 0.31304216969E+01 0.31304101394E+01
 0.32104161052E+01 0.33529340013E+01 0.35203515663E+01 0.36567789106E+01 0.36948515915E+01
 0.35678514259E+01 0.32549574649E+01 0.28014079330E+01 0.23065612388E+01 0.18898810098E+01
 0.16530449851E+01 0.16530170409E+01 0.18898117409E+01 0.29719972135E+01 0.33226916581E+01
 0.35813283537E+01 0.36948613940E+01 0.36642916046E+01 0.35362355590E+01 0.33671634005E+01
 0.32088638846E+01 0.30999017728E+01 0.30614549526E+01 0.30999017214E+01 0.32088597461E+01
 0.33671570489E+01 0.35362351282E+01 0.36642977567E+01 0.36948614972E+01 0.35813136024E+01
 0.33226757494E+01 0.29720056396E+01 0.26192289969E+01 0.23599558922E+01 0.22649147356E+01
 0.23599202467E+01 0.26191920286E+01 0.34313065471E+01 0.36128062124E+01 0.36915571521E+01
 0.36567604256E+01 0.35362355590E+01 0.33717437952E+01 0.32075342456E+01 0.30800092625E+01
 0.30114806743E+01 0.30114895451E+01 0.30800207623E+01 0.32075263319E+01 0.33717230143E+01
 0.35362313183E+01 0.36567840072E+01 0.36915825235E+01 0.36128000662E+01 0.34312670964E+01
 0.31974160173E+01 0.29831706306E+01 0.28559930275E+01 0.28560009248E+01 0.29831981723E+01
 0.31974611787E+01 0.36390272445E+01 0.36761417583E+01 0.36323069206E+01 0.35203274111E+01
 0.33671634005E+01 0.32075342456E+01 0.30731172472E+01 0.29853922889E+01 0.29551436076E+01
 0.29853984390E+01 0.30731219236E+01 0.32075337049E+01 0.33671645746E+01 0.35203396719E+01
 0.36323285979E+01 0.36761585237E+01 0.36390247671E+01 0.35357615275E+01 0.34068372523E+01
 0.33023267626E+01 0.32624155168E+01 0.33023472996E+01 0.34068673860E+01 0.35357842674E+01
 0.36353621087E+01 0.35863277974E+01 0.34870034237E+01 0.33529319088E+01 0.32088638846E+01
 0.30800092625E+01 0.29853922889E+01 0.29358884054E+01 0.29358862099E+01 0.29853918561E+01
 0.30800181106E+01 0.32088759219E+01 0.33529341604E+01 0.34869967935E+01 0.35863300784E+01
 0.36353856110E+01 0.36319230459E+01 0.35893342849E+01 0.35350339861E+01 0.34985185726E+01
 0.34985205009E+01 0.35350304903E+01 0.35893125801E+01 0.36318894737E+01 0.35140116364E+01
 0.34343140588E+01 0.33278872251E+01 0.32104344721E+01 0.30999017728E+01 0.30114806743E+01
 0.29551436076E+01 0.29358862099E+01 0.29551356407E+01 0.30114745507E+01 0.30999008725E+01
 0.32104299778E+01 0.33278738947E+01 0.34343039464E+01 0.35140219164E+01 0.35589143949E+01
 0.35713120845E+01 0.35621384157E+01 0.35470051548E+01 0.35400768411E+01 0.35470088336E+01
 0.35621300486E+01 0.35712851072E+01 0.35588851086E+01 0.33618504668E+01 0.32912738898E+01
 0.32104897066E+01 0.31304216969E+01 0.30614549526E+01 0.30114895451E+01 0.29853984390E+01
 0.29853918561E+01 0.30114745507E+01 0.30614415500E+01 0.31304165073E+01 0.32104911048E+01
 0.32912747936E+01 0.33618453197E+01 0.34137310676E+01 0.34436627344E+01 0.34545896415E+01
 0.34541527677E+01 0.34510797573E+01 0.34510809569E+01 0.34541572490E+01 0.34545985731E+01
 0.34436748666E+01 0.34137420039E+01 0.32438369041E+01 0.32074252891E+01 0.31678420627E+01
 0.31304101394E+01 0.30999017214E+01 0.30800207623E+01 0.30731219236E+01 0.30800181106E+01
 0.30999008725E+01 0.31304165073E+01 0.31678557632E+01 0.32074374421E+01 0.32438350109E+01
 0.32721662562E+01 0.32893878223E+01 0.32955199315E+01 0.32938476718E+01 0.32896072827E+01
 0.32875525967E+01 0.32895992936E+01 0.32938455976E+01 0.32955346730E+01 0.32894135960E+01
 0.32721858550E+01 0.32001191448E+01 0.32074337214E+01 0.32104842502E+01 0.32104161052E+01
 0.32088597461E+01 0.32075263319E+01 0.32075337049E+01 0.32088759219E+01 0.32104299778E+01
 0.32104911048E+01 0.32074374421E+01 0.32001243488E+01 0.31879882161E+01 0.31711825700E+01
 0.31509647700E+01 0.31300706944E+01 0.31124953539E+01 0.31023744448E+01 0.31023711410E+01
 0.31124884892E+01 0.31300652779E+01 0.31509614435E+01 0.31711782970E+01 0.31879821456E+01
 0.32438329830E+01 0.32912905649E+01 0.33278884135E+01 0.33529340013E+01 0.33671570489E+01
 0.33717230143E+01 0.33671645746E+01 0.33529341604E+01 0.33278738947E+01 0.32912747936E+01
 0.32438350109E+01 0.31879882161E+01 0.31275928165E+01 0.30673815846E+01 0.30125226005E+01
 0.29682631487E+01 0.29393794907E+01 0.29293258575E+01 0.29393782727E+01 0.29682636029E+01
 0.30125215458E+01 0.30673697930E+01 0.31275689327E+01 0.31879668472E+01 0.33618533044E+01
 0.34343212706E+01 0.34870150459E+01 0.35203515663E+01 0.35362351282E+01 0.35362313183E+01
 0.35203396719E+01 0.34869967935E+01 0.34343039464E+01 0.33618453197E+01 0.32721662562E+01
 0.31711825700E+01 0.30673815846E+01 0.29702800869E+01 0.28888429473E+01 0.28303554724E+01
 0.27998402768E+01 0.27998395957E+01 0.28303559759E+01 0.28888477139E+01 0.29702863108E+01
 0.30673829409E+01 0.31711782970E+01 0.32721640972E+01 0.35140210740E+01 0.35863170434E+01
 0.36323167067E+01 0.36567789106E+01 0.36642977567E+01 0.36567840072E+01 0.36323285979E+01
 0.35863300784E+01 0.35140219164E+01 0.34137310676E+01 0.32893878223E+01 0.31509647700E+01
 0.30125226005E+01 0.28888429473E+01 0.27923299464E+01 0.27314326283E+01 0.27106797178E+01
 0.27314389746E+01 0.27923327776E+01 0.28888388988E+01 0.30125226048E+01 0.31509802578E+01
 0.32894135960E+01 0.34137489903E+01 0.36353627563E+01 0.36761257074E+01 0.36915558777E+01
 0.36948515915E+01 0.36948614972E+01 0.36915825235E+01 0.36761585237E+01 0.36353856110E+01
 0.35589143949E+01 0.34436627344E+01 0.32955199315E+01 0.31300706944E+01 0.29682631487E+01
 0.28303554724E+01 0.27314326283E+01 0.26801868866E+01 0.26801912405E+01 0.27314386741E+01
 0.28303524949E+01 0.29682529948E+01 0.31300667571E+01 0.32955292016E+01 0.34436748666E+01
 0.35589120254E+01 0.36390134206E+01 0.36128091915E+01 0.35813273786E+01 0.35678514259E+01
 0.35813136024E+01 0.36128000662E+01 0.36390247671E+01 0.36319230459E+01 0.35713120845E+01
 0.34545896415E+01 0.32938476718E+01 0.31124953539E+01 0.29393794907E+01 0.27998402768E+01
 0.27106797178E+01 0.26801912405E+01 0.27106780925E+01 0.27998377587E+01 0.29393783949E+01
 0.31124967346E+01 0.32938463515E+01 0.34545764690E+01 0.35712851072E+01 0.36318949836E+01
 0.34312970537E+01 0.33227224026E+01 0.32549801300E+01 0.32549574649E+01 0.33226757494E+01
 0.34312670964E+01 0.35357615275E+01 0.35893342849E+01 0.35621384157E+01 0.34541527677E+01
 0.32896072827E+01 0.31023744448E+01 0.29293258575E+01 0.27998395957E+01 0.27314389746E+01
 0.27314386741E+01 0.27998377587E+01 0.29293233734E+01 0.31023764401E+01 0.32896150939E+01
 0.34541562540E+01 0.35621258509E+01 0.35893125801E+01 0.35357569749E+01 0.29720092744E+01
 0.28014014376E+01 0.27381573066E+01 0.28014079330E+01 0.29720056396E+01 0.31974160173E+01
 0.34068372523E+01 0.35350339861E+01 0.35470051548E+01 0.34510797573E+01 0.32875525967E+01
 0.31023711410E+01 0.29393782727E+01 0.28303559759E+01 0.27923327776E+01 0.28303524949E+01
 0.29393783949E+01 0.31023764401E+01 0.32875553696E+01 0.34510762339E+01 0.35470056088E+01
 0.35350513128E+01 0.34068673860E+01 0.31974391464E+01 0.23065028802E+01 0.21272128587E+01
 0.21272446666E+01 0.23065612388E+01 0.26192289969E+01 0.29831706306E+01 0.33023267626E+01
 0.34985185726E+01 0.35400768411E+01 0.34510809569E+01 0.32895992936E+01 0.31124884892E+01
 0.29682636029E+01 0.28888477139E+01 0.28888388988E+01 0.29682529948E+01 0.31124967346E+01
 0.32896150939E+01 0.34510762339E+01 0.35400540068E+01 0.34985139836E+01 0.33023567752E+01