   1   1   1   0
  0.1852200E+02  0.2969849E-09  0.2969849E-09  0.2969849E-09  0.5000000E-15
  1.000000000000000E-004
  CAR 
 fcc Al                                  
     22.96446588     -5.52171739  301      6.82226241      1.00000000
     -5.522  0.0000E+00  0.0000E+00
     -5.427  0.0000E+00  0.0000E+00
     -5.332  0.0000E+00  0.0000E+00
     -5.237  0.0000E+00  0.0000E+00
     -5.142 -0.4176E-30 -0.3965E-31
     -5.047 -0.7037E-27 -0.6686E-28
     -4.952 -0.7541E-24 -0.7167E-25
     -4.857 -0.5153E-21 -0.4900E-22
     -4.762 -0.2246E-18 -0.2138E-19
     -4.667 -0.6102E-16 -0.5816E-17
     -4.572 -0.1071E-13 -0.1023E-14
     -4.477 -0.1206E-11 -0.1155E-12
     -4.382 -0.8655E-10 -0.8333E-11
     -4.287 -0.3954E-08 -0.3838E-09
     -4.192 -0.1148E-06 -0.1128E-07
     -4.097 -0.2107E-05 -0.2114E-06
     -4.002 -0.2426E-04 -0.2515E-05
     -3.908 -0.1721E-03 -0.1885E-04
     -3.813 -0.7172E-03 -0.8695E-04
     -3.718 -0.1491E-02 -0.2285E-03
     -3.623  0.1113E-03 -0.2179E-03
     -3.528  0.9119E-02  0.6480E-03
     -3.433  0.2683E-01  0.3196E-02
     -3.338  0.4716E-01  0.7674E-02
     -3.243  0.6379E-01  0.1373E-01
     -3.148  0.7607E-01  0.2095E-01
     -3.053  0.8595E-01  0.2911E-01
     -2.958  0.9472E-01  0.3811E-01
     -2.863  0.1031E+00  0.4790E-01
     -2.768  0.1104E+00  0.5838E-01
     -2.673  0.1174E+00  0.6953E-01
     -2.578  0.1250E+00  0.8141E-01
     -2.483  0.1307E+00  0.9382E-01
     -2.388  0.1359E+00  0.1067E+00
     -2.293  0.1439E+00  0.1204E+00
     -2.198  0.1497E+00  0.1346E+00
     -2.103  0.1517E+00  0.1490E+00
     -2.008  0.1585E+00  0.1641E+00
     -1.913  0.1678E+00  0.1800E+00
     -1.819  0.1696E+00  0.1961E+00
     -1.724  0.1706E+00  0.2123E+00
     -1.629  0.1784E+00  0.2292E+00
     -1.534  0.1875E+00  0.2470E+00
     -1.439  0.1910E+00  0.2652E+00
     -1.344  0.1889E+00  0.2831E+00
     -1.249  0.1913E+00  0.3013E+00
     -1.154  0.2053E+00  0.3208E+00
     -1.059  0.2141E+00  0.3411E+00
     -0.964  0.2070E+00  0.3607E+00
     -0.869  0.2046E+00  0.3802E+00
     -0.774  0.2176E+00  0.4008E+00
     -0.679  0.2282E+00  0.4225E+00
     -0.584  0.2297E+00  0.4443E+00
     -0.489  0.2291E+00  0.4661E+00
     -0.394  0.2278E+00  0.4877E+00
     -0.299  0.2302E+00  0.5096E+00
     -0.204  0.2419E+00  0.5325E+00
     -0.109  0.2557E+00  0.5568E+00
     -0.014  0.2558E+00  0.5811E+00
      0.081  0.2430E+00  0.6042E+00
      0.176  0.2391E+00  0.6269E+00
      0.270  0.2579E+00  0.6514E+00
      0.365  0.2786E+00  0.6778E+00
      0.460  0.2745E+00  0.7039E+00
      0.555  0.2612E+00  0.7287E+00
      0.650  0.2640E+00  0.7538E+00
      0.745  0.2737E+00  0.7797E+00
      0.840  0.2773E+00  0.8061E+00
      0.935  0.2829E+00  0.8329E+00
      1.030  0.2939E+00  0.8608E+00
      1.125  0.2998E+00  0.8893E+00
      1.220  0.2907E+00  0.9169E+00
      1.315  0.2763E+00  0.9432E+00
      1.410  0.2834E+00  0.9701E+00
      1.505  0.3097E+00  0.9995E+00
      1.600  0.3240E+00  0.1030E+01
      1.695  0.3205E+00  0.1061E+01
      1.790  0.3066E+00  0.1090E+01
      1.885  0.2927E+00  0.1118E+01
      1.980  0.3028E+00  0.1146E+01
      2.075  0.3289E+00  0.1178E+01
      2.170  0.3375E+00  0.1210E+01
      2.265  0.3303E+00  0.1241E+01
      2.359  0.3273E+00  0.1272E+01
      2.454  0.3320E+00  0.1304E+01
      2.549  0.3390E+00  0.1336E+01
      2.644  0.3342E+00  0.1367E+01
      2.739  0.3218E+00  0.1398E+01
      2.834  0.3329E+00  0.1430E+01
      2.929  0.3653E+00  0.1464E+01
      3.024  0.3771E+00  0.1500E+01
      3.119  0.3588E+00  0.1534E+01
      3.214  0.3381E+00  0.1566E+01
      3.309  0.3338E+00  0.1598E+01
      3.404  0.3509E+00  0.1631E+01
      3.499  0.3804E+00  0.1667E+01
      3.594  0.3958E+00  0.1705E+01
      3.689  0.3855E+00  0.1742E+01
      3.784  0.3690E+00  0.1777E+01
      3.879  0.3638E+00  0.1811E+01
      3.974  0.3763E+00  0.1847E+01
      4.069  0.4006E+00  0.1885E+01
      4.164  0.4178E+00  0.1925E+01
      4.259  0.4186E+00  0.1964E+01
      4.353  0.4044E+00  0.2003E+01
      4.448  0.3895E+00  0.2040E+01
      4.543  0.3986E+00  0.2078E+01
      4.638  0.4187E+00  0.2117E+01
      4.733  0.4122E+00  0.2157E+01
      4.828  0.3820E+00  0.2193E+01
      4.923  0.3618E+00  0.2227E+01
      5.018  0.3653E+00  0.2262E+01
      5.113  0.3815E+00  0.2298E+01
      5.208  0.3900E+00  0.2335E+01
      5.303  0.3870E+00  0.2372E+01
      5.398  0.3836E+00  0.2408E+01
      5.493  0.3824E+00  0.2445E+01
      5.588  0.3944E+00  0.2482E+01
      5.683  0.4201E+00  0.2522E+01
      5.778  0.4254E+00  0.2562E+01
      5.873  0.4039E+00  0.2601E+01
      5.968  0.3903E+00  0.2638E+01
      6.063  0.3972E+00  0.2675E+01
      6.158  0.4166E+00  0.2715E+01
      6.253  0.4430E+00  0.2757E+01
      6.348  0.4516E+00  0.2800E+01
      6.442  0.4376E+00  0.2841E+01
      6.537  0.4292E+00  0.2882E+01
      6.632  0.4243E+00  0.2923E+01
      6.727  0.4095E+00  0.2961E+01
      6.822  0.4065E+00  0.3000E+01
      6.917  0.4315E+00  0.3041E+01
      7.012  0.4648E+00  0.3085E+01
      7.107  0.4871E+00  0.3131E+01
      7.202  0.4819E+00  0.3177E+01
      7.297  0.4433E+00  0.3219E+01
      7.392  0.4071E+00  0.3258E+01
      7.487  0.4186E+00  0.3298E+01
      7.582  0.4677E+00  0.3342E+01
      7.677  0.4954E+00  0.3389E+01
      7.772  0.4738E+00  0.3434E+01
      7.867  0.4409E+00  0.3476E+01
      7.962  0.4399E+00  0.3518E+01
      8.057  0.4670E+00  0.3562E+01
      8.152  0.4972E+00  0.3609E+01
      8.247  0.5167E+00  0.3658E+01
      8.342  0.5081E+00  0.3707E+01
      8.437  0.4608E+00  0.3750E+01
      8.531  0.4150E+00  0.3790E+01
      8.626  0.4319E+00  0.3831E+01
      8.721  0.4949E+00  0.3878E+01
      8.816  0.5333E+00  0.3928E+01
      8.911  0.5299E+00  0.3979E+01
      9.006  0.5090E+00  0.4027E+01
      9.101  0.4885E+00  0.4073E+01
      9.196  0.4855E+00  0.4119E+01
      9.291  0.4934E+00  0.4166E+01
      9.386  0.4913E+00  0.4213E+01
      9.481  0.4952E+00  0.4260E+01
      9.576  0.5152E+00  0.4309E+01
      9.671  0.5206E+00  0.4358E+01
      9.766  0.5077E+00  0.4407E+01
      9.861  0.5019E+00  0.4454E+01
      9.956  0.5132E+00  0.4503E+01
     10.051  0.5431E+00  0.4555E+01
     10.146  0.5691E+00  0.4609E+01
     10.241  0.5514E+00  0.4661E+01
     10.336  0.5095E+00  0.4709E+01
     10.431  0.4970E+00  0.4757E+01
     10.525  0.5096E+00  0.4805E+01
     10.620  0.5199E+00  0.4854E+01
     10.715  0.5395E+00  0.4905E+01
     10.810  0.5736E+00  0.4960E+01
     10.905  0.5864E+00  0.5016E+01
     11.000  0.5624E+00  0.5069E+01
     11.095  0.5452E+00  0.5121E+01
     11.190  0.5663E+00  0.5175E+01
     11.285  0.5849E+00  0.5230E+01
     11.380  0.5668E+00  0.5284E+01
     11.475  0.5436E+00  0.5336E+01
     11.570  0.5474E+00  0.5388E+01
     11.665  0.5828E+00  0.5443E+01
     11.760  0.6332E+00  0.5503E+01
     11.855  0.6479E+00  0.5565E+01
     11.950  0.6211E+00  0.5623E+01
     12.045  0.6185E+00  0.5682E+01
     12.140  0.6557E+00  0.5744E+01
     12.235  0.6668E+00  0.5808E+01
     12.330  0.6229E+00  0.5867E+01
     12.425  0.5846E+00  0.5922E+01
     12.520  0.5883E+00  0.5978E+01
     12.614  0.5853E+00  0.6034E+01
     12.709  0.5621E+00  0.6087E+01
     12.804  0.5672E+00  0.6141E+01
     12.899  0.5962E+00  0.6198E+01
     12.994  0.6015E+00  0.6255E+01
     13.089  0.5815E+00  0.6310E+01
     13.184  0.5613E+00  0.6363E+01
     13.279  0.5571E+00  0.6416E+01
     13.374  0.5795E+00  0.6471E+01
     13.469  0.5946E+00  0.6528E+01
     13.564  0.5640E+00  0.6581E+01
     13.659  0.5179E+00  0.6630E+01
     13.754  0.4984E+00  0.6678E+01
     13.849  0.5117E+00  0.6726E+01
     13.944  0.5579E+00  0.6779E+01
     14.039  0.6176E+00  0.6838E+01
     14.134  0.6393E+00  0.6899E+01
     14.229  0.5949E+00  0.6955E+01
     14.324  0.5252E+00  0.7005E+01
     14.419  0.5046E+00  0.7053E+01
     14.514  0.5551E+00  0.7106E+01
     14.609  0.6109E+00  0.7164E+01
     14.703  0.5949E+00  0.7220E+01
     14.798  0.5306E+00  0.7271E+01
     14.893  0.5046E+00  0.7318E+01
     14.988  0.5365E+00  0.7369E+01
     15.083  0.5698E+00  0.7424E+01
     15.178  0.5815E+00  0.7479E+01
     15.273  0.6028E+00  0.7536E+01
     15.368  0.6182E+00  0.7595E+01
     15.463  0.5798E+00  0.7650E+01
     15.558  0.5153E+00  0.7699E+01
     15.653  0.4976E+00  0.7746E+01
     15.748  0.5446E+00  0.7798E+01
     15.843  0.5924E+00  0.7854E+01
     15.938  0.5765E+00  0.7909E+01
     16.033  0.5409E+00  0.7960E+01
     16.128  0.5545E+00  0.8013E+01
     16.223  0.5792E+00  0.8068E+01
     16.318  0.5574E+00  0.8121E+01
     16.413  0.5259E+00  0.8170E+01
     16.508  0.5311E+00  0.8221E+01
     16.603  0.5568E+00  0.8274E+01
     16.698  0.5822E+00  0.8329E+01
     16.792  0.5924E+00  0.8385E+01
     16.887  0.5780E+00  0.8440E+01
     16.982  0.5679E+00  0.8494E+01
     17.077  0.5895E+00  0.8550E+01
     17.172  0.6165E+00  0.8609E+01
     17.267  0.6061E+00  0.8666E+01
     17.362  0.5625E+00  0.8720E+01
     17.457  0.5249E+00  0.8769E+01
     17.552  0.5336E+00  0.8820E+01
     17.647  0.6012E+00  0.8877E+01
     17.742  0.6748E+00  0.8941E+01
     17.837  0.6847E+00  0.9006E+01
     17.932  0.6243E+00  0.9066E+01
     18.027  0.5479E+00  0.9118E+01
     18.122  0.5260E+00  0.9168E+01
     18.217  0.5652E+00  0.9221E+01
     18.312  0.5887E+00  0.9277E+01
     18.407  0.5514E+00  0.9329E+01
     18.502  0.5082E+00  0.9378E+01
     18.597  0.5147E+00  0.9427E+01
     18.692  0.5421E+00  0.9478E+01
     18.786  0.5330E+00  0.9529E+01
     18.881  0.4777E+00  0.9574E+01
     18.976  0.4045E+00  0.9612E+01
     19.071  0.3529E+00  0.9646E+01
     19.166  0.3625E+00  0.9680E+01
     19.261  0.4079E+00  0.9719E+01
     19.356  0.4029E+00  0.9757E+01
     19.451  0.3291E+00  0.9789E+01
     19.546  0.2604E+00  0.9813E+01
     19.641  0.2487E+00  0.9837E+01
     19.736  0.2740E+00  0.9863E+01
     19.831  0.2851E+00  0.9890E+01
     19.926  0.2474E+00  0.9914E+01
     20.021  0.1817E+00  0.9931E+01
     20.116  0.1386E+00  0.9944E+01
     20.211  0.1241E+00  0.9956E+01
     20.306  0.1147E+00  0.9967E+01
     20.401  0.1079E+00  0.9977E+01
     20.496  0.9172E-01  0.9986E+01
     20.591  0.5351E-01  0.9991E+01
     20.686  0.1950E-01  0.9992E+01
     20.781  0.1018E-01  0.9993E+01
     20.875  0.1644E-01  0.9995E+01
     20.970  0.2417E-01  0.9997E+01
     21.065  0.2120E-01  0.9999E+01
     21.160  0.8886E-02  0.1000E+02
     21.255  0.2535E-03  0.1000E+02
     21.350 -0.1257E-02  0.1000E+02
     21.445 -0.5152E-03  0.1000E+02
     21.540 -0.9813E-04  0.1000E+02
     21.635 -0.1050E-04  0.1000E+02
     21.730 -0.6690E-06  0.1000E+02
     21.825 -0.2606E-07  0.1000E+02
     21.920 -0.6288E-09  0.1000E+02
     22.015 -0.9480E-11  0.1000E+02
     22.110 -0.8973E-13  0.1000E+02
     22.205 -0.5332E-15  0.1000E+02
     22.300  0.0000E+00  0.1000E+02
     22.395  0.0000E+00  0.1000E+02
     22.490  0.0000E+00  0.1000E+02
     22.585  0.0000E+00  0.1000E+02
     22.680  0.0000E+00  0.1000E+02
     22.775  0.0000E+00  0.1000E+02
     22.870  0.0000E+00  0.1000E+02
     22.964  0.0000E+00  0.1000E+02
     22.96446588     -5.52171739  301      6.82226241      1.00000000
     -5.522  0.0000E+00  0.0000E+00  0.0000E+00
     -5.427  0.0000E+00  0.0000E+00  0.0000E+00
     -5.332  0.0000E+00  0.0000E+00  0.0000E+00
     -5.237  0.0000E+00  0.0000E+00  0.0000E+00
     -5.142 -0.2273E-30 -0.3823E-33 -0.2974E-36
     -5.047 -0.3830E-27 -0.6912E-30 -0.5898E-33
     -4.952 -0.4104E-24 -0.7890E-27 -0.7139E-30
     -4.857 -0.2804E-21 -0.5788E-24 -0.5571E-27
     -4.762 -0.1222E-18 -0.2731E-21 -0.2805E-24
     -4.667 -0.3319E-16 -0.8192E-19 -0.9063E-22
     -4.572 -0.5825E-14 -0.1567E-16 -0.1853E-19
     -4.477 -0.6557E-12 -0.1960E-14 -0.2503E-17
     -4.382 -0.4704E-10 -0.1579E-12 -0.2191E-15
     -4.287 -0.2148E-08 -0.8181E-11 -0.1245E-13
     -4.192 -0.6233E-07 -0.2729E-09 -0.4607E-12
     -4.097 -0.1144E-05 -0.5854E-08 -0.1114E-10
     -4.002 -0.1316E-04 -0.8068E-07 -0.1767E-09
     -3.908 -0.9316E-04 -0.7106E-06 -0.1841E-08
     -3.813 -0.3874E-03 -0.3942E-05 -0.1262E-07
     -3.718 -0.8006E-03 -0.1317E-04 -0.5629E-07
     -3.623  0.8160E-04 -0.2200E-04 -0.1571E-06
     -3.528  0.4965E-02  0.9187E-05 -0.2236E-06
     -3.433  0.1449E-01  0.1506E-03  0.1477E-06
     -3.338  0.2530E-01  0.4503E-03  0.1707E-05
     -3.243  0.3393E-01  0.8984E-03  0.5324E-05
     -3.148  0.4009E-01  0.1458E-02  0.1172E-04
     -3.053  0.4487E-01  0.2096E-02  0.2137E-04
     -2.958  0.4897E-01  0.2805E-02  0.3480E-04
     -2.863  0.5280E-01  0.3582E-02  0.5233E-04
     -2.768  0.5600E-01  0.4385E-02  0.7376E-04
     -2.673  0.5895E-01  0.5261E-02  0.1005E-03
     -2.578  0.6219E-01  0.6221E-02  0.1325E-03
     -2.483  0.6439E-01  0.7119E-02  0.1675E-03
     -2.388  0.6627E-01  0.8078E-02  0.2090E-03
     -2.293  0.6948E-01  0.9261E-02  0.2603E-03
     -2.198  0.7165E-01  0.1030E-01  0.3118E-03
     -2.103  0.7185E-01  0.1114E-01  0.3639E-03
     -2.008  0.7431E-01  0.1244E-01  0.4357E-03
     -1.913  0.7788E-01  0.1390E-01  0.5153E-03
     -1.819  0.7801E-01  0.1476E-01  0.5809E-03
     -1.724  0.7766E-01  0.1565E-01  0.6556E-03
     -1.629  0.8032E-01  0.1720E-01  0.7582E-03
     -1.534  0.8358E-01  0.1888E-01  0.8712E-03
     -1.439  0.8436E-01  0.2001E-01  0.9708E-03
     -1.344  0.8260E-01  0.2056E-01  0.1049E-02
     -1.249  0.8272E-01  0.2171E-01  0.1160E-02
     -1.154  0.8783E-01  0.2423E-01  0.1346E-02
     -1.059  0.9078E-01  0.2605E-01  0.1499E-02
     -0.964  0.8695E-01  0.2595E-01  0.1559E-02
     -0.869  0.8495E-01  0.2656E-01  0.1674E-02
     -0.774  0.8932E-01  0.2918E-01  0.1902E-02
     -0.679  0.9278E-01  0.3148E-01  0.2103E-02
     -0.584  0.9244E-01  0.3256E-01  0.2251E-02
     -0.489  0.9125E-01  0.3332E-01  0.2402E-02
     -0.394  0.8981E-01  0.3397E-01  0.2541E-02
     -0.299  0.8975E-01  0.3526E-01  0.2712E-02
     -0.204  0.9318E-01  0.3805E-01  0.2996E-02
     -0.109  0.9746E-01  0.4115E-01  0.3329E-02
     -0.014  0.9660E-01  0.4195E-01  0.3507E-02
      0.081  0.9086E-01  0.4064E-01  0.3519E-02
      0.176  0.8831E-01  0.4094E-01  0.3654E-02
      0.270  0.9407E-01  0.4524E-01  0.4128E-02
      0.365  0.1006E+00  0.4981E-01  0.4624E-02
      0.460  0.9816E-01  0.4992E-01  0.4732E-02
      0.555  0.9235E-01  0.4837E-01  0.4737E-02
      0.650  0.9229E-01  0.4975E-01  0.5058E-02
      0.745  0.9468E-01  0.5243E-01  0.5462E-02
      0.840  0.9477E-01  0.5416E-01  0.5702E-02
      0.935  0.9544E-01  0.5635E-01  0.6012E-02
      1.030  0.9804E-01  0.5946E-01  0.6512E-02
      1.125  0.9903E-01  0.6144E-01  0.6928E-02
      1.220  0.9509E-01  0.6030E-01  0.6983E-02
      1.315  0.8939E-01  0.5813E-01  0.6909E-02
      1.410  0.9038E-01  0.6070E-01  0.7344E-02
      1.505  0.9742E-01  0.6752E-01  0.8231E-02
      1.600  0.1008E+00  0.7163E-01  0.8845E-02
      1.695  0.9867E-01  0.7163E-01  0.9073E-02
      1.790  0.9352E-01  0.6915E-01  0.9019E-02
      1.885  0.8831E-01  0.6675E-01  0.8948E-02
      1.980  0.9014E-01  0.7003E-01  0.9596E-02
      2.075  0.9669E-01  0.7708E-01  0.1069E-01
      2.170  0.9798E-01  0.8016E-01  0.1117E-01
      2.265  0.9459E-01  0.7954E-01  0.1120E-01
      2.359  0.9288E-01  0.7943E-01  0.1151E-01
      2.454  0.9409E-01  0.8041E-01  0.1226E-01
      2.549  0.9609E-01  0.8187E-01  0.1310E-01
      2.644  0.9402E-01  0.8129E-01  0.1325E-01
      2.739  0.8853E-01  0.8006E-01  0.1285E-01
      2.834  0.8837E-01  0.8564E-01  0.1331E-01
      2.929  0.9378E-01  0.9664E-01  0.1470E-01
      3.024  0.9468E-01  0.1014E+00  0.1543E-01
      3.119  0.8867E-01  0.9747E-01  0.1506E-01
      3.214  0.8206E-01  0.9291E-01  0.1459E-01
      3.309  0.7926E-01  0.9308E-01  0.1475E-01
      3.404  0.8120E-01  0.9958E-01  0.1576E-01
      3.499  0.8560E-01  0.1102E+00  0.1721E-01
      3.594  0.8690E-01  0.1165E+00  0.1808E-01
      3.689  0.8307E-01  0.1147E+00  0.1800E-01
      3.784  0.7818E-01  0.1105E+00  0.1780E-01
      3.879  0.7566E-01  0.1098E+00  0.1808E-01
      3.974  0.7608E-01  0.1154E+00  0.1898E-01
      4.069  0.7739E-01  0.1263E+00  0.2010E-01
      4.164  0.7662E-01  0.1357E+00  0.2078E-01
      4.259  0.7361E-01  0.1388E+00  0.2098E-01
      4.353  0.6916E-01  0.1355E+00  0.2076E-01
      4.448  0.6537E-01  0.1310E+00  0.2070E-01
      4.543  0.6636E-01  0.1339E+00  0.2207E-01
      4.638  0.6949E-01  0.1402E+00  0.2407E-01
      4.733  0.6761E-01  0.1382E+00  0.2441E-01
      4.828  0.6072E-01  0.1294E+00  0.2315E-01
      4.923  0.5543E-01  0.1240E+00  0.2242E-01
      5.018  0.5545E-01  0.1252E+00  0.2340E-01
      5.113  0.5788E-01  0.1301E+00  0.2528E-01
      5.208  0.5853E-01  0.1330E+00  0.2656E-01
      5.303  0.5915E-01  0.1302E+00  0.2740E-01
      5.398  0.6254E-01  0.1243E+00  0.2871E-01
      5.493  0.6623E-01  0.1193E+00  0.3011E-01
      5.588  0.7003E-01  0.1207E+00  0.3214E-01
      5.683  0.7415E-01  0.1285E+00  0.3488E-01
      5.778  0.7358E-01  0.1312E+00  0.3575E-01
      5.873  0.6847E-01  0.1254E+00  0.3446E-01
      5.968  0.6617E-01  0.1206E+00  0.3407E-01
      6.063  0.6913E-01  0.1203E+00  0.3565E-01
      6.158  0.7412E-01  0.1240E+00  0.3835E-01
      6.253  0.7868E-01  0.1316E+00  0.4143E-01
      6.348  0.7969E-01  0.1344E+00  0.4264E-01
      6.442  0.7755E-01  0.1297E+00  0.4186E-01
      6.537  0.7568E-01  0.1271E+00  0.4173E-01
      6.632  0.7242E-01  0.1272E+00  0.4184E-01
      6.727  0.6815E-01  0.1239E+00  0.4088E-01
      6.822  0.6936E-01  0.1213E+00  0.4107E-01
      6.917  0.7596E-01  0.1266E+00  0.4412E-01
      7.012  0.8059E-01  0.1370E+00  0.4815E-01
      7.107  0.8176E-01  0.1453E+00  0.5116E-01
      7.202  0.8060E-01  0.1435E+00  0.5122E-01
      7.297  0.7555E-01  0.1304E+00  0.4760E-01
      7.392  0.6960E-01  0.1193E+00  0.4416E-01
      7.487  0.6964E-01  0.1242E+00  0.4584E-01
      7.582  0.7525E-01  0.1409E+00  0.5164E-01
      7.677  0.7810E-01  0.1504E+00  0.5518E-01
      7.772  0.7527E-01  0.1431E+00  0.5327E-01
      7.867  0.7258E-01  0.1309E+00  0.4994E-01
      7.962  0.7448E-01  0.1288E+00  0.5010E-01
      8.057  0.7758E-01  0.1375E+00  0.5369E-01
      8.152  0.7756E-01  0.1498E+00  0.5811E-01
      8.247  0.7721E-01  0.1583E+00  0.6109E-01
      8.342  0.7685E-01  0.1553E+00  0.6018E-01
      8.437  0.7170E-01  0.1396E+00  0.5447E-01
      8.531  0.6643E-01  0.1245E+00  0.4886E-01
      8.626  0.6931E-01  0.1293E+00  0.5112E-01
      8.721  0.7490E-01  0.1507E+00  0.6006E-01
      8.816  0.7528E-01  0.1654E+00  0.6640E-01
      8.911  0.7401E-01  0.1649E+00  0.6642E-01
      9.006  0.7478E-01  0.1566E+00  0.6285E-01
      9.101  0.7544E-01  0.1488E+00  0.5929E-01
      9.196  0.7412E-01  0.1486E+00  0.5945E-01
      9.291  0.7044E-01  0.1532E+00  0.6230E-01
      9.386  0.6607E-01  0.1545E+00  0.6337E-01
      9.481  0.6569E-01  0.1570E+00  0.6370E-01
      9.576  0.6957E-01  0.1638E+00  0.6542E-01
      9.671  0.7181E-01  0.1651E+00  0.6580E-01
      9.766  0.7051E-01  0.1602E+00  0.6484E-01
      9.861  0.6832E-01  0.1585E+00  0.6537E-01
      9.956  0.6777E-01  0.1634E+00  0.6750E-01
     10.051  0.7002E-01  0.1750E+00  0.7120E-01
     10.146  0.7161E-01  0.1853E+00  0.7452E-01
     10.241  0.6836E-01  0.1805E+00  0.7245E-01
     10.336  0.6353E-01  0.1668E+00  0.6706E-01
     10.431  0.6195E-01  0.1628E+00  0.6572E-01
     10.525  0.6226E-01  0.1681E+00  0.6773E-01
     10.620  0.6199E-01  0.1735E+00  0.6876E-01
     10.715  0.6244E-01  0.1822E+00  0.7122E-01
     10.810  0.6489E-01  0.1945E+00  0.7650E-01
     10.905  0.6637E-01  0.1985E+00  0.7892E-01
     11.000  0.6371E-01  0.1903E+00  0.7616E-01
     11.095  0.5998E-01  0.1860E+00  0.7432E-01
     11.190  0.5985E-01  0.1968E+00  0.7637E-01
     11.285  0.6066E-01  0.2070E+00  0.7692E-01
     11.380  0.5786E-01  0.2028E+00  0.7374E-01
     11.475  0.5404E-01  0.1952E+00  0.7162E-01
     11.570  0.5266E-01  0.1977E+00  0.7297E-01
     11.665  0.5345E-01  0.2143E+00  0.7704E-01
     11.760  0.5497E-01  0.2379E+00  0.8219E-01
     11.855  0.5435E-01  0.2482E+00  0.8207E-01
     11.950  0.5129E-01  0.2428E+00  0.7586E-01
     12.045  0.4998E-01  0.2450E+00  0.7450E-01
     12.140  0.5063E-01  0.2595E+00  0.8148E-01
     12.235  0.4855E-01  0.2638E+00  0.8557E-01
     12.330  0.4331E-01  0.2474E+00  0.8114E-01
     12.425  0.4004E-01  0.2325E+00  0.7703E-01
     12.520  0.4031E-01  0.2340E+00  0.7820E-01
     12.614  0.3934E-01  0.2340E+00  0.7806E-01
     12.709  0.3594E-01  0.2251E+00  0.7662E-01
     12.804  0.3503E-01  0.2243E+00  0.8114E-01
     12.899  0.3702E-01  0.2341E+00  0.8721E-01
     12.994  0.3745E-01  0.2382E+00  0.8692E-01
     13.089  0.3564E-01  0.2304E+00  0.8477E-01
     13.184  0.3330E-01  0.2177E+00  0.8646E-01
     13.279  0.3142E-01  0.2116E+00  0.9088E-01
     13.374  0.3123E-01  0.2203E+00  0.9626E-01
     13.469  0.3125E-01  0.2286E+00  0.9809E-01
     13.564  0.2944E-01  0.2167E+00  0.9370E-01
     13.659  0.2766E-01  0.1951E+00  0.8881E-01
     13.754  0.2768E-01  0.1840E+00  0.8799E-01
     13.849  0.2867E-01  0.1872E+00  0.9205E-01
     13.944  0.3042E-01  0.2012E+00  0.1036E+00
     14.039  0.3321E-01  0.2178E+00  0.1191E+00
     14.134  0.3468E-01  0.2226E+00  0.1255E+00
     14.229  0.3262E-01  0.2055E+00  0.1180E+00
     14.324  0.3007E-01  0.1771E+00  0.1065E+00
     14.419  0.3064E-01  0.1667E+00  0.1040E+00
     14.514  0.3250E-01  0.1860E+00  0.1143E+00
     14.609  0.3242E-01  0.2081E+00  0.1264E+00
     14.703  0.3082E-01  0.1991E+00  0.1261E+00
     14.798  0.2986E-01  0.1670E+00  0.1176E+00
     14.893  0.3006E-01  0.1518E+00  0.1155E+00
     14.988  0.3072E-01  0.1669E+00  0.1209E+00
     15.083  0.3174E-01  0.1841E+00  0.1257E+00
     15.178  0.3351E-01  0.1852E+00  0.1299E+00
     15.273  0.3546E-01  0.1854E+00  0.1384E+00
     15.368  0.3533E-01  0.1878E+00  0.1440E+00
     15.463  0.3202E-01  0.1777E+00  0.1350E+00
     15.558  0.2857E-01  0.1598E+00  0.1192E+00
     15.653  0.2898E-01  0.1498E+00  0.1172E+00
     15.748  0.3259E-01  0.1534E+00  0.1340E+00
     15.843  0.3396E-01  0.1638E+00  0.1485E+00
     15.938  0.3079E-01  0.1658E+00  0.1426E+00
     16.033  0.2833E-01  0.1616E+00  0.1314E+00
     16.128  0.3019E-01  0.1662E+00  0.1344E+00
     16.223  0.3274E-01  0.1717E+00  0.1410E+00
     16.318  0.3269E-01  0.1622E+00  0.1365E+00
     16.413  0.3177E-01  0.1472E+00  0.1311E+00
     16.508  0.3174E-01  0.1435E+00  0.1356E+00
     16.603  0.3178E-01  0.1499E+00  0.1440E+00
     16.698  0.3127E-01  0.1610E+00  0.1497E+00
     16.792  0.2986E-01  0.1710E+00  0.1493E+00
     16.887  0.2753E-01  0.1734E+00  0.1428E+00
     16.982  0.2665E-01  0.1721E+00  0.1397E+00
     17.077  0.2892E-01  0.1739E+00  0.1473E+00
     17.172  0.3177E-01  0.1760E+00  0.1568E+00
     17.267  0.3183E-01  0.1676E+00  0.1572E+00
     17.362  0.2874E-01  0.1492E+00  0.1505E+00
     17.457  0.2430E-01  0.1384E+00  0.1439E+00
     17.552  0.2162E-01  0.1486E+00  0.1454E+00
     17.647  0.2276E-01  0.1730E+00  0.1626E+00
     17.742  0.2538E-01  0.1879E+00  0.1862E+00
     17.837  0.2555E-01  0.1763E+00  0.1970E+00
     17.932  0.2294E-01  0.1468E+00  0.1875E+00
     18.027  0.1988E-01  0.1234E+00  0.1676E+00
     18.122  0.1824E-01  0.1248E+00  0.1585E+00
     18.217  0.1811E-01  0.1459E+00  0.1656E+00
     18.312  0.1750E-01  0.1616E+00  0.1679E+00
     18.407  0.1544E-01  0.1580E+00  0.1536E+00
     18.502  0.1389E-01  0.1482E+00  0.1411E+00
     18.597  0.1431E-01  0.1447E+00  0.1463E+00
     18.692  0.1550E-01  0.1434E+00  0.1577E+00
     18.786  0.1528E-01  0.1399E+00  0.1539E+00
     18.881  0.1285E-01  0.1337E+00  0.1327E+00
     18.976  0.9047E-02  0.1192E+00  0.1103E+00
     19.071  0.5622E-02  0.1011E+00  0.1019E+00
     19.166  0.4869E-02  0.1023E+00  0.1088E+00
     19.261  0.6954E-02  0.1228E+00  0.1154E+00
     19.356  0.8556E-02  0.1269E+00  0.1059E+00
     19.451  0.7322E-02  0.1025E+00  0.8538E-01
     19.546  0.4919E-02  0.8090E-01  0.6942E-01
     19.641  0.3555E-02  0.8304E-01  0.6578E-01
     19.736  0.3120E-02  0.9389E-01  0.7311E-01
     19.831  0.2585E-02  0.9056E-01  0.8235E-01
     19.926  0.1682E-02  0.6882E-01  0.7905E-01
     20.021  0.1035E-02  0.4589E-01  0.6129E-01
     20.116  0.1139E-02  0.3889E-01  0.4312E-01
     20.211  0.1678E-02  0.4162E-01  0.3273E-01
     20.306  0.2322E-02  0.4011E-01  0.2779E-01
     20.401  0.2840E-02  0.3592E-01  0.2614E-01
     20.496  0.2498E-02  0.2990E-01  0.2267E-01
     20.591  0.1263E-02  0.1796E-01  0.1351E-01
     20.686  0.2291E-03  0.7092E-02  0.4975E-02
     20.781 -0.6882E-04  0.3688E-02  0.2572E-02
     20.875 -0.4081E-05  0.4594E-02  0.4797E-02
     20.970  0.7310E-04  0.5841E-02  0.7678E-02
     21.065  0.7612E-04  0.4898E-02  0.6907E-02
     21.160  0.3275E-04  0.2024E-02  0.2918E-02
     21.255  0.9885E-06  0.4197E-04  0.9443E-04
     21.350 -0.4637E-05 -0.2977E-03 -0.4049E-03
     21.445 -0.1907E-05 -0.1211E-03 -0.1666E-03
     21.540 -0.3640E-06 -0.2303E-04 -0.3176E-04
     21.635 -0.3902E-07 -0.2462E-05 -0.3399E-05
     21.730 -0.2490E-08 -0.1568E-06 -0.2167E-06
     21.825 -0.9715E-10 -0.6102E-08 -0.8441E-08
     21.920 -0.2348E-11 -0.1472E-09 -0.2037E-09
     22.015 -0.3545E-13 -0.2218E-11 -0.3072E-11
     22.110 -0.3361E-15 -0.2099E-13 -0.2909E-13
     22.205 -0.2002E-17 -0.1246E-15 -0.1729E-15
     22.300  0.0000E+00  0.0000E+00  0.0000E+00
     22.395  0.0000E+00  0.0000E+00  0.0000E+00
     22.490  0.0000E+00  0.0000E+00  0.0000E+00
     22.585  0.0000E+00  0.0000E+00  0.0000E+00
     22.680  0.0000E+00  0.0000E+00  0.0000E+00
     22.775  0.0000E+00  0.0000E+00  0.0000E+00
     22.870  0.0000E+00  0.0000E+00  0.0000E+00
     22.964  0.0000E+00  0.0000E+00  0.0000E+00
