    1    1    1    1
  0.1852200E+02  0.2969848E-09  0.2969848E-09  0.2969848E-09  0.5000000E-15
  1.000000000000000E-004
  CAR 
 fcc Al                                  
      3    770      5
 
  0.2500000E-01  0.2500000E-01  0.2500000E-01  0.2500000E-03
    1       -3.521717   1.000000
    2       18.279230   0.000000
    3       18.694297   0.000000
    4       18.694297   0.000000
    5       19.599479   0.000000
 
  0.7500000E-01  0.2500000E-01  0.2500000E-01  0.7500000E-03
    1       -3.437894   1.000000
    2       17.090860   0.000000
    3       17.737021   0.000000
    4       18.770088   0.000000
    5       19.648931   0.000000
 
  0.1250000E+00  0.2500000E-01  0.2500000E-01  0.7500000E-03
    1       -3.228385   1.000000
    2       15.223451   0.000000
    3       17.212618   0.000000
    4       18.289880   0.000000
    5       20.408009   0.000000
 
  0.1750000E+00  0.2500000E-01  0.2500000E-01  0.7500000E-03
    1       -2.893827   1.000000
    2       13.338658   0.000000
    3       16.788821   0.000000
    4       17.869662   0.000000
    5       20.445283   0.000000
 
  0.2250000E+00  0.2500000E-01  0.2500000E-01  0.7500000E-03
    1       -2.435212   1.000000
    2       11.505799  -0.000000
    3       16.466268   0.000000
    4       17.544828   0.000000
    5       20.332704   0.000000
 
  0.2750000E+00  0.2500000E-01  0.2500000E-01  0.7500000E-03
    1       -1.853211   1.000000
    2        9.751955  -0.000000
    3       16.251317   0.000000
    4       17.323999   0.000000
    5       19.976898   0.000000
 
  0.3250000E+00  0.2500000E-01  0.2500000E-01  0.7500000E-03
    1       -1.149633   1.000000
    2        8.085689  -0.000000
    3       16.142145   0.000000
    4       17.197510   0.000000
    5       19.213733   0.000000
 
  0.3750000E+00  0.2500000E-01  0.2500000E-01  0.7500000E-03
    1       -0.325870   1.000000
    2        6.517759   1.026637
    3       16.139473   0.000000
    4       17.155019   0.000000
    5       18.551143   0.000000
 
  0.4250000E+00  0.2500000E-01  0.2500000E-01  0.7500000E-03
    1        0.616112   1.000000
    2        5.052424   1.000000
    3       16.240301   0.000000
    4       17.140864   0.000000
    5       18.063604   0.000000
 
  0.4750000E+00  0.2500000E-01  0.2500000E-01  0.7500000E-03
    1        1.673734   1.000000
    2        3.694140   1.000000
    3       16.438673   0.000000
    4       17.003316   0.000000
    5       17.915013   0.000000
 
 -0.4750000E+00  0.2500000E-01  0.2500000E-01  0.7500000E-03
    1        2.436461   1.000000
    2        2.856642   1.000000
    3       16.707554   0.000000
    4       16.734060   0.000000
    5       17.839235   0.000000
 
 -0.4250000E+00  0.2500000E-01  0.2500000E-01  0.7500000E-03
    1        1.308485   1.000000
    2        4.134103   1.000000
    3       16.487780   0.000000
    4       16.949036   0.000000
    5       17.739214   0.000000
 
 -0.3750000E+00  0.2500000E-01  0.2500000E-01  0.7500000E-03
    1        0.289185   1.000000
    2        5.529588   1.000000
    3       16.323592   0.000000
    4       17.006685   0.000000
    5       18.040998   0.000000
 
 -0.3250000E+00  0.2500000E-01  0.2500000E-01  0.7500000E-03
    1       -0.613709   1.000000
    2        7.029197  -0.028361
    3       16.258562   0.000000
    4       17.004638   0.000000
    5       18.611841   0.000000
 
 -0.2750000E+00  0.2500000E-01  0.2500000E-01  0.7500000E-03
    1       -1.397605   1.000000
    2        8.630491  -0.000000
    3       16.297797   0.000000
    4       17.064952   0.000000
    5       19.318581   0.000000
 
 -0.2250000E+00  0.2500000E-01  0.2500000E-01  0.7500000E-03
    1       -2.060957   1.000000
    2       10.325849  -0.000000
    3       16.443291   0.000000
    4       17.218253   0.000000
    5       20.069447   0.000000
 
 -0.1750000E+00  0.2500000E-01  0.2500000E-01  0.7500000E-03
    1       -2.601824   1.000000
    2       12.109359  -0.000000
    3       16.696020   0.000000
    4       17.468653   0.000000
    5       20.379727   0.000000
 
 -0.1250000E+00  0.2500000E-01  0.2500000E-01  0.7500000E-03
    1       -3.019185   1.000000
    2       13.963785   0.000000
    3       17.052107   0.000000
    4       17.817572   0.000000
    5       20.466797   0.000000
 
 -0.7500000E-01  0.2500000E-01  0.2500000E-01  0.7500000E-03
    1       -3.312143   1.000000
    2       15.856175   0.000000
    3       17.514809   0.000000
    4       18.247168   0.000000
    5       20.044797   0.000000
 
 -0.2500000E-01  0.2500000E-01  0.2500000E-01  0.7500000E-03
    1       -3.479803   1.000000
    2       17.689421   0.000000
    3       18.075074   0.000000
    4       18.640085   0.000000
    5       19.422457   0.000000
 
  0.7500000E-01  0.7500000E-01  0.2500000E-01  0.7500000E-03
    1       -3.395917   1.000000
    2       17.072175   0.000000
    3       17.442533   0.000000
    4       18.235087   0.000000
    5       19.204153   0.000000
 
  0.1250000E+00  0.7500000E-01  0.2500000E-01  0.1500000E-02
    1       -3.228368   1.000000
    2       15.856393   0.000000
    3       16.591501   0.000000
    4       18.215309   0.000000
    5       19.244149   0.000000
 
  0.1750000E+00  0.7500000E-01  0.2500000E-01  0.1500000E-02
    1       -2.935636   1.000000
    2       14.013063   0.000000
    3       16.115182   0.000000
    4       17.945575   0.000000
    5       19.800526   0.000000
 
  0.2250000E+00  0.7500000E-01  0.2500000E-01  0.1500000E-02
    1       -2.518483   1.000000
    2       12.173344  -0.000000
    3       15.754001   0.000000
    4       17.635648   0.000000
    5       19.763682   0.000000
 
  0.2750000E+00  0.7500000E-01  0.2500000E-01  0.1500000E-02
    1       -1.977829   1.000000
    2       10.397230  -0.000000
    3       15.500511   0.000000
    4       17.388627   0.000000
    5       19.012917   0.000000
 
  0.3250000E+00  0.7500000E-01  0.2500000E-01  0.1500000E-02
    1       -1.314878   1.000000
    2        8.705172  -0.000000
    3       15.356846   0.000000
    4       17.208129   0.000000
    5       18.238864   0.000000
 
  0.3750000E+00  0.7500000E-01  0.2500000E-01  0.1500000E-02
    1       -0.531388   1.000000
    2        7.105957  -0.031077
    3       15.321568   0.000000
    4       16.996609   0.000000
    5       17.671957   0.000000
 
  0.4250000E+00  0.7500000E-01  0.2500000E-01  0.1500000E-02
    1        0.371006   1.000000
    2        5.607620   1.000000
    3       15.394742   0.000000
    4       16.562634   0.000000
    5       17.530099   0.000000
 
  0.4750000E+00  0.7500000E-01  0.2500000E-01  0.1500000E-02
    1        1.389884   1.000000
    2        4.213714   1.000000
    3       15.571798   0.000000
    4       16.072183   0.000000
    5       17.659328   0.000000
 
 -0.4750000E+00  0.7500000E-01  0.2500000E-01  0.1500000E-02
    1        2.517619   1.000000
    2        2.936339   1.000000
    3       15.625275   0.000000
    4       15.880945   0.000000
    5       17.925318   0.000000
 
 -0.4250000E+00  0.7500000E-01  0.2500000E-01  0.1500000E-02
    1        1.754926   1.000000
    2        3.773691   1.000000
    3       15.310322   0.000000
    4       16.256554   0.000000
    5       18.200913   0.000000
 
 -0.3750000E+00  0.7500000E-01  0.2500000E-01  0.1500000E-02
    1        0.697831   1.000000
    2        5.130857   1.000000
    3       15.091764   0.000000
    4       16.726511   0.000000
    5       18.145021   0.000000
 
 -0.3250000E+00  0.7500000E-01  0.2500000E-01  0.1500000E-02
    1       -0.243689   1.000000
    2        6.594770   1.034140
    3       14.980238   0.000000
    4       17.230473   0.000000
    5       18.160861   0.000000
 
 -0.2750000E+00  0.7500000E-01  0.2500000E-01  0.1500000E-02
    1       -1.067043   1.000000
    2        8.160408  -0.000000
    3       14.977913   0.000000
    4       17.618336   0.000000
    5       18.488634   0.000000
 
 -0.2250000E+00  0.7500000E-01  0.2500000E-01  0.1500000E-02
    1       -1.770334   1.000000
    2        9.822252  -0.000000
    3       15.086475   0.000000
    4       17.862926   0.000000
    5       19.142893   0.000000
 
 -0.1750000E+00  0.7500000E-01  0.2500000E-01  0.1500000E-02
    1       -2.351953   1.000000
    2       11.569591  -0.000000
    3       15.305693   0.000000
    4       18.118354   0.000000
    5       19.887049   0.000000
 
 -0.1250000E+00  0.7500000E-01  0.2500000E-01  0.1500000E-02
    1       -2.810359   1.000000
    2       13.386402   0.000000
    3       15.638485   0.000000
    4       18.441932   0.000000
    5       20.176108   0.000000
 
 -0.7500000E-01  0.7500000E-01  0.2500000E-01  0.1500000E-02
    1       -3.144653   1.000000
    2       15.212259   0.000000
    3       16.107022   0.000000
    4       18.796023   0.000000
    5       19.623618   0.000000
 
 -0.2500000E-01  0.7500000E-01  0.2500000E-01  0.1500000E-02
    1       -3.354033   1.000000
    2       16.468882   0.000000
    3       17.170854   0.000000
    4       18.627996   0.000000
    5       19.518470   0.000000
 
  0.1250000E+00  0.1250000E+00  0.2500000E-01  0.7500000E-03
    1       -3.102831   1.000000
    2       15.888387   0.000000
    3       16.260489   0.000000
    4       17.154560   0.000000
    5       18.585117   0.000000
 
  0.1750000E+00  0.1250000E+00  0.2500000E-01  0.1500000E-02
    1       -2.852095   1.000000
    2       14.709634   0.000000
    3       15.492292   0.000000
    4       17.190816   0.000000
    5       18.494989   0.000000
 
  0.2250000E+00  0.1250000E+00  0.2500000E-01  0.1500000E-02
    1       -2.476798   1.000000
    2       12.922176   0.000000
    3       15.077303   0.000000
    4       17.084148   0.000000
    5       18.471644   0.000000
 
  0.2750000E+00  0.1250000E+00  0.2500000E-01  0.1500000E-02
    1       -1.977786   1.000000
    2       11.142584  -0.000000
    3       14.783585   0.000000
    4       16.852494   0.000000
    5       17.704782   0.000000
 
  0.3250000E+00  0.1250000E+00  0.2500000E-01  0.1500000E-02
    1       -1.356184   1.000000
    2        9.431619  -0.000000
    3       14.601404   0.000000
    4       16.517843   0.000000
    5       17.018064   0.000000
 
  0.3750000E+00  0.1250000E+00  0.2500000E-01  0.1500000E-02
    1       -0.613592   1.000000
    2        7.806158  -0.000000
    3       14.529758   0.000000
    4       15.864427   0.000000
    5       16.816618   0.000000
 
  0.4250000E+00  0.1250000E+00  0.2500000E-01  0.1500000E-02
    1        0.248301   1.000000
    2        6.277249   1.000400
    3       14.567314   0.000000
    4       15.189282   0.000000
    5       16.841748   0.000000
 
  0.4750000E+00  0.1250000E+00  0.2500000E-01  0.1500000E-02
    1        1.227374   1.000000
    2        4.850964   1.000000
    3       14.581284   0.000000
    4       14.732389   0.000000
    5       16.996719   0.000000
 
 -0.4750000E+00  0.1250000E+00  0.2500000E-01  0.1500000E-02
    1        2.320585   1.000000
    2        3.533203   1.000000
    3       14.106789   0.000000
    4       14.977223   0.000000
    5       17.267015   0.000000
 
 -0.4250000E+00  0.1250000E+00  0.2500000E-01  0.1500000E-02
    1        2.320958   1.000000
    2        3.532458   1.000000
    3       13.731275   0.000000
    4       15.340974   0.000000
    5       17.647666   0.000000
 
 -0.3750000E+00  0.1250000E+00  0.2500000E-01  0.1500000E-02
    1        1.227600   1.000000
    2        4.849900   1.000000
    3       13.467336   0.000000
    4       15.810780   0.000000
    5       18.134756   0.000000
 
 -0.3250000E+00  0.1250000E+00  0.2500000E-01  0.1500000E-02
    1        0.248413   1.000000
    2        6.274523   1.000373
    3       13.316513   0.000000
    4       16.381413   0.000000
    5       18.694369   0.000000
 
 -0.2750000E+00  0.1250000E+00  0.2500000E-01  0.1500000E-02
    1       -0.613509   1.000000
    2        7.800419  -0.000000
    3       13.281222   0.000000
    4       17.042718   0.000000
    5       19.074143   0.000000
 
 -0.2250000E+00  0.1250000E+00  0.2500000E-01  0.1500000E-02
    1       -1.356242   1.000000
    2        9.419050  -0.000000
    3       13.362720   0.000000
    4       17.769595   0.000000
    5       19.243689   0.000000
 
 -0.1750000E+00  0.1250000E+00  0.2500000E-01  0.1500000E-02
    1       -1.977900   1.000000
    2       11.111267  -0.000000
    3       13.572086   0.000000
    4       18.501558   0.000000
    5       19.503270   0.000000
 
 -0.1250000E+00  0.1250000E+00  0.2500000E-01  0.1500000E-02
    1       -2.476840   1.000000
    2       12.804742   0.000000
    3       13.967295   0.000000
    4       19.141669   0.000000
    5       19.641046   0.000000
 
 -0.7500000E-01  0.1250000E+00  0.2500000E-01  0.1500000E-02
    1       -2.852106   1.000000
    2       13.982122   0.000000
    3       15.028035   0.000000
    4       19.033088   0.000000
    5       19.684608   0.000000
 
 -0.2500000E-01  0.1250000E+00  0.2500000E-01  0.1500000E-02
    1       -3.102819   1.000000
    2       14.605540   0.000000
    3       16.670308   0.000000
    4       18.240921   0.000000
    5       20.184459   0.000000
 
  0.1750000E+00  0.1750000E+00  0.2500000E-01  0.7500000E-03
    1       -2.643491   1.000000
    2       14.818820   0.000000
    3       15.208435   0.000000
    4       16.076974   0.000000
    5       17.732590   0.000000
 
  0.2250000E+00  0.1750000E+00  0.2500000E-01  0.1500000E-02
    1       -2.310246   1.000000
    2       13.693255   0.000000
    3       14.514728   0.000000
    4       16.195548   0.000000
    5       17.198433   0.000000
 
  0.2750000E+00  0.1750000E+00  0.2500000E-01  0.1500000E-02
    1       -1.853222   1.000000
    2       11.970188  -0.000000
    3       14.166764   0.000000
    4       16.116124   0.000000
    5       16.430689   0.000000
 
  0.3250000E+00  0.1750000E+00  0.2500000E-01  0.1500000E-02
    1       -1.273514   1.000000
    2       10.256182  -0.000000
    3       13.944702   0.000000
    4       15.335472   0.000000
    5       16.178215   0.000000
 
  0.3750000E+00  0.1750000E+00  0.2500000E-01  0.1500000E-02
    1       -0.572379   1.000000
    2        8.613681  -0.000000
    3       13.834406   0.000000
    4       14.496064   0.000000
    5       16.104798   0.000000
 
  0.4250000E+00  0.1750000E+00  0.2500000E-01  0.1500000E-02
    1        0.248225   1.000000
    2        7.059134  -0.035192
    3       13.735369   0.000000
    4       13.845792   0.000000
    5       16.130159   0.000000
 
  0.4750000E+00  0.1750000E+00  0.2500000E-01  0.1500000E-02
    1        1.186453   1.000000
    2        5.602739   1.000000
    3       13.098892   0.000000
    4       13.950429   0.000000
    5       16.264005   0.000000
 
 -0.4750000E+00  0.1750000E+00  0.2500000E-01  0.1500000E-02
    1        2.239921   1.000000
    2        4.252260   1.000000
    3       12.565900   0.000000
    4       14.171891   0.000000
    5       16.509470   0.000000
 
 -0.4250000E+00  0.1750000E+00  0.2500000E-01  0.1500000E-02
    1        3.003623   1.000000
    2        3.412540   1.000000
    3       12.145428  -0.000000
    4       14.503101   0.000000
    5       16.865564   0.000000
 
 -0.3750000E+00  0.1750000E+00  0.2500000E-01  0.1500000E-02
    1        1.877130   1.000000
    2        4.685772   1.000000
    3       11.841777  -0.000000
    4       14.942934   0.000000
    5       17.333395   0.000000
 
 -0.3250000E+00  0.1750000E+00  0.2500000E-01  0.1500000E-02
    1        0.861238   1.000000
    2        6.067840   1.000001
    3       11.656603  -0.000000
    4       15.489738   0.000000
    5       17.908492   0.000000
 
 -0.2750000E+00  0.1750000E+00  0.2500000E-01  0.1500000E-02
    1       -0.038278   1.000000
    2        7.546672  -0.000002
    3       11.594178  -0.000000
    4       16.140054   0.000000
    5       18.584082   0.000000
 
 -0.2250000E+00  0.1750000E+00  0.2500000E-01  0.1500000E-02
    1       -0.819411   1.000000
    2        9.102304  -0.000000
    3       11.668842  -0.000000
    4       16.886405   0.000000
    5       19.344089   0.000000
 
 -0.1750000E+00  0.1750000E+00  0.2500000E-01  0.1500000E-02
    1       -1.480204   1.000000
    2       10.647877  -0.000000
    3       11.960542  -0.000000
    4       17.713310   0.000000
    5       20.153677   0.000000
 
 -0.1250000E+00  0.1750000E+00  0.2500000E-01  0.1500000E-02
    1       -2.019403   1.000000
    2       11.690563  -0.000000
    3       12.941007   0.000000
    4       18.557203   0.000000
    5       19.932407   0.000000
 
 -0.7500000E-01  0.1750000E+00  0.2500000E-01  0.1500000E-02
    1       -2.435210   1.000000
    2       12.218238  -0.000000
    3       14.592578   0.000000
    4       18.669757   0.000000
    5       19.781584   0.000000
 
 -0.2500000E-01  0.1750000E+00  0.2500000E-01  0.1500000E-02
    1       -2.726913   1.000000
    2       12.740302   0.000000
    3       16.275780   0.000000
    4       17.870219   0.000000
    5       20.466420   0.000000
 
  0.2250000E+00  0.2250000E+00  0.2500000E-01  0.7500000E-03
    1       -2.019264   1.000000
    2       13.885530   0.000000
    3       14.298761   0.000000
    4       15.111457   0.000000
    5       16.112383   0.000000
 
  0.2750000E+00  0.2250000E+00  0.2500000E-01  0.1500000E-02
    1       -1.604434   1.000000
    2       12.818803   0.000000
    3       13.674694   0.000000
    4       15.059395   0.000000
    5       15.329548   0.000000
 
  0.3250000E+00  0.2250000E+00  0.2500000E-01  0.1500000E-02
    1       -1.066928   1.000000
    2       11.163707  -0.000000
    3       13.396596   0.000000
    4       14.064773   0.000000
    5       15.458508   0.000000
 
  0.3750000E+00  0.2250000E+00  0.2500000E-01  0.1500000E-02
    1       -0.407961   1.000000
    2        9.520589  -0.000000
    3       13.152622   0.000000
    4       13.252652   0.000000
    5       15.447484   0.000000
 
  0.4250000E+00  0.2250000E+00  0.2500000E-01  0.1500000E-02
    1        0.370687   1.000000
    2        7.948252  -0.000000
    3       12.356416   0.000000
    4       13.210664   0.000000
    5       15.469243   0.000000
 
  0.4750000E+00  0.2250000E+00  0.2500000E-01  0.1500000E-02
    1        1.267166   1.000000
    2        6.466968   1.015352
    3       11.666082  -0.000000
    4       13.285195   0.000000
    5       15.581280   0.000000
 
 -0.4750000E+00  0.2250000E+00  0.2500000E-01  0.1500000E-02
    1        2.278932   1.000000
    2        5.085751   1.000000
    3       11.088300  -0.000000
    4       13.471156   0.000000
    5       15.796936   0.000000
 
 -0.4250000E+00  0.2250000E+00  0.2500000E-01  0.1500000E-02
    1        3.401590   1.000000
    2        3.813206   1.000000
    3       10.629053  -0.000000
    4       13.767594   0.000000
    5       16.123555   0.000000
 
 -0.3750000E+00  0.2250000E+00  0.2500000E-01  0.1500000E-02
    1        2.644839   1.000000
    2        4.637692   1.000000
    3       10.287869  -0.000000
    4       14.173028   0.000000
    5       16.560899   0.000000
 
 -0.3250000E+00  0.2250000E+00  0.2500000E-01  0.1500000E-02
    1        1.593540   1.000000
    2        5.970650   1.000000
    3       10.072974  -0.000000
    4       14.687810   0.000000
    5       17.108568   0.000000
 
 -0.2750000E+00  0.2250000E+00  0.2500000E-01  0.1500000E-02
    1        0.657366   1.000000
    2        7.383241  -0.000267
    3       10.000686  -0.000000
    4       15.309271   0.000000
    5       17.760703   0.000000
 
 -0.2250000E+00  0.2250000E+00  0.2500000E-01  0.1500000E-02
    1       -0.161303   1.000000
    2        8.781105  -0.000000
    3       10.160639  -0.000000
    4       16.034152   0.000000
    5       18.508529   0.000000
 
 -0.1750000E+00  0.2250000E+00  0.2500000E-01  0.1500000E-02
    1       -0.860599   1.000000
    2        9.676579  -0.000000
    3       11.031215  -0.000000
    4       16.853599   0.000000
    5       19.334156   0.000000
 
 -0.1250000E+00  0.2250000E+00  0.2500000E-01  0.1500000E-02
    1       -1.438907   1.000000
    2       10.072111  -0.000000
    3       12.594377   0.000000
    4       17.735379   0.000000
    5       19.795431   0.000000
 
 -0.7500000E-01  0.2250000E+00  0.2500000E-01  0.1500000E-02
    1       -1.894809   1.000000
    2       10.461118  -0.000000
    3       14.320758   0.000000
    4       18.284084   0.000000
    5       19.200162   0.000000
 
 -0.2500000E-01  0.2250000E+00  0.2500000E-01  0.1500000E-02
    1       -2.227168   1.000000
    2       10.934096  -0.000000
    3       15.988252   0.000000
    4       17.585273   0.000000
    5       19.986714   0.000000
 
  0.2750000E+00  0.2750000E+00  0.2500000E-01  0.7500000E-03
    1       -1.232026   1.000000
    2       13.094507   0.000000
    3       13.533526   0.000000
    4       13.916579   0.000000
    5       14.289916   0.000000
 
  0.3250000E+00  0.2750000E+00  0.2500000E-01  0.1500000E-02
    1       -0.737111   1.000000
    2       12.091387  -0.000000
    3       12.857505   0.000000
    4       12.981562   0.000000
    5       14.588087   0.000000
 
  0.3750000E+00  0.2750000E+00  0.2500000E-01  0.1500000E-02
    1       -0.120779   1.000000
    2       10.508355  -0.000000
    3       11.904233  -0.000000
    4       12.770901   0.000000
    5       14.802052   0.000000
 
  0.4250000E+00  0.2750000E+00  0.2500000E-01  0.1500000E-02
    1        0.615220   1.000000
    2        8.936210  -0.000000
    3       11.056522  -0.000000
    4       12.693269   0.000000
    5       14.872838   0.000000
 
  0.4750000E+00  0.2750000E+00  0.2500000E-01  0.1500000E-02
    1        1.468911   1.000000
    2        7.437823  -0.000060
    3       10.321156  -0.000000
    4       12.730164   0.000000
    5       14.975703   0.000000
 
 -0.4750000E+00  0.2750000E+00  0.2500000E-01  0.1500000E-02
    1        2.437385   1.000000
    2        6.031387   1.000000
    3        9.702807  -0.000000
    4       12.878605   0.000000
    5       15.167705   0.000000
 
 -0.4250000E+00  0.2750000E+00  0.2500000E-01  0.1500000E-02
    1        3.517086   1.000000
    2        4.727221   1.000000
    3        9.204557  -0.000000
    4       13.139053   0.000000
    5       15.464348   0.000000
 
 -0.3750000E+00  0.2750000E+00  0.2500000E-01  0.1500000E-02
    1        3.529266   1.000000
    2        4.700547   1.000000
    3        8.831935  -0.000000
    4       13.509629   0.000000
    5       15.869296   0.000000
 
 -0.3250000E+00  0.2750000E+00  0.2500000E-01  0.1500000E-02
    1        2.443375   1.000000
    2        5.966812   1.000000
    3        8.603959  -0.000000
    4       13.989308   0.000000
    5       16.384911   0.000000
 
 -0.2750000E+00  0.2750000E+00  0.2500000E-01  0.1500000E-02
    1        1.471778   1.000000
    2        7.218555  -0.008484
    3        8.614223  -0.000000
    4       14.577864   0.000000
    5       17.006071   0.000000
 
 -0.2250000E+00  0.2750000E+00  0.2500000E-01  0.1500000E-02
    1        0.616572   1.000000
    2        7.961469  -0.000000
    3        9.353916  -0.000000
    4       15.272888   0.000000
    5       17.728998   0.000000
 
 -0.1750000E+00  0.2750000E+00  0.2500000E-01  0.1500000E-02
    1       -0.120282   1.000000
    2        8.205803  -0.000000
    3       10.802912  -0.000000
    4       16.069435   0.000000
    5       18.535455   0.000000
 
 -0.1250000E+00  0.2750000E+00  0.2500000E-01  0.1500000E-02
    1       -0.736983   1.000000
    2        8.447036  -0.000000
    3       12.451094   0.000000
    4       16.951097   0.000000
    5       19.336951   0.000000
 
 -0.7500000E-01  0.2750000E+00  0.2500000E-01  0.1500000E-02
    1       -1.232202   1.000000
    2        8.776481  -0.000000
    3       14.169076   0.000000
    4       17.772622   0.000000
    5       18.754389   0.000000
 
 -0.2500000E-01  0.2750000E+00  0.2500000E-01  0.1500000E-02
    1       -1.604530   1.000000
    2        9.210444  -0.000000
    3       15.808796   0.000000
    4       17.392016   0.000000
    5       19.214078   0.000000
 
  0.3250000E+00  0.3250000E+00  0.2500000E-01  0.7500000E-03
    1       -0.284968   1.000000
    2       11.752490  -0.000000
    3       12.449983   0.000000
    4       12.913104   0.000000
    5       13.618649   0.000000
 
  0.3750000E+00  0.3250000E+00  0.2500000E-01  0.1500000E-02
    1        0.288283   1.000000
    2       10.749611  -0.000000
    3       11.514567  -0.000000
    4       12.425557   0.000000
    5       14.003746   0.000000
 
  0.4250000E+00  0.3250000E+00  0.2500000E-01  0.1500000E-02
    1        0.980840   1.000000
    2        9.855348  -0.000000
    3       10.005635  -0.000000
    4       12.290098   0.000000
    5       14.295947   0.000000
 
  0.4750000E+00  0.3250000E+00  0.2500000E-01  0.1500000E-02
    1        1.790511   1.000000
    2        8.506415  -0.000000
    3        9.079124  -0.000000
    4       12.286566   0.000000
    5       14.446785   0.000000
 
 -0.4750000E+00  0.3250000E+00  0.2500000E-01  0.1500000E-02
    1        2.713635   1.000000
    2        7.083084  -0.034588
    3        8.421073  -0.000000
    4       12.396747   0.000000
    5       14.629353   0.000000
 
 -0.4250000E+00  0.3250000E+00  0.2500000E-01  0.1500000E-02
    1        3.743034   1.000000
    2        5.753859   1.000000
    3        7.888537  -0.000000
    4       12.619369   0.000000
    5       14.900955   0.000000
 
 -0.3750000E+00  0.3250000E+00  0.2500000E-01  0.1500000E-02
    1        4.527281   1.000000
    2        4.859471   1.000000
    3        7.499720  -0.000009
    4       12.954129   0.000000
    5       15.275112   0.000000
 
 -0.3250000E+00  0.3250000E+00  0.2500000E-01  0.1500000E-02
    1        3.409171   1.000000
    2        5.966268   1.000000
    3        7.348942  -0.000625
    4       13.398327   0.000000
    5       15.757650   0.000000
 
 -0.2750000E+00  0.3250000E+00  0.2500000E-01  0.1500000E-02
    1        2.403012   1.000000
    2        6.553392   1.033594
    3        7.944999  -0.000000
    4       13.952161   0.000000
    5       16.347786   0.000000
 
 -0.2250000E+00  0.3250000E+00  0.2500000E-01  0.1500000E-02
    1        1.512376   1.000000
    2        6.636695   1.015927
    3        9.266991  -0.000000
    4       14.614783   0.000000
    5       17.041455   0.000000
 
 -0.1750000E+00  0.3250000E+00  0.2500000E-01  0.1500000E-02
    1        0.738916   1.000000
    2        6.720782   0.874136
    3       10.800431  -0.000000
    4       15.381684   0.000000
    5       17.821577   0.000000
 
 -0.1250000E+00  0.3250000E+00  0.2500000E-01  0.1500000E-02
    1        0.084653   1.000000
    2        6.896965   0.207026
    3       12.439873   0.000000
    4       16.244595   0.000000
    5       18.646877   0.000000
 
 -0.7500000E-01  0.3250000E+00  0.2500000E-01  0.1500000E-02
    1       -0.449054   1.000000
    2        7.181162  -0.014644
    3       14.132432   0.000000
    4       17.149763   0.000000
    5       18.586328   0.000000
 
 -0.2500000E-01  0.3250000E+00  0.2500000E-01  0.1500000E-02
    1       -0.860827   1.000000
    2        7.577211  -0.000001
    3       15.736720   0.000000
    4       17.274520   0.000000
    5       18.496757   0.000000
 
  0.3750000E+00  0.3750000E+00  0.2500000E-01  0.7500000E-03
    1        0.817825   1.000000
    2        9.700152  -0.000000
    3       11.954054  -0.000000
    4       12.438262   0.000000
    5       13.103902   0.000000
 
  0.4250000E+00  0.3750000E+00  0.2500000E-01  0.1500000E-02
    1        1.466068   1.000000
    2        8.764749  -0.000000
    3       11.091368  -0.000000
    4       12.019837  -0.000000
    5       13.574474   0.000000
 
  0.4750000E+00  0.3750000E+00  0.2500000E-01  0.1500000E-02
    1        2.229629   1.000000
    2        7.946795  -0.000000
    3        9.655919  -0.000000
    4       11.957000  -0.000000
    5       13.944464   0.000000
 
 -0.4750000E+00  0.3750000E+00  0.2500000E-01  0.1500000E-02
    1        3.102580   1.000000
    2        7.253677  -0.004659
    3        8.232660  -0.000000
    4       12.027094  -0.000000
    5       14.173592   0.000000
 
 -0.4250000E+00  0.3750000E+00  0.2500000E-01  0.1500000E-02
    1        4.065813   1.000000
    2        6.701721   0.921225
    3        6.886865   0.241813
    4       12.211804  -0.000000
    5       14.435264   0.000000
 
 -0.3750000E+00  0.3750000E+00  0.2500000E-01  0.1500000E-02
    1        5.026395   1.000000
    2        5.634910   1.000000
    3        6.385820   1.004248
    4       12.509052   0.000000
    5       14.785057   0.000000
 
 -0.3250000E+00  0.3750000E+00  0.2500000E-01  0.1500000E-02
    1        4.487751   1.000000
    2        5.457499   1.000000
    3        6.828824   0.472253
    4       12.916726   0.000000
    5       15.237335   0.000000
 
 -0.2750000E+00  0.3750000E+00  0.2500000E-01  0.1500000E-02
    1        3.449276   1.000000
    2        5.374311   1.000000
    3        8.014186  -0.000000
    4       13.435470   0.000000
    5       15.795567   0.000000
 
 -0.2250000E+00  0.3750000E+00  0.2500000E-01  0.1500000E-02
    1        2.524025   1.000000
    2        5.297108   1.000000
    3        9.416157  -0.000000
    4       14.062796   0.000000
    5       16.455896   0.000000
 
 -0.1750000E+00  0.3750000E+00  0.2500000E-01  0.1500000E-02
    1        1.715168   1.000000
    2        5.314396   1.000000
    3       10.937585  -0.000000
    4       14.797242   0.000000
    5       17.206822   0.000000
 
 -0.1250000E+00  0.3750000E+00  0.2500000E-01  0.1500000E-02
    1        1.024161   1.000000
    2        5.442236   1.000000
    3       12.549306   0.000000
    4       15.632981   0.000000
    5       18.016476   0.000000
 
 -0.7500000E-01  0.3750000E+00  0.2500000E-01  0.1500000E-02
    1        0.452833   1.000000
    2        5.684794   1.000000
    3       14.208756   0.000000