       N       E                     dE             d eps       ncg     rms          rms(c)
DAV:   1    -0.291067691367E+01   -0.29107E+01   -0.56961E+02  9510   0.158E+02
DAV:   2    -0.366194003356E+01   -0.75126E+00   -0.68500E+00 10550   0.173E+01
DAV:   3    -0.366611492614E+01   -0.41749E-02   -0.41700E-02  9650   0.133E+00
DAV:   4    -0.366612035138E+01   -0.54252E-05   -0.54253E-05 10650   0.486E-02
DAV:   5    -0.366612036274E+01   -0.11366E-07   -0.11129E-07  9815   0.163E-03    0.857E-01
DAV:   6    -0.365553820628E+01    0.10582E-01   -0.19741E-03  8835   0.280E-01    0.533E-01
DAV:   7    -0.364779514061E+01    0.77431E-02   -0.60306E-03  8655   0.497E-01    0.267E-02
DAV:   8    -0.364780223769E+01   -0.70971E-05   -0.31101E-05  9450   0.538E-02    0.603E-03
DAV:   9    -0.364780343711E+01   -0.11994E-05   -0.54790E-07  8430   0.583E-03    0.106E-03
DAV:  10    -0.364780294754E+01    0.48958E-06   -0.95597E-09  4645   0.798E-04
   1 F= -.36478029E+01 E0= -.36478838E+01  d E =0.242599E-03
