 vasp.5.4.4.18Apr17-6-g9f103f2a35 (build May 20 2018 16:52:39) complex          
  
 executed on             LinuxIFC date 2022.10.30  23:02:24
 running on    1 total cores
 distrk:  each k-point on    1 cores,    1 groups
 distr:  one band on NCORES_PER_BAND=   1 cores,    1 groups


--------------------------------------------------------------------------------------------------------


 INCAR:
 POTCAR:    PAW Al                                
 POTCAR:    PAW Al                                
   VRHFIN =Al: s2p1                                                             
   LEXCH  = 91                                                                  
   EATOM  =    53.6910 eV,    3.9462 Ry                                         
                                                                                
   TITEL  = PAW Al                                                              
   LULTRA =        F    use ultrasoft PP ?                                      
   IUNSCR =        1    unscreen: 0-lin 1-nonlin 2-no                           
   RPACOR =    1.500    partial core radius                                     
   POMASS =   26.982; ZVAL   =    3.000    mass and valenz                      
   RCORE  =    1.900    outmost cutoff radius                                   
   RWIGS  =    2.650; RWIGS  =    1.402    wigner-seitz radius (au A)           
   ENMAX  =  240.437; ENMIN  =  180.327 eV                                      
   ICORE  =        2    local potential                                         
   LCOR   =        T    correct aug charges                                     
   LPAW   =        T    paw PP                                                  
   EAUG   =  291.052                                                            
   DEXC   =    -.017                                                            
   RMAX   =    2.974    core radius for proj-oper                               
   RAUG   =    1.300    factor for augmentation sphere                          
   RDEP   =    1.966    core radius for depl-charge                             
   QCUT   =   -4.204; QGAM   =    8.408    optimization parameters              
                                                                                
   Description                                                                  
     l     E      TYP  RCUT    TYP  RCUT                                        
     0   .000     23  1.900                                                     
     0   .000     23  1.900                                                     
     1   .000     23  1.900                                                     
     1  1.000     23  1.900                                                     
     2   .000      7  1.900                                                     
  local pseudopotential read in
  partial core-charges read in
  atomic valenz-charges read in
  non local Contribution for L=           0  read in
    real space projection operators read in
  non local Contribution for L=           0  read in
    real space projection operators read in
  non local Contribution for L=           1  read in
    real space projection operators read in
  non local Contribution for L=           1  read in
    real space projection operators read in
    PAW grid and wavefunctions read in
 
   number of l-projection  operators is LMAX  =           4
   number of lm-projection operators is LMMAX =           8
 
  PAW Al                                :
 energy of atom  1       EATOM=  -53.6910
 kinetic energy error for atom=    0.0030 (will be added to EATOM!!)
 
 
 POSCAR: Al fcc                                  
  positions in direct lattice
  No initial velocities read in
 exchange correlation table for  LEXCH =        7
   RHO(1)=    0.500       N(1)  =     2000
   RHO(2)=  100.500       N(2)  =     4000
 


--------------------------------------------------------------------------------------------------------


 ion  position               nearest neighbor table
   1  0.000  0.000  0.000-
 
  LATTYP: Found a face centered cubic cell.
 ALAT       =     4.2000000000
  
  Lattice vectors:
  
 A1 = (   2.1000000000,   2.1000000000,   0.0000000000)
 A2 = (   0.0000000000,   2.1000000000,   2.1000000000)
 A3 = (   2.1000000000,   0.0000000000,   2.1000000000)


Analysis of symmetry for initial positions (statically):
=====================================================================
 Subroutine PRICEL returns:
 Original cell was already a primitive cell.
 

 Routine SETGRP: Setting up the symmetry group for a 
 face centered cubic supercell.


 Subroutine GETGRP returns: Found 48 space group operations
 (whereof 48 operations were pure point group operations)
 out of a pool of 48 trial point group operations.


The static configuration has the point symmetry O_h .


Analysis of symmetry for dynamics (positions and initial velocities):
=====================================================================
 Subroutine PRICEL returns:
 Original cell was already a primitive cell.
 

 Routine SETGRP: Setting up the symmetry group for a 
 face centered cubic supercell.


 Subroutine GETGRP returns: Found 48 space group operations
 (whereof 48 operations were pure point group operations)
 out of a pool of 48 trial point group operations.


The dynamic configuration has the point symmetry O_h .


 Subroutine INISYM returns: Found 48 space group operations
 (whereof 48 operations are pure point group operations),
 and found     1 'primitive' translations

 
 
 KPOINTS: 20x20x20                                

Automatic generation of k-mesh.
Space group operators:
 irot       det(A)        alpha          n_x          n_y          n_z        tau_x        tau_y        tau_z
    1     1.000000     0.000000     1.000000     0.000000     0.000000     0.000000     0.000000     0.000000
    2    -1.000000     0.000000     1.000000     0.000000     0.000000     0.000000     0.000000     0.000000
    3     1.000000   120.000000    -0.577350    -0.577350    -0.577350     0.000000     0.000000     0.000000
    4    -1.000000   120.000000    -0.577350    -0.577350    -0.577350     0.000000     0.000000     0.000000
    5     1.000000   120.000000     0.577350     0.577350     0.577350     0.000000     0.000000     0.000000
    6    -1.000000   120.000000     0.577350     0.577350     0.577350     0.000000     0.000000     0.000000
    7     1.000000    90.000000     0.000000    -1.000000     0.000000     0.000000     0.000000     0.000000
    8    -1.000000    90.000000     0.000000    -1.000000     0.000000     0.000000     0.000000     0.000000
    9     1.000000   180.000000     0.707107     0.707107     0.000000     0.000000     0.000000     0.000000
   10    -1.000000   180.000000     0.707107     0.707107     0.000000     0.000000     0.000000     0.000000
   11     1.000000    90.000000     1.000000     0.000000     0.000000     0.000000     0.000000     0.000000
   12    -1.000000    90.000000     1.000000     0.000000     0.000000     0.000000     0.000000     0.000000
   13     1.000000   180.000000     0.000000     1.000000     0.000000     0.000000     0.000000     0.000000
   14    -1.000000   180.000000     0.000000     1.000000     0.000000     0.000000     0.000000     0.000000
   15     1.000000   120.000000     0.577350     0.577350    -0.577350     0.000000     0.000000     0.000000
   16    -1.000000   120.000000     0.577350     0.577350    -0.577350     0.000000     0.000000     0.000000
   17     1.000000   120.000000     0.577350    -0.577350    -0.577350     0.000000     0.000000     0.000000
   18    -1.000000   120.000000     0.577350    -0.577350    -0.577350     0.000000     0.000000     0.000000
   19     1.000000    90.000000     0.000000     1.000000     0.000000     0.000000     0.000000     0.000000
   20    -1.000000    90.000000     0.000000     1.000000     0.000000     0.000000     0.000000     0.000000
   21     1.000000    90.000000     0.000000     0.000000    -1.000000     0.000000     0.000000     0.000000
   22    -1.000000    90.000000     0.000000     0.000000    -1.000000     0.000000     0.000000     0.000000
   23     1.000000   180.000000     0.000000     0.707107     0.707107     0.000000     0.000000     0.000000
   24    -1.000000   180.000000     0.000000     0.707107     0.707107     0.000000     0.000000     0.000000
   25     1.000000   120.000000    -0.577350     0.577350     0.577350     0.000000     0.000000     0.000000
   26    -1.000000   120.000000    -0.577350     0.577350     0.577350     0.000000     0.000000     0.000000
   27     1.000000   120.000000    -0.577350     0.577350    -0.577350     0.000000     0.000000     0.000000
   28    -1.000000   120.000000    -0.577350     0.577350    -0.577350     0.000000     0.000000     0.000000
   29     1.000000   180.000000     0.000000     0.000000     1.000000     0.000000     0.000000     0.000000
   30    -1.000000   180.000000     0.000000     0.000000     1.000000     0.000000     0.000000     0.000000
   31     1.000000    90.000000    -1.000000     0.000000     0.000000     0.000000     0.000000     0.000000
   32    -1.000000    90.000000    -1.000000     0.000000     0.000000     0.000000     0.000000     0.000000
   33     1.000000   180.000000     0.707107     0.000000     0.707107     0.000000     0.000000     0.000000
   34    -1.000000   180.000000     0.707107     0.000000     0.707107     0.000000     0.000000     0.000000
   35     1.000000    90.000000     0.000000     0.000000     1.000000     0.000000     0.000000     0.000000
   36    -1.000000    90.000000     0.000000     0.000000     1.000000     0.000000     0.000000     0.000000
   37     1.000000   120.000000    -0.577350    -0.577350     0.577350     0.000000     0.000000     0.000000
   38    -1.000000   120.000000    -0.577350    -0.577350     0.577350     0.000000     0.000000     0.000000
   39     1.000000   180.000000     1.000000     0.000000     0.000000     0.000000     0.000000     0.000000
   40    -1.000000   180.000000     1.000000     0.000000     0.000000     0.000000     0.000000     0.000000
   41     1.000000   120.000000     0.577350    -0.577350     0.577350     0.000000     0.000000     0.000000
   42    -1.000000   120.000000     0.577350    -0.577350     0.577350     0.000000     0.000000     0.000000
   43     1.000000   180.000000     0.707107    -0.707107     0.000000     0.000000     0.000000     0.000000
   44    -1.000000   180.000000     0.707107    -0.707107     0.000000     0.000000     0.000000     0.000000
   45     1.000000   180.000000     0.707107     0.000000    -0.707107     0.000000     0.000000     0.000000
   46    -1.000000   180.000000     0.707107     0.000000    -0.707107     0.000000     0.000000     0.000000
   47     1.000000   180.000000     0.000000    -0.707107     0.707107     0.000000     0.000000     0.000000
   48    -1.000000   180.000000     0.000000    -0.707107     0.707107     0.000000     0.000000     0.000000
 
 Subroutine IBZKPT returns following result:
 ===========================================
 
 Found    770 irreducible k-points:
 
 Following reciprocal coordinates:
            Coordinates               Weight
  0.025000  0.025000  0.025000     96.000000
  0.075000  0.025000  0.025000    288.000000
  0.125000  0.025000  0.025000    288.000000
  0.175000  0.025000  0.025000    288.000000
  0.225000  0.025000  0.025000    288.000000
  0.275000  0.025000  0.025000    288.000000
  0.325000  0.025000  0.025000    288.000000
  0.375000  0.025000  0.025000    288.000000
  0.425000  0.025000  0.025000    288.000000
  0.475000  0.025000  0.025000    288.000000
 -0.475000  0.025000  0.025000    288.000000
 -0.425000  0.025000  0.025000    288.000000
 -0.375000  0.025000  0.025000    288.000000
 -0.325000  0.025000  0.025000    288.000000
 -0.275000  0.025000  0.025000    288.000000
 -0.225000  0.025000  0.025000    288.000000
 -0.175000  0.025000  0.025000    288.000000
 -0.125000  0.025000  0.025000    288.000000
 -0.075000  0.025000  0.025000    288.000000
 -0.025000  0.025000  0.025000    288.000000
  0.075000  0.075000  0.025000    288.000000
  0.125000  0.075000  0.025000    576.000000
  0.175000  0.075000  0.025000    576.000000
  0.225000  0.075000  0.025000    576.000000
  0.275000  0.075000  0.025000    576.000000
  0.325000  0.075000  0.025000    576.000000
  0.375000  0.075000  0.025000    576.000000
  0.425000  0.075000  0.025000    576.000000
  0.475000  0.075000  0.025000    576.000000
 -0.475000  0.075000  0.025000    576.000000
 -0.425000  0.075000  0.025000    576.000000
 -0.375000  0.075000  0.025000    576.000000
 -0.325000  0.075000  0.025000    576.000000
 -0.275000  0.075000  0.025000    576.000000
 -0.225000  0.075000  0.025000    576.000000
 -0.175000  0.075000  0.025000    576.000000
 -0.125000  0.075000  0.025000    576.000000
 -0.075000  0.075000  0.025000    576.000000
 -0.025000  0.075000  0.025000    576.000000
  0.125000  0.125000  0.025000    288.000000
  0.175000  0.125000  0.025000    576.000000
  0.225000  0.125000  0.025000    576.000000
  0.275000  0.125000  0.025000    576.000000
  0.325000  0.125000  0.025000    576.000000
  0.375000  0.125000  0.025000    576.000000
  0.425000  0.125000  0.025000    576.000000
  0.475000  0.125000  0.025000    576.000000
 -0.475000  0.125000  0.025000    576.000000
 -0.425000  0.125000  0.025000    576.000000
 -0.375000  0.125000  0.025000    576.000000
 -0.325000  0.125000  0.025000    576.000000
 -0.275000  0.125000  0.025000    576.000000
 -0.225000  0.125000  0.025000    576.000000
 -0.175000  0.125000  0.025000    576.000000
 -0.125000  0.125000  0.025000    576.000000
 -0.075000  0.125000  0.025000    576.000000
 -0.025000  0.125000  0.025000    576.000000
  0.175000  0.175000  0.025000    288.000000
  0.225000  0.175000  0.025000    576.000000
  0.275000  0.175000  0.025000    576.000000
  0.325000  0.175000  0.025000    576.000000
  0.375000  0.175000  0.025000    576.000000
  0.425000  0.175000  0.025000    576.000000
  0.475000  0.175000  0.025000    576.000000
 -0.475000  0.175000  0.025000    576.000000
 -0.425000  0.175000  0.025000    576.000000
 -0.375000  0.175000  0.025000    576.000000
 -0.325000  0.175000  0.025000    576.000000
 -0.275000  0.175000  0.025000    576.000000
 -0.225000  0.175000  0.025000    576.000000
 -0.175000  0.175000  0.025000    576.000000
 -0.125000  0.175000  0.025000    576.000000
 -0.075000  0.175000  0.025000    576.000000
 -0.025000  0.175000  0.025000    576.000000
  0.225000  0.225000  0.025000    288.000000
  0.275000  0.225000  0.025000    576.000000
  0.325000  0.225000  0.025000    576.000000
  0.375000  0.225000  0.025000    576.000000
  0.425000  0.225000  0.025000    576.000000
  0.475000  0.225000  0.025000    576.000000
 -0.475000  0.225000  0.025000    576.000000
 -0.425000  0.225000  0.025000    576.000000
 -0.375000  0.225000  0.025000    576.000000
 -0.325000  0.225000  0.025000    576.000000
 -0.275000  0.225000  0.025000    576.000000
 -0.225000  0.225000  0.025000    576.000000
 -0.175000  0.225000  0.025000    576.000000
 -0.125000  0.225000  0.025000    576.000000
 -0.075000  0.225000  0.025000    576.000000
 -0.025000  0.225000  0.025000    576.000000
  0.275000  0.275000  0.025000    288.000000
  0.325000  0.275000  0.025000    576.000000
  0.375000  0.275000  0.025000    576.000000
  0.425000  0.275000  0.025000    576.000000
  0.475000  0.275000  0.025000    576.000000
 -0.475000  0.275000  0.025000    576.000000
 -0.425000  0.275000  0.025000    576.000000
 -0.375000  0.275000  0.025000    576.000000
 -0.325000  0.275000  0.025000    576.000000
 -0.275000  0.275000  0.025000    576.000000
 -0.225000  0.275000  0.025000    576.000000
 -0.175000  0.275000  0.025000    576.000000
 -0.125000  0.275000  0.025000    576.000000
 -0.075000  0.275000  0.025000    576.000000
 -0.025000  0.275000  0.025000    576.000000
  0.325000  0.325000  0.025000    288.000000
  0.375000  0.325000  0.025000    576.000000
  0.425000  0.325000  0.025000    576.000000
  0.475000  0.325000  0.025000    576.000000
 -0.475000  0.325000  0.025000    576.000000
 -0.425000  0.325000  0.025000    576.000000
 -0.375000  0.325000  0.025000    576.000000
 -0.325000  0.325000  0.025000    576.000000
 -0.275000  0.325000  0.025000    576.000000
 -0.225000  0.325000  0.025000    576.000000
 -0.175000  0.325000  0.025000    576.000000
 -0.125000  0.325000  0.025000    576.000000
 -0.075000  0.325000  0.025000    576.000000
 -0.025000  0.325000  0.025000    576.000000
  0.375000  0.375000  0.025000    288.000000
  0.425000  0.375000  0.025000    576.000000
  0.475000  0.375000  0.025000    576.000000
 -0.475000  0.375000  0.025000    576.000000
 -0.425000  0.375000  0.025000    576.000000
 -0.375000  0.375000  0.025000    576.000000
 -0.325000  0.375000  0.025000    576.000000
 -0.275000  0.375000  0.025000    576.000000
 -0.225000  0.375000  0.025000    576.000000
 -0.175000  0.375000  0.025000    576.000000
 -0.125000  0.375000  0.025000    576.000000
 -0.075000  0.375000  0.025000    576.000000
 -0.025000  0.375000  0.025000    576.000000
  0.425000  0.425000  0.025000    288.000000
  0.475000  0.425000  0.025000    576.000000
 -0.475000  0.425000  0.025000    576.000000
 -0.425000  0.425000  0.025000    576.000000
 -0.375000  0.425000  0.025000    576.000000
 -0.325000  0.425000  0.025000    576.000000
 -0.275000  0.425000  0.025000    576.000000
 -0.225000  0.425000  0.025000    576.000000
 -0.175000  0.425000  0.025000    576.000000
 -0.125000  0.425000  0.025000    576.000000
 -0.075000  0.425000  0.025000    576.000000
 -0.025000  0.425000  0.025000    576.000000
  0.475000  0.475000  0.025000    288.000000
 -0.475000  0.475000  0.025000    576.000000
 -0.425000  0.475000  0.025000    576.000000
 -0.375000  0.475000  0.025000    576.000000
 -0.325000  0.475000  0.025000    576.000000
 -0.275000  0.475000  0.025000    576.000000
 -0.225000  0.475000  0.025000    576.000000
 -0.175000  0.475000  0.025000    576.000000
 -0.125000  0.475000  0.025000    576.000000
 -0.075000  0.475000  0.025000    576.000000
 -0.025000  0.475000  0.025000    576.000000
 -0.475000 -0.475000  0.025000    288.000000
 -0.425000 -0.475000  0.025000    576.000000
 -0.375000 -0.475000  0.025000    576.000000
 -0.325000 -0.475000  0.025000    576.000000
 -0.275000 -0.475000  0.025000    576.000000
 -0.225000 -0.475000  0.025000    576.000000
 -0.175000 -0.475000  0.025000    576.000000
 -0.125000 -0.475000  0.025000    576.000000
 -0.075000 -0.475000  0.025000    576.000000
 -0.425000 -0.425000  0.025000    288.000000
 -0.375000 -0.425000  0.025000    576.000000
 -0.325000 -0.425000  0.025000    576.000000
 -0.275000 -0.425000  0.025000    576.000000
 -0.225000 -0.425000  0.025000    576.000000
 -0.175000 -0.425000  0.025000    576.000000
 -0.125000 -0.425000  0.025000    576.000000
 -0.075000 -0.425000  0.025000    576.000000
 -0.375000 -0.375000  0.025000    288.000000
 -0.325000 -0.375000  0.025000    576.000000
 -0.275000 -0.375000  0.025000    576.000000
 -0.225000 -0.375000  0.025000    576.000000
 -0.175000 -0.375000  0.025000    576.000000
 -0.125000 -0.375000  0.025000    576.000000
 -0.075000 -0.375000  0.025000    576.000000
 -0.325000 -0.325000  0.025000    288.000000
 -0.275000 -0.325000  0.025000    576.000000
 -0.225000 -0.325000  0.025000    576.000000
 -0.175000 -0.325000  0.025000    576.000000
 -0.125000 -0.325000  0.025000    576.000000
 -0.075000 -0.325000  0.025000    576.000000
 -0.275000 -0.275000  0.025000    288.000000
 -0.225000 -0.275000  0.025000    576.000000
 -0.175000 -0.275000  0.025000    576.000000
 -0.125000 -0.275000  0.025000    576.000000
 -0.075000 -0.275000  0.025000    576.000000
 -0.225000 -0.225000  0.025000    288.000000
 -0.175000 -0.225000  0.025000    576.000000
 -0.125000 -0.225000  0.025000    576.000000
 -0.075000 -0.225000  0.025000    576.000000
 -0.175000 -0.175000  0.025000    288.000000
 -0.125000 -0.175000  0.025000    576.000000
 -0.075000 -0.175000  0.025000    576.000000
 -0.125000 -0.125000  0.025000    288.000000
 -0.075000 -0.125000  0.025000    576.000000
 -0.075000 -0.075000  0.025000    288.000000
  0.075000  0.075000  0.075000     96.000000
  0.125000  0.075000  0.075000    288.000000
  0.175000  0.075000  0.075000    288.000000
  0.225000  0.075000  0.075000    288.000000
  0.275000  0.075000  0.075000    288.000000
  0.325000  0.075000  0.075000    288.000000
  0.375000  0.075000  0.075000    288.000000
  0.425000  0.075000  0.075000    288.000000
  0.475000  0.075000  0.075000    288.000000
 -0.475000  0.075000  0.075000    288.000000
 -0.425000  0.075000  0.075000    288.000000
 -0.375000  0.075000  0.075000    288.000000
 -0.325000  0.075000  0.075000    288.000000
 -0.275000  0.075000  0.075000    288.000000
 -0.225000  0.075000  0.075000    288.000000
 -0.175000  0.075000  0.075000    288.000000
 -0.125000  0.075000  0.075000    288.000000
 -0.075000  0.075000  0.075000    288.000000
  0.125000  0.125000  0.075000    288.000000
  0.175000  0.125000  0.075000    576.000000
  0.225000  0.125000  0.075000    576.000000
  0.275000  0.125000  0.075000    576.000000
  0.325000  0.125000  0.075000    576.000000
  0.375000  0.125000  0.075000    576.000000
  0.425000  0.125000  0.075000    576.000000
  0.475000  0.125000  0.075000    576.000000
 -0.475000  0.125000  0.075000    576.000000
 -0.425000  0.125000  0.075000    576.000000
 -0.375000  0.125000  0.075000    576.000000
 -0.325000  0.125000  0.075000    576.000000
 -0.275000  0.125000  0.075000    576.000000
 -0.225000  0.125000  0.075000    576.000000
 -0.175000  0.125000  0.075000    576.000000
 -0.125000  0.125000  0.075000    576.000000
 -0.075000  0.125000  0.075000    576.000000
  0.175000  0.175000  0.075000    288.000000
  0.225000  0.175000  0.075000    576.000000
  0.275000  0.175000  0.075000    576.000000
  0.325000  0.175000  0.075000    576.000000
  0.375000  0.175000  0.075000    576.000000
  0.425000  0.175000  0.075000    576.000000
  0.475000  0.175000  0.075000    576.000000
 -0.475000  0.175000  0.075000    576.000000
 -0.425000  0.175000  0.075000    576.000000
 -0.375000  0.175000  0.075000    576.000000
 -0.325000  0.175000  0.075000    576.000000
 -0.275000  0.175000  0.075000    576.000000
 -0.225000  0.175000  0.075000    576.000000
 -0.175000  0.175000  0.075000    576.000000
 -0.125000  0.175000  0.075000    576.000000
 -0.075000  0.175000  0.075000    576.000000
  0.225000  0.225000  0.075000    288.000000
  0.275000  0.225000  0.075000    576.000000
  0.325000  0.225000  0.075000    576.000000
  0.375000  0.225000  0.075000    576.000000
  0.425000  0.225000  0.075000    576.000000
  0.475000  0.225000  0.075000    576.000000
 -0.475000  0.225000  0.075000    576.000000
 -0.425000  0.225000  0.075000    576.000000
 -0.375000  0.225000  0.075000    576.000000
 -0.325000  0.225000  0.075000    576.000000
 -0.275000  0.225000  0.075000    576.000000
 -0.225000  0.225000  0.075000    576.000000
 -0.175000  0.225000  0.075000    576.000000
 -0.125000  0.225000  0.075000    576.000000
 -0.075000  0.225000  0.075000    576.000000
  0.275000  0.275000  0.075000    288.000000
  0.325000  0.275000  0.075000    576.000000
  0.375000  0.275000  0.075000    576.000000
  0.425000  0.275000  0.075000    576.000000
  0.475000  0.275000  0.075000    576.000000
 -0.475000  0.275000  0.075000    576.000000
 -0.425000  0.275000  0.075000    576.000000
 -0.375000  0.275000  0.075000    576.000000
 -0.325000  0.275000  0.075000    576.000000
 -0.275000  0.275000  0.075000    576.000000
 -0.225000  0.275000  0.075000    576.000000
 -0.175000  0.275000  0.075000    576.000000
 -0.125000  0.275000  0.075000    576.000000
 -0.075000  0.275000  0.075000    576.000000
  0.325000  0.325000  0.075000    288.000000
  0.375000  0.325000  0.075000    576.000000
  0.425000  0.325000  0.075000    576.000000
  0.475000  0.325000  0.075000    576.000000
 -0.475000  0.325000  0.075000    576.000000
 -0.425000  0.325000  0.075000    576.000000
 -0.375000  0.325000  0.075000    576.000000
 -0.325000  0.325000  0.075000    576.000000
 -0.275000  0.325000  0.075000    576.000000
 -0.225000  0.325000  0.075000    576.000000
 -0.175000  0.325000  0.075000    576.000000
 -0.125000  0.325000  0.075000    576.000000
 -0.075000  0.325000  0.075000    576.000000
  0.375000  0.375000  0.075000    288.000000
  0.425000  0.375000  0.075000    576.000000
  0.475000  0.375000  0.075000    576.000000
 -0.475000  0.375000  0.075000    576.000000
 -0.425000  0.375000  0.075000    576.000000
 -0.375000  0.375000  0.075000    576.000000
 -0.325000  0.375000  0.075000    576.000000
 -0.275000  0.375000  0.075000    576.000000
 -0.225000  0.375000  0.075000    576.000000
 -0.175000  0.375000  0.075000    576.000000
 -0.125000  0.375000  0.075000    576.000000
 -0.075000  0.375000  0.075000    576.000000
  0.425000  0.425000  0.075000    288.000000
  0.475000  0.425000  0.075000    576.000000
 -0.475000  0.425000  0.075000    576.000000
 -0.425000  0.425000  0.075000    576.000000
 -0.375000  0.425000  0.075000    576.000000
 -0.325000  0.425000  0.075000    576.000000
 -0.275000  0.425000  0.075000    576.000000
 -0.225000  0.425000  0.075000    576.000000
 -0.175000  0.425000  0.075000    576.000000
 -0.125000  0.425000  0.075000    576.000000
 -0.075000  0.425000  0.075000    576.000000
  0.475000  0.475000  0.075000    288.000000
 -0.475000  0.475000  0.075000    576.000000
 -0.425000  0.475000  0.075000    576.000000
 -0.375000  0.475000  0.075000    576.000000
 -0.325000  0.475000  0.075000    576.000000
 -0.275000  0.475000  0.075000    576.000000
 -0.225000  0.475000  0.075000    576.000000
 -0.175000  0.475000  0.075000    576.000000
 -0.125000  0.475000  0.075000    576.000000
 -0.075000  0.475000  0.075000    576.000000
 -0.475000 -0.475000  0.075000    288.000000
 -0.425000 -0.475000  0.075000    576.000000
 -0.375000 -0.475000  0.075000    576.000000
 -0.325000 -0.475000  0.075000    576.000000
 -0.275000 -0.475000  0.075000    576.000000
 -0.225000 -0.475000  0.075000    576.000000
 -0.175000 -0.475000  0.075000    576.000000
 -0.125000 -0.475000  0.075000    576.000000
 -0.425000 -0.425000  0.075000    288.000000
 -0.375000 -0.425000  0.075000    576.000000
 -0.325000 -0.425000  0.075000    576.000000
 -0.275000 -0.425000  0.075000    576.000000
 -0.225000 -0.425000  0.075000    576.000000
 -0.175000 -0.425000  0.075000    576.000000
 -0.125000 -0.425000  0.075000    576.000000
 -0.375000 -0.375000  0.075000    288.000000
 -0.325000 -0.375000  0.075000    576.000000
 -0.275000 -0.375000  0.075000    576.000000
 -0.225000 -0.375000  0.075000    576.000000
 -0.175000 -0.375000  0.075000    576.000000
 -0.125000 -0.375000  0.075000    576.000000
 -0.325000 -0.325000  0.075000    288.000000
 -0.275000 -0.325000  0.075000    576.000000
 -0.225000 -0.325000  0.075000    576.000000
 -0.175000 -0.325000  0.075000    576.000000
 -0.125000 -0.325000  0.075000    576.000000
 -0.275000 -0.275000  0.075000    288.000000
 -0.225000 -0.275000  0.075000    576.000000
 -0.175000 -0.275000  0.075000    576.000000
 -0.125000 -0.275000  0.075000    576.000000
 -0.225000 -0.225000  0.075000    288.000000
 -0.175000 -0.225000  0.075000    576.000000
 -0.125000 -0.225000  0.075000    576.000000
 -0.175000 -0.175000  0.075000    288.000000
 -0.125000 -0.175000  0.075000    576.000000
 -0.125000 -0.125000  0.075000    288.000000
  0.125000  0.125000  0.125000     96.000000
  0.175000  0.125000  0.125000    288.000000
  0.225000  0.125000  0.125000    288.000000
  0.275000  0.125000  0.125000    288.000000
  0.325000  0.125000  0.125000    288.000000
  0.375000  0.125000  0.125000    288.000000
  0.425000  0.125000  0.125000    288.000000
  0.475000  0.125000  0.125000    288.000000
 -0.475000  0.125000  0.125000    288.000000
 -0.425000  0.125000  0.125000    288.000000
 -0.375000  0.125000  0.125000    288.000000
 -0.325000  0.125000  0.125000    288.000000
 -0.275000  0.125000  0.125000    288.000000
 -0.225000  0.125000  0.125000    288.000000
 -0.175000  0.125000  0.125000    288.000000
 -0.125000  0.125000  0.125000    288.000000
  0.175000  0.175000  0.125000    288.000000
  0.225000  0.175000  0.125000    576.000000
  0.275000  0.175000  0.125000    576.000000
  0.325000  0.175000  0.125000    576.000000
  0.375000  0.175000  0.125000    576.000000
  0.425000  0.175000  0.125000    576.000000
  0.475000  0.175000  0.125000    576.000000
 -0.475000  0.175000  0.125000    576.000000
 -0.425000  0.175000  0.125000    576.000000
 -0.375000  0.175000  0.125000    576.000000
 -0.325000  0.175000  0.125000    576.000000
 -0.275000  0.175000  0.125000    576.000000
 -0.225000  0.175000  0.125000    576.000000
 -0.175000  0.175000  0.125000    576.000000
 -0.125000  0.175000  0.125000    576.000000
  0.225000  0.225000  0.125000    288.000000
  0.275000  0.225000  0.125000    576.000000
  0.325000  0.225000  0.125000    576.000000
  0.375000  0.225000  0.125000    576.000000
  0.425000  0.225000  0.125000    576.000000
  0.475000  0.225000  0.125000    576.000000
 -0.475000  0.225000  0.125000    576.000000
 -0.425000  0.225000  0.125000    576.000000
 -0.375000  0.225000  0.125000    576.000000
 -0.325000  0.225000  0.125000    576.000000
 -0.275000  0.225000  0.125000    576.000000
 -0.225000  0.225000  0.125000    576.000000
 -0.175000  0.225000  0.125000    576.000000
 -0.125000  0.225000  0.125000    576.000000
  0.275000  0.275000  0.125000    288.000000
  0.325000  0.275000  0.125000    576.000000
  0.375000  0.275000  0.125000    576.000000
  0.425000  0.275000  0.125000    576.000000
  0.475000  0.275000  0.125000    576.000000
 -0.475000  0.275000  0.125000    576.000000
 -0.425000  0.275000  0.125000    576.000000
 -0.375000  0.275000  0.125000    576.000000
 -0.325000  0.275000  0.125000    576.000000
 -0.275000  0.275000  0.125000    576.000000
 -0.225000  0.275000  0.125000    576.000000
 -0.175000  0.275000  0.125000    576.000000
 -0.125000  0.275000  0.125000    576.000000
  0.325000  0.325000  0.125000    288.000000
  0.375000  0.325000  0.125000    576.000000
  0.425000  0.325000  0.125000    576.000000
  0.475000  0.325000  0.125000    576.000000
 -0.475000  0.325000  0.125000    576.000000
 -0.425000  0.325000  0.125000    576.000000
 -0.375000  0.325000  0.125000    576.000000
 -0.325000  0.325000  0.125000    576.000000
 -0.275000  0.325000  0.125000    576.000000
 -0.225000  0.325000  0.125000    576.000000
 -0.175000  0.325000  0.125000    576.000000
 -0.125000  0.325000  0.125000    576.000000
  0.375000  0.375000  0.125000    288.000000
  0.425000  0.375000  0.125000    576.000000
  0.475000  0.375000  0.125000    576.000000
 -0.475000  0.375000  0.125000    576.000000
 -0.425000  0.375000  0.125000    576.000000
 -0.375000  0.375000  0.125000    576.000000
 -0.325000  0.375000  0.125000    576.000000
 -0.275000  0.375000  0.125000    576.000000
 -0.225000  0.375000  0.125000    576.000000
 -0.175000  0.375000  0.125000    576.000000
 -0.125000  0.375000  0.125000    576.000000
  0.425000  0.425000  0.125000    288.000000
  0.475000  0.425000  0.125000    576.000000
 -0.475000  0.425000  0.125000    576.000000
 -0.425000  0.425000  0.125000    576.000000
 -0.375000  0.425000  0.125000    576.000000
 -0.325000  0.425000  0.125000    576.000000
 -0.275000  0.425000  0.125000    576.000000
 -0.225000  0.425000  0.125000    576.000000
 -0.175000  0.425000  0.125000    576.000000
 -0.125000  0.425000  0.125000    576.000000
  0.475000  0.475000  0.125000    288.000000
 -0.475000  0.475000  0.125000    576.000000
 -0.425000  0.475000  0.125000    576.000000
 -0.375000  0.475000  0.125000    576.000000
 -0.325000  0.475000  0.125000    576.000000
 -0.275000  0.475000  0.125000    576.000000
 -0.225000  0.475000  0.125000    576.000000
 -0.175000  0.475000  0.125000    576.000000
 -0.125000  0.475000  0.125000    576.000000
 -0.475000 -0.475000  0.125000    288.000000
 -0.425000 -0.475000  0.125000    576.000000
 -0.375000 -0.475000  0.125000    576.000000
 -0.325000 -0.475000  0.125000    576.000000
 -0.275000 -0.475000  0.125000    576.000000
 -0.225000 -0.475000  0.125000    576.000000
 -0.175000 -0.475000  0.125000    576.000000
 -0.425000 -0.425000  0.125000    288.000000
 -0.375000 -0.425000  0.125000    576.000000
 -0.325000 -0.425000  0.125000    576.000000
 -0.275000 -0.425000  0.125000    576.000000
 -0.225000 -0.425000  0.125000    576.000000
 -0.175000 -0.425000  0.125000    576.000000
 -0.375000 -0.375000  0.125000    288.000000
 -0.325000 -0.375000  0.125000    576.000000
 -0.275000 -0.375000  0.125000    576.000000
 -0.225000 -0.375000  0.125000    576.000000
 -0.175000 -0.375000  0.125000    576.000000
 -0.325000 -0.325000  0.125000    288.000000
 -0.275000 -0.325000  0.125000    576.000000
 -0.225000 -0.325000  0.125000    576.000000
 -0.175000 -0.325000  0.125000    576.000000
 -0.275000 -0.275000  0.125000    288.000000
 -0.225000 -0.275000  0.125000    576.000000
 -0.175000 -0.275000  0.125000    576.000000
 -0.225000 -0.225000  0.125000    288.000000
 -0.175000 -0.225000  0.125000    576.000000
 -0.175000 -0.175000  0.125000    288.000000
  0.175000  0.175000  0.175000     96.000000
  0.225000  0.175000  0.175000    288.000000
  0.275000  0.175000  0.175000    288.000000
  0.325000  0.175000  0.175000    288.000000
  0.375000  0.175000  0.175000    288.000000
  0.425000  0.175000  0.175000    288.000000
  0.475000  0.175000  0.175000    288.000000
 -0.475000  0.175000  0.175000    288.000000
 -0.425000  0.175000  0.175000    288.000000
 -0.375000  0.175000  0.175000    288.000000
 -0.325000  0.175000  0.175000    288.000000
 -0.275000  0.175000  0.175000    288.000000
 -0.225000  0.175000  0.175000    288.000000
 -0.175000  0.175000  0.175000    288.000000
  0.225000  0.225000  0.175000    288.000000
  0.275000  0.225000  0.175000    576.000000
  0.325000  0.225000  0.175000    576.000000
  0.375000  0.225000  0.175000    576.000000
  0.425000  0.225000  0.175000    576.000000
  0.475000  0.225000  0.175000    576.000000
 -0.475000  0.225000  0.175000    576.000000
 -0.425000  0.225000  0.175000    576.000000
 -0.375000  0.225000  0.175000    576.000000
 -0.325000  0.225000  0.175000    576.000000
 -0.275000  0.225000  0.175000    576.000000
 -0.225000  0.225000  0.175000    576.000000
 -0.175000  0.225000  0.175000    576.000000
  0.275000  0.275000  0.175000    288.000000
  0.325000  0.275000  0.175000    576.000000
  0.375000  0.275000  0.175000    576.000000
  0.425000  0.275000  0.175000    576.000000
  0.475000  0.275000  0.175000    576.000000
 -0.475000  0.275000  0.175000    576.000000
 -0.425000  0.275000  0.175000    576.000000
 -0.375000  0.275000  0.175000    576.000000
 -0.325000  0.275000  0.175000    576.000000
 -0.275000  0.275000  0.175000    576.000000
 -0.225000  0.275000  0.175000    576.000000
 -0.175000  0.275000  0.175000    576.000000
  0.325000  0.325000  0.175000    288.000000
  0.375000  0.325000  0.175000    576.000000
  0.425000  0.325000  0.175000    576.000000
  0.475000  0.325000  0.175000    576.000000
 -0.475000  0.325000  0.175000    576.000000
 -0.425000  0.325000  0.175000    576.000000
 -0.375000  0.325000  0.175000    576.000000
 -0.325000  0.325000  0.175000    576.000000
 -0.275000  0.325000  0.175000    576.000000
 -0.225000  0.325000  0.175000    576.000000
 -0.175000  0.325000  0.175000    576.000000
  0.375000  0.375000  0.175000    288.000000
  0.425000  0.375000  0.175000    576.000000
  0.475000  0.375000  0.175000    576.000000
 -0.475000  0.375000  0.175000    576.000000
 -0.425000  0.375000  0.175000    576.000000
 -0.375000  0.375000  0.175000    576.000000
 -0.325000  0.375000  0.175000    576.000000
 -0.275000  0.375000  0.175000    576.000000
 -0.225000  0.375000  0.175000    576.000000
 -0.175000  0.375000  0.175000    576.000000
  0.425000  0.425000  0.175000    288.000000
  0.475000  0.425000  0.175000    576.000000
 -0.475000  0.425000  0.175000    576.000000
 -0.425000  0.425000  0.175000    576.000000
 -0.375000  0.425000  0.175000    576.000000
 -0.325000  0.425000  0.175000    576.000000
 -0.275000  0.425000  0.175000    576.000000
 -0.225000  0.425000  0.175000    576.000000
 -0.175000  0.425000  0.175000    576.000000
  0.475000  0.475000  0.175000    288.000000
 -0.475000  0.475000  0.175000    576.000000
 -0.425000  0.475000  0.175000    576.000000
 -0.375000  0.475000  0.175000    576.000000
 -0.325000  0.475000  0.175000    576.000000
 -0.275000  0.475000  0.175000    576.000000
 -0.225000  0.475000  0.175000    576.000000
 -0.175000  0.475000  0.175000    576.000000
 -0.475000 -0.475000  0.175000    288.000000
 -0.425000 -0.475000  0.175000    576.000000
 -0.375000 -0.475000  0.175000    576.000000
 -0.325000 -0.475000  0.175000    576.000000
 -0.275000 -0.475000  0.175000    576.000000
 -0.225000 -0.475000  0.175000    576.000000
 -0.425000 -0.425000  0.175000    288.000000
 -0.375000 -0.425000  0.175000    576.000000
 -0.325000 -0.425000  0.175000    576.000000
 -0.275000 -0.425000  0.175000    576.000000
 -0.225000 -0.425000  0.175000    576.000000
 -0.375000 -0.375000  0.175000    288.000000
 -0.325000 -0.375000  0.175000    576.000000
 -0.275000 -0.375000  0.175000    576.000000
 -0.225000 -0.375000  0.175000    576.000000
 -0.325000 -0.325000  0.175000    288.000000
 -0.275000 -0.325000  0.175000    576.000000
 -0.225000 -0.325000  0.175000    576.000000
 -0.275000 -0.275000  0.175000    288.000000
 -0.225000 -0.275000  0.175000    576.000000
 -0.225000 -0.225000  0.175000    288.000000
  0.225000  0.225000  0.225000     96.000000
  0.275000  0.225000  0.225000    288.000000
  0.325000  0.225000  0.225000    288.000000
  0.375000  0.225000  0.225000    288.000000
  0.425000  0.225000  0.225000    288.000000
  0.475000  0.225000  0.225000    288.000000
 -0.475000  0.225000  0.225000    288.000000
 -0.425000  0.225000  0.225000    288.000000
 -0.375000  0.225000  0.225000    288.000000
 -0.325000  0.225000  0.225000    288.000000
 -0.275000  0.225000  0.225000    288.000000
 -0.225000  0.225000  0.225000    288.000000
  0.275000  0.275000  0.225000    288.000000
  0.325000  0.275000  0.225000    576.000000
  0.375000  0.275000  0.225000    576.000000
  0.425000  0.275000  0.225000    576.000000
  0.475000  0.275000  0.225000    576.000000
 -0.475000  0.275000  0.225000    576.000000
 -0.425000  0.275000  0.225000    576.000000
 -0.375000  0.275000  0.225000    576.000000
 -0.325000  0.275000  0.225000    576.000000
 -0.275000  0.275000  0.225000    576.000000
 -0.225000  0.275000  0.225000    576.000000
  0.325000  0.325000  0.225000    288.000000
  0.375000  0.325000  0.225000    576.000000
  0.425000  0.325000  0.225000    576.000000
  0.475000  0.325000  0.225000    576.000000
 -0.475000  0.325000  0.225000    576.000000
 -0.425000  0.325000  0.225000    576.000000
 -0.375000  0.325000  0.225000    576.000000
 -0.325000  0.325000  0.225000    576.000000
 -0.275000  0.325000  0.225000    576.000000
 -0.225000  0.325000  0.225000    576.000000
  0.375000  0.375000  0.225000    288.000000
  0.425000  0.375000  0.225000    576.000000
  0.475000  0.375000  0.225000    576.000000
 -0.475000  0.375000  0.225000    576.000000
 -0.425000  0.375000  0.225000    576.000000
 -0.375000  0.375000  0.225000    576.000000
 -0.325000  0.375000  0.225000    576.000000
 -0.275000  0.375000  0.225000    576.000000
 -0.225000  0.375000  0.225000    576.000000
  0.425000  0.425000  0.225000    288.000000
  0.475000  0.425000  0.225000    576.000000
 -0.475000  0.425000  0.225000    576.000000
 -0.425000  0.425000  0.225000    576.000000
 -0.375000  0.425000  0.225000    576.000000
 -0.325000  0.425000  0.225000    576.000000
 -0.275000  0.425000  0.225000    576.000000
 -0.225000  0.425000  0.225000    576.000000
  0.475000  0.475000  0.225000    288.000000
 -0.475000  0.475000  0.225000    576.000000
 -0.425000  0.475000  0.225000    576.000000
 -0.375000  0.475000  0.225000    576.000000
 -0.325000  0.475000  0.225000    576.000000
 -0.275000  0.475000  0.225000    576.000000
 -0.225000  0.475000  0.225000    576.000000
 -0.475000 -0.475000  0.225000    288.000000
 -0.425000 -0.475000  0.225000    576.000000
 -0.375000 -0.475000  0.225000    576.000000
 -0.325000 -0.475000  0.225000    576.000000
 -0.275000 -0.475000  0.225000    576.000000
 -0.425000 -0.425000  0.225000    288.000000
 -0.375000 -0.425000  0.225000    576.000000
 -0.325000 -0.425000  0.225000    576.000000
 -0.275000 -0.425000  0.225000    576.000000
 -0.375000 -0.375000  0.225000    288.000000
 -0.325000 -0.375000  0.225000    576.000000
 -0.275000 -0.375000  0.225000    576.000000
 -0.325000 -0.325000  0.225000    288.000000
 -0.275000 -0.325000  0.225000    576.000000
 -0.275000 -0.275000  0.225000    288.000000
  0.275000  0.275000  0.275000     96.000000
  0.325000  0.275000  0.275000    288.000000
  0.375000  0.275000  0.275000    288.000000
  0.425000  0.275000  0.275000    288.000000
  0.475000  0.275000  0.275000    288.000000
 -0.475000  0.275000  0.275000    288.000000
 -0.425000  0.275000  0.275000    288.000000
 -0.375000  0.275000  0.275000    288.000000
 -0.325000  0.275000  0.275000    288.000000
 -0.275000  0.275000  0.275000    288.000000
  0.325000  0.325000  0.275000    288.000000
  0.375000  0.325000  0.275000    576.000000
  0.425000  0.325000  0.275000    576.000000
  0.475000  0.325000  0.275000    576.000000
 -0.475000  0.325000  0.275000    576.000000
 -0.425000  0.325000  0.275000    576.000000
 -0.375000  0.325000  0.275000    576.000000
 -0.325000  0.325000  0.275000    576.000000
 -0.275000  0.325000  0.275000    576.000000
  0.375000  0.375000  0.275000    288.000000
  0.425000  0.375000  0.275000    576.000000
  0.475000  0.375000  0.275000    576.000000
 -0.475000  0.375000  0.275000    576.000000
 -0.425000  0.375000  0.275000    576.000000
 -0.375000  0.375000  0.275000    576.000000
 -0.325000  0.375000  0.275000    576.000000
 -0.275000  0.375000  0.275000    576.000000
  0.425000  0.425000  0.275000    288.000000
  0.475000  0.425000  0.275000    576.000000
 -0.475000  0.425000  0.275000    576.000000
 -0.425000  0.425000  0.275000    576.000000
 -0.375000  0.425000  0.275000    576.000000
 -0.325000  0.425000  0.275000    576.000000
 -0.275000  0.425000  0.275000    576.000000
  0.475000  0.475000  0.275000    288.000000
 -0.475000  0.475000  0.275000    576.000000
 -0.425000  0.475000  0.275000    576.000000
 -0.375000  0.475000  0.275000    576.000000
 -0.325000  0.475000  0.275000    576.000000
 -0.275000  0.475000  0.275000    576.000000
 -0.475000 -0.475000  0.275000    288.000000
 -0.425000 -0.475000  0.275000    576.000000
 -0.375000 -0.475000  0.275000    576.000000
 -0.325000 -0.475000  0.275000    576.000000
 -0.425000 -0.425000  0.275000    288.000000
 -0.375000 -0.425000  0.275000    576.000000
 -0.325000 -0.425000  0.275000    576.000000
 -0.375000 -0.375000  0.275000    288.000000
 -0.325000 -0.375000  0.275000    576.000000
 -0.325000 -0.325000  0.275000    288.000000
  0.325000  0.325000  0.325000     96.000000
  0.375000  0.325000  0.325000    288.000000
  0.425000  0.325000  0.325000    288.000000
  0.475000  0.325000  0.325000    288.000000
 -0.475000  0.325000  0.325000    288.000000
 -0.425000  0.325000  0.325000    288.000000
 -0.375000  0.325000  0.325000    288.000000
 -0.325000  0.325000  0.325000    288.000000
  0.375000  0.375000  0.325000    288.000000
  0.425000  0.375000  0.325000    576.000000
  0.475000  0.375000  0.325000    576.000000
 -0.475000  0.375000  0.325000    576.000000
 -0.425000  0.375000  0.325000    576.000000
 -0.375000  0.375000  0.325000    576.000000
 -0.325000  0.375000  0.325000    576.000000
  0.425000  0.425000  0.325000    288.000000
  0.475000  0.425000  0.325000    576.000000
 -0.475000  0.425000  0.325000    576.000000
 -0.425000  0.425000  0.325000    576.000000
 -0.375000  0.425000  0.325000    576.000000
 -0.325000  0.425000  0.325000    576.000000
  0.475000  0.475000  0.325000    288.000000
 -0.475000  0.475000  0.325000    576.000000
 -0.425000  0.475000  0.325000    576.000000
 -0.375000  0.475000  0.325000    576.000000
 -0.325000  0.475000  0.325000    576.000000
 -0.475000 -0.475000  0.325000    288.000000
 -0.425000 -0.475000  0.325000    576.000000
 -0.375000 -0.475000  0.325000    576.000000
 -0.425000 -0.425000  0.325000    288.000000
 -0.375000 -0.425000  0.325000    576.000000
 -0.375000 -0.375000  0.325000    288.000000
  0.375000  0.375000  0.375000     96.000000
  0.425000  0.375000  0.375000    288.000000
  0.475000  0.375000  0.375000    288.000000
 -0.475000  0.375000  0.375000    288.000000
 -0.425000  0.375000  0.375000    288.000000
 -0.375000  0.375000  0.375000    288.000000
  0.425000  0.425000  0.375000    288.000000
  0.475000  0.425000  0.375000    576.000000
 -0.475000  0.425000  0.375000    576.000000
 -0.425000  0.425000  0.375000    576.000000
 -0.375000  0.425000  0.375000    576.000000
  0.475000  0.475000  0.375000    288.000000
 -0.475000  0.475000  0.375000    576.000000
 -0.425000  0.475000  0.375000    576.000000
 -0.375000  0.475000  0.375000    576.000000
 -0.475000 -0.475000  0.375000    288.000000
 -0.425000 -0.475000  0.375000    576.000000
 -0.425000 -0.425000  0.375000    288.000000
  0.425000  0.425000  0.425000     96.000000
  0.475000  0.425000  0.425000    288.000000
 -0.475000  0.425000  0.425000    288.000000
 -0.425000  0.425000  0.425000    288.000000
  0.475000  0.475000  0.425000    288.000000
 -0.475000  0.475000  0.425000    576.000000
 -0.425000  0.475000  0.425000    576.000000
 -0.475000 -0.475000  0.425000    288.000000
  0.475000  0.475000  0.475000     96.000000
 -0.475000  0.475000  0.475000    288.000000
 
 Following cartesian coordinates:
            Coordinates               Weight
  0.025000  0.025000  0.025000     96.000000
  0.075000  0.075000 -0.025000    288.000000
  0.125000  0.125000 -0.075000    288.000000
  0.175000  0.175000 -0.125000    288.000000
  0.225000  0.225000 -0.175000    288.000000
  0.275000  0.275000 -0.225000    288.000000
  0.325000  0.325000 -0.275000    288.000000
  0.375000  0.375000 -0.325000    288.000000
  0.425000  0.425000 -0.375000    288.000000
  0.475000  0.475000 -0.425000    288.000000
 -0.475000 -0.475000  0.525000    288.000000
 -0.425000 -0.425000  0.475000    288.000000
 -0.375000 -0.375000  0.425000    288.000000
 -0.325000 -0.325000  0.375000    288.000000
 -0.275000 -0.275000  0.325000    288.000000
 -0.225000 -0.225000  0.275000    288.000000
 -0.175000 -0.175000  0.225000    288.000000
 -0.125000 -0.125000  0.175000    288.000000
 -0.075000 -0.075000  0.125000    288.000000
 -0.025000 -0.025000  0.075000    288.000000
  0.025000  0.125000  0.025000    288.000000
  0.075000  0.175000 -0.025000    576.000000
  0.125000  0.225000 -0.075000    576.000000
  0.175000  0.275000 -0.125000    576.000000
  0.225000  0.325000 -0.175000    576.000000
  0.275000  0.375000 -0.225000    576.000000
  0.325000  0.425000 -0.275000    576.000000
  0.375000  0.475000 -0.325000    576.000000
  0.425000  0.525000 -0.375000    576.000000
 -0.525000 -0.425000  0.575000    576.000000
 -0.475000 -0.375000  0.525000    576.000000
 -0.425000 -0.325000  0.475000    576.000000
 -0.375000 -0.275000  0.425000    576.000000
 -0.325000 -0.225000  0.375000    576.000000
 -0.275000 -0.175000  0.325000    576.000000
 -0.225000 -0.125000  0.275000    576.000000
 -0.175000 -0.075000  0.225000    576.000000
 -0.125000 -0.025000  0.175000    576.000000
 -0.075000  0.025000  0.125000    576.000000
  0.025000  0.225000  0.025000    288.000000
  0.075000  0.275000 -0.025000    576.000000
  0.125000  0.325000 -0.075000    576.000000
  0.175000  0.375000 -0.125000    576.000000
  0.225000  0.425000 -0.175000    576.000000
  0.275000  0.475000 -0.225000    576.000000
  0.325000  0.525000 -0.275000    576.000000
  0.375000  0.575000 -0.325000    576.000000
 -0.575000 -0.375000  0.625000    576.000000
 -0.525000 -0.325000  0.575000    576.000000
 -0.475000 -0.275000  0.525000    576.000000
 -0.425000 -0.225000  0.475000    576.000000
 -0.375000 -0.175000  0.425000    576.000000
 -0.325000 -0.125000  0.375000    576.000000
 -0.275000 -0.075000  0.325000    576.000000
 -0.225000 -0.025000  0.275000    576.000000
 -0.175000  0.025000  0.225000    576.000000
 -0.125000  0.075000  0.175000    576.000000
  0.025000  0.325000  0.025000    288.000000
  0.075000  0.375000 -0.025000    576.000000
  0.125000  0.425000 -0.075000    576.000000
  0.175000  0.475000 -0.125000    576.000000
  0.225000  0.525000 -0.175000    576.000000
  0.275000  0.575000 -0.225000    576.000000
  0.325000  0.625000 -0.275000    576.000000
 -0.625000 -0.325000  0.675000    576.000000
 -0.575000 -0.275000  0.625000    576.000000
 -0.525000 -0.225000  0.575000    576.000000
 -0.475000 -0.175000  0.525000    576.000000
 -0.425000 -0.125000  0.475000    576.000000
 -0.375000 -0.075000  0.425000    576.000000
 -0.325000 -0.025000  0.375000    576.000000
 -0.275000  0.025000  0.325000    576.000000
 -0.225000  0.075000  0.275000    576.000000
 -0.175000  0.125000  0.225000    576.000000
  0.025000  0.425000  0.025000    288.000000
  0.075000  0.475000 -0.025000    576.000000
  0.125000  0.525000 -0.075000    576.000000
  0.175000  0.575000 -0.125000    576.000000
  0.225000  0.625000 -0.175000    576.000000
  0.275000  0.675000 -0.225000    576.000000
 -0.675000 -0.275000  0.725000    576.000000
 -0.625000 -0.225000  0.675000    576.000000
 -0.575000 -0.175000  0.625000    576.000000
 -0.525000 -0.125000  0.575000    576.000000
 -0.475000 -0.075000  0.525000    576.000000
 -0.425000 -0.025000  0.475000    576.000000
 -0.375000  0.025000  0.425000    576.000000
 -0.325000  0.075000  0.375000    576.000000
 -0.275000  0.125000  0.325000    576.000000
 -0.225000  0.175000  0.275000    576.000000
  0.025000  0.525000  0.025000    288.000000
  0.075000  0.575000 -0.025000    576.000000
  0.125000  0.625000 -0.075000    576.000000
  0.175000  0.675000 -0.125000    576.000000
  0.225000  0.725000 -0.175000    576.000000
 -0.725000 -0.225000  0.775000    576.000000
 -0.675000 -0.175000  0.725000    576.000000
 -0.625000 -0.125000  0.675000    576.000000
 -0.575000 -0.075000  0.625000    576.000000
 -0.525000 -0.025000  0.575000    576.000000
 -0.475000  0.025000  0.525000    576.000000
 -0.425000  0.075000  0.475000    576.000000
 -0.375000  0.125000  0.425000    576.000000
 -0.325000  0.175000  0.375000    576.000000
 -0.275000  0.225000  0.325000    576.000000
  0.025000  0.625000  0.025000    288.000000
  0.075000  0.675000 -0.025000    576.000000
  0.125000  0.725000 -0.075000    576.000000
  0.175000  0.775000 -0.125000    576.000000
 -0.775000 -0.175000  0.825000    576.000000
 -0.725000 -0.125000  0.775000    576.000000
 -0.675000 -0.075000  0.725000    576.000000
 -0.625000 -0.025000  0.675000    576.000000
 -0.575000  0.025000  0.625000    576.000000
 -0.525000  0.075000  0.575000    576.000000
 -0.475000  0.125000  0.525000    576.000000
 -0.425000  0.175000  0.475000    576.000000
 -0.375000  0.225000  0.425000    576.000000
 -0.325000  0.275000  0.375000    576.000000
  0.025000  0.725000  0.025000    288.000000
  0.075000  0.775000 -0.025000    576.000000
  0.125000  0.825000 -0.075000    576.000000
 -0.825000 -0.125000  0.875000    576.000000
 -0.775000 -0.075000  0.825000    576.000000
 -0.725000 -0.025000  0.775000    576.000000
 -0.675000  0.025000  0.725000    576.000000
 -0.625000  0.075000  0.675000    576.000000
 -0.575000  0.125000  0.625000    576.000000
 -0.525000  0.175000  0.575000    576.000000
 -0.475000  0.225000  0.525000    576.000000
 -0.425000  0.275000  0.475000    576.000000
 -0.375000  0.325000  0.425000    576.000000
  0.025000  0.825000  0.025000    288.000000
  0.075000  0.875000 -0.025000    576.000000
 -0.875000 -0.075000  0.925000    576.000000
 -0.825000 -0.025000  0.875000    576.000000
 -0.775000  0.025000  0.825000    576.000000
 -0.725000  0.075000  0.775000    576.000000
 -0.675000  0.125000  0.725000    576.000000
 -0.625000  0.175000  0.675000    576.000000
 -0.575000  0.225000  0.625000    576.000000
 -0.525000  0.275000  0.575000    576.000000
 -0.475000  0.325000  0.525000    576.000000
 -0.425000  0.375000  0.475000    576.000000
  0.025000  0.925000  0.025000    288.000000
 -0.925000 -0.025000  0.975000    576.000000
 -0.875000  0.025000  0.925000    576.000000
 -0.825000  0.075000  0.875000    576.000000
 -0.775000  0.125000  0.825000    576.000000
 -0.725000  0.175000  0.775000    576.000000
 -0.675000  0.225000  0.725000    576.000000
 -0.625000  0.275000  0.675000    576.000000
 -0.575000  0.325000  0.625000    576.000000
 -0.525000  0.375000  0.575000    576.000000
 -0.475000  0.425000  0.525000    576.000000
  0.025000 -0.975000  0.025000    288.000000
  0.075000 -0.925000 -0.025000    576.000000
  0.125000 -0.875000 -0.075000    576.000000
  0.175000 -0.825000 -0.125000    576.000000
  0.225000 -0.775000 -0.175000    576.000000
  0.275000 -0.725000 -0.225000    576.000000
  0.325000 -0.675000 -0.275000    576.000000
  0.375000 -0.625000 -0.325000    576.000000
  0.425000 -0.575000 -0.375000    576.000000
  0.025000 -0.875000  0.025000    288.000000
  0.075000 -0.825000 -0.025000    576.000000
  0.125000 -0.775000 -0.075000    576.000000
  0.175000 -0.725000 -0.125000    576.000000
  0.225000 -0.675000 -0.175000    576.000000
  0.275000 -0.625000 -0.225000    576.000000
  0.325000 -0.575000 -0.275000    576.000000
  0.375000 -0.525000 -0.325000    576.000000
  0.025000 -0.775000  0.025000    288.000000
  0.075000 -0.725000 -0.025000    576.000000
  0.125000 -0.675000 -0.075000    576.000000
  0.175000 -0.625000 -0.125000    576.000000
  0.225000 -0.575000 -0.175000    576.000000
  0.275000 -0.525000 -0.225000    576.000000
  0.325000 -0.475000 -0.275000    576.000000
  0.025000 -0.675000  0.025000    288.000000
  0.075000 -0.625000 -0.025000    576.000000
  0.125000 -0.575000 -0.075000    576.000000
  0.175000 -0.525000 -0.125000    576.000000
  0.225000 -0.475000 -0.175000    576.000000
  0.275000 -0.425000 -0.225000    576.000000
  0.025000 -0.575000  0.025000    288.000000
  0.075000 -0.525000 -0.025000    576.000000
  0.125000 -0.475000 -0.075000    576.000000
  0.175000 -0.425000 -0.125000    576.000000
  0.225000 -0.375000 -0.175000    576.000000
  0.025000 -0.475000  0.025000    288.000000
  0.075000 -0.425000 -0.025000    576.000000
  0.125000 -0.375000 -0.075000    576.000000
  0.175000 -0.325000 -0.125000    576.000000
  0.025000 -0.375000  0.025000    288.000000
  0.075000 -0.325000 -0.025000    576.000000
  0.125000 -0.275000 -0.075000    576.000000
  0.025000 -0.275000  0.025000    288.000000
  0.075000 -0.225000 -0.025000    576.000000
  0.025000 -0.175000  0.025000    288.000000
  0.075000  0.075000  0.075000     96.000000
  0.125000  0.125000  0.025000    288.000000
  0.175000  0.175000 -0.025000    288.000000
  0.225000  0.225000 -0.075000    288.000000
  0.275000  0.275000 -0.125000    288.000000
  0.325000  0.325000 -0.175000    288.000000
  0.375000  0.375000 -0.225000    288.000000
  0.425000  0.425000 -0.275000    288.000000
  0.475000  0.475000 -0.325000    288.000000
 -0.475000 -0.475000  0.625000    288.000000
 -0.425000 -0.425000  0.575000    288.000000
 -0.375000 -0.375000  0.525000    288.000000
 -0.325000 -0.325000  0.475000    288.000000
 -0.275000 -0.275000  0.425000    288.000000
 -0.225000 -0.225000  0.375000    288.000000
 -0.175000 -0.175000  0.325000    288.000000
 -0.125000 -0.125000  0.275000    288.000000
 -0.075000 -0.075000  0.225000    288.000000
  0.075000  0.175000  0.075000    288.000000
  0.125000  0.225000  0.025000    576.000000
  0.175000  0.275000 -0.025000    576.000000
  0.225000  0.325000 -0.075000    576.000000
  0.275000  0.375000 -0.125000    576.000000
  0.325000  0.425000 -0.175000    576.000000
  0.375000  0.475000 -0.225000    576.000000
  0.425000  0.525000 -0.275000    576.000000
 -0.525000 -0.425000  0.675000    576.000000
 -0.475000 -0.375000  0.625000    576.000000
 -0.425000 -0.325000  0.575000    576.000000
 -0.375000 -0.275000  0.525000    576.000000
 -0.325000 -0.225000  0.475000    576.000000
 -0.275000 -0.175000  0.425000    576.000000
 -0.225000 -0.125000  0.375000    576.000000
 -0.175000 -0.075000  0.325000    576.000000
 -0.125000 -0.025000  0.275000    576.000000
  0.075000  0.275000  0.075000    288.000000
  0.125000  0.325000  0.025000    576.000000
  0.175000  0.375000 -0.025000    576.000000
  0.225000  0.425000 -0.075000    576.000000
  0.275000  0.475000 -0.125000    576.000000
  0.325000  0.525000 -0.175000    576.000000
  0.375000  0.575000 -0.225000    576.000000
 -0.575000 -0.375000  0.725000    576.000000
 -0.525000 -0.325000  0.675000    576.000000
 -0.475000 -0.275000  0.625000    576.000000
 -0.425000 -0.225000  0.575000    576.000000
 -0.375000 -0.175000  0.525000    576.000000
 -0.325000 -0.125000  0.475000    576.000000
 -0.275000 -0.075000  0.425000    576.000000
 -0.225000 -0.025000  0.375000    576.000000
 -0.175000  0.025000  0.325000    576.000000
  0.075000  0.375000  0.075000    288.000000
  0.125000  0.425000  0.025000    576.000000
  0.175000  0.475000 -0.025000    576.000000
  0.225000  0.525000 -0.075000    576.000000
  0.275000  0.575000 -0.125000    576.000000
  0.325000  0.625000 -0.175000    576.000000
 -0.625000 -0.325000  0.775000    576.000000
 -0.575000 -0.275000  0.725000    576.000000
 -0.525000 -0.225000  0.675000    576.000000
 -0.475000 -0.175000  0.625000    576.000000
 -0.425000 -0.125000  0.575000    576.000000
 -0.375000 -0.075000  0.525000    576.000000
 -0.325000 -0.025000  0.475000    576.000000
 -0.275000  0.025000  0.425000    576.000000
 -0.225000  0.075000  0.375000    576.000000
  0.075000  0.475000  0.075000    288.000000
  0.125000  0.525000  0.025000    576.000000
  0.175000  0.575000 -0.025000    576.000000
  0.225000  0.625000 -0.075000    576.000000
  0.275000  0.675000 -0.125000    576.000000
 -0.675000 -0.275000  0.825000    576.000000
 -0.625000 -0.225000  0.775000    576.000000
 -0.575000 -0.175000  0.725000    576.000000
 -0.525000 -0.125000  0.675000    576.000000
 -0.475000 -0.075000  0.625000    576.000000
 -0.425000 -0.025000  0.575000    576.000000
 -0.375000  0.025000  0.525000    576.000000
 -0.325000  0.075000  0.475000    576.000000
 -0.275000  0.125000  0.425000    576.000000
  0.075000  0.575000  0.075000    288.000000
  0.125000  0.625000  0.025000    576.000000
  0.175000  0.675000 -0.025000    576.000000
  0.225000  0.725000 -0.075000    576.000000
 -0.725000 -0.225000  0.875000    576.000000
 -0.675000 -0.175000  0.825000    576.000000
 -0.625000 -0.125000  0.775000    576.000000
 -0.575000 -0.075000  0.725000    576.000000
 -0.525000 -0.025000  0.675000    576.000000
 -0.475000  0.025000  0.625000    576.000000
 -0.425000  0.075000  0.575000    576.000000
 -0.375000  0.125000  0.525000    576.000000
 -0.325000  0.175000  0.475000    576.000000
  0.075000  0.675000  0.075000    288.000000
  0.125000  0.725000  0.025000    576.000000
  0.175000  0.775000 -0.025000    576.000000
 -0.775000 -0.175000  0.925000    576.000000
 -0.725000 -0.125000  0.875000    576.000000
 -0.675000 -0.075000  0.825000    576.000000
 -0.625000 -0.025000  0.775000    576.000000
 -0.575000  0.025000  0.725000    576.000000
 -0.525000  0.075000  0.675000    576.000000
 -0.475000  0.125000  0.625000    576.000000
 -0.425000  0.175000  0.575000    576.000000
 -0.375000  0.225000  0.525000    576.000000
  0.075000  0.775000  0.075000    288.000000
  0.125000  0.825000  0.025000    576.000000
 -0.825000 -0.125000  0.975000    576.000000
 -0.775000 -0.075000  0.925000    576.000000
 -0.725000 -0.025000  0.875000    576.000000
 -0.675000  0.025000  0.825000    576.000000
 -0.625000  0.075000  0.775000    576.000000
 -0.575000  0.125000  0.725000    576.000000
 -0.525000  0.175000  0.675000    576.000000
 -0.475000  0.225000  0.625000    576.000000
 -0.425000  0.275000  0.575000    576.000000
  0.075000  0.875000  0.075000    288.000000
 -0.875000 -0.075000  1.025000    576.000000
 -0.825000 -0.025000  0.975000    576.000000
 -0.775000  0.025000  0.925000    576.000000
 -0.725000  0.075000  0.875000    576.000000
 -0.675000  0.125000  0.825000    576.000000
 -0.625000  0.175000  0.775000    576.000000
 -0.575000  0.225000  0.725000    576.000000
 -0.525000  0.275000  0.675000    576.000000
 -0.475000  0.325000  0.625000    576.000000
  0.075000 -1.025000  0.075000    288.000000
  0.125000 -0.975000  0.025000    576.000000
  0.175000 -0.925000 -0.025000    576.000000
  0.225000 -0.875000 -0.075000    576.000000
  0.275000 -0.825000 -0.125000    576.000000
  0.325000 -0.775000 -0.175000    576.000000
  0.375000 -0.725000 -0.225000    576.000000
  0.425000 -0.675000 -0.275000    576.000000
  0.075000 -0.925000  0.075000    288.000000
  0.125000 -0.875000  0.025000    576.000000
  0.175000 -0.825000 -0.025000    576.000000
  0.225000 -0.775000 -0.075000    576.000000
  0.275000 -0.725000 -0.125000    576.000000
  0.325000 -0.675000 -0.175000    576.000000
  0.375000 -0.625000 -0.225000    576.000000
  0.075000 -0.825000  0.075000    288.000000
  0.125000 -0.775000  0.025000    576.000000
  0.175000 -0.725000 -0.025000    576.000000
  0.225000 -0.675000 -0.075000    576.000000
  0.275000 -0.625000 -0.125000    576.000000
  0.325000 -0.575000 -0.175000    576.000000
  0.075000 -0.725000  0.075000    288.000000
  0.125000 -0.675000  0.025000    576.000000
  0.175000 -0.625000 -0.025000    576.000000
  0.225000 -0.575000 -0.075000    576.000000
  0.275000 -0.525000 -0.125000    576.000000
  0.075000 -0.625000  0.075000    288.000000
  0.125000 -0.575000  0.025000    576.000000
  0.175000 -0.525000 -0.025000    576.000000
  0.225000 -0.475000 -0.075000    576.000000
  0.075000 -0.525000  0.075000    288.000000
  0.125000 -0.475000  0.025000    576.000000
  0.175000 -0.425000 -0.025000    576.000000
  0.075000 -0.425000  0.075000    288.000000
  0.125000 -0.375000  0.025000    576.000000
  0.075000 -0.325000  0.075000    288.000000
  0.125000  0.125000  0.125000     96.000000
  0.175000  0.175000  0.075000    288.000000
  0.225000  0.225000  0.025000    288.000000
  0.275000  0.275000 -0.025000    288.000000
  0.325000  0.325000 -0.075000    288.000000
  0.375000  0.375000 -0.125000    288.000000
  0.425000  0.425000 -0.175000    288.000000
  0.475000  0.475000 -0.225000    288.000000
 -0.475000 -0.475000  0.725000    288.000000
 -0.425000 -0.425000  0.675000    288.000000
 -0.375000 -0.375000  0.625000    288.000000
 -0.325000 -0.325000  0.575000    288.000000
 -0.275000 -0.275000  0.525000    288.000000
 -0.225000 -0.225000  0.475000    288.000000
 -0.175000 -0.175000  0.425000    288.000000
 -0.125000 -0.125000  0.375000    288.000000
  0.125000  0.225000  0.125000    288.000000
  0.175000  0.275000  0.075000    576.000000
  0.225000  0.325000  0.025000    576.000000
  0.275000  0.375000 -0.025000    576.000000
  0.325000  0.425000 -0.075000    576.000000
  0.375000  0.475000 -0.125000    576.000000
  0.425000  0.525000 -0.175000    576.000000
 -0.525000 -0.425000  0.775000    576.000000
 -0.475000 -0.375000  0.725000    576.000000
 -0.425000 -0.325000  0.675000    576.000000
 -0.375000 -0.275000  0.625000    576.000000
 -0.325000 -0.225000  0.575000    576.000000
 -0.275000 -0.175000  0.525000    576.000000
 -0.225000 -0.125000  0.475000    576.000000
 -0.175000 -0.075000  0.425000    576.000000
  0.125000  0.325000  0.125000    288.000000
  0.175000  0.375000  0.075000    576.000000
  0.225000  0.425000  0.025000    576.000000
  0.275000  0.475000 -0.025000    576.000000
  0.325000  0.525000 -0.075000    576.000000
  0.375000  0.575000 -0.125000    576.000000
 -0.575000 -0.375000  0.825000    576.000000
 -0.525000 -0.325000  0.775000    576.000000
 -0.475000 -0.275000  0.725000    576.000000
 -0.425000 -0.225000  0.675000    576.000000
 -0.375000 -0.175000  0.625000    576.000000
 -0.325000 -0.125000  0.575000    576.000000
 -0.275000 -0.075000  0.525000    576.000000
 -0.225000 -0.025000  0.475000    576.000000
  0.125000  0.425000  0.125000    288.000000
  0.175000  0.475000  0.075000    576.000000
  0.225000  0.525000  0.025000    576.000000
  0.275000  0.575000 -0.025000    576.000000
  0.325000  0.625000 -0.075000    576.000000
 -0.625000 -0.325000  0.875000    576.000000
 -0.575000 -0.275000  0.825000    576.000000
 -0.525000 -0.225000  0.775000    576.000000
 -0.475000 -0.175000  0.725000    576.000000
 -0.425000 -0.125000  0.675000    576.000000
 -0.375000 -0.075000  0.625000    576.000000
 -0.325000 -0.025000  0.575000    576.000000
 -0.275000  0.025000  0.525000    576.000000
  0.125000  0.525000  0.125000    288.000000
  0.175000  0.575000  0.075000    576.000000
  0.225000  0.625000  0.025000    576.000000
  0.275000  0.675000 -0.025000    576.000000
 -0.675000 -0.275000  0.925000    576.000000
 -0.625000 -0.225000  0.875000    576.000000
 -0.575000 -0.175000  0.825000    576.000000
 -0.525000 -0.125000  0.775000    576.000000
 -0.475000 -0.075000  0.725000    576.000000
 -0.425000 -0.025000  0.675000    576.000000
 -0.375000  0.025000  0.625000    576.000000
 -0.325000  0.075000  0.575000    576.000000
  0.125000  0.625000  0.125000    288.000000
  0.175000  0.675000  0.075000    576.000000
  0.225000  0.725000  0.025000    576.000000
 -0.725000 -0.225000  0.975000    576.000000
 -0.675000 -0.175000  0.925000    576.000000
 -0.625000 -0.125000  0.875000    576.000000
 -0.575000 -0.075000  0.825000    576.000000
 -0.525000 -0.025000  0.775000    576.000000
 -0.475000  0.025000  0.725000    576.000000
 -0.425000  0.075000  0.675000    576.000000
 -0.375000  0.125000  0.625000    576.000000
  0.125000  0.725000  0.125000    288.000000
  0.175000  0.775000  0.075000    576.000000
 -0.775000 -0.175000  1.025000    576.000000
 -0.725000 -0.125000  0.975000    576.000000
 -0.675000 -0.075000  0.925000    576.000000
 -0.625000 -0.025000  0.875000    576.000000
 -0.575000  0.025000  0.825000    576.000000
 -0.525000  0.075000  0.775000    576.000000
 -0.475000  0.125000  0.725000    576.000000
 -0.425000  0.175000  0.675000    576.000000
  0.125000  0.825000  0.125000    288.000000
 -0.825000 -0.125000  1.075000    576.000000
 -0.775000 -0.075000  1.025000    576.000000
 -0.725000 -0.025000  0.975000    576.000000
 -0.675000  0.025000  0.925000    576.000000
 -0.625000  0.075000  0.875000    576.000000
 -0.575000  0.125000  0.825000    576.000000
 -0.525000  0.175000  0.775000    576.000000
 -0.475000  0.225000  0.725000    576.000000
  0.125000 -1.075000  0.125000    288.000000
  0.175000 -1.025000  0.075000    576.000000
  0.225000 -0.975000  0.025000    576.000000
  0.275000 -0.925000 -0.025000    576.000000
  0.325000 -0.875000 -0.075000    576.000000
  0.375000 -0.825000 -0.125000    576.000000
  0.425000 -0.775000 -0.175000    576.000000
  0.125000 -0.975000  0.125000    288.000000
  0.175000 -0.925000  0.075000    576.000000
  0.225000 -0.875000  0.025000    576.000000
  0.275000 -0.825000 -0.025000    576.000000
  0.325000 -0.775000 -0.075000    576.000000
  0.375000 -0.725000 -0.125000    576.000000
  0.125000 -0.875000  0.125000    288.000000
  0.175000 -0.825000  0.075000    576.000000
  0.225000 -0.775000  0.025000    576.000000
  0.275000 -0.725000 -0.025000    576.000000
  0.325000 -0.675000 -0.075000    576.000000
  0.125000 -0.775000  0.125000    288.000000
  0.175000 -0.725000  0.075000    576.000000
  0.225000 -0.675000  0.025000    576.000000
  0.275000 -0.625000 -0.025000    576.000000
  0.125000 -0.675000  0.125000    288.000000
  0.175000 -0.625000  0.075000    576.000000
  0.225000 -0.575000  0.025000    576.000000
  0.125000 -0.575000  0.125000    288.000000
  0.175000 -0.525000  0.075000    576.000000
  0.125000 -0.475000  0.125000    288.000000
  0.175000  0.175000  0.175000     96.000000
  0.225000  0.225000  0.125000    288.000000
  0.275000  0.275000  0.075000    288.000000
  0.325000  0.325000  0.025000    288.000000
  0.375000  0.375000 -0.025000    288.000000
  0.425000  0.425000 -0.075000    288.000000
  0.475000  0.475000 -0.125000    288.000000
 -0.475000 -0.475000  0.825000    288.000000
 -0.425000 -0.425000  0.775000    288.000000
 -0.375000 -0.375000  0.725000    288.000000
 -0.325000 -0.325000  0.675000    288.000000
 -0.275000 -0.275000  0.625000    288.000000
 -0.225000 -0.225000  0.575000    288.000000
 -0.175000 -0.175000  0.525000    288.000000
  0.175000  0.275000  0.175000    288.000000
  0.225000  0.325000  0.125000    576.000000
  0.275000  0.375000  0.075000    576.000000
  0.325000  0.425000  0.025000    576.000000
  0.375000  0.475000 -0.025000    576.000000
  0.425000  0.525000 -0.075000    576.000000
 -0.525000 -0.425000  0.875000    576.000000
 -0.475000 -0.375000  0.825000    576.000000
 -0.425000 -0.325000  0.775000    576.000000
 -0.375000 -0.275000  0.725000    576.000000
 -0.325000 -0.225000  0.675000    576.000000
 -0.275000 -0.175000  0.625000    576.000000
 -0.225000 -0.125000  0.575000    576.000000
  0.175000  0.375000  0.175000    288.000000
  0.225000  0.425000  0.125000    576.000000
  0.275000  0.475000  0.075000    576.000000
  0.325000  0.525000  0.025000    576.000000
  0.375000  0.575000 -0.025000    576.000000
 -0.575000 -0.375000  0.925000    576.000000
 -0.525000 -0.325000  0.875000    576.000000
 -0.475000 -0.275000  0.825000    576.000000
 -0.425000 -0.225000  0.775000    576.000000
 -0.375000 -0.175000  0.725000    576.000000
 -0.325000 -0.125000  0.675000    576.000000
 -0.275000 -0.075000  0.625000    576.000000
  0.175000  0.475000  0.175000    288.000000
  0.225000  0.525000  0.125000    576.000000
  0.275000  0.575000  0.075000    576.000000
  0.325000  0.625000  0.025000    576.000000
 -0.625000 -0.325000  0.975000    576.000000
 -0.575000 -0.275000  0.925000    576.000000
 -0.525000 -0.225000  0.875000    576.000000
 -0.475000 -0.175000  0.825000    576.000000
 -0.425000 -0.125000  0.775000    576.000000
 -0.375000 -0.075000  0.725000    576.000000
 -0.325000 -0.025000  0.675000    576.000000
  0.175000  0.575000  0.175000    288.000000
  0.225000  0.625000  0.125000    576.000000
  0.275000  0.675000  0.075000    576.000000
 -0.675000 -0.275000  1.025000    576.000000
 -0.625000 -0.225000  0.975000    576.000000
 -0.575000 -0.175000  0.925000    576.000000
 -0.525000 -0.125000  0.875000    576.000000
 -0.475000 -0.075000  0.825000    576.000000
 -0.425000 -0.025000  0.775000    576.000000
 -0.375000  0.025000  0.725000    576.000000
  0.175000  0.675000  0.175000    288.000000
  0.225000  0.725000  0.125000    576.000000
 -0.725000 -0.225000  1.075000    576.000000
 -0.675000 -0.175000  1.025000    576.000000
 -0.625000 -0.125000  0.975000    576.000000
 -0.575000 -0.075000  0.925000    576.000000
 -0.525000 -0.025000  0.875000    576.000000
 -0.475000  0.025000  0.825000    576.000000
 -0.425000  0.075000  0.775000    576.000000
  0.175000  0.775000  0.175000    288.000000
 -0.775000 -0.175000  1.125000    576.000000
 -0.725000 -0.125000  1.075000    576.000000
 -0.675000 -0.075000  1.025000    576.000000
 -0.625000 -0.025000  0.975000    576.000000
 -0.575000  0.025000  0.925000    576.000000
 -0.525000  0.075000  0.875000    576.000000
 -0.475000  0.125000  0.825000    576.000000
  0.175000 -1.125000  0.175000    288.000000
  0.225000 -1.075000  0.125000    576.000000
  0.275000 -1.025000  0.075000    576.000000
  0.325000 -0.975000  0.025000    576.000000
  0.375000 -0.925000 -0.025000    576.000000
  0.425000 -0.875000 -0.075000    576.000000
  0.175000 -1.025000  0.175000    288.000000
  0.225000 -0.975000  0.125000    576.000000
  0.275000 -0.925000  0.075000    576.000000
  0.325000 -0.875000  0.025000    576.000000
  0.375000 -0.825000 -0.025000    576.000000
  0.175000 -0.925000  0.175000    288.000000
  0.225000 -0.875000  0.125000    576.000000
  0.275000 -0.825000  0.075000    576.000000
  0.325000 -0.775000  0.025000    576.000000
  0.175000 -0.825000  0.175000    288.000000
  0.225000 -0.775000  0.125000    576.000000
  0.275000 -0.725000  0.075000    576.000000
  0.175000 -0.725000  0.175000    288.000000
  0.225000 -0.675000  0.125000    576.000000
  0.175000 -0.625000  0.175000    288.000000
  0.225000  0.225000  0.225000     96.000000
  0.275000  0.275000  0.175000    288.000000
  0.325000  0.325000  0.125000    288.000000
  0.375000  0.375000  0.075000    288.000000
  0.425000  0.425000  0.025000    288.000000
  0.475000  0.475000 -0.025000    288.000000
 -0.475000 -0.475000  0.925000    288.000000
 -0.425000 -0.425000  0.875000    288.000000
 -0.375000 -0.375000  0.825000    288.000000
 -0.325000 -0.325000  0.775000    288.000000
 -0.275000 -0.275000  0.725000    288.000000
 -0.225000 -0.225000  0.675000    288.000000
  0.225000  0.325000  0.225000    288.000000
  0.275000  0.375000  0.175000    576.000000
  0.325000  0.425000  0.125000    576.000000
  0.375000  0.475000  0.075000    576.000000
  0.425000  0.525000  0.025000    576.000000
 -0.525000 -0.425000  0.975000    576.000000
 -0.475000 -0.375000  0.925000    576.000000
 -0.425000 -0.325000  0.875000    576.000000
 -0.375000 -0.275000  0.825000    576.000000
 -0.325000 -0.225000  0.775000    576.000000
 -0.275000 -0.175000  0.725000    576.000000
  0.225000  0.425000  0.225000    288.000000
  0.275000  0.475000  0.175000    576.000000
  0.325000  0.525000  0.125000    576.000000
  0.375000  0.575000  0.075000    576.000000
 -0.575000 -0.375000  1.025000    576.000000
 -0.525000 -0.325000  0.975000    576.000000
 -0.475000 -0.275000  0.925000    576.000000
 -0.425000 -0.225000  0.875000    576.000000
 -0.375000 -0.175000  0.825000    576.000000
 -0.325000 -0.125000  0.775000    576.000000
  0.225000  0.525000  0.225000    288.000000
  0.275000  0.575000  0.175000    576.000000
  0.325000  0.625000  0.125000    576.000000
 -0.625000 -0.325000  1.075000    576.000000
 -0.575000 -0.275000  1.025000    576.000000
 -0.525000 -0.225000  0.975000    576.000000
 -0.475000 -0.175000  0.925000    576.000000
 -0.425000 -0.125000  0.875000    576.000000
 -0.375000 -0.075000  0.825000    576.000000
  0.225000  0.625000  0.225000    288.000000
  0.275000  0.675000  0.175000    576.000000
 -0.675000 -0.275000  1.125000    576.000000
 -0.625000 -0.225000  1.075000    576.000000
 -0.575000 -0.175000  1.025000    576.000000
 -0.525000 -0.125000  0.975000    576.000000
 -0.475000 -0.075000  0.925000    576.000000
 -0.425000 -0.025000  0.875000    576.000000
  0.225000  0.725000  0.225000    288.000000
 -0.725000 -0.225000  1.175000    576.000000
 -0.675000 -0.175000  1.125000    576.000000
 -0.625000 -0.125000  1.075000    576.000000
 -0.575000 -0.075000  1.025000    576.000000
 -0.525000 -0.025000  0.975000    576.000000
 -0.475000  0.025000  0.925000    576.000000
  0.225000 -1.175000  0.225000    288.000000
  0.275000 -1.125000  0.175000    576.000000
  0.325000 -1.075000  0.125000    576.000000
  0.375000 -1.025000  0.075000    576.000000
  0.425000 -0.975000  0.025000    576.000000
  0.225000 -1.075000  0.225000    288.000000
  0.275000 -1.025000  0.175000    576.000000
  0.325000 -0.975000  0.125000    576.000000
  0.375000 -0.925000  0.075000    576.000000
  0.225000 -0.975000  0.225000    288.000000
  0.275000 -0.925000  0.175000    576.000000
  0.325000 -0.875000  0.125000    576.000000
  0.225000 -0.875000  0.225000    288.000000
  0.275000 -0.825000  0.175000    576.000000
  0.225000 -0.775000  0.225000    288.000000
  0.275000  0.275000  0.275000     96.000000
  0.325000  0.325000  0.225000    288.000000
  0.375000  0.375000  0.175000    288.000000
  0.425000  0.425000  0.125000    288.000000
  0.475000  0.475000  0.075000    288.000000
 -0.475000 -0.475000  1.025000    288.000000
 -0.425000 -0.425000  0.975000    288.000000
 -0.375000 -0.375000  0.925000    288.000000
 -0.325000 -0.325000  0.875000    288.000000
 -0.275000 -0.275000  0.825000    288.000000
  0.275000  0.375000  0.275000    288.000000
  0.325000  0.425000  0.225000    576.000000
  0.375000  0.475000  0.175000    576.000000
  0.425000  0.525000  0.125000    576.000000
 -0.525000 -0.425000  1.075000    576.000000
 -0.475000 -0.375000  1.025000    576.000000
 -0.425000 -0.325000  0.975000    576.000000
 -0.375000 -0.275000  0.925000    576.000000
 -0.325000 -0.225000  0.875000    576.000000
  0.275000  0.475000  0.275000    288.000000
  0.325000  0.525000  0.225000    576.000000
  0.375000  0.575000  0.175000    576.000000
 -0.575000 -0.375000  1.125000    576.000000
 -0.525000 -0.325000  1.075000    576.000000
 -0.475000 -0.275000  1.025000    576.000000
 -0.425000 -0.225000  0.975000    576.000000
 -0.375000 -0.175000  0.925000    576.000000
  0.275000  0.575000  0.275000    288.000000
  0.325000  0.625000  0.225000    576.000000
 -0.625000 -0.325000  1.175000    576.000000
 -0.575000 -0.275000  1.125000    576.000000
 -0.525000 -0.225000  1.075000    576.000000
 -0.475000 -0.175000  1.025000    576.000000
 -0.425000 -0.125000  0.975000    576.000000
  0.275000  0.675000  0.275000    288.000000
 -0.675000 -0.275000  1.225000    576.000000
 -0.625000 -0.225000  1.175000    576.000000
 -0.575000 -0.175000  1.125000    576.000000
 -0.525000 -0.125000  1.075000    576.000000
 -0.475000 -0.075000  1.025000    576.000000
  0.275000 -1.225000  0.275000    288.000000
  0.325000 -1.175000  0.225000    576.000000
  0.375000 -1.125000  0.175000    576.000000
  0.425000 -1.075000  0.125000    576.000000
  0.275000 -1.125000  0.275000    288.000000
  0.325000 -1.075000  0.225000    576.000000
  0.375000 -1.025000  0.175000    576.000000
  0.275000 -1.025000  0.275000    288.000000
  0.325000 -0.975000  0.225000    576.000000
  0.275000 -0.925000  0.275000    288.000000
  0.325000  0.325000  0.325000     96.000000
  0.375000  0.375000  0.275000    288.000000
  0.425000  0.425000  0.225000    288.000000
  0.475000  0.475000  0.175000    288.000000
 -0.475000 -0.475000  1.125000    288.000000
 -0.425000 -0.425000  1.075000    288.000000
 -0.375000 -0.375000  1.025000    288.000000
 -0.325000 -0.325000  0.975000    288.000000
  0.325000  0.425000  0.325000    288.000000
  0.375000  0.475000  0.275000    576.000000
  0.425000  0.525000  0.225000    576.000000
 -0.525000 -0.425000  1.175000    576.000000
 -0.475000 -0.375000  1.125000    576.000000
 -0.425000 -0.325000  1.075000    576.000000
 -0.375000 -0.275000  1.025000    576.000000
  0.325000  0.525000  0.325000    288.000000
  0.375000  0.575000  0.275000    576.000000
 -0.575000 -0.375000  1.225000    576.000000
 -0.525000 -0.325000  1.175000    576.000000
 -0.475000 -0.275000  1.125000    576.000000
 -0.425000 -0.225000  1.075000    576.000000
  0.325000  0.625000  0.325000    288.000000
 -0.625000 -0.325000  1.275000    576.000000
 -0.575000 -0.275000  1.225000    576.000000
 -0.525000 -0.225000  1.175000    576.000000
 -0.475000 -0.175000  1.125000    576.000000
  0.325000 -1.275000  0.325000    288.000000
  0.375000 -1.225000  0.275000    576.000000
  0.425000 -1.175000  0.225000    576.000000
  0.325000 -1.175000  0.325000    288.000000
  0.375000 -1.125000  0.275000    576.000000
  0.325000 -1.075000  0.325000    288.000000
  0.375000  0.375000  0.375000     96.000000
  0.425000  0.425000  0.325000    288.000000
  0.475000  0.475000  0.275000    288.000000
 -0.475000 -0.475000  1.225000    288.000000
 -0.425000 -0.425000  1.175000    288.000000
 -0.375000 -0.375000  1.125000    288.000000
  0.375000  0.475000  0.375000    288.000000
  0.425000  0.525000  0.325000    576.000000
 -0.525000 -0.425000  1.275000    576.000000
 -0.475000 -0.375000  1.225000    576.000000
 -0.425000 -0.325000  1.175000    576.000000
  0.375000  0.575000  0.375000    288.000000
 -0.575000 -0.375000  1.325000    576.000000
[...]
  band No.  band energies     occupation 
      1       3.9685      2.00000
      2       5.7315      2.00000
      3       7.1095     -0.06077
      4      12.5750      0.00000
      5      16.1096      0.00000

 k-point   726 :       0.4250    0.4250    0.3250
  band No.  band energies     occupation 
      1       0.4937      2.00000
      2       5.7253      2.00000
      3      15.0694      0.00000
      4      15.3809      0.00000
      5      16.7776      0.00000

 k-point   727 :       0.4750    0.4250    0.3250
  band No.  band energies     occupation 
      1       0.9832      2.00000
      2       5.4060      2.00000
      3      13.9063      0.00000
      4      14.3890      0.00000
      5      17.3536      0.00000

 k-point   728 :      -0.4750    0.4250    0.3250
  band No.  band energies     occupation 
      1       1.5929      2.00000
      2       5.2030      2.00000
      3      12.3148      0.00000
      4      13.4545      0.00000
      5      18.5081      0.00000

 k-point   729 :      -0.4250    0.4250    0.3250
  band No.  band energies     occupation 
      1       2.3213      2.00000
      2       5.1153      2.00000
      3      10.7440     -0.00000
      4      12.6238      0.00000
      5      18.8710      0.00000

 k-point   730 :      -0.3750    0.4250    0.3250
  band No.  band energies     occupation 
      1       3.1663      2.00000
      2       5.1380      2.00000
      3       9.2590     -0.00000
      4      11.9013     -0.00000
      5      18.2395      0.00000

 k-point   731 :      -0.3250    0.4250    0.3250
  band No.  band energies     occupation 
      1       4.1249      2.00000
      2       5.2553      2.00000
      3       7.8951     -0.00000
      4      11.2927     -0.00000
      5      17.6468      0.00000

 k-point   732 :       0.4750    0.4750    0.3250
  band No.  band energies     occupation 
      1       1.4303      2.00000
      2       5.0487      2.00000
      3      13.3192      0.00000
      4      14.4496      0.00000
      5      16.2156      0.00000

 k-point   733 :      -0.4750    0.4750    0.3250
  band No.  band energies     occupation 
      1       1.9974      2.00000
      2       4.8085      2.00000
      3      12.3414      0.00000
      4      13.3583      0.00000
      5      16.8600      0.00000

 k-point   734 :      -0.4250    0.4750    0.3250
  band No.  band energies     occupation 
      1       2.6829      2.00000
      2       4.6853      2.00000
      3      11.4651     -0.00000
      4      11.8244     -0.00000
      5      18.1208      0.00000

 k-point   735 :      -0.3750    0.4750    0.3250
  band No.  band energies     occupation 
      1       3.4838      2.00000
      2       4.6774      2.00000
      3      10.3206     -0.00000
      4      10.7003     -0.00000
      5      19.4122      0.00000

 k-point   736 :      -0.3250    0.4750    0.3250
  band No.  band energies     occupation 
      1       4.3971      2.00000
      2       4.7806      2.00000
      3       8.9074     -0.00000
      4      10.0506     -0.00000
      5      19.3044      0.00000

 k-point   737 :      -0.4750   -0.4750    0.3250
  band No.  band energies     occupation 
      1       2.5211      2.00000
      2       4.5304      2.00000
      3      11.3165     -0.00000
      4      13.9746      0.00000
      5      15.7538      0.00000

 k-point   738 :      -0.4250   -0.4750    0.3250
  band No.  band energies     occupation 
      1       3.1622      2.00000
      2       4.3696      2.00000
      3      10.3982     -0.00000
      4      12.9485      0.00000
      5      16.4735      0.00000

 k-point   739 :      -0.3750   -0.4750    0.3250
  band No.  band energies     occupation 
      1       3.9167      2.00000
      2       4.3265      2.00000
      3       9.5916     -0.00000
      4      11.4822     -0.00000
      5      17.8203      0.00000

 k-point   740 :      -0.4250   -0.4250    0.3250
  band No.  band energies     occupation 
      1       3.7564      2.00000
      2       4.1716      2.00000
      3       9.4382     -0.00000
      4      13.6456      0.00000
      5      15.4234      0.00000

 k-point   741 :      -0.3750   -0.4250    0.3250
  band No.  band energies     occupation 
      1       4.0880      2.00000
      2       4.4622      2.00000
      3       8.5966     -0.00000
      4      12.6869      0.00000
      5      16.2194      0.00000

 k-point   742 :      -0.3750   -0.3750    0.3250
  band No.  band energies     occupation 
      1       3.9694      2.00000
      2       5.0975      2.00000
      3       7.7375     -0.00000
      4      13.4623      0.00000
      5      15.2351      0.00000

 k-point   743 :       0.3750    0.3750    0.3750
  band No.  band energies     occupation 
      1      -0.0386      2.00000
      2       6.0049      2.00000
      3      16.7371      0.00000
      4      16.7371      0.00000
      5      18.7498      0.00000

 k-point   744 :       0.4250    0.3750    0.3750
  band No.  band energies     occupation 
      1       0.3301      2.00000
      2       5.5683      2.00000
      3      15.4516      0.00000
      4      17.2341      0.00000
      5      18.1933      0.00000

 k-point   745 :       0.4750    0.3750    0.3750
  band No.  band energies     occupation 
      1       0.8203      2.00000
      2       5.2478      2.00000
      3      13.8265      0.00000
      4      16.4191      0.00000
      5      18.2344      0.00000

 k-point   746 :      -0.4750    0.3750    0.3750
  band No.  band energies     occupation 
      1       1.4310      2.00000
      2       5.0446      2.00000
      3      12.1790     -0.00000
      4      15.5331      0.00000
      5      17.4089      0.00000

 k-point   747 :      -0.4250    0.3750    0.3750
  band No.  band energies     occupation 
      1       2.1606      2.00000
      2       4.9566      2.00000
      3      10.5949     -0.00000
      4      14.7374      0.00000
      5      16.6025      0.00000

 k-point   748 :      -0.3750    0.3750    0.3750
  band No.  band energies     occupation 
      1       3.0079      2.00000
      2       4.9795      2.00000
      3       9.1051     -0.00000
      4      14.0462      0.00000
      5      15.8710      0.00000

 k-point   749 :       0.4250    0.4250    0.3750
  band No.  band energies     occupation 
      1       0.6570      2.00000
      2       5.0919      2.00000
      3      15.9347      0.00000
      4      16.6896      0.00000
      5      17.4734      0.00000

 k-point   750 :       0.4750    0.4250    0.3750
  band No.  band energies     occupation 
      1       1.1054      2.00000
      2       4.7322      2.00000
      3      14.7438      0.00000
      4      15.8500      0.00000
      5      17.9980      0.00000

 k-point   751 :      -0.4750    0.4250    0.3750
  band No.  band energies     occupation 
      1       1.6743      2.00000
      2       4.4906      2.00000
      3      13.1380      0.00000
      4      14.9183      0.00000
      5      18.3385      0.00000

 k-point   752 :      -0.4250    0.4250    0.3750
  band No.  band energies     occupation 
      1       2.3622      2.00000
      2       4.3666      2.00000
      3      11.5397     -0.00000
      4      14.0698      0.00000
      5      17.5969      0.00000

 k-point   753 :      -0.3750    0.4250    0.3750
  band No.  band energies     occupation 
      1       3.1676      2.00000
      2       4.3583      2.00000
      3      10.0185     -0.00000
      4      13.3243      0.00000
      5      16.8679      0.00000

 k-point   754 :       0.4750    0.4750    0.3750
  band No.  band energies     occupation 
      1       1.5118      2.00000
      2       4.3336      2.00000
      3      14.8345      0.00000
      4      15.2498      0.00000
      5      16.9657      0.00000

 k-point   755 :      -0.4750    0.4750    0.3750
  band No.  band energies     occupation 
      1       2.0383      2.00000
      2       4.0527      2.00000
      3      13.8503      0.00000
      4      14.1432      0.00000
      5      17.5829      0.00000

 k-point   756 :      -0.4250    0.4750    0.3750
  band No.  band energies     occupation 
      1       2.6836      2.00000
      2       3.8906      2.00000
      3      12.5793      0.00000
      4      12.9625      0.00000
      5      18.6892      0.00000

 k-point   757 :      -0.3750    0.4750    0.3750
  band No.  band energies     occupation 
      1       3.4452      2.00000
      2       3.8479      2.00000
      3      11.0443     -0.00000
      4      12.1658     -0.00000
      5      18.4539      0.00000

 k-point   758 :      -0.4750   -0.4750    0.3750
  band No.  band energies     occupation 
      1       2.5220      2.00000
      2       3.7332      2.00000
      3      12.8254      0.00000
      4      14.7040      0.00000
      5      16.5000      0.00000

 k-point   759 :      -0.4250   -0.4750    0.3750
  band No.  band energies     occupation 
      1       3.1225      2.00000
      2       3.5340      2.00000
      3      11.8819     -0.00000
      4      13.6581      0.00000
      5      17.1739      0.00000

 k-point   760 :      -0.4250   -0.4250    0.3750
  band No.  band energies     occupation 
      1       3.2865      2.00000
      2       3.6884      2.00000
      3      10.8959     -0.00000
      4      14.3025      0.00000
      5      16.1219      0.00000

 k-point   761 :       0.4250    0.4250    0.4250
  band No.  band energies     occupation 
      1       0.9422      2.00000
      2       4.5732      2.00000
      3      16.8406      0.00000
      4      16.8406      0.00000
      5      18.2168      0.00000

 k-point   762 :       0.4750    0.4250    0.4250
  band No.  band energies     occupation 
      1       1.3492      2.00000
      2       4.1737      2.00000
      3      15.6312      0.00000
      4      16.8329      0.00000
      5      18.2329      0.00000

 k-point   763 :      -0.4750    0.4250    0.4250
  band No.  band energies     occupation 
      1       1.8767      2.00000
      2       3.8931      2.00000
      3      14.0521      0.00000
      4      15.9277      0.00000
      5      17.6985      0.00000

 k-point   764 :      -0.4250    0.4250    0.4250
  band No.  band energies     occupation 
      1       2.5232      2.00000
      2       3.7310      2.00000
      3      12.4439      0.00000
      4      15.0653      0.00000
      5      16.8979      0.00000

 k-point   765 :       0.4750    0.4750    0.4250
  band No.  band energies     occupation 
      1       1.7143      2.00000
      2       3.7340      2.00000
      3      16.1428      0.00000
      4      16.2865      0.00000
      5      17.5917      0.00000

 k-point   766 :      -0.4750    0.4750    0.4250
  band No.  band energies     occupation 
      1       2.1995      2.00000
      2       3.4133      2.00000
      3      14.9953      0.00000
      4      15.3859      0.00000
      5      18.1904      0.00000

 k-point   767 :      -0.4250    0.4750    0.4250
  band No.  band energies     occupation 
      1       2.8013      2.00000
      2       3.2146      2.00000
      3      13.4398      0.00000
      4      14.4734      0.00000
      5      17.9161      0.00000

 k-point   768 :      -0.4750   -0.4750    0.4250
  band No.  band energies     occupation 
      1       2.6391      2.00000
      2       3.0560      2.00000
      3      14.3892      0.00000
      4      15.5365      0.00000
      5      17.2743      0.00000

 k-point   769 :       0.4750    0.4750    0.4750
  band No.  band energies     occupation 
      1       2.0375      2.00000
      2       3.2537      2.00000
      3      16.9723      0.00000
      4      16.9723      0.00000
      5      17.8734      0.00000

 k-point   770 :      -0.4750    0.4750    0.4750
  band No.  band energies     occupation 
      1       2.4770      2.00000
      2       2.8964      2.00000
      3      15.9147      0.00000
      4      16.4483      0.00000
      5      17.8948      0.00000


--------------------------------------------------------------------------------------------------------


 soft charge-density along one line, spin component           1
         0         1         2         3         4         5         6         7         8         9
 total charge-density along one line
 
 pseudopotential strength for first ion, spin component:           1
  8.583   0.000  -0.004   0.000   0.000   0.000   0.000   0.000   0.000   0.000   0.000   0.000   0.000   0.000   0.000   0.000
 -0.004   0.000   0.000   0.000   0.000   0.000   0.000   0.000   0.000   0.000  -0.000   0.000  -0.000   0.000  -0.000   0.000
  0.000   0.000   0.000   0.000   2.011   0.000   0.000   0.000   0.000   0.000  -0.023   0.000  -0.000   0.000  -0.000   0.000
  0.000   0.000   0.000   0.000   0.000   0.000   2.011   0.000   0.000   0.000  -0.000   0.000  -0.023   0.000  -0.000   0.000
  0.000   0.000   0.000   0.000   0.000   0.000   0.000   0.000   2.011   0.000  -0.000   0.000  -0.000   0.000  -0.023   0.000
  0.000   0.000  -0.000   0.000  -0.023   0.000  -0.000   0.000  -0.000   0.000  -0.012   0.000  -0.000   0.000  -0.000   0.000
  0.000   0.000  -0.000   0.000  -0.000   0.000  -0.023   0.000  -0.000   0.000  -0.000   0.000  -0.012   0.000  -0.000   0.000
  0.000   0.000  -0.000   0.000  -0.000   0.000  -0.000   0.000  -0.023   0.000  -0.000   0.000  -0.000   0.000  -0.012   0.000
 total augmentation occupancy for first ion, spin component:           1
  1.382  -0.535   0.000   0.000   0.000   0.000   0.000   0.000
 -0.535   0.483   0.000   0.000   0.000   0.000   0.000   0.000
  0.000   0.000   0.641   0.000   0.000  -0.178  -0.000  -0.000
  0.000   0.000  -0.000   0.641   0.000  -0.000  -0.178   0.000
  0.000   0.000   0.000   0.000   0.641   0.000  -0.000  -0.178
  0.000   0.000  -0.178  -0.000  -0.000   0.054  -0.000  -0.000
  0.000   0.000  -0.000  -0.178  -0.000  -0.000   0.054   0.000
  0.000   0.000  -0.000   0.000  -0.178  -0.000   0.000   0.054


------------------------ aborting loop because EDIFF is reached ----------------------------------------


    CHARGE:  cpu time    0.0401: real time    0.0831
    FORLOC:  cpu time    0.0005: real time    0.0005
    FORNL :  cpu time    0.0456: real time    0.0780
    STRESS:  cpu time    0.2991: real time    0.6101
    FORCOR:  cpu time    0.0093: real time    0.0223
    FORHAR:  cpu time    0.0023: real time    0.0023
    MIXING:  cpu time    0.0005: real time    0.0005
    OFIELD:  cpu time    0.0000: real time    0.0000

  FORCE on cell =-STRESS in cart. coord.  units (eV):
  Direction    XX          YY          ZZ          XY          YZ          ZX
  --------------------------------------------------------------------------------------
  Alpha Z    -0.13748    -0.13748    -0.13748
  Ewald     -23.57894   -23.57894   -23.57894    -0.00000     0.00000     0.00000
  Hartree     0.03523     0.03523     0.03523    -0.00000    -0.00000    -0.00000
  E(xc)      -8.37211    -8.37211    -8.37211     0.00003     0.00003     0.00003
  Local      -0.32669    -0.32669    -0.32669    -0.00000    -0.00000    -0.00000
  n-local    18.63033    18.68594    19.01685    -0.21501     0.00045     0.20914
  augment    -1.10867    -1.10867    -1.10867     0.00000     0.00000     0.00000
  Kinetic    10.20586    19.78711    11.93096     3.98163    -0.00320    -3.84086
  Fock        0.00000     0.00000     0.00000     0.00000     0.00000     0.00000
  -------------------------------------------------------------------------------------
  Total      -0.73630    -0.73630    -0.73630     0.00000     0.00000     0.00000
  in kB     -63.69131   -63.69131   -63.69131     0.00000     0.00000     0.00000
  external pressure =      -63.69 kB  Pullay stress =        0.00 kB


 VOLUME and BASIS-vectors are now :
 -----------------------------------------------------------------------------
  energy-cutoff  :      240.44
  volume of cell :       18.52
      direct lattice vectors                 reciprocal lattice vectors
     2.100000000  2.100000000  0.000000000     0.238095238  0.238095238 -0.238095238
     0.000000000  2.100000000  2.100000000    -0.238095238  0.238095238  0.238095238
     2.100000000  0.000000000  2.100000000     0.238095238 -0.238095238  0.238095238

  length of vectors
     2.969848481  2.969848481  2.969848481     0.412393049  0.412393049  0.412393049


 FORCES acting on ions
    electron-ion (+dipol)            ewald-force                    non-local-force                 convergence-correction
 -----------------------------------------------------------------------------------------------
   0.111E-14 0.539E-15 -.483E-15   -.189E-15 0.154E-16 -.460E-16   -.905E-25 0.000E+00 -.388E-25   0.147E-17 -.898E-17 -.332E-17
 -----------------------------------------------------------------------------------------------
   0.111E-14 0.539E-15 -.483E-15   -.189E-15 0.154E-16 -.460E-16   -.905E-25 0.000E+00 -.388E-25   0.147E-17 -.898E-17 -.332E-17
 
 
 POSITION                                       TOTAL-FORCE (eV/Angst)
 -----------------------------------------------------------------------------------
      0.00000      0.00000      0.00000        -0.000000     -0.000000      0.000000
 -----------------------------------------------------------------------------------
    total drift:                                0.000000      0.000000     -0.000000


--------------------------------------------------------------------------------------------------------



  FREE ENERGIE OF THE ION-ELECTRON SYSTEM (eV)
  ---------------------------------------------------
  free  energy   TOTEN  =        -3.64780295 eV

  energy  without entropy=       -3.64804555  energy(sigma->0) =       -3.64788381
 


--------------------------------------------------------------------------------------------------------


    POTLOK:  cpu time    0.0104: real time    0.0105


--------------------------------------------------------------------------------------------------------


     LOOP+:  cpu time    5.8229: real time   12.2106
    4ORBIT:  cpu time    0.0000: real time    0.0000

volume of typ            1:    62.3 %
 
total charge     
 
# of ion       s       p       d       tot
------------------------------------------
    1        0.815   0.731   0.133   1.678
 
orbital moment (x)
 
# of ion     s             p             d             tot
-----------------------------------------------------------------
    1     0.000000E+00 -0.547490E-09 -0.318266E-09 -0.865757E-09
 
orbital moment (y)
 
# of ion     s             p             d             tot
-----------------------------------------------------------------
    1     0.000000E+00 -0.101556E-09  0.350351E-09  0.248795E-09
 
orbital moment (z)
 
# of ion     s             p             d             tot
-----------------------------------------------------------------
    1     0.000000E+00 -0.219956E-09 -0.369535E-09 -0.589491E-09
 

 total amount of memory used by VASP MPI-rank0    51330. kBytes
=======================================================================

   base      :      30000. kBytes
   nonl-proj :       8331. kBytes
   fftplans  :        932. kBytes
   grid      :       1161. kBytes
   one-center:          3. kBytes
   wavefun   :      10903. kBytes
 
  
  
 General timing and accounting informations for this job:
 ========================================================
  
                  Total CPU time used (sec):       17.792
                            User time (sec):       17.069
                          System time (sec):        0.723
                         Elapsed time (sec):       35.201
  
                   Maximum memory used (kb):       73972.
                   Average memory used (kb):           0.
  
                          Minor page faults:        10462
                          Major page faults:            0
                 Voluntary context switches:          208
