a= 3.90
 running on    1 total cores
 distrk:  each k-point on    1 cores,    1 groups
 distr:  one band on    1 cores,    1 groups
 using from now: INCAR     
 vasp.5.4.4.18Apr17-6-g9f103f2a35 (build May 20 2018 16:52:39) complex          
  
 POSCAR found type information on POSCAR  Al
 POSCAR found :  1 types and       1 ions
 scaLAPACK will be used
 LDA part: xc-table for Ceperly-Alder, standard interpolation
 POSCAR, INCAR and KPOINTS ok, starting setup
 FFT: planning ...
 WAVECAR not read
 entering main loop
       N       E                     dE             d eps       ncg     rms          rms(c)
DAV:   1    -0.288409994273E+01   -0.28841E+01   -0.60329E+02  9750   0.161E+02
DAV:   2    -0.364836224113E+01   -0.76426E+00   -0.69610E+00 10730   0.187E+01
DAV:   3    -0.365157488353E+01   -0.32126E-02   -0.32013E-02  9585   0.118E+00
DAV:   4    -0.365157803029E+01   -0.31468E-05   -0.31456E-05 10250   0.363E-02
DAV:   5    -0.365157803548E+01   -0.51933E-08   -0.61581E-08  9890   0.128E-03    0.959E-01
DAV:   6    -0.363915163520E+01    0.12426E-01   -0.11851E-03  8505   0.250E-01    0.600E-01
DAV:   7    -0.363188965862E+01    0.72620E-02   -0.32115E-03  8155   0.471E-01    0.272E-02
DAV:   8    -0.363189371410E+01   -0.40555E-05   -0.22604E-05 11095   0.404E-02    0.106E-02
DAV:   9    -0.363189413087E+01   -0.41678E-06   -0.25664E-07  6385   0.438E-03
   1 F= -.36318941E+01 E0= -.36319638E+01  d E =0.208938E-03
a= 3.92
 running on    1 total cores
 distrk:  each k-point on    1 cores,    1 groups
 distr:  one band on    1 cores,    1 groups
 using from now: INCAR     
 vasp.5.4.4.18Apr17-6-g9f103f2a35 (build May 20 2018 16:52:39) complex          
  
 POSCAR found type information on POSCAR  Al
 POSCAR found :  1 types and       1 ions
 scaLAPACK will be used
 LDA part: xc-table for Ceperly-Alder, standard interpolation
 POSCAR, INCAR and KPOINTS ok, starting setup
 FFT: planning ...
 WAVECAR not read
 entering main loop
       N       E                     dE             d eps       ncg     rms          rms(c)
DAV:   1    -0.297411037014E+01   -0.29741E+01   -0.60202E+02  9775   0.160E+02
DAV:   2    -0.366278367526E+01   -0.68867E+00   -0.62972E+00 10630   0.181E+01
DAV:   3    -0.366597615313E+01   -0.31925E-02   -0.31887E-02  9540   0.115E+00
DAV:   4    -0.366597885947E+01   -0.27063E-05   -0.27068E-05 10445   0.354E-02
DAV:   5    -0.366597886442E+01   -0.49415E-08   -0.48140E-08  9645   0.117E-03    0.951E-01
DAV:   6    -0.365366040390E+01    0.12318E-01   -0.12336E-03  8610   0.250E-01    0.595E-01
DAV:   7    -0.364643230025E+01    0.72281E-02   -0.33356E-03  8235   0.474E-01    0.272E-02
DAV:   8    -0.364643735060E+01   -0.50503E-05   -0.23179E-05 11095   0.411E-02    0.105E-02
DAV:   9    -0.364643794027E+01   -0.58967E-06   -0.25398E-07  6405   0.423E-03
   1 F= -.36464379E+01 E0= -.36465359E+01  d E =0.293778E-03
a= 3.94
 running on    1 total cores
 distrk:  each k-point on    1 cores,    1 groups
 distr:  one band on    1 cores,    1 groups
 using from now: INCAR     
 vasp.5.4.4.18Apr17-6-g9f103f2a35 (build May 20 2018 16:52:39) complex          
  
 POSCAR found type information on POSCAR  Al
 POSCAR found :  1 types and       1 ions
 scaLAPACK will be used
 LDA part: xc-table for Ceperly-Alder, standard interpolation
 POSCAR, INCAR and KPOINTS ok, starting setup
 FFT: planning ...
 WAVECAR not read
 entering main loop
       N       E                     dE             d eps       ncg     rms          rms(c)
DAV:   1    -0.295076805760E+01   -0.29508E+01   -0.60096E+02  9765   0.160E+02
DAV:   2    -0.367506031592E+01   -0.72429E+00   -0.68085E+00 10470   0.185E+01
DAV:   3    -0.367803906014E+01   -0.29787E-02   -0.29694E-02  9530   0.117E+00
DAV:   4    -0.367804200834E+01   -0.29482E-05   -0.29466E-05 10460   0.364E-02
DAV:   5    -0.367804201450E+01   -0.61551E-08   -0.62972E-08  9810   0.126E-03    0.944E-01
DAV:   6    -0.366585226762E+01    0.12190E-01   -0.12837E-03  8655   0.252E-01    0.590E-01
DAV:   7    -0.365861595014E+01    0.72363E-02   -0.34650E-03  8280   0.477E-01    0.271E-02
DAV:   8    -0.365862189631E+01   -0.59462E-05   -0.23513E-05 10935   0.418E-02    0.101E-02
DAV:   9    -0.365862264837E+01   -0.75206E-06   -0.25909E-07  6465   0.414E-03
   1 F= -.36586226E+01 E0= -.36587491E+01  d E =0.379253E-03
a= 3.96
 running on    1 total cores
 distrk:  each k-point on    1 cores,    1 groups
 distr:  one band on    1 cores,    1 groups
 using from now: INCAR     
 vasp.5.4.4.18Apr17-6-g9f103f2a35 (build May 20 2018 16:52:39) complex          
  
 POSCAR found type information on POSCAR  Al
 POSCAR found :  1 types and       1 ions
 scaLAPACK will be used
 LDA part: xc-table for Ceperly-Alder, standard interpolation
 POSCAR, INCAR and KPOINTS ok, starting setup
 FFT: planning ...
 WAVECAR not read
 entering main loop
       N       E                     dE             d eps       ncg     rms          rms(c)
DAV:   1    -0.291352238809E+01   -0.29135E+01   -0.59116E+02  9520   0.160E+02
DAV:   2    -0.368444342866E+01   -0.77092E+00   -0.70082E+00 10620   0.185E+01
DAV:   3    -0.368789257929E+01   -0.34492E-02   -0.34492E-02  9570   0.124E+00
DAV:   4    -0.368789578691E+01   -0.32076E-05   -0.32085E-05 10515   0.380E-02
DAV:   5    -0.368789579294E+01   -0.60282E-08   -0.58467E-08  9825   0.123E-03    0.937E-01
DAV:   6    -0.367583366874E+01    0.12062E-01   -0.13354E-03  8745   0.254E-01    0.585E-01
DAV:   7    -0.366856132204E+01    0.72723E-02   -0.36038E-03  8305   0.478E-01    0.271E-02
DAV:   8    -0.366856805922E+01   -0.67372E-05   -0.23846E-05 10815   0.426E-02    0.972E-03
DAV:   9    -0.366856896979E+01   -0.91057E-06   -0.26340E-07  6510   0.408E-03
   1 F= -.36685690E+01 E0= -.36687205E+01  d E =0.454664E-03
a= 3.98
 running on    1 total cores
 distrk:  each k-point on    1 cores,    1 groups
 distr:  one band on    1 cores,    1 groups
 using from now: INCAR     
 vasp.5.4.4.18Apr17-6-g9f103f2a35 (build May 20 2018 16:52:39) complex          
  
 POSCAR found type information on POSCAR  Al
 POSCAR found :  1 types and       1 ions
 scaLAPACK will be used
 LDA part: xc-table for Ceperly-Alder, standard interpolation
 POSCAR, INCAR and KPOINTS ok, starting setup
 FFT: planning ...
 WAVECAR not read
 entering main loop
       N       E                     dE             d eps       ncg     rms          rms(c)
DAV:   1    -0.296365892478E+01   -0.29637E+01   -0.60264E+02  9600   0.161E+02
DAV:   2    -0.369224304432E+01   -0.72858E+00   -0.65227E+00 10720   0.180E+01
DAV:   3    -0.369559814343E+01   -0.33551E-02   -0.33531E-02  9520   0.118E+00
DAV:   4    -0.369560208371E+01   -0.39403E-05   -0.39404E-05 10565   0.386E-02
DAV:   5    -0.369560209014E+01   -0.64281E-08   -0.66061E-08  9820   0.120E-03    0.930E-01
DAV:   6    -0.368366734733E+01    0.11935E-01   -0.13879E-03  8765   0.256E-01    0.581E-01
DAV:   7    -0.367633757489E+01    0.73298E-02   -0.37535E-03  8390   0.480E-01    0.270E-02
DAV:   8    -0.367634496629E+01   -0.73914E-05   -0.24076E-05 10715   0.433E-02    0.920E-03
DAV:   9    -0.367634602713E+01   -0.10608E-05   -0.26139E-07  6555   0.400E-03    0.102E-03
DAV:  10    -0.367634591526E+01    0.11187E-06   -0.98518E-09  4730   0.880E-04
   1 F= -.36763459E+01 E0= -.36765184E+01  d E =0.517497E-03
a= 4.00
 running on    1 total cores
 distrk:  each k-point on    1 cores,    1 groups
 distr:  one band on    1 cores,    1 groups
 using from now: INCAR     
 vasp.5.4.4.18Apr17-6-g9f103f2a35 (build May 20 2018 16:52:39) complex          
  
 POSCAR found type information on POSCAR  Al
 POSCAR found :  1 types and       1 ions
 scaLAPACK will be used
 LDA part: xc-table for Ceperly-Alder, standard interpolation
 POSCAR, INCAR and KPOINTS ok, starting setup
 FFT: planning ...
 WAVECAR not read
 entering main loop
       N       E                     dE             d eps       ncg     rms          rms(c)
DAV:   1    -0.299387334408E+01   -0.29939E+01   -0.57098E+02  9645   0.158E+02
DAV:   2    -0.369821457949E+01   -0.70434E+00   -0.66416E+00 10770   0.179E+01
DAV:   3    -0.370126774241E+01   -0.30532E-02   -0.30494E-02  9585   0.117E+00
DAV:   4    -0.370127080609E+01   -0.30637E-05   -0.30636E-05 10625   0.376E-02
DAV:   5    -0.370127081268E+01   -0.65876E-08   -0.64152E-08  9880   0.131E-03    0.923E-01
DAV:   6    -0.368946423328E+01    0.11807E-01   -0.14409E-03  8760   0.258E-01    0.576E-01
DAV:   7    -0.368206351602E+01    0.74007E-02   -0.39155E-03  8415   0.481E-01    0.270E-02
DAV:   8    -0.368207143683E+01   -0.79208E-05   -0.24372E-05 10560   0.441E-02    0.859E-03
DAV:   9    -0.368207263642E+01   -0.11996E-05   -0.25008E-07  6610   0.389E-03    0.100E-03
DAV:  10    -0.368207248338E+01    0.15304E-06   -0.94613E-09  4735   0.871E-04
   1 F= -.36820725E+01 E0= -.36822600E+01  d E =0.562560E-03
a= 4.02
 running on    1 total cores
 distrk:  each k-point on    1 cores,    1 groups
 distr:  one band on    1 cores,    1 groups
 using from now: INCAR     
 vasp.5.4.4.18Apr17-6-g9f103f2a35 (build May 20 2018 16:52:39) complex          
  
 POSCAR found type information on POSCAR  Al
 POSCAR found :  1 types and       1 ions
 scaLAPACK will be used
 LDA part: xc-table for Ceperly-Alder, standard interpolation
 POSCAR, INCAR and KPOINTS ok, starting setup
 FFT: planning ...
 WAVECAR not read
 entering main loop
       N       E                     dE             d eps       ncg     rms          rms(c)
DAV:   1    -0.294195498627E+01   -0.29420E+01   -0.57568E+02  9575   0.159E+02
DAV:   2    -0.370114172911E+01   -0.75919E+00   -0.69569E+00 10550   0.181E+01
DAV:   3    -0.370501200970E+01   -0.38703E-02   -0.38691E-02  9525   0.127E+00
DAV:   4    -0.370501614282E+01   -0.41331E-05   -0.41322E-05 10460   0.420E-02
DAV:   5    -0.370501615040E+01   -0.75832E-08   -0.74272E-08  9680   0.139E-03    0.917E-01
DAV:   6    -0.369333929685E+01    0.11677E-01   -0.14941E-03  8810   0.260E-01    0.572E-01
DAV:   7    -0.368586175441E+01    0.74775E-02   -0.40919E-03  8495   0.482E-01    0.269E-02
DAV:   8    -0.368587004120E+01   -0.82868E-05   -0.24444E-05 10415   0.447E-02    0.794E-03
DAV:   9    -0.368587136095E+01   -0.13197E-05   -0.23209E-07  6645   0.377E-03    0.991E-04
DAV:  10    -0.368587116606E+01    0.19488E-06   -0.90200E-09  4780   0.859E-04
   1 F= -.36858712E+01 E0= -.36860685E+01  d E =0.591981E-03
a= 4.04
 running on    1 total cores
 distrk:  each k-point on    1 cores,    1 groups
 distr:  one band on    1 cores,    1 groups
 using from now: INCAR     
 vasp.5.4.4.18Apr17-6-g9f103f2a35 (build May 20 2018 16:52:39) complex          
  
 POSCAR found type information on POSCAR  Al
 POSCAR found :  1 types and       1 ions
 scaLAPACK will be used
 LDA part: xc-table for Ceperly-Alder, standard interpolation
 POSCAR, INCAR and KPOINTS ok, starting setup
 FFT: planning ...
 WAVECAR not read
 entering main loop
       N       E                     dE             d eps       ncg     rms          rms(c)
DAV:   1    -0.300018283926E+01   -0.30002E+01   -0.57785E+02  9625   0.159E+02
DAV:   2    -0.370336002706E+01   -0.70318E+00   -0.65171E+00 10735   0.175E+01
DAV:   3    -0.370686196405E+01   -0.35019E-02   -0.35007E-02  9425   0.122E+00
DAV:   4    -0.370686552388E+01   -0.35598E-05   -0.35608E-05 10560   0.398E-02
DAV:   5    -0.370686553227E+01   -0.83827E-08   -0.76284E-08  9655   0.133E-03    0.910E-01
DAV:   6    -0.369531883203E+01    0.11547E-01   -0.15469E-03  8755   0.262E-01    0.568E-01
DAV:   7    -0.368776294258E+01    0.75559E-02   -0.42811E-03  8470   0.483E-01    0.269E-02
DAV:   8    -0.368777149615E+01   -0.85536E-05   -0.24928E-05 10315   0.456E-02    0.728E-03
DAV:   9    -0.368777291144E+01   -0.14153E-05   -0.21212E-07  6770   0.368E-03    0.987E-04
DAV:  10    -0.368777267515E+01    0.23629E-06   -0.89248E-09  4670   0.867E-04
   1 F= -.36877727E+01 E0= -.36879733E+01  d E =0.601944E-03
a= 4.06
 running on    1 total cores
 distrk:  each k-point on    1 cores,    1 groups
 distr:  one band on    1 cores,    1 groups
 using from now: INCAR     
 vasp.5.4.4.18Apr17-6-g9f103f2a35 (build May 20 2018 16:52:39) complex          
  
 POSCAR found type information on POSCAR  Al
 POSCAR found :  1 types and       1 ions
 scaLAPACK will be used
 LDA part: xc-table for Ceperly-Alder, standard interpolation
 POSCAR, INCAR and KPOINTS ok, starting setup
 FFT: planning ...
 WAVECAR not read
 entering main loop
       N       E                     dE             d eps       ncg     rms          rms(c)
DAV:   1    -0.302620131965E+01   -0.30262E+01   -0.58060E+02  9530   0.160E+02
DAV:   2    -0.370353684615E+01   -0.67734E+00   -0.63966E+00 10625   0.173E+01
DAV:   3    -0.370697329988E+01   -0.34365E-02   -0.33610E-02  9570   0.119E+00
DAV:   4    -0.370697733719E+01   -0.40373E-05   -0.40381E-05 10565   0.400E-02
DAV:   5    -0.370697734509E+01   -0.79065E-08   -0.79398E-08  9810   0.136E-03    0.903E-01
DAV:   6    -0.369556082411E+01    0.11417E-01   -0.15997E-03  8775   0.264E-01    0.563E-01
DAV:   7    -0.368793188755E+01    0.76289E-02   -0.44830E-03  8575   0.485E-01    0.268E-02
DAV:   8    -0.368794054625E+01   -0.86587E-05   -0.25087E-05 10110   0.462E-02    0.667E-03
DAV:   9    -0.368794203163E+01   -0.14854E-05   -0.19734E-07  6740   0.367E-03    0.985E-04
DAV:  10    -0.368794175556E+01    0.27607E-06   -0.92455E-09  4625   0.898E-04
   1 F= -.36879418E+01 E0= -.36881390E+01  d E =0.591721E-03
a= 4.08
 running on    1 total cores
 distrk:  each k-point on    1 cores,    1 groups
 distr:  one band on    1 cores,    1 groups
 using from now: INCAR     
 vasp.5.4.4.18Apr17-6-g9f103f2a35 (build May 20 2018 16:52:39) complex          
  
 POSCAR found type information on POSCAR  Al
 POSCAR found :  1 types and       1 ions
 scaLAPACK will be used
 LDA part: xc-table for Ceperly-Alder, standard interpolation
 POSCAR, INCAR and KPOINTS ok, starting setup
 FFT: planning ...
 WAVECAR not read
 entering main loop
       N       E                     dE             d eps       ncg     rms          rms(c)
DAV:   1    -0.299063932511E+01   -0.29906E+01   -0.57779E+02  9615   0.158E+02
DAV:   2    -0.370204117036E+01   -0.71140E+00   -0.66293E+00 10605   0.178E+01
DAV:   3    -0.370541142095E+01   -0.33703E-02   -0.33653E-02  9690   0.120E+00
DAV:   4    -0.370541512543E+01   -0.37045E-05   -0.37037E-05 10470   0.394E-02
DAV:   5    -0.370541513250E+01   -0.70642E-08   -0.82374E-08  9855   0.140E-03    0.897E-01
DAV:   6    -0.369412811050E+01    0.11287E-01   -0.16521E-03  8810   0.266E-01    0.559E-01
DAV:   7    -0.368643601442E+01    0.76921E-02   -0.46961E-03  8680   0.486E-01    0.268E-02
DAV:   8    -0.368644466983E+01   -0.86554E-05   -0.25386E-05  9885   0.470E-02    0.615E-03
DAV:   9    -0.368644619337E+01   -0.15235E-05   -0.19574E-07  6985   0.378E-03    0.988E-04
DAV:  10    -0.368644587800E+01    0.31536E-06   -0.97115E-09  4540   0.921E-04
   1 F= -.36864459E+01 E0= -.36866342E+01  d E =0.564828E-03
a= 4.10
 running on    1 total cores
 distrk:  each k-point on    1 cores,    1 groups
 distr:  one band on    1 cores,    1 groups
 using from now: INCAR     
 vasp.5.4.4.18Apr17-6-g9f103f2a35 (build May 20 2018 16:52:39) complex          
  
 POSCAR found type information on POSCAR  Al
 POSCAR found :  1 types and       1 ions
 scaLAPACK will be used
 LDA part: xc-table for Ceperly-Alder, standard interpolation
 POSCAR, INCAR and KPOINTS ok, starting setup
 FFT: planning ...
 WAVECAR not read
 entering main loop
       N       E                     dE             d eps       ncg     rms          rms(c)
DAV:   1    -0.301035541222E+01   -0.30104E+01   -0.57969E+02  9580   0.159E+02
DAV:   2    -0.369886830445E+01   -0.68851E+00   -0.64087E+00 10665   0.173E+01
DAV:   3    -0.370228727011E+01   -0.34190E-02   -0.34121E-02  9725   0.120E+00
DAV:   4    -0.370229150302E+01   -0.42329E-05   -0.42324E-05 10415   0.406E-02
DAV:   5    -0.370229151054E+01   -0.75176E-08   -0.83330E-08  9805   0.146E-03    0.891E-01
DAV:   6    -0.369113245205E+01    0.11159E-01   -0.17046E-03  8900   0.268E-01    0.555E-01
DAV:   7    -0.368339073945E+01    0.77417E-02   -0.49167E-03  8645   0.488E-01    0.268E-02
DAV:   8    -0.368339931546E+01   -0.85760E-05   -0.26100E-05  9720   0.480E-02    0.579E-03
DAV:   9    -0.368340084437E+01   -0.15289E-05   -0.21218E-07  7105   0.402E-03    0.996E-04
DAV:  10    -0.368340049177E+01    0.35259E-06   -0.10292E-08  4575   0.935E-04
   1 F= -.36834005E+01 E0= -.36835741E+01  d E =0.520897E-03
a= 4.12
 running on    1 total cores
 distrk:  each k-point on    1 cores,    1 groups
 distr:  one band on    1 cores,    1 groups
 using from now: INCAR     
 vasp.5.4.4.18Apr17-6-g9f103f2a35 (build May 20 2018 16:52:39) complex          
  
 POSCAR found type information on POSCAR  Al
 POSCAR found :  1 types and       1 ions
 scaLAPACK will be used
 LDA part: xc-table for Ceperly-Alder, standard interpolation
 POSCAR, INCAR and KPOINTS ok, starting setup
 FFT: planning ...
 WAVECAR not read
 entering main loop
       N       E                     dE             d eps       ncg     rms          rms(c)
DAV:   1    -0.294438279452E+01   -0.29444E+01   -0.56881E+02  9515   0.159E+02
DAV:   2    -0.369394094651E+01   -0.74956E+00   -0.68529E+00 10650   0.176E+01
DAV:   3    -0.369768118169E+01   -0.37402E-02   -0.37370E-02  9475   0.125E+00
DAV:   4    -0.369768606460E+01   -0.48829E-05   -0.48833E-05 10620   0.443E-02
DAV:   5    -0.369768607374E+01   -0.91315E-08   -0.88187E-08  9700   0.145E-03    0.884E-01
DAV:   6    -0.368665167183E+01    0.11034E-01   -0.17572E-03  8865   0.271E-01    0.551E-01
DAV:   7    -0.367887570141E+01    0.77760E-02   -0.51433E-03  8710   0.490E-01    0.268E-02
DAV:   8    -0.367888410235E+01   -0.84009E-05   -0.26817E-05  9630   0.490E-02    0.559E-03
DAV:   9    -0.367888560505E+01   -0.15027E-05   -0.24707E-07  7340   0.435E-03    0.100E-03
DAV:  10    -0.367888521877E+01    0.38628E-06   -0.10510E-08  4650   0.928E-04
   1 F= -.36788852E+01 E0= -.36790402E+01  d E =0.465032E-03
a= 4.14
 running on    1 total cores
 distrk:  each k-point on    1 cores,    1 groups
 distr:  one band on    1 cores,    1 groups
 using from now: INCAR     
 vasp.5.4.4.18Apr17-6-g9f103f2a35 (build May 20 2018 16:52:39) complex          
  
 POSCAR found type information on POSCAR  Al
 POSCAR found :  1 types and       1 ions
 scaLAPACK will be used
 LDA part: xc-table for Ceperly-Alder, standard interpolation
 POSCAR, INCAR and KPOINTS ok, starting setup
 FFT: planning ...
 WAVECAR not read
 entering main loop
       N       E                     dE             d eps       ncg     rms          rms(c)
DAV:   1    -0.296008556981E+01   -0.29601E+01   -0.56080E+02  9445   0.158E+02
DAV:   2    -0.368713022290E+01   -0.72704E+00   -0.65959E+00 10670   0.173E+01
DAV:   3    -0.369168039458E+01   -0.45502E-02   -0.45648E-02  9665   0.128E+00
DAV:   4    -0.369168617008E+01   -0.57755E-05   -0.57751E-05 10580   0.448E-02
DAV:   5    -0.369168617784E+01   -0.77535E-08   -0.82775E-08  9755   0.144E-03    0.877E-01
DAV:   6    -0.368077253940E+01    0.10914E-01   -0.18103E-03  8920   0.273E-01    0.546E-01
DAV:   7    -0.367297948082E+01    0.77931E-02   -0.53722E-03  8690   0.492E-01    0.268E-02
DAV:   8    -0.367298762528E+01   -0.81445E-05   -0.27633E-05  9595   0.501E-02    0.556E-03
DAV:   9    -0.367298907137E+01   -0.14461E-05   -0.30043E-07  7600   0.472E-03    0.102E-03
DAV:  10    -0.367298865505E+01    0.41632E-06   -0.10425E-08  4590   0.898E-04
   1 F= -.36729887E+01 E0= -.36731228E+01  d E =0.402464E-03
a= 4.16
 running on    1 total cores
 distrk:  each k-point on    1 cores,    1 groups
 distr:  one band on    1 cores,    1 groups
 using from now: INCAR     
 vasp.5.4.4.18Apr17-6-g9f103f2a35 (build May 20 2018 16:52:39) complex          
  
 POSCAR found type information on POSCAR  Al
 POSCAR found :  1 types and       1 ions
 scaLAPACK will be used
 LDA part: xc-table for Ceperly-Alder, standard interpolation
 POSCAR, INCAR and KPOINTS ok, starting setup
 FFT: planning ...
 WAVECAR not read
 entering main loop
       N       E                     dE             d eps       ncg     rms          rms(c)
DAV:   1    -0.294805736729E+01   -0.29481E+01   -0.55874E+02  9460   0.158E+02
DAV:   2    -0.367995419977E+01   -0.73190E+00   -0.67469E+00 10580   0.172E+01
DAV:   3    -0.368436723471E+01   -0.44130E-02   -0.44125E-02  9705   0.130E+00
DAV:   4    -0.368437434501E+01   -0.71103E-05   -0.71113E-05 10595   0.469E-02
DAV:   5    -0.368437436247E+01   -0.17467E-07   -0.17070E-07  9915   0.164E-03    0.871E-01
DAV:   6    -0.367357740092E+01    0.10797E-01   -0.18641E-03  8750   0.275E-01    0.542E-01
DAV:   7    -0.366578506583E+01    0.77923E-02   -0.55995E-03  8740   0.494E-01    0.268E-02
DAV:   8    -0.366579289641E+01   -0.78306E-05   -0.28581E-05  9405   0.512E-02    0.565E-03
DAV:   9    -0.366579426675E+01   -0.13703E-05   -0.37436E-07  7955   0.511E-03    0.103E-03
DAV:  10    -0.366579382241E+01    0.44434E-06   -0.10317E-08  4550   0.865E-04
   1 F= -.36657938E+01 E0= -.36659075E+01  d E =0.341050E-03
a= 4.18
 running on    1 total cores
 distrk:  each k-point on    1 cores,    1 groups
 distr:  one band on    1 cores,    1 groups
 using from now: INCAR     
 vasp.5.4.4.18Apr17-6-g9f103f2a35 (build May 20 2018 16:52:39) complex          
  
 POSCAR found type information on POSCAR  Al
 POSCAR found :  1 types and       1 ions
 scaLAPACK will be used
 LDA part: xc-table for Ceperly-Alder, standard interpolation
 POSCAR, INCAR and KPOINTS ok, starting setup
 FFT: planning ...
 WAVECAR not read
 entering main loop
       N       E                     dE             d eps       ncg     rms          rms(c)
DAV:   1    -0.291180432612E+01   -0.29118E+01   -0.56337E+02  9450   0.158E+02
DAV:   2    -0.367163890208E+01   -0.75983E+00   -0.69249E+00 10450   0.175E+01
DAV:   3    -0.367582097407E+01   -0.41821E-02   -0.41754E-02  9750   0.134E+00
DAV:   4    -0.367582621597E+01   -0.52419E-05   -0.52422E-05 10480   0.476E-02
DAV:   5    -0.367582622716E+01   -0.11191E-07   -0.11443E-07  9900   0.163E-03    0.864E-01
DAV:   6    -0.366513971638E+01    0.10687E-01   -0.19189E-03  8805   0.278E-01    0.538E-01
DAV:   7    -0.365736420859E+01    0.77755E-02   -0.58223E-03  8700   0.496E-01    0.268E-02
DAV:   8    -0.365737169154E+01   -0.74829E-05   -0.29761E-05  9380   0.525E-02    0.582E-03
DAV:   9    -0.365737297628E+01   -0.12847E-05   -0.46212E-07  8255   0.551E-03    0.104E-03
DAV:  10    -0.365737250723E+01    0.46905E-06   -0.10179E-08  4550   0.835E-04
   1 F= -.36573725E+01 E0= -.36574675E+01  d E =0.284916E-03
a= 4.20
 running on    1 total cores
 distrk:  each k-point on    1 cores,    1 groups
 distr:  one band on    1 cores,    1 groups
 using from now: INCAR     
 vasp.5.4.4.18Apr17-6-g9f103f2a35 (build May 20 2018 16:52:39) complex          
  
 POSCAR found type information on POSCAR  Al
 POSCAR found :  1 types and       1 ions
 scaLAPACK will be used
 LDA part: xc-table for Ceperly-Alder, standard interpolation
 POSCAR, INCAR and KPOINTS ok, starting setup
 FFT: planning ...
 WAVECAR not read
 entering main loop
       N       E                     dE             d eps       ncg     rms          rms(c)
DAV:   1    -0.291067691367E+01   -0.29107E+01   -0.56961E+02  9510   0.158E+02
DAV:   2    -0.366194003356E+01   -0.75126E+00   -0.68500E+00 10550   0.173E+01
DAV:   3    -0.366611492614E+01   -0.41749E-02   -0.41700E-02  9650   0.133E+00
DAV:   4    -0.366612035138E+01   -0.54252E-05   -0.54253E-05 10650   0.486E-02
DAV:   5    -0.366612036274E+01   -0.11366E-07   -0.11129E-07  9815   0.163E-03    0.857E-01
DAV:   6    -0.365553820628E+01    0.10582E-01   -0.19741E-03  8835   0.280E-01    0.533E-01
DAV:   7    -0.364779514061E+01    0.77431E-02   -0.60306E-03  8655   0.497E-01    0.267E-02
DAV:   8    -0.364780223769E+01   -0.70971E-05   -0.31101E-05  9450   0.538E-02    0.603E-03
DAV:   9    -0.364780343711E+01   -0.11994E-05   -0.54790E-07  8430   0.583E-03    0.106E-03
DAV:  10    -0.364780294754E+01    0.48958E-06   -0.95597E-09  4645   0.798E-04
   1 F= -.36478029E+01 E0= -.36478838E+01  d E =0.242599E-03
