bcc Fe                                  
   2.87000000000000     
    -0.500000    0.500000    0.500000
     0.500000   -0.500000    0.500000
     0.500000    0.500000   -0.500000
   Si
     1
Direct
  0.000000  0.000000  0.000000
 
   20   20   20
 0.10034241776E+03 0.94392362794E+02 0.78653141754E+02 0.58137704453E+02 0.38065561001E+02
 0.22001741513E+02 0.11497132140E+02 0.63071418455E+01 0.46067442850E+01 0.39922112946E+01
 0.38011776522E+01 0.39922112946E+01 0.46067442850E+01 0.63071418455E+01 0.11497132140E+02
 0.22001741513E+02 0.38065561001E+02 0.58137704453E+02 0.78653141754E+02 0.94392362794E+02
 0.94392362794E+02 0.92453364508E+02 0.80135852322E+02 0.61559821504E+02 0.41903606765E+02
 0.25197961381E+02 0.13539782025E+02 0.72053988661E+01 0.48485120886E+01 0.40869543191E+01
 0.37710040969E+01 0.38312972784E+01 0.42858680729E+01 0.53350057815E+01 0.87859225785E+01
 0.16833952269E+02 0.30312894746E+02 0.48357611560E+02 0.68201354964E+02 0.85253746146E+02
 0.78653141754E+02 0.80135852322E+02 0.72133567986E+02 0.57433119694E+02 0.40474619019E+02
 0.25224895673E+02 0.14048429296E+02 0.75919625019E+01 0.49550183929E+01 0.40939739379E+01
 0.36849633934E+01 0.36319070157E+01 0.39201694201E+01 0.45995870703E+01 0.64091980319E+01
 0.11482018864E+02 0.21197317166E+02 0.35419364473E+02 0.52284629998E+02 0.68201354964E+02
 0.58137704453E+02 0.61559821504E+02 0.57433119694E+02 0.47269090926E+02 0.34371459254E+02
 0.22133168212E+02 0.12823188620E+02 0.72493361654E+01 0.48487074836E+01 0.40040766976E+01
 0.35544973034E+01 0.34223564244E+01 0.35701403184E+01 0.40406108612E+01 0.49192970473E+01
 0.74111755741E+01 0.13206669631E+02 0.22864143166E+02 0.35419364473E+02 0.48357611560E+02
 0.38065561001E+02 0.41903606765E+02 0.40474619019E+02 0.34371459254E+02 0.25747949520E+02
 0.17141889752E+02 0.10420196348E+02 0.63402521043E+01 0.45466899459E+01 0.38263886650E+01
 0.33943484750E+01 0.32260402089E+01 0.32770954808E+01 0.35644040380E+01 0.41377330112E+01
 0.51474141528E+01 0.78156806040E+01 0.13206669631E+02 0.21197317166E+02 0.30312894746E+02
 0.22001741513E+02 0.25197961381E+02 0.25224895673E+02 0.22133168212E+02 0.17141889752E+02
 0.11914349309E+02 0.77703481269E+01 0.52715437752E+01 0.41589906332E+01 0.35895649561E+01
 0.32208232627E+01 0.30572281936E+01 0.30570255968E+01 0.32140616237E+01 0.35760969370E+01
 0.41731662375E+01 0.51474141528E+01 0.74111755741E+01 0.11482018864E+02 0.16833952269E+02
 0.11497132140E+02 0.13539782025E+02 0.14048429296E+02 0.12823188620E+02 0.10420196348E+02
 0.77703481269E+01 0.56604732436E+01 0.44069834348E+01 0.37769386472E+01 0.33344935996E+01
 0.30517545517E+01 0.29209916699E+01 0.29057378085E+01 0.29897914255E+01 0.31982079974E+01
 0.35760969370E+01 0.41377330112E+01 0.49192970473E+01 0.64091980319E+01 0.87859225785E+01
 0.63071418455E+01 0.72053988661E+01 0.75919625019E+01 0.72493361654E+01 0.63402521043E+01
 0.52715437752E+01 0.44069834348E+01 0.38455411305E+01 0.34211773873E+01 0.31010079781E+01
 0.29049754225E+01 0.28175397488E+01 0.28095062894E+01 0.28641739643E+01 0.29897914255E+01
 0.32140616237E+01 0.35644040380E+01 0.40406108612E+01 0.45995870703E+01 0.53350057815E+01
 0.46067442850E+01 0.48485120886E+01 0.49550183929E+01 0.48487074836E+01 0.45466899459E+01
 0.41589906332E+01 0.37769386472E+01 0.34211773873E+01 0.31265320285E+01 0.29164384200E+01
 0.27944400431E+01 0.27475902905E+01 0.27568812144E+01 0.28095062894E+01 0.29057378085E+01
 0.30570255968E+01 0.32770954808E+01 0.35701403184E+01 0.39201694201E+01 0.42858680729E+01
 0.39922112946E+01 0.40869543191E+01 0.40939739379E+01 0.40040766976E+01 0.38263886650E+01
 0.35895649561E+01 0.33344935996E+01 0.31010079781E+01 0.29164384200E+01 0.27921210996E+01
 0.27272782068E+01 0.27151666132E+01 0.27475902905E+01 0.28175397488E+01 0.29209916699E+01
 0.30572281936E+01 0.32260402089E+01 0.34223564244E+01 0.36319070157E+01 0.38312972784E+01
 0.38011776522E+01 0.37710040969E+01 0.36849633934E+01 0.35544973034E+01 0.33943484750E+01
 0.32208232627E+01 0.30517545517E+01 0.29049754225E+01 0.27944400431E+01 0.27272782068E+01
 0.27049660058E+01 0.27272782068E+01 0.27944400431E+01 0.29049754225E+01 0.30517545517E+01
 0.32208232627E+01 0.33943484750E+01 0.35544973034E+01 0.36849633934E+01 0.37710040969E+01
 0.39922112946E+01 0.38312972784E+01 0.36319070157E+01 0.34223564244E+01 0.32260402089E+01
 0.30572281936E+01 0.29209916699E+01 0.28175397488E+01 0.27475902905E+01 0.27151666132E+01
 0.27272782068E+01 0.27921210996E+01 0.29164384200E+01 0.31010079781E+01 0.33344935996E+01
 0.35895649561E+01 0.38263886650E+01 0.40040766976E+01 0.40939739379E+01 0.40869543191E+01
 0.46067442850E+01 0.42858680729E+01 0.39201694201E+01 0.35701403184E+01 0.32770954808E+01
 0.30570255968E+01 0.29057378085E+01 0.28095062894E+01 0.27568812144E+01 0.27475902905E+01
 0.27944400431E+01 0.29164384200E+01 0.31265320285E+01 0.34211773873E+01 0.37769386472E+01
 0.41589906332E+01 0.45466899459E+01 0.48487074836E+01 0.49550183929E+01 0.48485120886E+01
 0.63071418455E+01 0.53350057815E+01 0.45995870703E+01 0.40406108612E+01 0.35644040380E+01
 0.32140616237E+01 0.29897914255E+01 0.28641739643E+01 0.28095062894E+01 0.28175397488E+01
 0.29049754225E+01 0.31010079781E+01 0.34211773873E+01 0.38455411305E+01 0.44069834348E+01
 0.52715437752E+01 0.63402521043E+01 0.72493361654E+01 0.75919625019E+01 0.72053988661E+01
 0.11497132140E+02 0.87859225785E+01 0.64091980319E+01 0.49192970473E+01 0.41377330112E+01
 0.35760969370E+01 0.31982079974E+01 0.29897914255E+01 0.29057378085E+01 0.29209916699E+01
 0.30517545517E+01 0.33344935996E+01 0.37769386472E+01 0.44069834348E+01 0.56604732436E+01
 0.77703481269E+01 0.10420196348E+02 0.12823188620E+02 0.14048429296E+02 0.13539782025E+02
 0.22001741513E+02 0.16833952269E+02 0.11482018864E+02 0.74111755741E+01 0.51474141528E+01
 0.41731662375E+01 0.35760969370E+01 0.32140616237E+01 0.30570255968E+01 0.30572281936E+01
 0.32208232627E+01 0.35895649561E+01 0.41589906332E+01 0.52715437752E+01 0.77703481269E+01
 0.11914349309E+02 0.17141889752E+02 0.22133168212E+02 0.25224895673E+02 0.25197961381E+02
 0.38065561001E+02 0.30312894746E+02 0.21197317166E+02 0.13206669631E+02 0.78156806040E+01
 0.51474141528E+01 0.41377330112E+01 0.35644040380E+01 0.32770954808E+01 0.32260402089E+01
 0.33943484750E+01 0.38263886650E+01 0.45466899459E+01 0.63402521043E+01 0.10420196348E+02
 0.17141889752E+02 0.25747949520E+02 0.34371459254E+02 0.40474619019E+02 0.41903606765E+02
 0.58137704453E+02 0.48357611560E+02 0.35419364473E+02 0.22864143166E+02 0.13206669631E+02
 0.74111755741E+01 0.49192970473E+01 0.40406108612E+01 0.35701403184E+01 0.34223564244E+01
 0.35544973034E+01 0.40040766976E+01 0.48487074836E+01 0.72493361654E+01 0.12823188620E+02
 0.22133168212E+02 0.34371459254E+02 0.47269090926E+02 0.57433119694E+02 0.61559821504E+02
 0.78653141754E+02 0.68201354964E+02 0.52284629998E+02 0.35419364473E+02 0.21197317166E+02
 0.11482018864E+02 0.64091980319E+01 0.45995870703E+01 0.39201694201E+01 0.36319070157E+01
 0.36849633934E+01 0.40939739379E+01 0.49550183929E+01 0.75919625019E+01 0.14048429296E+02
 0.25224895673E+02 0.40474619019E+02 0.57433119694E+02 0.72133567986E+02 0.80135852322E+02
 0.94392362794E+02 0.85253746146E+02 0.68201354964E+02 0.48357611560E+02 0.30312894746E+02
 0.16833952269E+02 0.87859225785E+01 0.53350057815E+01 0.42858680729E+01 0.38312972784E+01
 0.37710040969E+01 0.40869543191E+01 0.48485120886E+01 0.72053988661E+01 0.13539782025E+02
 0.25197961381E+02 0.41903606765E+02 0.61559821504E+02 0.80135852322E+02 0.92453364508E+02
 0.94392362794E+02 0.92453364508E+02 0.80135852322E+02 0.61559821504E+02 0.41903606765E+02
 0.25197961381E+02 0.13539782025E+02 0.72053988661E+01 0.48485120886E+01 0.40869543191E+01
 0.37710040969E+01 0.38312972784E+01 0.42858680729E+01 0.53350057815E+01 0.87859225785E+01
 0.16833952269E+02 0.30312894746E+02 0.48357611560E+02 0.68201354964E+02 0.85253746146E+02
 0.92453364508E+02 0.94382021838E+02 0.85238644230E+02 0.68189295587E+02 0.48351954418E+02
 0.30311470268E+02 0.16833483968E+02 0.87857114371E+01 0.53359246210E+01 0.42874773949E+01
 0.38317807663E+01 0.37697630960E+01 0.40856226321E+01 0.48487026325E+01 0.72066347706E+01
 0.13540961118E+02 0.25200237785E+02 0.41909778747E+02 0.61569878743E+02 0.80144391163E+02
 0.80135852322E+02 0.85238644230E+02 0.80129592317E+02 0.66620568010E+02 0.49032923236E+02
 0.31911136073E+02 0.18386438397E+02 0.97726660705E+01 0.57033036117E+01 0.43901671169E+01
 0.38298696142E+01 0.36565702658E+01 0.38298376812E+01 0.43901693052E+01 0.57032045748E+01
 0.97724296239E+01 0.18386980442E+02 0.31914318326E+02 0.49039792391E+02 0.66629314149E+02
 0.61559821504E+02 0.68189295587E+02 0.66620568010E+02 0.57434369876E+02 0.43737444261E+02
 0.29435837347E+02 0.17583293978E+02 0.96952662412E+01 0.57433128119E+01 0.43682155486E+01
 0.37622152224E+01 0.35085098722E+01 0.35613426811E+01 0.39369228756E+01 0.46876663832E+01
 0.67329874015E+01 0.11981240428E+02 0.21398092673E+02 0.34465259452E+02 0.49035271952E+02
 0.41903606765E+02 0.48351954418E+02 0.49032923236E+02 0.43737444261E+02 0.34374008283E+02
 0.23870905198E+02 0.14800507969E+02 0.85962189591E+01 0.54020274464E+01 0.42200339148E+01
 0.36335793503E+01 0.33444785840E+01 0.33144779532E+01 0.35310642673E+01 0.40467930071E+01
 0.49573750091E+01 0.74364737123E+01 0.12841722155E+02 0.21397144815E+02 0.31910536441E+02
 0.25197961381E+02 0.30311470268E+02 0.31911136073E+02 0.29435837347E+02 0.23870905198E+02
 0.17143785077E+02 0.11134654039E+02 0.69766487964E+01 0.48329369778E+01 0.39729660137E+01
 0.34581212134E+01 0.31808840639E+01 0.31098647581E+01 0.32162084292E+01 0.35369728455E+01
 0.41135398502E+01 0.50724801467E+01 0.74372203548E+01 0.11981391913E+02 0.18385586127E+02
 0.13539782025E+02 0.16833483968E+02 0.18386438397E+02 0.17583293978E+02 0.14800507969E+02
 0.11134654039E+02 0.77708787243E+01 0.54529132811E+01 0.42644727024E+01 0.36736854161E+01
 0.32597662943E+01 0.30297488016E+01 0.29537765675E+01 0.29998539468E+01 0.31810134561E+01
 0.35451708232E+01 0.41144716198E+01 0.49585863264E+01 0.67334070556E+01 0.97716855666E+01
 0.72053988661E+01 0.87857114371E+01 0.97726660705E+01 0.96952662412E+01 0.85962189591E+01
 0.69766487964E+01 0.54529132811E+01 0.44064891914E+01 0.38097932617E+01 0.33731402374E+01
 0.30675736678E+01 0.29000546679E+01 0.28422138309E+01 0.28659066194E+01 0.29697126510E+01
 0.31815714173E+01 0.35378124902E+01 0.40471339364E+01 0.46869747767E+01 0.57017747303E+01
 0.48485120886E+01 0.53359246210E+01 0.57033036117E+01 0.57433128119E+01 0.54020274464E+01
 0.48329369778E+01 0.42644727024E+01 0.38097932617E+01 0.34211122643E+01 0.31126352116E+01
 0.29069024574E+01 0.27994768548E+01 0.27684459013E+01 0.27927076412E+01 0.28660984174E+01
 0.30001238810E+01 0.32161103437E+01 0.35302412278E+01 0.39355729803E+01 0.43890311638E+01
 0.40869543191E+01 0.42874773949E+01 0.43901671169E+01 0.43682155486E+01 0.42200339148E+01
 0.39729660137E+01 0.36736854161E+01 0.33731402374E+01 0.31126352116E+01 0.29165814131E+01
 0.27923370343E+01 0.27343776775E+01 0.27304569691E+01 0.27684452728E+01 0.28421404838E+01
 0.29534514234E+01 0.31091955372E+01 0.33136895162E+01 0.35609580131E+01 0.38303196269E+01
 0.37710040969E+01 0.38317807663E+01 0.38298696142E+01 0.37622152224E+01 0.36335793503E+01
 0.34581212134E+01 0.32597662943E+01 0.30675736678E+01 0.29069024574E+01 0.27923370343E+01
 0.27273142233E+01 0.27092045774E+01 0.27343410214E+01 0.27993232236E+01 0.28997280938E+01
 0.30293426674E+01 0.31806807792E+01 0.33448170701E+01 0.35095245046E+01 0.36579949928E+01
 0.38312972784E+01 0.37697630960E+01 0.36565702658E+01 0.35085098722E+01 0.33444785840E+01
 0.31808840639E+01 0.30297488016E+01 0.29000546679E+01 0.27994768548E+01 0.27343776775E+01
 0.27092045774E+01 0.27272885331E+01 0.27922346681E+01 0.29067108737E+01 0.30674235092E+01
 0.32599171979E+01 0.34587790901E+01 0.36346591617E+01 0.37632711415E+01 0.38303196269E+01
 0.42858680729E+01 0.40856226321E+01 0.38298376812E+01 0.35613426811E+01 0.33144779532E+01
 0.31098647581E+01 0.29537765675E+01 0.28422138309E+01 0.27684459013E+01 0.27304569691E+01
 0.27343410214E+01 0.27922346681E+01 0.29164752508E+01 0.31126731511E+01 0.33734805034E+01
 0.36743712961E+01 0.39737980078E+01 0.42205640170E+01 0.43679743159E+01 0.43890311638E+01
 0.53350057815E+01 0.48487026325E+01 0.43901693052E+01 0.39369228756E+01 0.35310642673E+01
 0.32162084292E+01 0.29998539468E+01 0.28659066194E+01 0.27927076412E+01 0.27684452728E+01
 0.27993232236E+01 0.29067108737E+01 0.31126731511E+01 0.34215216204E+01 0.38104408736E+01
 0.42650111192E+01 0.48329708872E+01 0.54013061382E+01 0.57419266730E+01 0.57017747303E+01
 0.87859225785E+01 0.72066347706E+01 0.57032045748E+01 0.46876663832E+01 0.40467930071E+01
 0.35369728455E+01 0.31810134561E+01 0.29697126510E+01 0.28660984174E+01 0.28421404838E+01
 0.28997280938E+01 0.30674235092E+01 0.33734805034E+01 0.38104408736E+01 0.44069002405E+01
 0.54526070375E+01 0.69755012205E+01 0.85945031347E+01 0.96935645834E+01 0.97716855666E+01
 0.16833952269E+02 0.13540961118E+02 0.97724296239E+01 0.67329874015E+01 0.49573750091E+01
 0.41135398502E+01 0.35451708232E+01 0.31815714173E+01 0.30001238810E+01 0.29534514234E+01
 0.30293426674E+01 0.32599171979E+01 0.36743712961E+01 0.42650111192E+01 0.54526070375E+01
 0.77695231704E+01 0.11132522628E+02 0.14798128760E+02 0.17581343685E+02 0.18385586127E+02
 0.30312894746E+02 0.25200237785E+02 0.18386980442E+02 0.11981240428E+02 0.74364737123E+01
 0.50724801467E+01 0.41144716198E+01 0.35378124902E+01 0.32161103437E+01 0.31091955372E+01
 0.31806807792E+01 0.34587790901E+01 0.39737980078E+01 0.48329708872E+01 0.69755012205E+01
 0.11132522628E+02 0.17140988327E+02 0.23867879098E+02 0.29433477116E+02 0.31910536441E+02
 0.48357611560E+02 0.41909778747E+02 0.31914318326E+02 0.21398092673E+02 0.12841722155E+02
 0.74372203548E+01 0.49585863264E+01 0.40471339364E+01 0.35302412278E+01 0.33136895162E+01
 0.33448170701E+01 0.36346591617E+01 0.42205640170E+01 0.54013061382E+01 0.85945031347E+01
 0.14798128760E+02 0.23867879098E+02 0.34370937509E+02 0.43736166503E+02 0.49035271952E+02
 0.68201354964E+02 0.61569878743E+02 0.49039792391E+02 0.34465259452E+02 0.21397144815E+02
 0.11981391913E+02 0.67334070556E+01 0.46869747767E+01 0.39355729803E+01 0.35609580131E+01
 0.35095245046E+01 0.37632711415E+01 0.43679743159E+01 0.57419266730E+01 0.96935645834E+01
 0.17581343685E+02 0.29433477116E+02 0.43736166503E+02 0.57437276967E+02 0.66629314149E+02
 0.85253746146E+02 0.80144391163E+02 0.66629314149E+02 0.49035271952E+02 0.31910536441E+02
 0.18385586127E+02 0.97716855666E+01 0.57017747303E+01 0.43890311638E+01 0.38303196269E+01
 0.36579949928E+01 0.38303196269E+01 0.43890311638E+01 0.57017747303E+01 0.97716855666E+01
 0.18385586127E+02 0.31910536441E+02 0.49035271952E+02 0.66629314149E+02 0.80144391163E+02
 0.78653141754E+02 0.80135852322E+02 0.72133567986E+02 0.57433119694E+02 0.40474619019E+02
 0.25224895673E+02 0.14048429296E+02 0.75919625019E+01 0.49550183929E+01 0.40939739379E+01
 0.36849633934E+01 0.36319070157E+01 0.39201694201E+01 0.45995870703E+01 0.64091980319E+01
 0.11482018864E+02 0.21197317166E+02 0.35419364473E+02 0.52284629998E+02 0.68201354964E+02
 0.80135852322E+02 0.85238644230E+02 0.80129592317E+02 0.66620568010E+02 0.49032923236E+02
 0.31911136073E+02 0.18386438397E+02 0.97726660705E+01 0.57033036117E+01 0.43901671169E+01
 0.38298696142E+01 0.36565702658E+01 0.38298376812E+01 0.43901693052E+01 0.57032045748E+01
 0.97724296239E+01 0.18386980442E+02 0.31914318326E+02 0.49039792391E+02 0.66629314149E+02
 0.72133567986E+02 0.80129592317E+02 0.78642436084E+02 0.68190853826E+02 0.52278245774E+02
 0.35417667262E+02 0.21198136974E+02 0.11483020368E+02 0.64095596300E+01 0.45996237084E+01
 0.39202001207E+01 0.36319074829E+01 0.36849189306E+01 0.40939799603E+01 0.49550473345E+01
 0.75920452890E+01 0.14049237277E+02 0.25227551121E+02 0.40479186134E+02 0.57437276967E+02
 0.57433119694E+02 0.66620568010E+02 0.68190853826E+02 0.61561946547E+02 0.49036956655E+02
 0.34466628548E+02 0.21399830829E+02 0.11983179202E+02 0.67339689693E+01 0.46870310738E+01
 0.39356101449E+01 0.35609677997E+01 0.35094717603E+01 0.37632579548E+01 0.43680042100E+01
 0.57419707286E+01 0.96939573567E+01 0.17582586552E+02 0.29435134115E+02 0.43736166503E+02
 0.40474619019E+02 0.49032923236E+02 0.52278245774E+02 0.49036956655E+02 0.40480766747E+02
 0.29439231991E+02 0.18939813948E+02 0.11056617132E+02 0.64885931446E+01 0.46052149530E+01
 0.38652998012E+01 0.34517166566E+01 0.33270408878E+01 0.34516782687E+01 0.38652891548E+01
 0.46051929466E+01 0.64881517173E+01 0.11054912058E+02 0.18936031520E+02 0.29433477116E+02
 0.25224895673E+02 0.31911136073E+02 0.35417667262E+02 0.34466628548E+02 0.29439231991E+02
 0.22137774778E+02 0.14801666188E+02 0.91289261300E+01 0.57874818495E+01 0.43660362537E+01
 0.37146469751E+01 0.33151502515E+01 0.31567878388E+01 0.31940524370E+01 0.34414877352E+01
 0.39485964006E+01 0.47663807661E+01 0.67929329513E+01 0.11054665143E+02 0.17581343685E+02
 0.14048429296E+02 0.18386438397E+02 0.21198136974E+02 0.21399830829E+02 0.18939813948E+02
 0.14801666188E+02 0.10421184603E+02 0.69756142856E+01 0.49507111475E+01 0.40452124365E+01
 0.35077559438E+01 0.31648644164E+01 0.30105158932E+01 0.30027165395E+01 0.31350500161E+01
 0.34497773650E+01 0.39798602542E+01 0.47664251623E+01 0.64881322725E+01 0.96935645834E+01
 0.75919625019E+01 0.97726660705E+01 0.11483020368E+02 0.11983179202E+02 0.11056617132E+02
 0.91289261300E+01 0.69756142856E+01 0.52701395773E+01 0.42639036815E+01 0.37011248985E+01
 0.32814617852E+01 0.30171233596E+01 0.28927326594E+01 0.28726948078E+01 0.29416529174E+01
 0.31204691902E+01 0.34497504594E+01 0.39486056627E+01 0.46052262947E+01 0.57419266730E+01
 0.49550183929E+01 0.57033036117E+01 0.64095596300E+01 0.67339689693E+01 0.64885931446E+01
 0.57874818495E+01 0.49507111475E+01 0.42639036815E+01 0.37765235770E+01 0.33733262680E+01
 0.30726879847E+01 0.28886891813E+01 0.28040792100E+01 0.27914213134E+01 0.28351589907E+01
 0.29416240254E+01 0.31349923998E+01 0.34414432485E+01 0.38652696940E+01 0.43679743159E+01
 0.40939739379E+01 0.43901671169E+01 0.45996237084E+01 0.46870310738E+01 0.46052149530E+01
 0.43660362537E+01 0.40452124365E+01 0.37011248985E+01 0.33733262680E+01 0.31013492460E+01
 0.29069357349E+01 0.27924296186E+01 0.27454949160E+01 0.27489943742E+01 0.27914295776E+01
 0.28726940859E+01 0.30027058225E+01 0.31940515841E+01 0.34516947899E+01 0.37632711415E+01
 0.36849633934E+01 0.38298696142E+01 0.39202001207E+01 0.39356101449E+01 0.38652998012E+01
 0.37146469751E+01 0.35077559438E+01 0.32814617852E+01 0.30726879847E+01 0.29069357349E+01
 0.27945154050E+01 0.27343777744E+01 0.27203569481E+01 0.27455032449E+01 0.28041010082E+01
 0.28927597880E+01 0.30105426691E+01 0.31568206388E+01 0.33270869308E+01 0.35095245046E+01
 0.36319070157E+01 0.36565702658E+01 0.36319074829E+01 0.35609677997E+01 0.34517166566E+01
 0.33151502515E+01 0.31648644164E+01 0.30171233596E+01 0.28886891813E+01 0.27924296186E+01
 0.27343777744E+01 0.27151969282E+01 0.27343715587E+01 0.27924274092E+01 0.28886957548E+01
 0.30171289537E+01 0.31648558062E+01 0.33151278373E+01 0.34516947899E+01 0.35609580131E+01
 0.39201694201E+01 0.38298376812E+01 0.36849189306E+01 0.35094717603E+01 0.33270408878E+01
 0.31567878388E+01 0.30105158932E+01 0.28927326594E+01 0.28040792100E+01 0.27454949160E+01
 0.27203569481E+01 0.27343715587E+01 0.27945004801E+01 0.29069306100E+01 0.30727118234E+01
 0.32815075314E+01 0.35077919036E+01 0.37146476548E+01 0.38652696940E+01 0.39355729803E+01
 0.45995870703E+01 0.43901693052E+01 0.40939799603E+01 0.37632579548E+01 0.34516782687E+01
 0.31940524370E+01 0.30027165395E+01 0.28726948078E+01 0.27914213134E+01 0.27489943742E+01
 0.27455032449E+01 0.27924274092E+01 0.29069306100E+01 0.31014024771E+01 0.33735028792E+01
 0.37014088910E+01 0.40454920062E+01 0.43661930029E+01 0.46052262947E+01 0.46869747767E+01
 0.64091980319E+01 0.57032045748E+01 0.49550473345E+01 0.43680042100E+01 0.38652891548E+01
 0.34414877352E+01 0.31350500161E+01 0.29416529174E+01 0.28351589907E+01 0.27914295776E+01
 0.28041010082E+01 0.28886957548E+01 0.30727118234E+01 0.33735028792E+01 0.37769578411E+01
 0.42644819836E+01 0.49511111945E+01 0.57874332725E+01 0.64881322725E+01 0.67334070556E+01
 0.11482018864E+02 0.97724296239E+01 0.75920452890E+01 0.57419707286E+01 0.46051929466E+01
 0.39485964006E+01 0.34497773650E+01 0.31204691902E+01 0.29416240254E+01 0.28726940859E+01
 0.28927597880E+01 0.30171289537E+01 0.32815075314E+01 0.37014088910E+01 0.42644819836E+01
 0.52706403512E+01 0.69753954183E+01 0.91276517027E+01 0.11054665143E+02 0.11981391913E+02
 0.21197317166E+02 0.18386980442E+02 0.14049237277E+02 0.96939573567E+01 0.64881517173E+01
 0.47663807661E+01 0.39798602542E+01 0.34497504594E+01 0.31349923998E+01 0.30027058225E+01
 0.30105426691E+01 0.31648558062E+01 0.35077919036E+01 0.40454920062E+01 0.49511111945E+01
 0.69753954183E+01 0.10419458998E+02 0.14798352062E+02 0.18936031520E+02 0.21397144815E+02
 0.35419364473E+02 0.31914318326E+02 0.25227551121E+02 0.17582586552E+02 0.11054912058E+02
 0.67929329513E+01 0.47664251623E+01 0.39486056627E+01 0.34414432485E+01 0.31940515841E+01
 0.31568206388E+01 0.33151278373E+01 0.37146476548E+01 0.43661930029E+01 0.57874332725E+01
 0.91276517027E+01 0.14798352062E+02 0.22133022821E+02 0.29435134115E+02 0.34465259452E+02
 0.52284629998E+02 0.49039792391E+02 0.40479186134E+02 0.29435134115E+02 0.18936031520E+02
 0.11054665143E+02 0.64881322725E+01 0.46052262947E+01 0.38652696940E+01 0.34516947899E+01
 0.33270869308E+01 0.34516947899E+01 0.38652696940E+01 0.46052262947E+01 0.64881322725E+01
 0.11054665143E+02 0.18936031520E+02 0.29435134115E+02 0.40479186134E+02 0.49039792391E+02
 0.68201354964E+02 0.66629314149E+02 0.57437276967E+02 0.43736166503E+02 0.29433477116E+02
 0.17581343685E+02 0.96935645834E+01 0.57419266730E+01 0.43679743159E+01 0.37632711415E+01
 0.35095245046E+01 0.35609580131E+01 0.39355729803E+01 0.46869747767E+01 0.67334070556E+01
 0.11981391913E+02 0.21397144815E+02 0.34465259452E+02 0.49039792391E+02 0.61569878743E+02
 0.58137704453E+02 0.61559821504E+02 0.57433119694E+02 0.47269090926E+02 0.34371459254E+02
 0.22133168212E+02 0.12823188620E+02 0.72493361654E+01 0.48487074836E+01 0.40040766976E+01
 0.35544973034E+01 0.34223564244E+01 0.35701403184E+01 0.40406108612E+01 0.49192970473E+01
 0.74111755741E+01 0.13206669631E+02 0.22864143166E+02 0.35419364473E+02 0.48357611560E+02
 0.61559821504E+02 0.68189295587E+02 0.66620568010E+02 0.57434369876E+02 0.43737444261E+02
 0.29435837347E+02 0.17583293978E+02 0.96952662412E+01 0.57433128119E+01 0.43682155486E+01
 0.37622152224E+01 0.35085098722E+01 0.35613426811E+01 0.39369228756E+01 0.46876663832E+01
 0.67329874015E+01 0.11981240428E+02 0.21398092673E+02 0.34465259452E+02 0.49035271952E+02
 0.57433119694E+02 0.66620568010E+02 0.68190853826E+02 0.61561946547E+02 0.49036956655E+02
 0.34466628548E+02 0.21399830829E+02 0.11983179202E+02 0.67339689693E+01 0.46870310738E+01
 0.39356101449E+01 0.35609677997E+01 0.35094717603E+01 0.37632579548E+01 0.43680042100E+01
 0.57419707286E+01 0.96939573567E+01 0.17582586552E+02 0.29435134115E+02 0.43736166503E+02
 0.47269090926E+02 0.57434369876E+02 0.61561946547E+02 0.58139842027E+02 0.48359617010E+02
 0.35421792647E+02 0.22866996608E+02 0.13208796527E+02 0.74114242084E+01 0.49180493162E+01
 0.40395804335E+01 0.35704944362E+01 0.34234602464E+01 0.35548423281E+01 0.40031638338E+01
 0.48475004409E+01 0.72488680600E+01 0.12823302772E+02 0.22133022821E+02 0.34370937509E+02
 0.34371459254E+02 0.43737444261E+02 0.49036956655E+02 0.48359617010E+02 0.41912562145E+02
 0.31917949993E+02 0.21401429364E+02 0.12843165544E+02 0.74364466387E+01 0.49570877769E+01
 0.40466971300E+01 0.35310853252E+01 0.33144849953E+01 0.33444712163E+01 0.36335966882E+01
 0.42200164975E+01 0.54017246496E+01 0.85951835309E+01 0.14798352062E+02 0.23867879098E+02
 0.22133168212E+02 0.29435837347E+02 0.34466628548E+02 0.35421792647E+02 0.31917949993E+02
 0.25231426590E+02 0.17584928267E+02 0.11054714495E+02 0.67911186248E+01 0.47650235050E+01
 0.39487273883E+01 0.34423540639E+01 0.31943475261E+01 0.31561721694E+01 0.33144990619E+01
 0.37149332911E+01 0.43671380906E+01 0.57881084588E+01 0.91276517027E+01 0.14798128760E+02
 0.12823188620E+02 0.17583293978E+02 0.21399830829E+02 0.22866996608E+02 0.21401429364E+02
 0.17584928267E+02 0.12823362565E+02 0.85931896958E+01 0.57857964180E+01 0.44215882682E+01
 0.37625296472E+01 0.33129831673E+01 0.30736226914E+01 0.30029358702E+01 0.30736877696E+01
 0.33130386811E+01 0.37628069901E+01 0.44225613617E+01 0.57874332725E+01 0.85945031347E+01
 0.72493361654E+01 0.96952662412E+01 0.11983179202E+02 0.13208796527E+02 0.12843165544E+02
 0.11054714495E+02 0.85931896958E+01 0.63372217389E+01 0.48310934331E+01 0.40451773375E+01
 0.35253672291E+01 0.31618209158E+01 0.29611292373E+01 0.28876524479E+01 0.29120414102E+01
 0.30417732074E+01 0.33152494103E+01 0.37620757437E+01 0.43661930029E+01 0.54013061382E+01
 0.48487074836E+01 0.57433128119E+01 0.67339689693E+01 0.74114242084E+01 0.74364466387E+01
 0.67911186248E+01 0.57857964180E+01 0.48310934331E+01 0.41578816322E+01 0.36740012643E+01
 0.32814877834E+01 0.30132617187E+01 0.28646420098E+01 0.28068143339E+01 0.28148819747E+01
 0.28859890282E+01 0.30412955808E+01 0.33123314471E+01 0.37146476548E+01 0.42205640170E+01
 0.40040766976E+01 0.43682155486E+01 0.46870310738E+01 0.49180493162E+01 0.49570877769E+01
 0.47650235050E+01 0.44215882682E+01 0.40451773375E+01 0.36740012643E+01 0.33349992646E+01
 0.30676730980E+01 0.28885785064E+01 0.27910727356E+01 0.27558800477E+01 0.27655870636E+01
 0.28147420739E+01 0.29118050242E+01 0.30737262720E+01 0.33151278373E+01 0.36346591617E+01
 0.35544973034E+01 0.37622152224E+01 0.39356101449E+01 0.40395804335E+01 0.40466971300E+01
 0.39487273883E+01 0.37625296472E+01 0.35253672291E+01 0.32814877834E+01 0.30676730980E+01
 0.29050997216E+01 0.27993565942E+01 0.27454648535E+01 0.27339398186E+01 0.27559431552E+01
 0.28069339570E+01 0.28879341851E+01 0.30034737521E+01 0.31568206388E+01 0.33448170701E+01
 0.34223564244E+01 0.35085098722E+01 0.35609677997E+01 0.35704944362E+01 0.35310853252E+01
 0.34423540639E+01 0.33129831673E+01 0.31618209158E+01 0.30132617187E+01 0.28885785064E+01
 0.27993565942E+01 0.27475287583E+01 0.27304425406E+01 0.27455582273E+01 0.27912635264E+01
 0.28649144570E+01 0.29614063447E+01 0.30737262720E+01 0.31940515841E+01 0.33136895162E+01
 0.35701403184E+01 0.35613426811E+01 0.35094717603E+01 0.34234602464E+01 0.33144849953E+01
 0.31943475261E+01 0.30736226914E+01 0.29611292373E+01 0.28646420098E+01 0.27910727356E+01
 0.27454648535E+01 0.27304425406E+01 0.27476046538E+01 0.27994708150E+01 0.28886669214E+01
 0.30132216346E+01 0.31615186393E+01 0.33123314471E+01 0.34414432485E+01 0.35302412278E+01
 0.40406108612E+01 0.39369228756E+01 0.37632579548E+01 0.35548423281E+01 0.33444712163E+01
 0.31561721694E+01 0.30029358702E+01 0.28876524479E+01 0.28068143339E+01 0.27558800477E+01
 0.27339398186E+01 0.27455582273E+01 0.27994708150E+01 0.29050809434E+01 0.30674184451E+01
 0.32810227878E+01 0.35248165296E+01 0.37620757437E+01 0.39486056627E+01 0.40471339364E+01
 0.49192970473E+01 0.46876663832E+01 0.43680042100E+01 0.40031638338E+01 0.36335966882E+01
 0.33144990619E+01 0.30736877696E+01 0.29120414102E+01 0.28148819747E+01 0.27655870636E+01
 0.27559431552E+01 0.27912635264E+01 0.28886669214E+01 0.30674184451E+01 0.33345093157E+01
 0.36737133767E+01 0.40454887386E+01 0.44225613617E+01 0.47664251623E+01 0.49585863264E+01
 0.74111755741E+01 0.67329874015E+01 0.57419707286E+01 0.48475004409E+01 0.42200164975E+01
 0.37149332911E+01 0.33130386811E+01 0.30417732074E+01 0.28859890282E+01 0.28147420739E+01
 0.28069339570E+01 0.28649144570E+01 0.30132216346E+01 0.32810227878E+01 0.36737133767E+01
 0.41585760976E+01 0.48329408841E+01 0.57881084588E+01 0.67929329513E+01 0.74372203548E+01
 0.13206669631E+02 0.11981240428E+02 0.96939573567E+01 0.72488680600E+01 0.54017246496E+01
 0.43671380906E+01 0.37628069901E+01 0.33152494103E+01 0.30412955808E+01 0.29118050242E+01
 0.28879341851E+01 0.29614063447E+01 0.31615186393E+01 0.35248165296E+01 0.40454887386E+01
 0.48329408841E+01 0.63399230910E+01 0.85951835309E+01 0.11054912058E+02 0.12841722155E+02
 0.22864143166E+02 0.21398092673E+02 0.17582586552E+02 0.12823302772E+02 0.85951835309E+01
 0.57881084588E+01 0.44225613617E+01 0.37620757437E+01 0.33123314471E+01 0.30737262720E+01
 0.30034737521E+01 0.30737262720E+01 0.33123314471E+01 0.37620757437E+01 0.44225613617E+01
 0.57881084588E+01 0.85951835309E+01 0.12823302772E+02 0.17582586552E+02 0.21398092673E+02
 0.35419364473E+02 0.34465259452E+02 0.29435134115E+02 0.22133022821E+02 0.14798352062E+02
 0.91276517027E+01 0.57874332725E+01 0.43661930029E+01 0.37146476548E+01 0.33151278373E+01
 0.31568206388E+01 0.31940515841E+01 0.34414432485E+01 0.39486056627E+01 0.47664251623E+01
 0.67929329513E+01 0.11054912058E+02 0.17582586552E+02 0.25227551121E+02 0.31914318326E+02
 0.48357611560E+02 0.49035271952E+02 0.43736166503E+02 0.34370937509E+02 0.23867879098E+02
 0.14798128760E+02 0.85945031347E+01 0.54013061382E+01 0.42205640170E+01 0.36346591617E+01
 0.33448170701E+01 0.33136895162E+01 0.35302412278E+01 0.40471339364E+01 0.49585863264E+01
 0.74372203548E+01 0.12841722155E+02 0.21398092673E+02 0.31914318326E+02 0.41909778747E+02
 0.38065561001E+02 0.41903606765E+02 0.40474619019E+02 0.34371459254E+02 0.25747949520E+02
 0.17141889752E+02 0.10420196348E+02 0.63402521043E+01 0.45466899459E+01 0.38263886650E+01
 0.33943484750E+01 0.32260402089E+01 0.32770954808E+01 0.35644040380E+01 0.41377330112E+01
 0.51474141528E+01 0.78156806040E+01 0.13206669631E+02 0.21197317166E+02 0.30312894746E+02
 0.41903606765E+02 0.48351954418E+02 0.49032923236E+02 0.43737444261E+02 0.34374008283E+02
 0.23870905198E+02 0.14800507969E+02 0.85962189591E+01 0.54020274464E+01 0.42200339148E+01