   1   1   1   0
  0.1181995E+02  0.2485493E-09  0.2485493E-09  0.2485493E-09  0.5000000E-15
  1.000000000000000E-004
  CAR 
 bcc Fe                                  
     46.02254905     -5.09156453  301      5.47933391      1.00000000
     -5.092  0.0000E+00  0.0000E+00  0.0000E+00  0.0000E+00
     -4.921  0.0000E+00  0.0000E+00  0.0000E+00  0.0000E+00
     -4.751  0.0000E+00  0.0000E+00  0.0000E+00  0.0000E+00
     -4.580  0.0000E+00  0.0000E+00  0.0000E+00  0.0000E+00
     -4.410 -0.2305E-29  0.0000E+00 -0.3928E-30  0.0000E+00
     -4.240 -0.1205E-23 -0.4392E-31 -0.2052E-24 -0.7483E-32
     -4.069 -0.1462E-18 -0.3457E-25 -0.2491E-19 -0.5890E-26
     -3.899 -0.3987E-14 -0.6323E-20 -0.6794E-15 -0.1077E-20
     -3.729 -0.2563E-10 -0.2585E-15 -0.4368E-11 -0.4405E-16
     -3.558 -0.3757E-07 -0.2533E-11 -0.6406E-08 -0.4316E-12
     -3.388 -0.1231E-04 -0.5630E-08 -0.2103E-05 -0.9597E-09
     -3.217 -0.8506E-03 -0.2818E-05 -0.1470E-03 -0.4810E-06
     -3.047 -0.9664E-02 -0.3046E-03 -0.1794E-02 -0.5238E-04
     -2.877  0.2783E-01 -0.6106E-02  0.2948E-02 -0.1093E-02
     -2.706  0.2388E+00  0.5683E-03  0.4363E-01 -0.9960E-03
     -2.536  0.2593E+00  0.1760E+00  0.8781E-01  0.2899E-01
     -2.365  0.1406E+00  0.2867E+00  0.1118E+00  0.7783E-01
     -2.195  0.1118E+00  0.1634E+00  0.1308E+00  0.1057E+00
     -2.025  0.9342E-01  0.1155E+00  0.1467E+00  0.1253E+00
     -1.854  0.8897E-01  0.9850E-01  0.1619E+00  0.1421E+00
     -1.684  0.8753E-01  0.8363E-01  0.1768E+00  0.1564E+00
     -1.514  0.5599E-01  0.9581E-01  0.1863E+00  0.1727E+00
     -1.343  0.9770E-01  0.5444E-01  0.2030E+00  0.1820E+00
     -1.173  0.5847E-01  0.8407E-01  0.2129E+00  0.1963E+00
     -1.002  0.4967E-01  0.7815E-01  0.2214E+00  0.2096E+00
     -0.832  0.9269E-01  0.3995E-01  0.2372E+00  0.2164E+00
     -0.662  0.6511E-01  0.6921E-01  0.2483E+00  0.2282E+00
     -0.491  0.2590E-01  0.8806E-01  0.2527E+00  0.2432E+00
     -0.321  0.1029E+00  0.3470E-01  0.2702E+00  0.2491E+00
     -0.151  0.6625E-01  0.3486E-01  0.2815E+00  0.2551E+00
      0.020  0.3708E-01  0.1106E+00  0.2878E+00  0.2739E+00
      0.190  0.8719E-01  0.3841E-01  0.3027E+00  0.2804E+00
      0.361  0.8984E-01  0.2497E-01  0.3180E+00  0.2847E+00
      0.531  0.6534E-01  0.8223E-01  0.3291E+00  0.2987E+00
      0.701  0.3777E+00  0.7028E-01  0.3935E+00  0.3107E+00
      0.872  0.7257E+00  0.4226E-01  0.5171E+00  0.3179E+00
      1.042  0.8217E+00  0.4003E-01  0.6571E+00  0.3247E+00
      1.213  0.6748E+00  0.8966E-01  0.7721E+00  0.3400E+00
      1.383  0.5954E+00  0.6520E-01  0.8736E+00  0.3511E+00
      1.553  0.5245E+00  0.4632E-01  0.9629E+00  0.3590E+00
      1.724  0.2356E+00  0.8016E-01  0.1003E+01  0.3726E+00
      1.894  0.1436E+00  0.1321E+00  0.1028E+01  0.3951E+00
      2.064  0.9468E+00  0.3320E+00  0.1189E+01  0.4517E+00
      2.235  0.1890E+01  0.3970E+00  0.1511E+01  0.5193E+00
      2.405  0.1280E+01  0.2312E+00  0.1729E+01  0.5587E+00
      2.576  0.6727E+00  0.4061E+00  0.1844E+01  0.6279E+00
      2.746  0.4730E+00  0.8205E+00  0.1924E+01  0.7677E+00
      2.916  0.5285E+00  0.6667E+00  0.2014E+01  0.8813E+00
      3.087  0.1501E+01  0.4570E+00  0.2270E+01  0.9592E+00
      3.257  0.1915E+01  0.3178E+00  0.2596E+01  0.1013E+01
      3.427  0.8070E+00  0.1633E+00  0.2734E+01  0.1041E+01
      3.598  0.4793E+00  0.1964E+00  0.2815E+01  0.1075E+01
      3.768  0.4517E+00  0.9400E+00  0.2892E+01  0.1235E+01
      3.939  0.4358E+00  0.1606E+01  0.2967E+01  0.1508E+01
      4.109  0.5450E+00  0.1081E+01  0.3059E+01  0.1693E+01
      4.279  0.8244E+00  0.5921E+00  0.3200E+01  0.1793E+01
      4.450  0.2342E+01  0.4343E+00  0.3599E+01  0.1867E+01
      4.620  0.3747E+01  0.4172E+00  0.4237E+01  0.1939E+01
      4.790  0.2695E+01  0.4485E+00  0.4696E+01  0.2015E+01
      4.961  0.6897E+00  0.6165E+00  0.4814E+01  0.2120E+01
      5.131  0.3781E+00  0.1163E+01  0.4878E+01  0.2318E+01
      5.302  0.6735E+00  0.1898E+01  0.4993E+01  0.2642E+01
      5.472  0.1073E+01  0.9993E+00  0.5176E+01  0.2812E+01
      5.642  0.9357E+00  0.4630E+00  0.5335E+01  0.2891E+01
      5.813  0.3716E+00  0.4420E+00  0.5399E+01  0.2966E+01
      5.983  0.1546E+00  0.4653E+00  0.5425E+01  0.3045E+01
      6.154  0.1771E+00  0.5759E+00  0.5455E+01  0.3143E+01
      6.324  0.8969E-01  0.5305E+00  0.5471E+01  0.3234E+01
      6.494  0.6776E-01  0.3804E+00  0.5482E+01  0.3299E+01
      6.665  0.8364E-01  0.4445E+00  0.5496E+01  0.3374E+01
      6.835  0.1019E+00  0.1193E+01  0.5514E+01  0.3578E+01
      7.005  0.9014E-01  0.2560E+01  0.5529E+01  0.4014E+01
      7.176  0.3651E-01  0.2656E+01  0.5535E+01  0.4466E+01
      7.346  0.4369E-01  0.2281E+01  0.5543E+01  0.4855E+01
      7.517  0.1058E+00  0.8202E+00  0.5561E+01  0.4995E+01
      7.687  0.1037E+00  0.5293E+00  0.5578E+01  0.5085E+01
      7.857  0.4960E-01  0.9805E+00  0.5587E+01  0.5252E+01
      8.028  0.6571E-01  0.8254E+00  0.5598E+01  0.5393E+01
      8.198  0.1812E-01  0.5150E+00  0.5601E+01  0.5480E+01
      8.368  0.6990E-01  0.1471E+00  0.5613E+01  0.5506E+01
      8.539  0.1055E+00  0.8617E-01  0.5631E+01  0.5520E+01
      8.709  0.7930E-01  0.9138E-01  0.5645E+01  0.5536E+01
      8.880  0.3857E-01  0.8042E-01  0.5651E+01  0.5549E+01
      9.050  0.5135E-01  0.1015E+00  0.5660E+01  0.5567E+01
      9.220  0.5670E-01  0.8461E-01  0.5670E+01  0.5581E+01
      9.391  0.4635E-01  0.6767E-01  0.5677E+01  0.5593E+01
      9.561  0.8055E-01  0.7728E-01  0.5691E+01  0.5606E+01
      9.732  0.6534E-01  0.7341E-01  0.5702E+01  0.5618E+01
      9.902  0.5236E-01  0.6267E-01  0.5711E+01  0.5629E+01
     10.072  0.5721E-01  0.1049E+00  0.5721E+01  0.5647E+01
     10.243  0.4971E-01  0.7884E-01  0.5729E+01  0.5660E+01
     10.413  0.7139E-01  0.3034E-01  0.5742E+01  0.5666E+01
     10.583  0.5064E-01  0.4469E-01  0.5750E+01  0.5673E+01
     10.754  0.3905E-01  0.8709E-01  0.5757E+01  0.5688E+01
     10.924  0.6401E-01  0.1095E+00  0.5768E+01  0.5707E+01
     11.095  0.4601E-01  0.5186E-01  0.5776E+01  0.5715E+01
     11.265  0.5290E-01  0.6831E-01  0.5785E+01  0.5727E+01
     11.435  0.9123E-01  0.1709E-01  0.5800E+01  0.5730E+01
     11.606  0.5291E-01  0.4932E-01  0.5809E+01  0.5738E+01
     11.776  0.3033E-01  0.1061E+00  0.5814E+01  0.5756E+01
     11.946  0.6002E-01  0.7396E-01  0.5825E+01  0.5769E+01
     12.117  0.1447E-01  0.6320E-01  0.5827E+01  0.5780E+01
     12.287  0.5694E-01  0.4660E-01  0.5837E+01  0.5788E+01
     12.458  0.5030E+00  0.4228E-01  0.5922E+01  0.5795E+01
     12.628  0.6617E+00  0.4877E-01  0.6035E+01  0.5803E+01
     12.798  0.3599E+00  0.7872E-01  0.6097E+01  0.5817E+01
     12.969  0.1996E+00  0.7379E-01  0.6131E+01  0.5829E+01
     13.139  0.2036E+00  0.5043E-01  0.6165E+01  0.5838E+01
     13.310  0.1920E+00  0.6435E-01  0.6198E+01  0.5849E+01
     13.480  0.1245E+00  0.5010E-01  0.6219E+01  0.5857E+01
     13.650  0.1800E+00 -0.9534E-02  0.6250E+01  0.5856E+01
     13.821  0.3873E+00  0.3883E+00  0.6316E+01  0.5922E+01
     13.991  0.2359E+00  0.8808E+00  0.6356E+01  0.6072E+01
     14.161  0.5047E-01  0.4896E+00  0.6365E+01  0.6155E+01
     14.332  0.1484E+00  0.2944E+00  0.6390E+01  0.6206E+01
     14.502  0.1374E+00  0.2235E+00  0.6413E+01  0.6244E+01
     14.673  0.1339E+00  0.2215E+00  0.6436E+01  0.6281E+01
     14.843  0.1661E+00  0.3728E+00  0.6464E+01  0.6345E+01
     15.013  0.3482E+00  0.2093E+00  0.6524E+01  0.6381E+01
     15.184  0.3912E+00  0.1723E+00  0.6590E+01  0.6410E+01
     15.354  0.1559E+00  0.3178E+00  0.6617E+01  0.6464E+01
     15.524  0.1628E+00  0.4142E+00  0.6645E+01  0.6535E+01
     15.695  0.2032E+00  0.2241E+00  0.6679E+01  0.6573E+01
     15.865  0.2373E+00  0.2127E+00  0.6720E+01  0.6609E+01
     16.036  0.2259E+00  0.1663E+00  0.6758E+01  0.6637E+01
     16.206  0.1074E+00  0.3719E-01  0.6777E+01  0.6644E+01
     16.376  0.1745E+00  0.1093E+00  0.6806E+01  0.6662E+01
     16.547  0.1636E+00  0.2383E+00  0.6834E+01  0.6703E+01
     16.717  0.1546E+00  0.2509E+00  0.6860E+01  0.6746E+01
     16.888  0.1460E+00  0.1628E+00  0.6885E+01  0.6773E+01
     17.058  0.1057E+00  0.1015E+00  0.6903E+01  0.6791E+01
     17.228  0.1322E+00  0.2532E+00  0.6926E+01  0.6834E+01
     17.399  0.1587E+00  0.1491E+00  0.6953E+01  0.6859E+01
     17.569  0.1111E+00  0.6113E-01  0.6972E+01  0.6870E+01
     17.739  0.7573E-01  0.1290E+00  0.6985E+01  0.6892E+01
     17.910  0.1669E+00  0.1901E+00  0.7013E+01  0.6924E+01
     18.080  0.1091E+00  0.1774E+00  0.7032E+01  0.6954E+01
     18.251  0.1276E+00  0.8363E-01  0.7054E+01  0.6969E+01
     18.421  0.1561E+00  0.7832E-01  0.7080E+01  0.6982E+01
     18.591  0.5507E-01  0.1212E+00  0.7090E+01  0.7003E+01
     18.762  0.7880E-01  0.1442E+00  0.7103E+01  0.7027E+01
     18.932  0.1266E+00  0.1405E+00  0.7125E+01  0.7051E+01
     19.102  0.1306E+00  0.1604E+00  0.7147E+01  0.7078E+01
     19.273  0.1621E+00  0.7637E-01  0.7174E+01  0.7091E+01
     19.443  0.8986E-01  0.8005E-01  0.7190E+01  0.7105E+01
     19.614  0.5753E-01  0.9520E-01  0.7200E+01  0.7121E+01
     19.784  0.1176E+00  0.1081E+00  0.7220E+01  0.7140E+01
     19.954  0.9219E-01  0.1980E+00  0.7235E+01  0.7173E+01
     20.125  0.7576E-01  0.9938E-01  0.7248E+01  0.7190E+01
     20.295  0.1608E+00  0.6585E-01  0.7276E+01  0.7202E+01
     20.465  0.1150E+00  0.1539E+00  0.7295E+01  0.7228E+01
     20.636  0.9954E-01  0.6787E-01  0.7312E+01  0.7239E+01
     20.806  0.2526E+00  0.1742E-01  0.7355E+01  0.7242E+01
     20.977  0.3809E+00  0.1709E+00  0.7420E+01  0.7271E+01
     21.147  0.2697E+00  0.1826E+00  0.7466E+01  0.7302E+01
     21.317  0.2709E+00  0.1162E+00  0.7512E+01  0.7322E+01
     21.488  0.2885E+00  0.7494E-01  0.7561E+01  0.7335E+01
     21.658  0.2476E+00  0.1827E+00  0.7603E+01  0.7366E+01
     21.829  0.2446E+00  0.3723E+00  0.7645E+01  0.7430E+01
     21.999  0.1823E+00  0.3593E+00  0.7676E+01  0.7491E+01
     22.169  0.1807E+00  0.4048E+00  0.7707E+01  0.7560E+01
     22.340  0.1740E+00  0.3276E+00  0.7737E+01  0.7616E+01
     22.510  0.2098E+00  0.2028E+00  0.7772E+01  0.7650E+01
     22.680  0.3304E+00  0.2250E+00  0.7829E+01  0.7689E+01
     22.851  0.3333E+00  0.2259E+00  0.7886E+01  0.7727E+01
     23.021  0.2081E+00  0.2147E+00  0.7921E+01  0.7764E+01
     23.192  0.1485E+00  0.2900E+00  0.7946E+01  0.7813E+01
     23.362  0.2058E+00  0.4878E+00  0.7981E+01  0.7896E+01
     23.532  0.4181E+00  0.5327E+00  0.8053E+01  0.7987E+01
     23.703  0.3172E+00  0.2878E+00  0.8107E+01  0.8036E+01
     23.873  0.2513E+00  0.1182E+00  0.8149E+01  0.8056E+01
     24.043  0.2168E+00  0.1500E+00  0.8186E+01  0.8082E+01
     24.214  0.1690E+00  0.1877E+00  0.8215E+01  0.8114E+01
     24.384  0.1273E+00  0.2167E+00  0.8237E+01  0.8151E+01
     24.555  0.9117E-01  0.2329E+00  0.8252E+01  0.8190E+01
     24.725  0.1003E+00  0.1807E+00  0.8269E+01  0.8221E+01
     24.895  0.1807E+00  0.1427E+00  0.8300E+01  0.8245E+01
     25.066  0.4311E+00  0.9757E-01  0.8374E+01  0.8262E+01
     25.236  0.3252E+00  0.1241E+00  0.8429E+01  0.8283E+01
     25.407  0.1079E+00  0.1505E+00  0.8447E+01  0.8309E+01
     25.577  0.5778E-01  0.2503E+00  0.8457E+01  0.8351E+01
     25.747  0.6905E-01  0.3663E+00  0.8469E+01  0.8414E+01
     25.918  0.7425E-01  0.1914E+00  0.8482E+01  0.8446E+01
     26.088  0.1437E+00  0.1178E+00  0.8506E+01  0.8466E+01
     26.258  0.2339E+00  0.8744E-01  0.8546E+01  0.8481E+01
     26.429  0.1410E+00  0.1283E+00  0.8570E+01  0.8503E+01
     26.599  0.1076E+00  0.1478E+00  0.8588E+01  0.8528E+01
     26.770  0.1126E+00  0.1571E+00  0.8608E+01  0.8555E+01
     26.940  0.4973E-01  0.1626E+00  0.8616E+01  0.8583E+01
     27.110  0.5705E-01  0.5050E-01  0.8626E+01  0.8591E+01
     27.281  0.1611E+00  0.7055E-01  0.8653E+01  0.8604E+01
     27.451  0.1985E+00  0.1703E+00  0.8687E+01  0.8633E+01
     27.621  0.9668E-01  0.1510E+00  0.8704E+01  0.8658E+01
     27.792  0.1007E+00  0.1410E+00  0.8721E+01  0.8682E+01
     27.962  0.9437E-01  0.1487E+00  0.8737E+01  0.8708E+01
     28.133  0.4941E-01  0.6862E-01  0.8745E+01  0.8719E+01
     28.303  0.1606E+00  0.6250E-01  0.8773E+01  0.8730E+01
     28.473  0.5305E+00  0.1677E+00  0.8863E+01  0.8759E+01
     28.644  0.4249E+00  0.1222E+00  0.8935E+01  0.8779E+01
     28.814  0.2282E+00  0.1528E+00  0.8974E+01  0.8805E+01
     28.985  0.1646E+00  0.2606E+00  0.9002E+01  0.8850E+01
     29.155  0.1970E+00  0.4841E+00  0.9036E+01  0.8932E+01
     29.325  0.3991E+00  0.5159E+00  0.9104E+01  0.9020E+01
     29.496  0.2336E+00  0.3759E+00  0.9144E+01  0.9084E+01
     29.666  0.1897E+00  0.3458E+00  0.9176E+01  0.9143E+01
     29.836  0.3448E+00  0.6594E+00  0.9235E+01  0.9256E+01
     30.007  0.6083E+00  0.7844E+00  0.9338E+01  0.9389E+01
     30.177  0.6123E+00  0.2185E+00  0.9443E+01  0.9426E+01
     30.348  0.1497E+00  0.4788E-01  0.9468E+01  0.9435E+01
     30.518  0.6734E-01  0.9547E-01  0.9480E+01  0.9451E+01
     30.688  0.9994E-01  0.8861E-01  0.9497E+01  0.9466E+01
     30.859  0.1027E+00  0.1378E+00  0.9514E+01  0.9489E+01
     31.029  0.1228E+00  0.1165E+00  0.9535E+01  0.9509E+01
     31.199  0.8804E-01  0.6787E-01  0.9550E+01  0.9521E+01
     31.370  0.5980E-01  0.4273E-01  0.9560E+01  0.9528E+01
     31.540  0.7064E-01  0.4426E-01  0.9572E+01  0.9536E+01
     31.711  0.5657E-01  0.1288E+00  0.9582E+01  0.9558E+01
     31.881  0.7585E-01  0.7198E-01  0.9595E+01  0.9570E+01
     32.051  0.9860E-01  0.3990E-01  0.9612E+01  0.9577E+01
     32.222  0.7292E-01  0.8086E-01  0.9624E+01  0.9590E+01
     32.392  0.6087E-01  0.1299E+00  0.9634E+01  0.9613E+01
     32.562  0.8602E-01  0.1217E+00  0.9649E+01  0.9633E+01
     32.733  0.5537E-01  0.4081E-01  0.9659E+01  0.9640E+01
     32.903  0.3211E-01  0.1175E-01  0.9664E+01  0.9642E+01
     33.074  0.7275E-01  0.5180E-01  0.9676E+01  0.9651E+01
     33.244  0.8906E-01  0.4959E-01  0.9692E+01  0.9659E+01
     33.414  0.4500E-01  0.6597E-01  0.9699E+01  0.9671E+01
     33.585  0.3342E-02  0.8580E-01  0.9700E+01  0.9685E+01
     33.755  0.3461E-01  0.7140E-01  0.9706E+01  0.9698E+01
     33.926  0.6801E-01  0.4147E-01  0.9717E+01  0.9705E+01
     34.096  0.4385E-01  0.3218E-01  0.9725E+01  0.9710E+01
     34.266  0.8488E-01  0.4813E-01  0.9739E+01  0.9718E+01
     34.437  0.8649E-01  0.8400E-01  0.9754E+01  0.9733E+01
     34.607  0.7415E-01  0.1063E+00  0.9767E+01  0.9751E+01
     34.777  0.8573E-01  0.7608E-01  0.9781E+01  0.9764E+01
     34.948  0.1125E+00  0.8604E-01  0.9800E+01  0.9778E+01
     35.118  0.1449E+00  0.2035E+00  0.9825E+01  0.9813E+01
     35.289  0.3279E-01  0.1231E+00  0.9831E+01  0.9834E+01
     35.459  0.2144E-01  0.3048E-01  0.9834E+01  0.9839E+01
     35.629  0.7206E-01  0.2699E-01  0.9847E+01  0.9844E+01
     35.800  0.2378E-01  0.3360E-01  0.9851E+01  0.9849E+01
     35.970 -0.3114E-02  0.3427E-02  0.9850E+01  0.9850E+01
     36.140 -0.2724E-02  0.4160E-03  0.9850E+01  0.9850E+01
     36.311  0.3600E-02  0.3009E-01  0.9850E+01  0.9855E+01
     36.481  0.5740E-01  0.3666E-01  0.9860E+01  0.9861E+01
     36.652  0.5728E-01  0.3815E-01  0.9870E+01  0.9868E+01
     36.822  0.3557E-02  0.1378E-01  0.9870E+01  0.9870E+01
     36.992 -0.2292E-02 -0.2989E-02  0.9870E+01  0.9870E+01
     37.163 -0.2854E-02  0.1126E-02  0.9870E+01  0.9870E+01
     37.333  0.7504E-02  0.3211E-01  0.9871E+01  0.9876E+01
     37.504  0.6812E-01  0.5235E-01  0.9882E+01  0.9884E+01
     37.674  0.4743E-01  0.3246E-01  0.9890E+01  0.9890E+01
     37.844 -0.1257E-02  0.1618E-02  0.9890E+01  0.9890E+01
     38.015 -0.1608E-02 -0.1853E-02  0.9890E+01  0.9890E+01
     38.185 -0.2291E-02 -0.3018E-02  0.9890E+01  0.9889E+01
     38.355  0.4835E-02  0.2210E-01  0.9890E+01  0.9893E+01
     38.526  0.5962E-01  0.7223E-01  0.9901E+01  0.9905E+01
     38.696  0.5485E-01  0.3002E-01  0.9910E+01  0.9911E+01
     38.867  0.2552E-02 -0.2565E-02  0.9910E+01  0.9910E+01
     39.037 -0.2096E-02 -0.1045E-02  0.9910E+01  0.9910E+01
     39.207 -0.1727E-02 -0.2339E-02  0.9910E+01  0.9910E+01
     39.378  0.5055E-02  0.6777E-02  0.9911E+01  0.9911E+01
     39.548  0.3701E-01  0.5973E-01  0.9917E+01  0.9921E+01
     39.718  0.4824E-01  0.5250E-01  0.9925E+01  0.9930E+01
     39.889  0.2916E-01  0.2913E-02  0.9930E+01  0.9930E+01
     40.059  0.7392E-03 -0.2079E-02  0.9930E+01  0.9930E+01
     40.230 -0.2454E-02 -0.1786E-02  0.9930E+01  0.9930E+01
     40.400  0.3429E-02  0.7565E-02  0.9930E+01  0.9931E+01
     40.570  0.3357E-01  0.3595E-01  0.9936E+01  0.9937E+01
     40.741  0.2246E-01  0.2219E-01  0.9940E+01  0.9941E+01
     40.911  0.1666E-01  0.3384E-01  0.9943E+01  0.9947E+01
     41.082  0.3669E-01  0.2126E-01  0.9949E+01  0.9950E+01
     41.252  0.6889E-02 -0.2534E-02  0.9950E+01  0.9950E+01
     41.422 -0.1559E-02  0.4327E-02  0.9950E+01  0.9951E+01
     41.593  0.2684E-01  0.3558E-01  0.9954E+01  0.9957E+01
     41.763  0.3172E-01  0.2144E-01  0.9960E+01  0.9960E+01
     41.933  0.1999E-02 -0.1898E-02  0.9960E+01  0.9960E+01
     42.104 -0.1386E-02 -0.9709E-03  0.9960E+01  0.9960E+01
     42.274 -0.1942E-02  0.2465E-01  0.9960E+01  0.9964E+01
     42.445  0.7259E-02  0.3256E-01  0.9961E+01  0.9970E+01
     42.615  0.4479E-01  0.2774E-01  0.9969E+01  0.9974E+01
     42.785  0.5296E-01  0.3208E-01  0.9978E+01  0.9980E+01
     42.956  0.1685E-01  0.2902E-02  0.9980E+01  0.9980E+01
     43.126 -0.1887E-02 -0.1899E-02  0.9980E+01  0.9980E+01
     43.296 -0.1386E-02 -0.3593E-02  0.9980E+01  0.9979E+01
     43.467 -0.3196E-02  0.2491E-01  0.9979E+01  0.9984E+01
     43.637  0.3364E-01  0.7670E-01  0.9985E+01  0.9997E+01
     43.808  0.7523E-01  0.2400E-01  0.9998E+01  0.1000E+02
     43.978  0.1634E-01 -0.3512E-02  0.1000E+02  0.1000E+02
     44.148 -0.3361E-02 -0.5789E-03  0.1000E+02  0.1000E+02
     44.319 -0.3845E-03 -0.1170E-04  0.1000E+02  0.1000E+02
     44.489 -0.6231E-05 -0.4704E-07  0.1000E+02  0.1000E+02
     44.660 -0.2045E-07 -0.4110E-10  0.1000E+02  0.1000E+02
     44.830 -0.1467E-10 -0.8054E-14  0.1000E+02  0.1000E+02
     45.000 -0.2359E-14  0.0000E+00  0.1000E+02  0.1000E+02
     45.171  0.0000E+00  0.0000E+00  0.1000E+02  0.1000E+02
     45.341  0.0000E+00  0.0000E+00  0.1000E+02  0.1000E+02
     45.511  0.0000E+00  0.0000E+00  0.1000E+02  0.1000E+02
     45.682  0.0000E+00  0.0000E+00  0.1000E+02  0.1000E+02
     45.852  0.0000E+00  0.0000E+00  0.1000E+02  0.1000E+02
     46.023  0.0000E+00  0.0000E+00  0.1000E+02  0.1000E+02
     46.02254905     -5.09156453  301      5.47933391      1.00000000
     -5.092  0.0000E+00  0.0000E+00  0.0000E+00  0.0000E+00  0.0000E+00  0.0000E+00
     -4.921  0.0000E+00  0.0000E+00  0.0000E+00  0.0000E+00  0.0000E+00  0.0000E+00
     -4.751  0.0000E+00  0.0000E+00  0.0000E+00  0.0000E+00  0.0000E+00  0.0000E+00
     -4.580  0.0000E+00  0.0000E+00  0.0000E+00  0.0000E+00  0.0000E+00  0.0000E+00
     -4.410 -0.1616E-29  0.0000E+00 -0.2357E-33  0.0000E+00 -0.8455E-36  0.0000E+00
     -4.240 -0.8443E-24 -0.3070E-31 -0.1650E-27 -0.4099E-35 -0.6048E-30 -0.1018E-37
     -4.069 -0.1025E-18 -0.2416E-25 -0.2694E-22 -0.4327E-29 -0.1014E-24 -0.1102E-31
     -3.899 -0.2794E-14 -0.4419E-20 -0.1004E-17 -0.1065E-23 -0.3907E-20 -0.2781E-26
     -3.729 -0.1796E-10 -0.1806E-15 -0.8729E-14 -0.6106E-19 -0.3552E-16 -0.1645E-21
     -3.558 -0.2632E-07 -0.1770E-11 -0.1765E-10 -0.7861E-15 -0.7710E-13 -0.2209E-17
     -3.388 -0.8619E-05 -0.3933E-08 -0.8167E-08 -0.2403E-11 -0.4024E-10 -0.7181E-14
     -3.217 -0.5955E-03 -0.1968E-05 -0.8495E-06 -0.1685E-08 -0.5209E-08 -0.5575E-11
     -3.047 -0.6757E-02 -0.2127E-03 -0.1856E-04 -0.2676E-06 -0.1725E-06 -0.1060E-08
     -2.877  0.1955E-01 -0.4259E-02 -0.4317E-04 -0.9199E-05 -0.1275E-05 -0.5119E-07
     -2.706  0.1669E+00  0.4485E-03  0.4874E-03 -0.5103E-04  0.2286E-05 -0.5998E-06
     -2.536  0.1799E+00  0.1228E+00  0.1835E-02  0.2276E-03  0.3161E-04 -0.1822E-06
     -2.365  0.9560E-01  0.1989E+00  0.2916E-02  0.1445E-02  0.1016E-03  0.1367E-04
     -2.195  0.7454E-01  0.1115E+00  0.3731E-02  0.2621E-02  0.2039E-03  0.5258E-04
     -2.025  0.6126E-01  0.7714E-01  0.4043E-02  0.3520E-02  0.3156E-03  0.1145E-03
     -1.854  0.5696E-01  0.6473E-01  0.5056E-02  0.3988E-02  0.5351E-03  0.1902E-03
     -1.684  0.5539E-01  0.5386E-01  0.5505E-02  0.4390E-02  0.7003E-03  0.2757E-03
     -1.514  0.3430E-01  0.6059E-01  0.4385E-02  0.6013E-02  0.7931E-03  0.4756E-03
     -1.343  0.5877E-01  0.3397E-01  0.8534E-02  0.3795E-02  0.1635E-02  0.3691E-03
     -1.173  0.3470E-01  0.5064E-01  0.5322E-02  0.7399E-02  0.1326E-02  0.8931E-03
     -1.002  0.2818E-01  0.4687E-01  0.5320E-02  0.7044E-02  0.1744E-02  0.8943E-03
     -0.832  0.5140E-01  0.2320E-01  0.1089E-01  0.4095E-02  0.3519E-02  0.7881E-03
     -0.662  0.3566E-01  0.3903E-01  0.7522E-02  0.8131E-02  0.3240E-02  0.1469E-02
     -0.491  0.1313E-01  0.4895E-01  0.3326E-02  0.1077E-01  0.2213E-02  0.2237E-02
     -0.321  0.5128E-01  0.1914E-01  0.1441E-01  0.4174E-02  0.8338E-02  0.1171E-02
     -0.151  0.3256E-01  0.1787E-01  0.9212E-02  0.5196E-02  0.6015E-02  0.1599E-02
      0.020  0.1598E-01  0.5645E-01  0.4618E-02  0.1657E-01  0.7017E-02  0.5182E-02
      0.190  0.3735E-01  0.1964E-01  0.1314E-01  0.5685E-02  0.1373E-01  0.1832E-02
      0.361  0.3809E-01  0.1148E-01  0.1405E-01  0.3865E-02  0.1390E-01  0.2647E-02
      0.531  0.2157E-01  0.3818E-01  0.6228E-02  0.1401E-01  0.2351E-01  0.6518E-02
      0.701  0.7374E-01  0.3145E-01  0.1447E-01  0.1266E-01  0.2286E+00  0.6017E-02
      0.872  0.8368E-01  0.1786E-01  0.1385E-01  0.6658E-02  0.5233E+00  0.6238E-02
      1.042  0.3165E-01  0.1641E-01  0.8562E-02  0.7074E-02  0.6712E+00  0.5675E-02
      1.213  0.3502E-01  0.3461E-01  0.2299E-01  0.1643E-01  0.5212E+00  0.1436E-01
      1.383  0.2954E-01  0.2363E-01  0.2885E-01  0.1163E-01  0.4534E+00  0.1258E-01
      1.553  0.2425E-01  0.1504E-01  0.3135E-01  0.6275E-02  0.3953E+00  0.1397E-01
      1.724  0.1568E-01  0.2617E-01  0.1816E-01  0.1386E-01  0.1672E+00  0.2012E-01
      1.894  0.7321E-02  0.3393E-01  0.1131E-01  0.1557E-01  0.1053E+00  0.5367E-01
      2.064  0.9403E-02  0.6027E-01  0.4264E-01  0.6017E-02  0.8208E+00  0.2108E+00
      2.235  0.7150E-02  0.7089E-01  0.9312E-01  0.1186E-01  0.1650E+01  0.2481E+00
      2.405  0.7253E-02  0.4276E-01  0.8418E-01  0.1763E-01  0.1086E+01  0.1290E+00
      2.576  0.4375E-02  0.2253E-01  0.4234E-01  0.1041E-01  0.5731E+00  0.3073E+00
      2.746  0.1913E-03  0.2742E-01  0.1995E-01  0.2809E-01  0.4214E+00  0.6291E+00
      2.916 -0.1076E-04  0.2465E-01  0.1794E-01  0.3463E-01  0.4802E+00  0.4960E+00
      3.087  0.3016E-02  0.1523E-01  0.2606E-01  0.2381E-01  0.1410E+01  0.3449E+00
      3.257  0.4655E-02  0.1350E-01  0.3187E-01  0.2409E-01  0.1804E+01  0.2290E+00
      3.427  0.3782E-02  0.7070E-02  0.2886E-01  0.1706E-01  0.7342E+00  0.1123E+00
      3.598  0.3200E-02  0.6628E-02  0.2772E-01  0.2542E-01  0.4190E+00  0.1332E+00
      3.768  0.3651E-02  0.5227E-02  0.2787E-01  0.1058E+00  0.3922E+00  0.7216E+00
      3.939  0.2932E-02  0.2655E-02  0.2522E-01  0.1465E+00  0.3821E+00  0.1297E+01
      4.109  0.8618E-02  0.2443E-03  0.3021E-01  0.5768E-01  0.4732E+00  0.9369E+00
      4.279  0.7791E-02 -0.1073E-03  0.2604E-01  0.3249E-01  0.7522E+00  0.5113E+00
      4.450  0.9250E-02 -0.3945E-04  0.2574E-01  0.3333E-01  0.2231E+01  0.3624E+00
      4.620  0.8810E-02 -0.1460E-03  0.2684E-01  0.3182E-01  0.3617E+01  0.3487E+00
      4.790  0.4831E-02  0.9894E-03  0.2698E-01  0.3975E-01  0.2605E+01  0.3674E+00
      4.961  0.2944E-02  0.3691E-02  0.1858E-01  0.5630E-01  0.6490E+00  0.4999E+00
      5.131  0.6025E-02  0.3181E-02  0.3071E-01  0.5867E-01  0.3200E+00  0.1035E+01
      5.302  0.4930E-02  0.2069E-02  0.2339E-01  0.5583E-01  0.6242E+00  0.1762E+01
      5.472  0.4707E-02  0.1617E-02  0.1954E-01  0.6050E-01  0.1026E+01  0.8794E+00
      5.642  0.5923E-02  0.1537E-02  0.2654E-01  0.6230E-01  0.8809E+00  0.3544E+00
      5.813  0.2494E-02  0.1089E-02  0.2414E-01  0.7112E-01  0.3305E+00  0.3223E+00
      5.983  0.6185E-02  0.7386E-03  0.9287E-01  0.1081E+00  0.9851E-02  0.2920E+00
      6.154  0.5283E-02  0.2412E-02  0.9536E-01  0.1611E+00  0.2966E-01  0.3193E+00
      6.324  0.1713E-02  0.5857E-02  0.3489E-01  0.6657E-01  0.3589E-01  0.4082E+00
      6.494  0.6758E-03  0.4294E-02  0.3185E-01  0.2206E-02  0.2018E-01  0.3598E+00
      6.665  0.7075E-02  0.2640E-02  0.3027E-01  0.5224E-02  0.3079E-01  0.4202E+00
      6.835  0.7818E-02  0.4283E-02  0.2930E-01  0.7591E-02  0.4948E-01  0.1142E+01
      7.005  0.2193E-02  0.6695E-02  0.3443E-01  0.8213E-02  0.3717E-01  0.2470E+01
      7.176 -0.3721E-03  0.2963E-02  0.1659E-01  0.6028E-02  0.1262E-01  0.2586E+01
      7.346 -0.3089E-03  0.1438E-02  0.2090E-01  0.8022E-02  0.1375E-01  0.2235E+01
      7.517  0.7663E-02  0.2236E-02  0.3861E-01  0.7871E-02  0.4073E-01  0.7959E+00
      7.687  0.1122E-01  0.3487E-02  0.2879E-01  0.9232E-02  0.4813E-01  0.5057E+00
      7.857  0.1283E-02  0.3949E-02  0.2065E-01  0.1059E-01  0.1828E-01  0.9502E+00
      8.028 -0.5224E-03  0.4120E-02  0.3180E-01  0.5546E-02  0.2065E-01  0.8059E+00
      8.198 -0.2418E-03  0.3090E-02  0.8222E-02  0.1366E-01  0.6421E-02  0.4890E+00
      8.368  0.2084E-02  0.3781E-02  0.2647E-01  0.1208E-01  0.2885E-01  0.1245E+00
      8.539  0.7450E-02  0.5584E-02  0.3922E-01  0.1424E-01  0.4031E-01  0.5887E-01
      8.709  0.8820E-02  0.1326E-02  0.2891E-01  0.1832E-01  0.2713E-01  0.6325E-01
      8.880  0.1776E-02  0.1887E-02  0.1615E-01  0.1149E-01  0.1313E-01  0.6105E-01
      9.050 -0.5589E-03  0.6527E-02  0.2609E-01  0.2199E-01  0.1523E-01  0.6216E-01
      9.220  0.5581E-03  0.4429E-02  0.2474E-01  0.2140E-01  0.2028E-01  0.4878E-01
      9.391  0.3999E-02  0.1485E-02  0.1360E-01  0.1242E-01  0.2120E-01  0.4735E-01
      9.561  0.2047E-02  0.1030E-02  0.3395E-01  0.1929E-01  0.2936E-01  0.4832E-01
      9.732  0.2930E-02  0.1931E-02  0.3041E-01  0.2261E-01  0.1891E-01  0.3881E-01
      9.902  0.7269E-02  0.7485E-02  0.2047E-01  0.1616E-01  0.1438E-01  0.3049E-01
     10.072  0.1596E-02  0.4885E-02  0.2563E-01  0.2864E-01  0.1855E-01  0.5776E-01
     10.243  0.6734E-04  0.1542E-02  0.2528E-01  0.2291E-01  0.1443E-01  0.4419E-01
     10.413  0.3505E-02 -0.1610E-03  0.2695E-01  0.8855E-02  0.2753E-01  0.1730E-01
     10.583  0.2384E-02 -0.4690E-03  0.1862E-01  0.1690E-01  0.2011E-01  0.2129E-01
     10.754 -0.2832E-03  0.4353E-02  0.2082E-01  0.3054E-01  0.1056E-01  0.3859E-01
     10.924  0.3865E-03  0.9753E-02  0.3053E-01  0.3057E-01  0.2007E-01  0.5303E-01
     11.095  0.5200E-02  0.2177E-02  0.2000E-01  0.1807E-01  0.1127E-01  0.2353E-01
     11.265  0.3842E-02 -0.4514E-03  0.2507E-01  0.2759E-01  0.1302E-01  0.2980E-01
     11.435  0.1296E-02 -0.2035E-03  0.4244E-01  0.6244E-02  0.2909E-01  0.8243E-02
     11.606  0.2835E-02  0.5317E-03  0.2042E-01  0.1724E-01  0.1938E-01  0.2344E-01
     11.776  0.6108E-03  0.3625E-02  0.1205E-01  0.3819E-01  0.1153E-01  0.4687E-01
     11.946 -0.5845E-03  0.6553E-02  0.3047E-01  0.2777E-01  0.1760E-01  0.2633E-01
     12.117 -0.6947E-02  0.3350E-02  0.1677E-01  0.2446E-01  0.1303E-03  0.2372E-01
     12.287  0.9803E-02 -0.2080E-03  0.1621E-01  0.2262E-01  0.2103E-01  0.1561E-01
     12.458  0.1865E+00 -0.1848E-03  0.4180E-01  0.1731E-01  0.2111E+00  0.1747E-01
     12.628  0.2467E+00  0.1302E-02  0.5435E-01  0.1582E-01  0.2759E+00  0.2313E-01
     12.798  0.1111E+00  0.2165E-02  0.5333E-01  0.3138E-01  0.1410E+00  0.3095E-01
     12.969  0.5902E-01  0.1379E-02  0.3517E-01  0.3112E-01  0.7256E-01  0.2717E-01
     13.139  0.5581E-01  0.4184E-02  0.4612E-01  0.2368E-01  0.6709E-01  0.1174E-01
     13.310  0.3862E-01  0.1685E-02  0.5599E-01  0.3162E-01  0.6155E-01  0.1775E-01
     13.480  0.2392E-01 -0.3399E-02  0.3731E-01  0.2615E-01  0.3879E-01  0.1666E-01
     13.650  0.2172E-01 -0.1132E-01  0.7363E-01  0.6603E-02  0.4618E-01 -0.5763E-02
     13.821  0.2505E-01  0.1145E+00  0.1553E+00  0.4202E-01  0.1239E+00  0.1847E+00
     13.991  0.1488E-01  0.3071E+00  0.8969E-01  0.5257E-01  0.8101E-01  0.4235E+00
     14.161  0.5516E-02  0.1603E+00  0.2688E-01  0.5375E-01  0.6420E-02  0.2112E+00
     14.332  0.4417E-02  0.5609E-01  0.7191E-01  0.8788E-01  0.3778E-01  0.9590E-01
     14.502  0.4433E-02  0.4539E-01  0.6319E-01  0.6059E-01  0.3814E-01  0.7766E-01
     14.673  0.1256E-01  0.2453E-01  0.7181E-01  0.7353E-01  0.1841E-01  0.7871E-01
     14.843  0.1044E-01  0.1161E-01  0.8328E-01  0.1445E+00  0.3382E-01  0.1358E+00
     15.013  0.1411E-02  0.1608E-01  0.2152E+00  0.8559E-01  0.4207E-01  0.6267E-01
     15.184 -0.7926E-04  0.1436E-01  0.2744E+00  0.8653E-01  0.1158E-01  0.3144E-01
     15.354 -0.1212E-02  0.3064E-02  0.1076E+00  0.1816E+00  0.7964E-02  0.5194E-01
     15.524 -0.2570E-02 -0.5189E-04  0.9641E-01  0.2849E+00  0.2865E-01  0.1466E-01
     15.695  0.3687E-01  0.3112E-02  0.7486E-01  0.1448E+00  0.4616E-01  0.1625E-01
     15.865  0.1017E+00  0.1027E-01  0.5739E-01  0.9101E-01  0.2657E-01  0.6364E-01
     16.036  0.7335E-01  0.3335E-02  0.8246E-01  0.9034E-01  0.1820E-01  0.3215E-01
     16.206  0.3256E-01 -0.1943E-02  0.3899E-01  0.2226E-01  0.1130E-01  0.7149E-02
     16.376  0.4151E-01 -0.3196E-02  0.5667E-01  0.5796E-01  0.3628E-01  0.2772E-01
     16.547  0.2867E-01  0.4749E-01  0.6208E-01  0.9235E-01  0.3506E-01  0.4384E-01
     16.717  0.1685E-01  0.1130E+00  0.7834E-01  0.4765E-01  0.2518E-01  0.3829E-01
     16.888  0.4907E-01  0.6823E-01  0.4808E-01  0.3622E-01  0.1739E-01  0.2394E-01
     17.058  0.1798E-01  0.3428E-01  0.3010E-01  0.2934E-01  0.3228E-01  0.1520E-01
     17.228  0.6035E-02  0.4528E-01  0.5322E-01  0.9637E-01  0.4154E-01  0.5333E-01
     17.399  0.2533E-01  0.1460E-01  0.7985E-01  0.6679E-01  0.1915E-01  0.3262E-01
     17.569  0.2459E-01  0.3112E-01  0.4776E-01  0.1214E-01  0.1390E-01  0.5175E-02
     17.739  0.1417E-01  0.4576E-01  0.2421E-01  0.2639E-01  0.1918E-01  0.2915E-01
     17.910  0.2024E-01  0.8465E-02  0.6174E-01  0.7652E-01  0.4714E-01  0.6004E-01
     18.080  0.5905E-02  0.1752E-01  0.4016E-01  0.8309E-01  0.3720E-01  0.3683E-01
     18.251  0.1858E-01  0.2758E-01  0.5457E-01  0.2781E-01  0.2557E-01  0.9527E-02