    1    1    1    2
  0.1181995E+02  0.2485493E-09  0.2485493E-09  0.2485493E-09  0.5000000E-15
  1.000000000000000E-004
  CAR 
 bcc Fe                                  
      8    100     10
 
  0.0000000E+00  0.0000000E+00  0.0000000E+00  0.1000000E-01
    1       -2.768196     -2.549966   1.000000   1.000000
    2        3.117983      5.216443   1.000000   1.034363
    3        3.117983      5.216443   1.000000   1.034363
    4        3.118100      5.216751   1.000000   1.034398
    5        4.484374      6.985149   1.000000  -0.000000
    6        4.484374      6.985149   1.000000  -0.000000
    7       30.064074     29.905739   0.000000   0.000000
    8       30.064075     29.905739   0.000000   0.000000
    9       30.064159     29.905770   0.000000   0.000000
   10       35.033470     35.079792   0.000000   0.000000
 
 -0.2631579E-01  0.2631579E-01  0.2631579E-01  0.1000000E-01
    1       -2.712336     -2.493898   1.000000   1.000000
    2        3.117683      5.213930   1.000000   1.034061
    3        3.117760      5.214134   1.000000   1.034086
    4        3.132940      5.233163   1.000000   1.035452
    5        4.460059      6.954173   1.000000  -0.000000
    6        4.494147      6.997413   1.000000  -0.000000
    7       29.656699     29.533489   0.000000   0.000000
    8       30.006562     29.877251   0.000000   0.000000
    9       30.006614     29.877259   0.000000   0.000000
   10       34.344289     34.548519   0.000000   0.000000
 
 -0.5263158E-01  0.5263158E-01  0.5263158E-01  0.1000000E-01
    1       -2.545973     -2.326732   1.000000   1.000000
    2        3.117641      5.207533   1.000000   1.033160
    3        3.117718      5.207736   1.000000   1.033191
    4        3.177325      5.282620   1.000000   1.023337
    5        4.387621      6.861955   1.000000  -0.000000
    6        4.522964      7.033219   1.000000  -0.000000
    7       28.752095     28.694000   0.000000   0.000000
    8       29.780128     29.751620   0.000000   0.000000
    9       29.780171     29.751649   0.000000   0.000000
   10       33.097759     33.422869   0.000000   0.000000
 
 -0.7894737E-01  0.7894737E-01  0.7894737E-01  0.1000000E-01
    1       -2.273106     -2.051840   1.000000   1.000000
    2        3.123922      5.203181   1.000000   1.032452
    3        3.123989      5.203371   1.000000   1.032484
    4        3.250588      5.364010   1.000000   0.909246
    5        4.269240      6.711110   1.000000  -0.000000
    6        4.573494      7.093408   1.000000  -0.000000
    7       27.721269     27.730395   0.000000   0.000000
    8       29.286558     29.437986   0.000000   0.000000
    9       29.286592     29.438057   0.000000   0.000000
   10       31.763203     32.133162   0.000000   0.000000
 
 -0.1052632E+00  0.1052632E+00  0.1052632E+00  0.1000000E-01
    1       -1.900982     -1.675189   1.000000   1.000000
    2        3.136719      5.203376   1.000000   1.032485
    3        3.136781      5.203553   1.000000   1.032515
    4        3.351323      5.475917   1.000000   0.514458
    5        4.109723      6.507311   1.000000  -0.000000
    6        4.632527      7.163050   1.000000  -0.000000
    7       26.723384     26.799965   0.000000   0.000000
    8       28.474638     28.834228   0.000000   0.000000
    9       28.474662     28.834324   0.000000   0.000000
   10       30.423947     30.806418   0.000000   0.000000
 
 -0.1315789E+00  0.1315789E+00  0.1315789E+00  0.1000000E-01
    1       -1.441068     -1.205688   1.000000   1.000000
    2        3.157577      5.212124   1.000000   1.033825
    3        3.157639      5.212304   1.000000   1.033849
    4        3.474524      5.613724   1.000000   0.050302
    5        3.906901      6.251185   1.000000  -0.000000
    6        4.711343      7.247204   1.000000  -0.000000
    7       25.784117     25.933082   0.000000   0.000000
    8       27.406761     27.936709   0.000000   0.000000
    9       27.406777     27.936826   0.000000   0.000000
   10       29.149138     29.531452   0.000000   0.000000
 
 -0.1578947E+00  0.1578947E+00  0.1578947E+00  0.1000000E-01
    1       -0.910993     -0.656156   1.000000   1.000000
    2        3.199122      5.241693   1.000000   1.035242
    3        3.199183      5.241863   1.000000   1.035231
    4        3.627266      5.782014   1.000000  -0.027050
    5        3.671573      5.954647   1.000000  -0.001974
    6        4.814957      7.343269   1.000014  -0.000000
    7       24.943676     25.167478   0.000000   0.000000
    8       26.234640     26.871966   0.000000   0.000000
    9       26.234650     26.872066   0.000000   0.000000
   10       27.967877     28.346442   0.000000   0.000000
 
 -0.1842105E+00  0.1842105E+00  0.1842105E+00  0.1000000E-01
    1       -0.338027     -0.045071   1.000000   1.000000
    2        3.262018      5.295737   1.000000   1.014390
    3        3.262080      5.295910   1.000000   1.014251
    4        3.407555      5.624112   1.000000   0.032062
    5        3.788174      5.962728   1.000000  -0.001665
    6        4.952400      7.448934   1.000621  -0.000000
    7       24.194015     24.495551   0.000000   0.000000
    8       25.010022     25.712432   0.000000   0.000000
    9       25.010032     25.712523   0.000000   0.000000
   10       26.904578     27.282305   0.000000   0.000000
 
 -0.2105263E+00  0.2105263E+00  0.2105263E+00  0.1000000E-01
    1        0.236557      0.601075   1.000000   1.000000
    2        3.123902      5.271062   1.000000   1.028904
    3        3.353332      5.382071   1.000000   0.862488
    4        3.353394      5.382248   1.000000   0.861991
    5        3.962623      6.158875   1.000000  -0.000009
    6        5.155676      7.577629   1.022222  -0.000000
    7       23.540627     23.920426   0.000000   0.000000
    8       23.784202     24.522046   0.000000   0.000000
    9       23.784213     24.522125   0.000000   0.000000
   10       25.975679     26.360132   0.000000   0.000000
 
 -0.2368421E+00  0.2368421E+00  0.2368421E+00  0.1000000E-01
    1        0.755113      1.244690   1.000000   1.000000
    2        2.828766      4.906147   1.000000   1.000194
    3        3.474582      5.504302   1.000000   0.395257
    4        3.474650      5.504487   1.000000   0.394496
    5        4.145808      6.365238   1.000000  -0.000000
    6        5.463583      7.745969   0.566420  -0.000000
    7       22.575659     23.328430   0.000000   0.000000
    8       22.575669     23.328497   0.000000   0.000000
    9       22.978832     23.435524   0.000000   0.000000
   10       25.188499     25.590926   0.000000   0.000000
 
 -0.2631579E+00  0.2631579E+00  0.2631579E+00  0.1000000E-01
    1        1.154566      1.835299   1.000000   1.000000
    2        2.530703      4.540205   1.000000   1.000000
    3        3.630494      5.667302   1.000000  -0.017705
    4        3.630565      5.667494   1.000000  -0.017842
    5        4.333042      6.576422   1.000000  -0.000000
    6        5.948250      8.010737  -0.002254  -0.000000
    7       21.409579     22.161574   0.000000   0.000000
    8       21.409594     22.161625   0.000000   0.000000
    9       22.501985     23.032331   0.000000   0.000000
   10       24.543334     24.975124   0.000000   0.000000
 
 -0.2894737E+00  0.2894737E+00  0.2894737E+00  0.1000000E-01
    1        1.395233      2.316099   1.000000   1.000000
    2        2.238252      4.183708   1.000000   1.000000
    3        3.819532      5.871283   1.000000  -0.009085
    4        3.819605      5.871482   1.000000  -0.009057
    5        4.518997      6.786519   1.000000  -0.000000
    6        6.641199      8.421043  -0.000000  -0.000000
    7       20.293845     21.031914   0.000000   0.000000
    8       20.293864     21.031946   0.000000   0.000000
    9       22.102493     22.701594   0.000000   0.000000
   10       24.030497     24.502059   0.000000   0.000000
 
 -0.3157895E+00  0.3157895E+00  0.3157895E+00  0.1000000E-01
    1        1.483183      2.644525   1.000000   1.000000
    2        1.957862      3.845144   1.000000   1.000000
    3        4.037640      6.113497   1.000000  -0.000035
    4        4.037721      6.113705   1.000000  -0.000035
    5        4.700281      6.991042   1.000000  -0.000000
    6        7.538567      9.022935  -0.000000  -0.000000
    7       19.241332     19.953344   0.000000   0.000000
    8       19.241354     19.953350   0.000000   0.000000
    9       21.761480     22.425244   0.000000   0.000000
   10       23.630853     24.149287   0.000000   0.000000
 
 -0.3421053E+00  0.3421053E+00  0.3421053E+00  0.1000000E-01
    1        1.456641      2.814648   1.000000   1.000000
    2        1.700125      3.535315   1.000000   1.000000
    3        4.279766      6.389743   1.000000  -0.000000
    4        4.279852      6.389964   1.000000  -0.000000
    5        4.867642      7.180897   1.000067  -0.000000
    6        8.605471      9.827753  -0.000000  -0.000000
    7       18.262360     18.937052   0.000000   0.000000
    8       18.262390     18.937065   0.000000   0.000000
    9       21.490755     22.210123   0.000000   0.000000
   10       23.316674     23.884362   0.000000   0.000000
 
 -0.3684211E+00  0.3684211E+00  0.3684211E+00  0.1000000E-01
    1        1.362114      2.857933   1.000000   1.000000
    2        1.470183      3.260729   1.000000   1.000000
    3        4.534176      6.689133   1.000000  -0.000000
    4        4.534272      6.689376   1.000000  -0.000000
    5        5.018667      7.352458   1.002664  -0.000000
    6        9.798311     10.808478  -0.000000  -0.000000
    7       17.372971     17.999167   0.000000   0.000000
    8       17.373010     17.999200   0.000000   0.000000
    9       21.272346     22.039626   0.000000   0.000000
   10       23.056831     23.670668   0.000000   0.000000
 
 -0.3947368E+00  0.3947368E+00  0.3947368E+00  0.1000000E-01
    1        1.234625      2.819531   1.000000   1.000000
    2        1.274238      3.027788   1.000000   1.000000
    3        4.789585      6.998485   1.000006  -0.000000
    4        4.789688      6.998748   1.000006  -0.000000
    5        5.148869      7.500551   1.020668  -0.000000
    6       11.072618     11.912266   0.000000   0.000000
    7       16.594730     17.163441   0.000000   0.000000
    8       16.594777     17.163496   0.000000   0.000000
    9       21.103643     21.910337   0.000000   0.000000
   10       22.768104     23.421650   0.000000   0.000000
 
 -0.4210526E+00  0.4210526E+00  0.4210526E+00  0.1000000E-01
    1        1.107131      2.745304   1.000000   1.000000
    2        1.116896      2.841508   1.000000   1.000000
    3        5.026082      7.294630   1.003085  -0.000000
    4        5.026192      7.294914   1.003091  -0.000000
    5        5.254429      7.620739   1.033691  -0.000000
    6       12.376722     13.072592   0.000000   0.000000
    7       15.948546     16.454498   0.000000   0.000000
    8       15.948601     16.454578   0.000000   0.000000
    9       20.977925     21.815425   0.000000   0.000000
   10       22.375488     23.065930   0.000000   0.000000
 
 -0.4473684E+00  0.4473684E+00  0.4473684E+00  0.1000000E-01
    1        1.001407      2.669424   1.000000   1.000000
    2        1.001865      2.705746   1.000000   1.000000
    3        5.220814      7.546980   1.034812  -0.000000
    4        5.220930      7.547284   1.034822  -0.000000
    5        5.332173      7.709329   0.971755  -0.000000
    6       13.623055     14.187224   0.000000   0.000000
    7       15.459581     15.905518   0.000000   0.000000
    8       15.459644     15.905620   0.000000   0.000000
    9       20.891085     21.750644   0.000000   0.000000
   10       21.799883     22.544494   0.000000   0.000000
 
 -0.4736842E+00  0.4736842E+00  0.4736842E+00  0.1000000E-01
    1        0.931790      2.615079   1.000000   1.000000
    2        0.932250      2.623217   1.000000   1.000000
    3        5.350215      7.719798   0.939427  -0.000000
    4        5.350335      7.720117   0.939183  -0.000000
    5        5.379762      7.763589   0.868919  -0.000000
    6       14.629283     15.073024   0.000000   0.000000
    7       15.153010     15.554024   0.000000   0.000000
    8       15.153078     15.554143   0.000000   0.000000
    9       20.840168     21.712977   0.000000   0.000000
   10       21.144183     21.971260   0.000000   0.000000
 
 -0.5000000E+00  0.5000000E+00  0.5000000E+00  0.1000000E-01
    1        0.908252      2.595526   1.000000   1.000000
    2        0.908252      2.595526   1.000000   1.000000
    3        5.395735      7.781711   0.821796  -0.000000
    4        5.395735      7.781711   0.821796  -0.000000
    5        5.395919      7.782200   0.821217  -0.000000
    6       15.048296     15.432378   0.000000   0.000000
    7       15.048401     15.432565   0.000000   0.000000
    8       15.048401     15.432565   0.000000   0.000000
    9       20.823390     21.700617   0.000000   0.000000
   10       20.823390     21.700618   0.000000   0.000000
 
 -0.5000000E+00  0.5000000E+00  0.5000000E+00  0.1000000E-01
    1        0.908252      2.595526   1.000000   1.000000
    2        0.908252      2.595526   1.000000   1.000000
    3        5.395735      7.781711   0.821796  -0.000000
    4        5.395735      7.781711   0.821796  -0.000000
    5        5.395919      7.782200   0.821217  -0.000000
    6       15.048296     15.432378   0.000000   0.000000
    7       15.048401     15.432565   0.000000   0.000000
    8       15.048401     15.432565   0.000000   0.000000
    9       20.823390     21.700617   0.000000   0.000000
   10       20.823390     21.700618   0.000000   0.000000
 
 -0.4736842E+00  0.5000000E+00  0.4736842E+00  0.1000000E-01
    1        0.920073      2.606460   1.000000   1.000000
    2        0.920287      2.608350   1.000000   1.000000
    3        5.363123      7.739448   0.911333  -0.000000
    4        5.372800      7.750470   0.887510  -0.000000
    5        5.397574      7.783977   0.815983  -0.000000
    6       14.940922     15.347498   0.000000   0.000000
    7       14.986856     15.390188   0.000000   0.000000
    8       15.100825     15.493518   0.000000   0.000000
    9       20.872970     21.741387   0.000000   0.000000
   10       20.957404     21.812517   0.000000   0.000000
 
 -0.4473684E+00  0.5000000E+00  0.4473684E+00  0.1000000E-01
    1        0.954920      2.639281   1.000000   1.000000
    2        0.956395      2.646034   1.000000   1.000000
    3        5.267837      7.617100   1.030110  -0.000000
    4        5.304790      7.658008   1.006384  -0.000000
    5        5.402672      7.789735   0.799473  -0.000000
    6       14.643811     15.108159   0.000000   0.000000
    7       14.816283     15.272779   0.000000   0.000000
    8       15.255775     15.672267   0.000000   0.000000
    9       21.005906     21.851566   0.000000   0.000000
   10       21.334372     22.132772   0.000000   0.000000
 
 -0.4210526E+00  0.5000000E+00  0.4210526E+00  0.1000000E-01
    1        1.010901      2.694053   1.000000   1.000000
    2        1.016594      2.706140   1.000000   1.000000
    3        5.116851      7.426382   1.013959  -0.000000
    4        5.194822      7.509876   1.030918  -0.000000
    5        5.411016      7.799162   0.771229  -0.000000
    6       14.211373     14.750469   0.000000   0.000000
    7       14.570574     15.104466   0.000000   0.000000
    8       15.506528     15.957383   0.000000   0.000000
    9       21.186286     22.002554   0.000000   0.000000
   10       21.900391     22.625830   0.000000   0.000000
 
 -0.3947368E+00  0.5000000E+00  0.3947368E+00  0.1000000E-01
    1        1.084681      2.770867   1.000000   1.000000
    2        1.100902      2.784316   1.000000   1.000000
    3        4.920164      7.182897   1.000279  -0.000000
    4        5.048306      7.315446   1.004692  -0.000000
    5        5.422396      7.812019   0.730442  -0.000000
    6       13.694876     14.312337   0.000000   0.000000
    7       14.287225     14.912886   0.000000   0.000000
    8       15.843609     16.333886   0.000000   0.000000
    9       21.379720     22.165014   0.000000   0.000000
   10       22.604975     23.254599   0.000000   0.000000
 
 -0.3684211E+00  0.5000000E+00  0.3684211E+00  0.1000000E-01
    1        1.171227      2.869861   1.000000   1.000000
    2        1.209361      2.873884   1.000000   1.000000
    3        4.689041      6.902733   1.000000  -0.000000
    4        4.873452      7.088431   1.000079  -0.000000
    5        5.436514      7.827971   0.676664  -0.000000
    6       13.130285     13.823468   0.000000   0.000000
    7       13.996707     14.720848   0.000000   0.000000
    8       16.256440     16.786513   0.000000   0.000000
    9       21.565920     22.319682   0.000000   0.000000
   10       23.412993     23.990250   0.000000   0.000000
 
 -0.3421053E+00  0.5000000E+00  0.3421053E+00  0.1000000E-01
    1        1.263377      2.965230   1.000000   1.000000
    2        1.341959      2.991136   1.000000   1.000000
    3        4.434626      6.600407   1.000000  -0.000000
    4        4.681546      6.846880   1.000000  -0.000000
    5        5.453002      7.846602   0.610357  -0.000000
    6       12.540378     13.304519   0.000000   0.000000
    7       13.719862     14.543554   0.000000   0.000000
    8       16.734668     17.301707   0.000000   0.000000
    9       21.738482     22.458815   0.000000   0.000000
   10       24.302884     24.813382   0.000000   0.000000
 
 -0.3157895E+00  0.5000000E+00  0.3157895E+00  0.1000000E-01
    1        1.351610      3.045406   1.000000   1.000000
    2        1.498851      3.134966   1.000000   1.000000
    3        4.167232      6.288209   1.000000  -0.000000
    4        4.490425      6.615220   1.000000  -0.000000
    5        5.471429      7.867423   0.533420  -0.000000
    6       11.939664     12.769664   0.000000   0.000000
    7       13.469204     14.389409   0.000000   0.000000
    8       17.268957     17.868354   0.000000   0.000000
    9       21.904337     22.586713   0.000000   0.000000
   10       25.263020     25.712347   0.000000   0.000000
 
 -0.2894737E+00  0.5000000E+00  0.2894737E+00  0.1000000E-01
    1        1.423175      3.098236   1.000000   1.000000
    2        1.679640      3.301108   1.000000   1.000000
    3        3.895808      5.976049   1.000000  -0.001246
    4        4.310416      6.412718   1.000000  -0.000000
    5        5.491322      7.889899   0.449374  -0.000000
    6       11.336059     12.226962   0.000000   0.000000
    7       13.249945     14.260386   0.000000   0.000000
    8       17.851269     18.477676   0.000000   0.000000
    9       22.056434     22.696728   0.000000   0.000000
   10       26.283318     26.677795   0.000000   0.000000
 
 -0.2631579E+00  0.5000000E+00  0.2631579E+00  0.1000000E-01
    1        1.464532      3.107525   1.000000   1.000000
    2        1.884377      3.489728   1.000000   1.000000
    3        3.628051      5.671947   1.000000  -0.020857
    4        4.164627      6.266293   1.000000  -0.000000
    5        5.512153      7.913429   0.363184  -0.000000
    6       10.735890     11.683179  -0.000000   0.000000
    7       13.063759     14.156278   0.000000   0.000000
    8       18.474856     19.122846   0.000000   0.000000
    9       22.205911     22.798206   0.000000   0.000000
   10       27.360759     27.705849   0.000000   0.000000
 
 -0.2368421E+00  0.5000000E+00  0.2368421E+00  0.1000000E-01
    1        1.463416      3.062345   1.000000   1.000000
    2        2.112240      3.700307   1.000000   1.000000
    3        3.367664      5.379999   1.000000   0.868266
    4        4.065203      6.189257   1.000000  -0.000003
    5        5.536004      7.939498   0.270550  -0.000000
    6       10.144068     11.143339  -0.000000   0.000000
    7       12.906674     14.072188   0.000000   0.000000
    8       19.130202     19.795700   0.000000   0.000000
    9       22.351309     22.889729   0.000000   0.000000
   10       28.485417     28.786068   0.000000   0.000000
 
 -0.2105263E+00  0.5000000E+00  0.2105263E+00  0.1000000E-01
    1        1.415757      2.963811   1.000000   1.000000
    2        2.362945      3.932790   1.000000   1.000000
    3        3.123678      5.108552   1.000000   1.012447
    4        4.027284      6.189151   1.000000  -0.000003
    5        5.556360      7.962647   0.199327  -0.000000
    6        9.561098     10.608667  -0.000000  -0.000000
    7       12.780718     14.009535   0.000000   0.000000
    8       19.818045     20.495474   0.000000   0.000000
    9       22.505329     22.983268   0.000000   0.000000
   10       29.665449     29.927049   0.000000   0.000000
 
 -0.1842105E+00  0.5000000E+00  0.1842105E+00  0.1000000E-01
    1        1.327151      2.824665   1.000000   1.000000
    2        2.636247      4.186912   1.000000   1.000000
    3        2.899551      4.860874   1.000000   1.000055
    4        4.043702      6.252013   1.000000  -0.000000
    5        5.576082      7.985042   0.138962  -0.000000
    6        8.991454     10.083722  -0.000000  -0.000000
    7       12.680478     13.963188   0.000000   0.000000
    8       20.531645     21.216909   0.000000   0.000000
    9       22.663590     23.075492   0.000000   0.000000
   10       30.895511     31.122471   0.000000   0.000000
 
 -0.1578947E+00  0.5000000E+00  0.1578947E+00  0.1000000E-01
    1        1.210363      2.663203   1.000000   1.000000
    2        2.695392      4.459454   1.000000   1.000000
    3        2.926349      4.637824   1.000000   1.000000
    4        4.100728      6.357569   1.000000  -0.000000
    5        5.592795      8.004729   0.095196  -0.000000
    6        8.434394      9.566607  -0.000000  -0.000000
    7       12.599011     13.926711   0.000000   0.000000
    8       21.258561     21.949087   0.000000   0.000000
    9       22.818543     23.160913   0.000000   0.000000
   10       32.225740     32.345682   0.000000   0.000000
 
 -0.1315789E+00  0.5000000E+00  0.1315789E+00  0.1000000E-01
    1        1.085029      2.499799   1.000000   1.000000
    2        2.523472      4.448764   1.000000   1.000000
    3        3.240167      4.753264   1.000000   1.000002
    4        4.182275      6.485865   1.000000  -0.000000
    5        5.612141      8.025900   0.053315  -0.000000
    6        7.899777      9.069210  -0.000000  -0.000000
    7       12.540339     13.904449   0.000000   0.000000
    8       22.010879     22.701889   0.000000   0.000000
    9       22.980345     23.249935   0.000000   0.000000
   10       31.947351     32.561698   0.000000   0.000000
 
 -0.1052632E+00  0.5000000E+00  0.1052632E+00  0.1000000E-01
    1        0.963691      2.348256   1.000000   1.000000
    2        2.376300      4.288725   1.000000   1.000000
    3        3.569929      5.063665   1.000000   1.006156
    4        4.267333      6.613835   1.000000  -0.000000
    5        5.625839      8.041612   0.029282  -0.000000
    6        7.387320      8.590161  -0.000000  -0.000000
    7       12.493722     13.886982   0.000000   0.000000
    8       22.762110     23.331685   0.000000   0.000000
    9       23.133110     23.452317   0.000000   0.000000
   10       30.969567     31.595679   0.000000   0.000000
 
 -0.7894737E-01  0.5000000E+00  0.7894737E-01  0.1000000E-01
    1        0.859036      2.220629   1.000000   1.000000
    2        2.261260      4.163259   1.000000   1.000000
    3        3.911966      5.386243   1.000000   0.850537
    4        4.353115      6.734291   1.000000  -0.000000
    5        5.637285      8.054644   0.012620  -0.000000
    6        6.906220      8.139091  -0.000000  -0.000000
    7       12.463476     13.878258   0.000000   0.000000
    8       23.273109     23.405832   0.000000   0.000000
    9       23.504007     24.191147   0.000000   0.000000
   10       30.070050     30.704615   0.000000   0.000000
 
 -0.5263158E-01  0.5000000E+00  0.5263158E-01  0.1000000E-01
    1        0.778887      2.124435   1.000000   1.000000
    2        2.177209      4.072231   1.000000   1.000000
    3        4.246611      5.706544   1.000000  -0.034094
    4        4.417577      6.825895   1.000000  -0.000000
    5        5.645393      7.723297   0.002603  -0.000000
    6        6.468547      8.063955  -0.000000  -0.000000
    7       12.442403     13.872455   0.000000   0.000000
    8       23.384502     23.463804   0.000000   0.000000
    9       24.192914     24.875571   0.000000   0.000000
   10       29.257278     29.901513   0.000000   0.000000
 
 -0.2631579E-01  0.5000000E+00  0.2631579E-01  0.1000000E-01
    1        0.727867      2.064493   1.000000   1.000000
    2        2.126402      4.017271   1.000000   1.000000
    3        4.459015      5.987690   1.000000  -0.000959
    4        4.532357      6.884299   1.000000  -0.000000
    5        5.650352      7.382706  -0.002830  -0.000000
    6        6.118751      8.069650  -0.000030  -0.000000
    7       12.425813     13.865140   0.000000   0.000000
    8       23.457384     23.501289   0.000000   0.000000
    9       24.740685     25.418623   0.000000   0.000000
   10       28.635162     29.287156   0.000000   0.000000
 
  0.0000000E+00  0.5000000E+00  0.0000000E+00  0.1000000E-01
    1        0.710812      2.044311   1.000000   1.000000
    2        2.109409      3.998900   1.000000   1.000000
    3        4.473301      6.119239   1.000000  -0.000029
    4        4.662186      6.904366   1.000000  -0.000000
    5        5.652028      7.231938  -0.004551  -0.000000
    6        5.968218      8.071574  -0.001479  -0.000000
    7       12.421820     13.864134   0.000000   0.000000
    8       23.483007     23.514420   0.000000   0.000000
    9       24.967224     25.642838   0.000000   0.000000
   10       28.383832     29.039152   0.000000   0.000000
 
  0.0000000E+00  0.5000000E+00  0.0000000E+00  0.1000000E-01
    1        0.710812      2.044311   1.000000   1.000000
    2        2.109409      3.998900   1.000000   1.000000
    3        4.473301      6.119239   1.000000  -0.000029
    4        4.662186      6.904366   1.000000  -0.000000
    5        5.652028      7.231938  -0.004551  -0.000000
    6        5.968218      8.071574  -0.001479  -0.000000
    7       12.421820     13.864134   0.000000   0.000000
    8       23.483007     23.514420   0.000000   0.000000
    9       24.967224     25.642838   0.000000   0.000000
   10       28.383832     29.039152   0.000000   0.000000
 
  0.1315789E-01  0.4868421E+00  0.1315789E-01  0.1000000E-01
    1        0.720131      2.054688   1.000000   1.000000
    2        2.108207      3.996296   1.000000   1.000000
    3        4.474829      6.081881   1.000000  -0.000087
    4        4.662446      6.906618   1.000000  -0.000000
    5        5.466658      7.232260   0.553516  -0.000000
    6        6.166253      8.121455  -0.000007  -0.000000
    7       12.423951     13.864457   0.000000   0.000000
    8       23.379627     23.433826   0.000000   0.000000
    9       24.853884     25.530167   0.000000   0.000000
   10       28.502900     29.135925   0.000000   0.000000
 
  0.2631579E-01  0.4736842E+00  0.2631579E-01  0.1000000E-01
    1        0.747925      2.085651   1.000000   1.000000
    2        2.104691      3.988601   1.000000   1.000000
    3        4.479390      5.979891   1.000000  -0.001144
    4        4.663229      6.913345   1.000000  -0.000000
    5        5.191867      7.233227   1.030331  -0.000000
    6        6.479053      8.261028  -0.000000  -0.000000
    7       12.430460     13.865541   0.000000   0.000000
    8       23.094863     23.206776   0.000000   0.000000
    9       24.536696     25.214808   0.000000   0.000000
   10       28.834734     29.411520   0.000000   0.000000
 
  0.3947368E-01  0.4605263E+00  0.3947368E-01  0.1000000E-01
    1        0.793687      2.136674   1.000000   1.000000
    2        2.099103      3.976125   1.000000   1.000000
    3        4.486881      5.834629   1.000000  -0.015352
    4        4.664511      6.924427   1.000000  -0.000000
    5        4.918513      7.234808   1.000268  -0.000000
    6        6.815726      8.468900  -0.000000  -0.000000
    7       12.441699     13.867739   0.000000   0.000000
    8       22.682207     22.867157   0.000000   0.000000
    9       24.067377     24.748105   0.000000   0.000000
   10       29.325884     29.832119   0.000000   0.000000
 
  0.5263158E-01  0.4473684E+00  0.5263158E-01  0.1000000E-01
    1        0.856564      2.206873   1.000000   1.000000
    2        2.091778      3.959318   1.000000   1.000000
    3        4.497113      5.665713   1.000000  -0.016539
    4        4.655175      6.939642   1.000000  -0.000000
    5        4.666260      7.236965   1.000000  -0.000000
    6        7.167651      8.725412  -0.000000  -0.000000
    7       12.458231     13.871618   0.000000   0.000000
    8       22.190417     22.450337   0.000000   0.000000
    9       23.498765     24.182579   0.000000   0.000000
   10       29.927811     30.362600   0.000000   0.000000
 
  0.6578947E-01  0.4342105E+00  0.6578947E-01  0.1000000E-01
    1        0.935361      2.294999   1.000000   1.000000
    2        2.083223      3.938834   1.000000   1.000000
    3        4.403894      5.486674   1.000000   0.468963
    4        4.509857      6.958715   1.000000  -0.000000
    5        4.668447      7.239656   1.000000  -0.000000
    6        7.532767      9.017014  -0.000000  -0.000000
    7       12.480854     13.877988   0.000000   0.000000
    8       21.652635     21.983846   0.000000   0.000000
    9       22.871331     23.558533   0.000000   0.000000
   10       30.607553     30.975661   0.000000   0.000000
 
  0.7894737E-01  0.4210526E+00  0.7894737E-01  0.1000000E-01
    1        1.028078      2.399126   1.000000   1.000000
    2        2.070567      3.912883   1.000000   1.000000