       N       E                     dE             d eps       ncg     rms          rms(c)
DAV:   1     0.897575153924E+01    0.89758E+01   -0.28172E+03  4396   0.578E+02
DAV:   2    -0.880100268321E+01   -0.17777E+02   -0.16010E+02  4058   0.977E+01
DAV:   3    -0.905289030200E+01   -0.25189E+00   -0.24852E+00  4624   0.139E+01
DAV:   4    -0.905362032641E+01   -0.73002E-03   -0.72999E-03  4408   0.701E-01
DAV:   5    -0.905362463867E+01   -0.43123E-05   -0.43112E-05  3822   0.528E-02
DAV:   6    -0.905362478189E+01   -0.14322E-06   -0.14383E-06  2998   0.979E-03
   1 F= -.90536248E+01 E0= -.90538536E+01  d E =0.686326E-03  mag=     2.3385
