 vasp.5.4.4.18Apr17-6-g9f103f2a35 (build May 20 2018 16:52:39) complex          
  
 executed on             LinuxIFC date 2022.09.19  17:23:39
 running on    1 total cores
 distrk:  each k-point on    1 cores,    1 groups
 distr:  one band on NCORES_PER_BAND=   1 cores,    1 groups


--------------------------------------------------------------------------------------------------------


 INCAR:
 POTCAR:   PAW_GGA Fe 03Mar1998                   
 POTCAR:   PAW_GGA Fe 03Mar1998                   
   VRHFIN =Fe:  d7 s1                                                           
   LEXCH  = 91                                                                  
   EATOM  =   595.5622 eV,   43.7726 Ry                                         
                                                                                
   TITEL  = PAW_GGA Fe 03Mar1998                                                
   LULTRA =        F    use ultrasoft PP ?                                      
   IUNSCR =        1    unscreen: 0-lin 1-nonlin 2-no                           
   RPACOR =    2.000    partial core radius                                     
   POMASS =   55.847; ZVAL   =    8.000    mass and valenz                      
   RCORE  =    2.300    outmost cutoff radius                                   
   RWIGS  =    2.460; RWIGS  =    1.302    wigner-seitz radius (au A)           
   ENMAX  =  267.907; ENMIN  =  200.930 eV                                      
   RCLOC  =    1.701    cutoff for local pot                                    
   LCOR   =        T    correct aug charges                                     
   LPAW   =        T    paw PP                                                  
   EAUG   =  511.368                                                            
   DEXC   =    -.007                                                            
   RMAX   =    2.817    core radius for proj-oper                               
   RAUG   =    1.300    factor for augmentation sphere                          
   RDEP   =    2.442    core radius for depl-charge                             
   QCUT   =   -4.437; QGAM   =    8.875    optimization parameters              
                                                                                
   Description                                                                  
     l     E      TYP  RCUT    TYP  RCUT                                        
     2   .000     23  2.300                                                     
     2   .000     23  2.300                                                     
     0   .000     23  2.300                                                     
     0   .000     23  2.300                                                     
     1  -.200     23  2.300                                                     
     1   .000     23  2.300                                                     
     3   .000      7   .000                                                     
  local pseudopotential read in
  partial core-charges read in
  atomic valenz-charges read in
  non local Contribution for L=           2  read in
    real space projection operators read in
  non local Contribution for L=           2  read in
    real space projection operators read in
  non local Contribution for L=           0  read in
    real space projection operators read in
  non local Contribution for L=           0  read in
    real space projection operators read in
  non local Contribution for L=           1  read in
    real space projection operators read in
  non local Contribution for L=           1  read in
    real space projection operators read in
    PAW grid and wavefunctions read in
 
   number of l-projection  operators is LMAX  =           6
   number of lm-projection operators is LMMAX =          18
 
 PAW_GGA Fe 03Mar1998                   :
 energy of atom  1       EATOM= -595.5622
 kinetic energy error for atom=    0.0345 (will be added to EATOM!!)
 
 
 POSCAR: Fe bulk bcc                             
  positions in direct lattice
  No initial velocities read in
 exchange correlation table for  LEXCH =        7
   RHO(1)=    0.500       N(1)  =     2000
   RHO(2)=  100.500       N(2)  =     4000
 


--------------------------------------------------------------------------------------------------------


 ion  position               nearest neighbor table
   1  0.000  0.000  0.000-
 
  LATTYP: Found a body centered cubic cell.
 ALAT       =     2.8700000000
  
  Lattice vectors:
  
 A1 = (  -1.4350000000,   1.4350000000,   1.4350000000)
 A2 = (   1.4350000000,  -1.4350000000,   1.4350000000)
 A3 = (   1.4350000000,   1.4350000000,  -1.4350000000)


Analysis of symmetry for initial positions (statically):
=====================================================================
 Subroutine PRICEL returns:
 Original cell was already a primitive cell.
 

 Routine SETGRP: Setting up the symmetry group for a 
 body centered cubic supercell.


 Subroutine GETGRP returns: Found 48 space group operations
 (whereof 48 operations were pure point group operations)
 out of a pool of 48 trial point group operations.


The static configuration has the point symmetry O_h .


Analysis of symmetry for dynamics (positions and initial velocities):
=====================================================================
 Subroutine PRICEL returns:
 Original cell was already a primitive cell.
 

 Routine SETGRP: Setting up the symmetry group for a 
 body centered cubic supercell.


 Subroutine GETGRP returns: Found 48 space group operations
 (whereof 48 operations were pure point group operations)
 out of a pool of 48 trial point group operations.


The dynamic configuration has the point symmetry O_h .


Analysis of structural, dynamic, and magnetic symmetry:
=====================================================================
 Subroutine PRICEL returns:
 Original cell was already a primitive cell.
 

 Routine SETGRP: Setting up the symmetry group for a 
 body centered cubic supercell.


 Subroutine GETGRP returns: Found 48 space group operations
 (whereof 48 operations were pure point group operations)
 out of a pool of 48 trial point group operations.


The magnetic configuration has the point symmetry O_h .


 Subroutine INISYM returns: Found 48 space group operations
 (whereof 48 operations are pure point group operations),
 and found     1 'primitive' translations

 
 
 KPOINTS: K-points along high symmetry lines for b
  interpolating k-points between supplied coordinates
  k-points in reciprocal lattice
Space group operators:
 irot       det(A)        alpha          n_x          n_y          n_z        tau_x        tau_y        tau_z
    1     1.000000     0.000000     1.000000     0.000000     0.000000     0.000000     0.000000     0.000000
    2    -1.000000     0.000000     1.000000     0.000000     0.000000     0.000000     0.000000     0.000000
    3     1.000000   120.000000    -0.577350    -0.577350    -0.577350     0.000000     0.000000     0.000000
    4    -1.000000   120.000000    -0.577350    -0.577350    -0.577350     0.000000     0.000000     0.000000
    5     1.000000   120.000000     0.577350     0.577350     0.577350     0.000000     0.000000     0.000000
    6    -1.000000   120.000000     0.577350     0.577350     0.577350     0.000000     0.000000     0.000000
    7     1.000000    90.000000     0.000000     0.000000    -1.000000     0.000000     0.000000     0.000000
    8    -1.000000    90.000000     0.000000     0.000000    -1.000000     0.000000     0.000000     0.000000
    9     1.000000   180.000000     0.000000     0.707107     0.707107     0.000000     0.000000     0.000000
   10    -1.000000   180.000000     0.000000     0.707107     0.707107     0.000000     0.000000     0.000000
   11     1.000000    90.000000     0.000000     1.000000     0.000000     0.000000     0.000000     0.000000
   12    -1.000000    90.000000     0.000000     1.000000     0.000000     0.000000     0.000000     0.000000
   13     1.000000   180.000000     0.000000     0.000000     1.000000     0.000000     0.000000     0.000000
   14    -1.000000   180.000000     0.000000     0.000000     1.000000     0.000000     0.000000     0.000000
   15     1.000000   120.000000    -0.577350     0.577350     0.577350     0.000000     0.000000     0.000000
   16    -1.000000   120.000000    -0.577350     0.577350     0.577350     0.000000     0.000000     0.000000
   17     1.000000   120.000000    -0.577350     0.577350    -0.577350     0.000000     0.000000     0.000000
   18    -1.000000   120.000000    -0.577350     0.577350    -0.577350     0.000000     0.000000     0.000000
   19     1.000000    90.000000     0.000000     0.000000     1.000000     0.000000     0.000000     0.000000
   20    -1.000000    90.000000     0.000000     0.000000     1.000000     0.000000     0.000000     0.000000
   21     1.000000    90.000000    -1.000000     0.000000     0.000000     0.000000     0.000000     0.000000
   22    -1.000000    90.000000    -1.000000     0.000000     0.000000     0.000000     0.000000     0.000000
   23     1.000000   180.000000     0.707107     0.000000     0.707107     0.000000     0.000000     0.000000
   24    -1.000000   180.000000     0.707107     0.000000     0.707107     0.000000     0.000000     0.000000
   25     1.000000   120.000000     0.577350    -0.577350     0.577350     0.000000     0.000000     0.000000
   26    -1.000000   120.000000     0.577350    -0.577350     0.577350     0.000000     0.000000     0.000000
   27     1.000000   120.000000    -0.577350    -0.577350     0.577350     0.000000     0.000000     0.000000
   28    -1.000000   120.000000    -0.577350    -0.577350     0.577350     0.000000     0.000000     0.000000
   29     1.000000   180.000000     1.000000     0.000000     0.000000     0.000000     0.000000     0.000000
   30    -1.000000   180.000000     1.000000     0.000000     0.000000     0.000000     0.000000     0.000000
   31     1.000000    90.000000     0.000000    -1.000000     0.000000     0.000000     0.000000     0.000000
   32    -1.000000    90.000000     0.000000    -1.000000     0.000000     0.000000     0.000000     0.000000
   33     1.000000   180.000000     0.707107     0.707107     0.000000     0.000000     0.000000     0.000000
   34    -1.000000   180.000000     0.707107     0.707107     0.000000     0.000000     0.000000     0.000000
   35     1.000000    90.000000     1.000000     0.000000     0.000000     0.000000     0.000000     0.000000
   36    -1.000000    90.000000     1.000000     0.000000     0.000000     0.000000     0.000000     0.000000
   37     1.000000   120.000000     0.577350    -0.577350    -0.577350     0.000000     0.000000     0.000000
   38    -1.000000   120.000000     0.577350    -0.577350    -0.577350     0.000000     0.000000     0.000000
   39     1.000000   180.000000     0.000000     1.000000     0.000000     0.000000     0.000000     0.000000
   40    -1.000000   180.000000     0.000000     1.000000     0.000000     0.000000     0.000000     0.000000
   41     1.000000   120.000000     0.577350     0.577350    -0.577350     0.000000     0.000000     0.000000
   42    -1.000000   120.000000     0.577350     0.577350    -0.577350     0.000000     0.000000     0.000000
   43     1.000000   180.000000     0.000000    -0.707107     0.707107     0.000000     0.000000     0.000000
   44    -1.000000   180.000000     0.000000    -0.707107     0.707107     0.000000     0.000000     0.000000
   45     1.000000   180.000000     0.707107    -0.707107     0.000000     0.000000     0.000000     0.000000
   46    -1.000000   180.000000     0.707107    -0.707107     0.000000     0.000000     0.000000     0.000000
   47     1.000000   180.000000     0.707107     0.000000    -0.707107     0.000000     0.000000     0.000000
   48    -1.000000   180.000000     0.707107     0.000000    -0.707107     0.000000     0.000000     0.000000


--------------------------------------------------------------------------------------------------------




 Dimension of arrays:
   k-points           NKPTS =    100   k-points in BZ     NKDIM =    100   number of bands    NBANDS=     10
   number of dos      NEDOS =    301   number of ions     NIONS =      1
   non local maximal  LDIM  =      6   non local SUM 2l+1 LMDIM =     18
   total plane-waves  NPLWV =   1000
   max r-space proj   IRMAX =      1   max aug-charges    IRDMAX=   3213
   dimension x,y,z NGX =    10 NGY =   10 NGZ =   10
   dimension x,y,z NGXF=    20 NGYF=   20 NGZF=   20
   support grid    NGXF=    20 NGYF=   20 NGZF=   20
   ions per type =               1
   NGX,Y,Z   is equivalent  to a cutoff of   6.69,  6.69,  6.69 a.u.
   NGXF,Y,Z  is equivalent  to a cutoff of  13.38, 13.38, 13.38 a.u.

 SYSTEM =  bcc Fe                                  
 POSCAR =  Fe bulk bcc                             

 Startparameter for this run:
   NWRITE =      2    write-flag & timer
   PREC   = normal    normal or accurate (medium, high low for compatibility)
   ISTART =      0    job   : 0-new  1-cont  2-samecut
   ICHARG =     11    charge: 1-file 2-atom 10-const
   ISPIN  =      2    spin polarized calculation?
   LNONCOLLINEAR =      F non collinear calculations
   LSORBIT =      F    spin-orbit coupling
   INIWAV =      1    electr: 0-lowe 1-rand  2-diag
   LASPH  =      F    aspherical Exc in radial PAW
   METAGGA=      F    non-selfconsistent MetaGGA calc.

 Electronic Relaxation 1
   ENCUT  =  267.9 eV  19.69 Ry    4.44 a.u.   3.32  3.32  3.32*2*pi/ulx,y,z
   ENINI  =  267.9     initial cutoff
   ENAUG  =  511.4 eV  augmentation charge cutoff
   NELM   =     60;   NELMIN=  2; NELMDL= -5     # of ELM steps 
   EDIFF  = 0.1E-03   stopping-criterion for ELM
   LREAL  =      F    real-space projection
   NLSPLINE    = F    spline interpolate recip. space projectors
   LCOMPAT=      F    compatible to vasp.4.4
   GGA_COMPAT  = T    GGA compatible to vasp.4.4-vasp.4.6
   LMAXPAW     = -100 max onsite density
   LMAXMIX     =    2 max onsite mixed and CHGCAR
   VOSKOWN=      0    Vosko Wilk Nusair interpolation
   ROPT   =    0.00000
 Ionic relaxation
   EDIFFG = 0.1E-02   stopping-criterion for IOM
   NSW    =      0    number of steps for IOM
   NBLOCK =      1;   KBLOCK =      1    inner block; outer block 
   IBRION =     -1    ionic relax: 0-MD 1-quasi-New 2-CG
   NFREE  =      0    steps in history (QN), initial steepest desc. (CG)
   ISIF   =      2    stress and relaxation
   IWAVPR =     10    prediction:  0-non 1-charg 2-wave 3-comb
   ISYM   =      2    0-nonsym 1-usesym 2-fastsym
   LCORR  =      T    Harris-Foulkes like correction to forces

   POTIM  = 0.5000    time-step for ionic-motion
   TEIN   =    0.0    initial temperature
   TEBEG  =    0.0;   TEEND  =   0.0 temperature during run
   SMASS  =  -3.00    Nose mass-parameter (am)
   estimated Nose-frequenzy (Omega)   =  0.10E-29 period in steps =****** mass=  -0.141E-27a.u.
   SCALEE = 1.0000    scale energy and forces
   NPACO  =    256;   APACO  = 16.0  distance and # of slots for P.C.
   PSTRESS=    0.0 pullay stress

  Mass of Ions in am
   POMASS =  55.85
  Ionic Valenz
   ZVAL   =   8.00
  Atomic Wigner-Seitz radii
   RWIGS  =   1.30
  virtual crystal weights 
   VCA    =   1.00
   NELECT =       8.0000    total number of electrons
   NUPDOWN=      -1.0000    fix difference up-down

 DOS related values:
   EMIN   =  10.00;   EMAX   =-10.00  energy-range for DOS
   EFERMI =   0.00
   ISMEAR =     1;   SIGMA  =   0.20  broadening in eV -4-tet -1-fermi 0-gaus

 Electronic relaxation 2 (details)
   IALGO  =     38    algorithm
   LDIAG  =      T    sub-space diagonalisation (order eigenvalues)
   LSUBROT=      F    optimize rotation matrix (better conditioning)
   TURBO    =      0    0=normal 1=particle mesh
   IRESTART =      0    0=no restart 2=restart with 2 vectors
   NREBOOT  =      0    no. of reboots
   NMIN     =      0    reboot dimension
   EREF     =   0.00    reference energy to select bands
   IMIX   =      4    mixing-type and parameters
     AMIX     =   0.40;   BMIX     =  1.00
     AMIX_MAG =   1.60;   BMIX_MAG =  1.00
     AMIN     =   0.10
     WC   =   100.;   INIMIX=   1;  MIXPRE=   1;  MAXMIX= -45

 Intra band minimization:
   WEIMIN = 0.0000     energy-eigenvalue tresh-hold
   EBREAK =  0.25E-05  absolut break condition
   DEPER  =   0.30     relativ break condition  

   TIME   =   0.40     timestep for ELM

  volume/ion in A,a.u.               =      11.82        79.76
  Fermi-wavevector in a.u.,A,eV,Ry     =   1.437362  2.716221 28.109779  2.066010
  Thomas-Fermi vector in A             =   2.556448
 
 Write flags
   LWAVE        =      F    write WAVECAR
   LDOWNSAMPLE  =      F    k-point downsampling of WAVECAR
   LCHARG       =      F    write CHGCAR
   LVTOT        =      F    write LOCPOT, total local potential
   LVHAR        =      F    write LOCPOT, Hartree potential only
   LELF         =      F    write electronic localiz. function (ELF)
   LORBIT       =     10    0 simple, 1 ext, 2 COOP (PROOUT), +10 PAW based schemes


 Dipole corrections
   LMONO  =      F    monopole corrections only (constant potential shift)
   LDIPOL =      F    correct potential (dipole corrections)
   IDIPOL =      0    1-x, 2-y, 3-z, 4-all directions 
   EPSILON=  1.0000000 bulk dielectric constant

 Exchange correlation treatment:
   GGA     =    --    GGA type
   LEXCH   =     7    internal setting for exchange type
   VOSKOWN=      0    Vosko Wilk Nusair interpolation
   LHFCALC =     F    Hartree Fock is set to
   LHFONE  =     F    Hartree Fock one center treatment
   AEXX    =    0.0000 exact exchange contribution

 Linear response parameters
   LEPSILON=     F    determine dielectric tensor
   LRPA    =     F    only Hartree local field effects (RPA)
   LNABLA  =     F    use nabla operator in PAW spheres
   LVEL    =     F    velocity operator in full k-point grid
   LINTERFAST=   F  fast interpolation
   KINTER  =     0    interpolate to denser k-point grid
   CSHIFT  =0.1000    complex shift for real part using Kramers Kronig
   OMEGAMAX=  -1.0    maximum frequency
   DEG_THRESHOLD= 0.2000000E-02 threshold for treating states as degnerate
   RTIME   =   -0.100 relaxation time in fs
  (WPLASMAI=    0.000 imaginary part of plasma frequency in eV, 0.658/RTIME)
   DFIELD  = 0.0000000 0.0000000 0.0000000 field for delta impulse in time
 
 Orbital magnetization related:
   ORBITALMAG=     F  switch on orbital magnetization
   LCHIMAG   =     F  perturbation theory with respect to B field
   DQ        =  0.001000  dq finite difference perturbation B field
   LLRAUG    =     F  two centre corrections for induced B field



--------------------------------------------------------------------------------------------------------


 Static calculation
 charge density and potential remain constant during run
 spin polarized calculation
 Variant of blocked Davidson
 Davidson routine will perform the subspace rotation
 perform sub-space diagonalisation
    after iterative eigenvector-optimisation
 no mixing
 using additional bands            6
 reciprocal scheme for non local part
 use partial core corrections
 calculate Harris-corrections to forces 
   (improved forces if not selfconsistent)
 use gradient corrections 
 WARNING: stress and forces are not correct
  (second derivative of E(xc) not defined)
 use of overlap-Matrix (Vanderbilt PP)
 Methfessel and Paxton  Order N= 1 SIGMA  =   0.20


--------------------------------------------------------------------------------------------------------


  energy-cutoff  :      267.91
  volume of cell :       11.82
      direct lattice vectors                 reciprocal lattice vectors
    -1.435000000  1.435000000  1.435000000     0.000000000  0.348432056  0.348432056
     1.435000000 -1.435000000  1.435000000     0.348432056  0.000000000  0.348432056
     1.435000000  1.435000000 -1.435000000     0.348432056  0.348432056  0.000000000

  length of vectors
     2.485492909  2.485492909  2.485492909     0.492757339  0.492757339  0.492757339


 
 k-points in units of 2pi/SCALE and weight: K-points along high symmetry lines for b
   0.00000000  0.00000000  0.00000000       0.010
   0.05263158  0.00000000  0.00000000       0.010
   0.10526316  0.00000000  0.00000000       0.010
   0.15789474  0.00000000  0.00000000       0.010
   0.21052632  0.00000000  0.00000000       0.010
   0.26315789  0.00000000  0.00000000       0.010
   0.31578947  0.00000000  0.00000000       0.010
   0.36842105  0.00000000  0.00000000       0.010
   0.42105263  0.00000000  0.00000000       0.010
   0.47368421  0.00000000  0.00000000       0.010
   0.52631579  0.00000000  0.00000000       0.010
   0.57894737  0.00000000  0.00000000       0.010
   0.63157895  0.00000000  0.00000000       0.010
   0.68421053  0.00000000  0.00000000       0.010
   0.73684211  0.00000000  0.00000000       0.010
   0.78947368  0.00000000  0.00000000       0.010
   0.84210526  0.00000000  0.00000000       0.010
   0.89473684  0.00000000  0.00000000       0.010
   0.94736842  0.00000000  0.00000000       0.010
   1.00000000  0.00000000  0.00000000       0.010
   1.00000000  0.00000000  0.00000000       0.010
   0.97368421  0.00000000  0.02631579       0.010
   0.94736842  0.00000000  0.05263158       0.010
   0.92105263  0.00000000  0.07894737       0.010
   0.89473684  0.00000000  0.10526316       0.010
   0.86842105  0.00000000  0.13157895       0.010
   0.84210526  0.00000000  0.15789474       0.010
   0.81578947  0.00000000  0.18421053       0.010
   0.78947368  0.00000000  0.21052632       0.010
   0.76315789  0.00000000  0.23684211       0.010
   0.73684211  0.00000000  0.26315789       0.010
   0.71052632  0.00000000  0.28947368       0.010
   0.68421053  0.00000000  0.31578947       0.010
   0.65789474  0.00000000  0.34210526       0.010
   0.63157895  0.00000000  0.36842105       0.010
   0.60526316  0.00000000  0.39473684       0.010
   0.57894737  0.00000000  0.42105263       0.010
   0.55263158  0.00000000  0.44736842       0.010
   0.52631579  0.00000000  0.47368421       0.010
   0.50000000  0.00000000  0.50000000       0.010
   0.50000000  0.00000000  0.50000000       0.010
   0.50000000  0.02631579  0.50000000       0.010
   0.50000000  0.05263158  0.50000000       0.010
   0.50000000  0.07894737  0.50000000       0.010
   0.50000000  0.10526316  0.50000000       0.010
   0.50000000  0.13157895  0.50000000       0.010
   0.50000000  0.15789474  0.50000000       0.010
   0.50000000  0.18421053  0.50000000       0.010
   0.50000000  0.21052632  0.50000000       0.010
   0.50000000  0.23684211  0.50000000       0.010
   0.50000000  0.26315789  0.50000000       0.010
   0.50000000  0.28947368  0.50000000       0.010
   0.50000000  0.31578947  0.50000000       0.010
   0.50000000  0.34210526  0.50000000       0.010
   0.50000000  0.36842105  0.50000000       0.010
   0.50000000  0.39473684  0.50000000       0.010
   0.50000000  0.42105263  0.50000000       0.010
   0.50000000  0.44736842  0.50000000       0.010
   0.50000000  0.47368421  0.50000000       0.010
   0.50000000  0.50000000  0.50000000       0.010
   0.50000000  0.50000000  0.50000000       0.010
   0.47368421  0.47368421  0.47368421       0.010
   0.44736842  0.44736842  0.44736842       0.010
   0.42105263  0.42105263  0.42105263       0.010
   0.39473684  0.39473684  0.39473684       0.010
   0.36842105  0.36842105  0.36842105       0.010
   0.34210526  0.34210526  0.34210526       0.010
   0.31578947  0.31578947  0.31578947       0.010
   0.28947368  0.28947368  0.28947368       0.010
   0.26315789  0.26315789  0.26315789       0.010
   0.23684211  0.23684211  0.23684211       0.010
   0.21052632  0.21052632  0.21052632       0.010
   0.18421053  0.18421053  0.18421053       0.010
   0.15789474  0.15789474  0.15789474       0.010
   0.13157895  0.13157895  0.13157895       0.010
   0.10526316  0.10526316  0.10526316       0.010
   0.07894737  0.07894737  0.07894737       0.010
   0.05263158  0.05263158  0.05263158       0.010
   0.02631579  0.02631579  0.02631579       0.010
   0.00000000  0.00000000  0.00000000       0.010
   0.00000000  0.00000000  0.00000000       0.010
   0.02631579  0.00000000  0.02631579       0.010
   0.05263158  0.00000000  0.05263158       0.010
   0.07894737  0.00000000  0.07894737       0.010
   0.10526316  0.00000000  0.10526316       0.010
   0.13157895  0.00000000  0.13157895       0.010
   0.15789474  0.00000000  0.15789474       0.010
   0.18421053  0.00000000  0.18421053       0.010
   0.21052632  0.00000000  0.21052632       0.010
   0.23684211  0.00000000  0.23684211       0.010
   0.26315789  0.00000000  0.26315789       0.010
   0.28947368  0.00000000  0.28947368       0.010
   0.31578947  0.00000000  0.31578947       0.010
   0.34210526  0.00000000  0.34210526       0.010
   0.36842105  0.00000000  0.36842105       0.010
   0.39473684  0.00000000  0.39473684       0.010
   0.42105263  0.00000000  0.42105263       0.010
   0.44736842  0.00000000  0.44736842       0.010
   0.47368421  0.00000000  0.47368421       0.010
   0.50000000  0.00000000  0.50000000       0.010
 
 k-points in reciprocal lattice and weights: K-points along high symmetry lines for b
   0.00000000  0.00000000  0.00000000       0.010
  -0.02631579  0.02631579  0.02631579       0.010
  -0.05263158  0.05263158  0.05263158       0.010
  -0.07894737  0.07894737  0.07894737       0.010
  -0.10526316  0.10526316  0.10526316       0.010
  -0.13157895  0.13157895  0.13157895       0.010
  -0.15789474  0.15789474  0.15789474       0.010
  -0.18421053  0.18421053  0.18421053       0.010
  -0.21052632  0.21052632  0.21052632       0.010
  -0.23684211  0.23684211  0.23684211       0.010
  -0.26315789  0.26315789  0.26315789       0.010
  -0.28947368  0.28947368  0.28947368       0.010
  -0.31578947  0.31578947  0.31578947       0.010
  -0.34210526  0.34210526  0.34210526       0.010
  -0.36842105  0.36842105  0.36842105       0.010
  -0.39473684  0.39473684  0.39473684       0.010
  -0.42105263  0.42105263  0.42105263       0.010
  -0.44736842  0.44736842  0.44736842       0.010
  -0.47368421  0.47368421  0.47368421       0.010
  -0.50000000  0.50000000  0.50000000       0.010
  -0.50000000  0.50000000  0.50000000       0.010
  -0.47368421  0.50000000  0.47368421       0.010
  -0.44736842  0.50000000  0.44736842       0.010
  -0.42105263  0.50000000  0.42105263       0.010
  -0.39473684  0.50000000  0.39473684       0.010
  -0.36842105  0.50000000  0.36842105       0.010
  -0.34210526  0.50000000  0.34210526       0.010
  -0.31578947  0.50000000  0.31578947       0.010
  -0.28947368  0.50000000  0.28947368       0.010
  -0.26315789  0.50000000  0.26315789       0.010
  -0.23684211  0.50000000  0.23684211       0.010
  -0.21052632  0.50000000  0.21052632       0.010
  -0.18421053  0.50000000  0.18421053       0.010
  -0.15789474  0.50000000  0.15789474       0.010
  -0.13157895  0.50000000  0.13157895       0.010
  -0.10526316  0.50000000  0.10526316       0.010
  -0.07894737  0.50000000  0.07894737       0.010
  -0.05263158  0.50000000  0.05263158       0.010
  -0.02631579  0.50000000  0.02631579       0.010
   0.00000000  0.50000000  0.00000000       0.010
   0.00000000  0.50000000  0.00000000       0.010
   0.01315789  0.48684211  0.01315789       0.010
   0.02631579  0.47368421  0.02631579       0.010
   0.03947368  0.46052632  0.03947368       0.010
   0.05263158  0.44736842  0.05263158       0.010
   0.06578947  0.43421053  0.06578947       0.010
   0.07894737  0.42105263  0.07894737       0.010
   0.09210526  0.40789474  0.09210526       0.010
   0.10526316  0.39473684  0.10526316       0.010
   0.11842105  0.38157895  0.11842105       0.010
   0.13157895  0.36842105  0.13157895       0.010
   0.14473684  0.35526316  0.14473684       0.010
   0.15789474  0.34210526  0.15789474       0.010
   0.17105263  0.32894737  0.17105263       0.010
   0.18421053  0.31578947  0.18421053       0.010
   0.19736842  0.30263158  0.19736842       0.010
   0.21052632  0.28947368  0.21052632       0.010
   0.22368421  0.27631579  0.22368421       0.010
   0.23684211  0.26315789  0.23684211       0.010
   0.25000000  0.25000000  0.25000000       0.010
   0.25000000  0.25000000  0.25000000       0.010
   0.23684211  0.23684211  0.23684211       0.010
   0.22368421  0.22368421  0.22368421       0.010
   0.21052632  0.21052632  0.21052632       0.010
   0.19736842  0.19736842  0.19736842       0.010
   0.18421053  0.18421053  0.18421053       0.010
   0.17105263  0.17105263  0.17105263       0.010
   0.15789474  0.15789474  0.15789474       0.010
   0.14473684  0.14473684  0.14473684       0.010
   0.13157895  0.13157895  0.13157895       0.010
   0.11842105  0.11842105  0.11842105       0.010
   0.10526316  0.10526316  0.10526316       0.010
   0.09210526  0.09210526  0.09210526       0.010
   0.07894737  0.07894737  0.07894737       0.010
   0.06578947  0.06578947  0.06578947       0.010
   0.05263158  0.05263158  0.05263158       0.010
   0.03947368  0.03947368  0.03947368       0.010
   0.02631579  0.02631579  0.02631579       0.010
   0.01315789  0.01315789  0.01315789       0.010
   0.00000000  0.00000000  0.00000000       0.010
   0.00000000  0.00000000  0.00000000       0.010
   0.00000000  0.02631579  0.00000000       0.010
   0.00000000  0.05263158  0.00000000       0.010
   0.00000000  0.07894737  0.00000000       0.010
   0.00000000  0.10526316  0.00000000       0.010
   0.00000000  0.13157895  0.00000000       0.010
   0.00000000  0.15789474  0.00000000       0.010
   0.00000000  0.18421053  0.00000000       0.010
   0.00000000  0.21052632  0.00000000       0.010
   0.00000000  0.23684211  0.00000000       0.010
   0.00000000  0.26315789  0.00000000       0.010
   0.00000000  0.28947368  0.00000000       0.010
   0.00000000  0.31578947  0.00000000       0.010
   0.00000000  0.34210526  0.00000000       0.010
   0.00000000  0.36842105  0.00000000       0.010
   0.00000000  0.39473684  0.00000000       0.010
   0.00000000  0.42105263  0.00000000       0.010
   0.00000000  0.44736842  0.00000000       0.010
   0.00000000  0.47368421  0.00000000       0.010
   0.00000000  0.50000000  0.00000000       0.010
 
 position of ions in fractional coordinates (direct lattice) 
   0.00000000  0.00000000  0.00000000
 
 position of ions in cartesian coordinates  (Angst):
   0.00000000  0.00000000  0.00000000
 


--------------------------------------------------------------------------------------------------------


 k-point  1 :   0.0000 0.0000 0.0000  plane waves:     135
 k-point  2 :  -0.0263 0.0263 0.0263  plane waves:     135
 k-point  3 :  -0.0526 0.0526 0.0526  plane waves:     135
 k-point  4 :  -0.0789 0.0789 0.0789  plane waves:     127
 k-point  5 :  -0.1053 0.1053 0.1053  plane waves:     120
 k-point  6 :  -0.1316 0.1316 0.1316  plane waves:     120
 k-point  7 :  -0.1579 0.1579 0.1579  plane waves:     112
 k-point  8 :  -0.1842 0.1842 0.1842  plane waves:     112
 k-point  9 :  -0.2105 0.2105 0.2105  plane waves:     112
 k-point 10 :  -0.2368 0.2368 0.2368  plane waves:     116
 k-point 11 :  -0.2632 0.2632 0.2632  plane waves:     116
 k-point 12 :  -0.2895 0.2895 0.2895  plane waves:     116
 k-point 13 :  -0.3158 0.3158 0.3158  plane waves:     116
 k-point 14 :  -0.3421 0.3421 0.3421  plane waves:     116
 k-point 15 :  -0.3684 0.3684 0.3684  plane waves:     116
 k-point 16 :  -0.3947 0.3947 0.3947  plane waves:     116
 k-point 17 :  -0.4211 0.4211 0.4211  plane waves:     116
 k-point 18 :  -0.4474 0.4474 0.4474  plane waves:     116
 k-point 19 :  -0.4737 0.4737 0.4737  plane waves:     116
 k-point 20 :  -0.5000 0.5000 0.5000  plane waves:     116
 k-point 21 :  -0.5000 0.5000 0.5000  plane waves:     116
 k-point 22 :  -0.4737 0.5000 0.4737  plane waves:     116
 k-point 23 :  -0.4474 0.5000 0.4474  plane waves:     116
 k-point 24 :  -0.4211 0.5000 0.4211  plane waves:     116
 k-point 25 :  -0.3947 0.5000 0.3947  plane waves:     116
 k-point 26 :  -0.3684 0.5000 0.3684  plane waves:     116
 k-point 27 :  -0.3421 0.5000 0.3421  plane waves:     116
 k-point 28 :  -0.3158 0.5000 0.3158  plane waves:     114
 k-point 29 :  -0.2895 0.5000 0.2895  plane waves:     114
 k-point 30 :  -0.2632 0.5000 0.2632  plane waves:     114
 k-point 31 :  -0.2368 0.5000 0.2368  plane waves:     116
 k-point 32 :  -0.2105 0.5000 0.2105  plane waves:     116
 k-point 33 :  -0.1842 0.5000 0.1842  plane waves:     116
 k-point 34 :  -0.1579 0.5000 0.1579  plane waves:     122
 k-point 35 :  -0.1316 0.5000 0.1316  plane waves:     118
 k-point 36 :  -0.1053 0.5000 0.1053  plane waves:     120
 k-point 37 :  -0.0789 0.5000 0.0789  plane waves:     116
 k-point 38 :  -0.0526 0.5000 0.0526  plane waves:     116
 k-point 39 :  -0.0263 0.5000 0.0263  plane waves:     118
 k-point 40 :   0.0000 0.5000 0.0000  plane waves:     118
 k-point 41 :   0.0000 0.5000 0.0000  plane waves:     118
 k-point 42 :   0.0132 0.4868 0.0132  plane waves:     118
 k-point 43 :   0.0263 0.4737 0.0263  plane waves:     118
 k-point 44 :   0.0395 0.4605 0.0395  plane waves:     118
 k-point 45 :   0.0526 0.4474 0.0526  plane waves:     118
 k-point 46 :   0.0658 0.4342 0.0658  plane waves:     118
 k-point 47 :   0.0789 0.4211 0.0789  plane waves:     122
 k-point 48 :   0.0921 0.4079 0.0921  plane waves:     122
 k-point 49 :   0.1053 0.3947 0.1053  plane waves:     120
 k-point 50 :   0.1184 0.3816 0.1184  plane waves:     122
 k-point 51 :   0.1316 0.3684 0.1316  plane waves:     122
 k-point 52 :   0.1447 0.3553 0.1447  plane waves:     122
 k-point 53 :   0.1579 0.3421 0.1579  plane waves:     122
 k-point 54 :   0.1711 0.3289 0.1711  plane waves:     122
 k-point 55 :   0.1842 0.3158 0.1842  plane waves:     122
 k-point 56 :   0.1974 0.3026 0.1974  plane waves:     122
 k-point 57 :   0.2105 0.2895 0.2105  plane waves:     118
 k-point 58 :   0.2237 0.2763 0.2237  plane waves:     118
 k-point 59 :   0.2368 0.2632 0.2368  plane waves:     112
 k-point 60 :   0.2500 0.2500 0.2500  plane waves:     104
 k-point 61 :   0.2500 0.2500 0.2500  plane waves:     104
 k-point 62 :   0.2368 0.2368 0.2368  plane waves:     113
 k-point 63 :   0.2237 0.2237 0.2237  plane waves:     125
 k-point 64 :   0.2105 0.2105 0.2105  plane waves:     125
 k-point 65 :   0.1974 0.1974 0.1974  plane waves:     125
 k-point 66 :   0.1842 0.1842 0.1842  plane waves:     125
 k-point 67 :   0.1711 0.1711 0.1711  plane waves:     125
 k-point 68 :   0.1579 0.1579 0.1579  plane waves:     125
 k-point 69 :   0.1447 0.1447 0.1447  plane waves:     119
 k-point 70 :   0.1316 0.1316 0.1316  plane waves:     119
 k-point 71 :   0.1184 0.1184 0.1184  plane waves:     119
 k-point 72 :   0.1053 0.1053 0.1053  plane waves:     120
 k-point 73 :   0.0921 0.0921 0.0921  plane waves:     120
 k-point 74 :   0.0789 0.0789 0.0789  plane waves:     117
 k-point 75 :   0.0658 0.0658 0.0658  plane waves:     123
 k-point 76 :   0.0526 0.0526 0.0526  plane waves:     123
 k-point 77 :   0.0395 0.0395 0.0395  plane waves:     129
 k-point 78 :   0.0263 0.0263 0.0263  plane waves:     135
 k-point 79 :   0.0132 0.0132 0.0132  plane waves:     135
 k-point 80 :   0.0000 0.0000 0.0000  plane waves:     135
 k-point 81 :   0.0000 0.0000 0.0000  plane waves:     135
 k-point 82 :   0.0000 0.0263 0.0000  plane waves:     135
 k-point 83 :   0.0000 0.0526 0.0000  plane waves:     135
 k-point 84 :   0.0000 0.0789 0.0000  plane waves:     131
 k-point 85 :   0.0000 0.1053 0.0000  plane waves:     127
 k-point 86 :   0.0000 0.1316 0.0000  plane waves:     123
 k-point 87 :   0.0000 0.1579 0.0000  plane waves:     119
 k-point 88 :   0.0000 0.1842 0.0000  plane waves:     121
 k-point 89 :   0.0000 0.2105 0.0000  plane waves:     121
 k-point 90 :   0.0000 0.2368 0.0000  plane waves:     121
 k-point 91 :   0.0000 0.2632 0.0000  plane waves:     121
 k-point 92 :   0.0000 0.2895 0.0000  plane waves:     113
 k-point 93 :   0.0000 0.3158 0.0000  plane waves:     112
 k-point 94 :   0.0000 0.3421 0.0000  plane waves:     112
 k-point 95 :   0.0000 0.3684 0.0000  plane waves:     116
 k-point 96 :   0.0000 0.3947 0.0000  plane waves:     116
 k-point 97 :   0.0000 0.4211 0.0000  plane waves:     116
 k-point 98 :   0.0000 0.4474 0.0000  plane waves:     116
 k-point 99 :   0.0000 0.4737 0.0000  plane waves:     116
 k-point ** :   0.0000 0.5000 0.0000  plane waves:     118

 maximum and minimum number of plane-waves per node :       135      104

 maximum number of plane-waves:       135
 maximum index in each direction: 
   IXMAX=    3   IYMAX=    3   IZMAX=    3
   IXMIN=   -3   IYMIN=   -3   IZMIN=   -3


 serial   3D FFT for wavefunctions
 parallel 3D FFT for charge:
    minimum data exchange during FFTs selected (reduces bandwidth)


 total amount of memory used by VASP MPI-rank0    38505. kBytes
=======================================================================

   base      :      30000. kBytes
   nonl-proj :       1946. kBytes
   fftplans  :        544. kBytes
   grid      :       1088. kBytes
   one-center:         31. kBytes
   wavefun   :       4896. kBytes
 
     INWAV:  cpu time    0.0001: real time    0.0002
 initial charge density was supplied:
 number of electron       7.9999985 magnetization       2.3384769
 keeping initial charge density in first step


--------------------------------------------------------------------------------------------------------


 Maximum index for augmentation-charges         2891 (set IRDMAX)


--------------------------------------------------------------------------------------------------------


 First call to EWALD:  gamma=   0.778
 Maximum number of real-space cells 3x 3x 3
 Maximum number of reciprocal cells 3x 3x 3

    FEWALD:  cpu time    0.0015: real time    0.0013


--------------------------------------- Iteration      1(   1)  ---------------------------------------


    POTLOK:  cpu time    0.0401: real time    0.0782
    SETDIJ:  cpu time    0.0072: real time    0.0074
     EDDAV:  cpu time    0.2789: real time    0.5596
       DOS:  cpu time    0.0064: real time    0.0064
    --------------------------------------------
      LOOP:  cpu time    0.3326: real time    0.6517

 eigenvalue-minimisations  :  4396
 total energy-change (2. order) : 0.8975752E+01  (-0.2817151E+03)
 number of electron       7.9999985 magnetization       2.3384769
 augmentation part        7.9999985 magnetization       2.3384769

 Free energy of the ion-electron system (eV)
  ---------------------------------------------------
  alpha Z        PSCENC =        58.10571186
  Ewald energy   TEWEN  =      -584.29755670
  -Hartree energ DENC   =       -98.78666613
  -exchange      EXHF   =         0.00000000
  -V(xc)+E(xc)   XCENC  =         3.99946285
  PAW double counting   =       509.92684529     -518.92590222
  entropy T*S    EENTRO =        -0.00051296
  eigenvalues    EBANDS =        43.42668152
  atomic energy  EATOM  =       595.52768804
  Solvation  Ediel_sol  =         0.00000000
  ---------------------------------------------------
  free energy    TOTEN  =         8.97575154 eV

  energy without entropy =        8.97626450  energy(sigma->0) =        8.97592253


--------------------------------------------------------------------------------------------------------




--------------------------------------- Iteration      1(   2)  ---------------------------------------


     EDDAV:  cpu time    0.2490: real time    0.5061
       DOS:  cpu time    0.0065: real time    0.0066
    --------------------------------------------
      LOOP:  cpu time    0.2555: real time    0.5127

 eigenvalue-minimisations  :  4058
 total energy-change (2. order) :-0.1777675E+02  (-0.1601010E+02)
 number of electron       7.9999985 magnetization       2.3384769
 augmentation part        7.9999985 magnetization       2.3384769

 Free energy of the ion-electron system (eV)
  ---------------------------------------------------
  alpha Z        PSCENC =        58.10571186
  Ewald energy   TEWEN  =      -584.29755670
  -Hartree energ DENC   =       -98.78666613
  -exchange      EXHF   =         0.00000000
  -V(xc)+E(xc)   XCENC  =         3.99946285
  PAW double counting   =       509.92684529     -518.92590222
  entropy T*S    EENTRO =        -0.00110295
  eigenvalues    EBANDS =        25.65051728
  atomic energy  EATOM  =       595.52768804
  Solvation  Ediel_sol  =         0.00000000
  ---------------------------------------------------
  free energy    TOTEN  =        -8.80100268 eV

  energy without entropy =       -8.79989974  energy(sigma->0) =       -8.80063503


--------------------------------------------------------------------------------------------------------




--------------------------------------- Iteration      1(   3)  ---------------------------------------


     EDDAV:  cpu time    0.2744: real time    0.5645
       DOS:  cpu time    0.0068: real time    0.0200
    --------------------------------------------
      LOOP:  cpu time    0.2813: real time    0.5846

 eigenvalue-minimisations  :  4624
 total energy-change (2. order) :-0.2518876E+00  (-0.2485191E+00)
 number of electron       7.9999985 magnetization       2.3384769
 augmentation part        7.9999985 magnetization       2.3384769

 Free energy of the ion-electron system (eV)
  ---------------------------------------------------
  alpha Z        PSCENC =        58.10571186
  Ewald energy   TEWEN  =      -584.29755670
  -Hartree energ DENC   =       -98.78666613
  -exchange      EXHF   =         0.00000000
  -V(xc)+E(xc)   XCENC  =         3.99946285
  PAW double counting   =       509.92684529     -518.92590222
  entropy T*S    EENTRO =         0.00068734
  eigenvalues    EBANDS =        25.39683938
  atomic energy  EATOM  =       595.52768804
  Solvation  Ediel_sol  =         0.00000000
  ---------------------------------------------------
  free energy    TOTEN  =        -9.05289030 eV

  energy without entropy =       -9.05357765  energy(sigma->0) =       -9.05311942


--------------------------------------------------------------------------------------------------------




--------------------------------------- Iteration      1(   4)  ---------------------------------------


     EDDAV:  cpu time    0.2644: real time    0.5218
       DOS:  cpu time    0.0069: real time    0.0069
    --------------------------------------------
      LOOP:  cpu time    0.2712: real time    0.5287

 eigenvalue-minimisations  :  4408
 total energy-change (2. order) :-0.7300244E-03  (-0.7299888E-03)
 number of electron       7.9999985 magnetization       2.3384769
 augmentation part        7.9999985 magnetization       2.3384769

 Free energy of the ion-electron system (eV)
  ---------------------------------------------------
  alpha Z        PSCENC =        58.10571186
  Ewald energy   TEWEN  =      -584.29755670
  -Hartree energ DENC   =       -98.78666613
  -exchange      EXHF   =         0.00000000
  -V(xc)+E(xc)   XCENC  =         3.99946285
  PAW double counting   =       509.92684529     -518.92590222
  entropy T*S    EENTRO =         0.00068633
  eigenvalues    EBANDS =        25.39611036
  atomic energy  EATOM  =       595.52768804
  Solvation  Ediel_sol  =         0.00000000
  ---------------------------------------------------
  free energy    TOTEN  =        -9.05362033 eV

  energy without entropy =       -9.05430666  energy(sigma->0) =       -9.05384910


--------------------------------------------------------------------------------------------------------




--------------------------------------- Iteration      1(   5)  ---------------------------------------


     EDDAV:  cpu time    0.2348: real time    0.4906
       DOS:  cpu time    0.0070: real time    0.0070
    --------------------------------------------
      LOOP:  cpu time    0.2418: real time    0.4976

 eigenvalue-minimisations  :  3822
 total energy-change (2. order) :-0.4312262E-05  (-0.4311165E-05)
 number of electron       7.9999985 magnetization       2.3384769
 augmentation part        7.9999985 magnetization       2.3384769

 Free energy of the ion-electron system (eV)
  ---------------------------------------------------
  alpha Z        PSCENC =        58.10571186
  Ewald energy   TEWEN  =      -584.29755670
  -Hartree energ DENC   =       -98.78666613
  -exchange      EXHF   =         0.00000000
  -V(xc)+E(xc)   XCENC  =         3.99946285
  PAW double counting   =       509.92684529     -518.92590222
  entropy T*S    EENTRO =         0.00068633
  eigenvalues    EBANDS =        25.39610606
  atomic energy  EATOM  =       595.52768804
  Solvation  Ediel_sol  =         0.00000000
  ---------------------------------------------------
  free energy    TOTEN  =        -9.05362464 eV

  energy without entropy =       -9.05431096  energy(sigma->0) =       -9.05385341


--------------------------------------------------------------------------------------------------------




--------------------------------------- Iteration      1(   6)  ---------------------------------------


     EDDAV:  cpu time    0.1963: real time    0.4014
       DOS:  cpu time    0.0070: real time    0.0070
    --------------------------------------------
      LOOP:  cpu time    0.2033: real time    0.4084

 eigenvalue-minimisations  :  2998
 total energy-change (2. order) :-0.1432190E-06  (-0.1438309E-06)
 number of electron       7.9999985 magnetization       2.3384769
 augmentation part        7.9999985 magnetization       2.3384769

 Free energy of the ion-electron system (eV)
  ---------------------------------------------------
  alpha Z        PSCENC =        58.10571186
  Ewald energy   TEWEN  =      -584.29755670
  -Hartree energ DENC   =       -98.78666613
  -exchange      EXHF   =         0.00000000
  -V(xc)+E(xc)   XCENC  =         3.99946285
  PAW double counting   =       509.92684529     -518.92590222
  entropy T*S    EENTRO =         0.00068633
  eigenvalues    EBANDS =        25.39610591
  atomic energy  EATOM  =       595.52768804
  Solvation  Ediel_sol  =         0.00000000
  ---------------------------------------------------
  free energy    TOTEN  =        -9.05362478 eV

  energy without entropy =       -9.05431111  energy(sigma->0) =       -9.05385356


--------------------------------------------------------------------------------------------------------




 average (electrostatic) potential at core
  the test charge radii are     1.0103
  (the norm of the test charge is              1.0000)
       1 -43.7866
 
 
 
 E-fermi :   5.4793     XC(G=0): -12.9087     alpha+bet :-13.1120


 spin component 1

 k-point     1 :       0.0000    0.0000    0.0000
  band No.  band energies     occupation 
      1      -2.7682      1.00000
      2       3.1180      1.00000
      3       3.1180      1.00000
      4       3.1181      1.00000
      5       4.4844      1.00000
      6       4.4844      1.00000
      7      30.0641      0.00000
      8      30.0641      0.00000
      9      30.0642      0.00000
     10      35.0335      0.00000

 k-point     2 :      -0.0263    0.0263    0.0263
  band No.  band energies     occupation 
      1      -2.7123      1.00000
      2       3.1177      1.00000
      3       3.1178      1.00000
      4       3.1329      1.00000
      5       4.4601      1.00000
      6       4.4941      1.00000
      7      29.6567      0.00000
      8      30.0066      0.00000
      9      30.0066      0.00000
     10      34.3443      0.00000

 k-point     3 :      -0.0526    0.0526    0.0526
  band No.  band energies     occupation 
      1      -2.5460      1.00000
      2       3.1176      1.00000
      3       3.1177      1.00000
      4       3.1773      1.00000
      5       4.3876      1.00000
      6       4.5230      1.00000
      7      28.7521      0.00000
      8      29.7801      0.00000
      9      29.7802      0.00000
     10      33.0978      0.00000

 k-point     4 :      -0.0789    0.0789    0.0789
  band No.  band energies     occupation 
      1      -2.2731      1.00000
      2       3.1239      1.00000
      3       3.1240      1.00000
      4       3.2506      1.00000
      5       4.2692      1.00000
      6       4.5735      1.00000
      7      27.7213      0.00000
      8      29.2866      0.00000
      9      29.2866      0.00000
     10      31.7632      0.00000

 k-point     5 :      -0.1053    0.1053    0.1053
  band No.  band energies     occupation 
      1      -1.9010      1.00000
      2       3.1367      1.00000
      3       3.1368      1.00000
      4       3.3513      1.00000
      5       4.1097      1.00000
      6       4.6325      1.00000
      7      26.7234      0.00000
      8      28.4746      0.00000
      9      28.4747      0.00000
     10      30.4239      0.00000

 k-point     6 :      -0.1316    0.1316    0.1316
  band No.  band energies     occupation 
      1      -1.4411      1.00000
      2       3.1576      1.00000
      3       3.1576      1.00000
      4       3.4745      1.00000
      5       3.9069      1.00000
      6       4.7113      1.00000
      7      25.7841      0.00000
      8      27.4068      0.00000
      9      27.4068      0.00000
     10      29.1491      0.00000

 k-point     7 :      -0.1579    0.1579    0.1579
  band No.  band energies     occupation 
      1      -0.9110      1.00000
      2       3.1991      1.00000
      3       3.1992      1.00000
      4       3.6273      1.00000
      5       3.6716      1.00000
      6       4.8150      1.00001
      7      24.9437      0.00000
      8      26.2346      0.00000
      9      26.2347      0.00000
     10      27.9679      0.00000

 k-point     8 :      -0.1842    0.1842    0.1842
  band No.  band energies     occupation 
      1      -0.3380      1.00000
      2       3.2620      1.00000
      3       3.2621      1.00000
      4       3.4076      1.00000
      5       3.7882      1.00000
      6       4.9524      1.00062
      7      24.1940      0.00000
      8      25.0100      0.00000
      9      25.0100      0.00000
     10      26.9046      0.00000

 k-point     9 :      -0.2105    0.2105    0.2105
  band No.  band energies     occupation 
      1       0.2366      1.00000
      2       3.1239      1.00000
      3       3.3533      1.00000
      4       3.3534      1.00000
      5       3.9626      1.00000
      6       5.1557      1.02222
      7      23.5406      0.00000
      8      23.7842      0.00000
      9      23.7842      0.00000
     10      25.9757      0.00000

 k-point    10 :      -0.2368    0.2368    0.2368
  band No.  band energies     occupation 
      1       0.7551      1.00000
      2       2.8288      1.00000
      3       3.4746      1.00000
      4       3.4747      1.00000
      5       4.1458      1.00000
      6       5.4636      0.56642
      7      22.5757      0.00000
      8      22.5757      0.00000
      9      22.9788      0.00000
     10      25.1885      0.00000

 k-point    11 :      -0.2632    0.2632    0.2632
  band No.  band energies     occupation 
      1       1.1546      1.00000
      2       2.5307      1.00000
      3       3.6305      1.00000
      4       3.6306      1.00000
      5       4.3330      1.00000
      6       5.9483     -0.00225
      7      21.4096      0.00000
      8      21.4096      0.00000
      9      22.5020      0.00000
     10      24.5433      0.00000

 k-point    12 :      -0.2895    0.2895    0.2895
  band No.  band energies     occupation 
      1       1.3952      1.00000
      2       2.2383      1.00000
      3       3.8195      1.00000
      4       3.8196      1.00000
      5       4.5190      1.00000
      6       6.6412     -0.00000
      7      20.2938      0.00000
      8      20.2939      0.00000
      9      22.1025      0.00000
     10      24.0305      0.00000

 k-point    13 :      -0.3158    0.3158    0.3158
  band No.  band energies     occupation 
      1       1.4832      1.00000
      2       1.9579      1.00000
      3       4.0376      1.00000
      4       4.0377      1.00000
      5       4.7003      1.00000
      6       7.5386     -0.00000
      7      19.2413      0.00000
      8      19.2414      0.00000
      9      21.7615      0.00000
     10      23.6309      0.00000

 k-point    14 :      -0.3421    0.3421    0.3421
  band No.  band energies     occupation 
      1       1.4566      1.00000
      2       1.7001      1.00000
      3       4.2798      1.00000
      4       4.2799      1.00000
      5       4.8676      1.00007
      6       8.6055     -0.00000
      7      18.2624      0.00000
      8      18.2624      0.00000
      9      21.4908      0.00000
     10      23.3167      0.00000

 k-point    15 :      -0.3684    0.3684    0.3684
  band No.  band energies     occupation 
      1       1.3621      1.00000
      2       1.4702      1.00000
      3       4.5342      1.00000
      4       4.5343      1.00000
      5       5.0187      1.00266
      6       9.7983     -0.00000
      7      17.3730      0.00000
      8      17.3730      0.00000
      9      21.2723      0.00000
     10      23.0568      0.00000

 k-point    16 :      -0.3947    0.3947    0.3947
  band No.  band energies     occupation 
      1       1.2346      1.00000
      2       1.2742      1.00000
      3       4.7896      1.00001
      4       4.7897      1.00001
      5       5.1489      1.02067
      6      11.0726      0.00000
      7      16.5947      0.00000
      8      16.5948      0.00000
      9      21.1036      0.00000
     10      22.7681      0.00000

 k-point    17 :      -0.4211    0.4211    0.4211
  band No.  band energies     occupation 
      1       1.1071      1.00000
      2       1.1169      1.00000
      3       5.0261      1.00308
      4       5.0262      1.00309
      5       5.2544      1.03369
      6      12.3767      0.00000
      7      15.9485      0.00000
      8      15.9486      0.00000
      9      20.9779      0.00000
     10      22.3755      0.00000

 k-point    18 :      -0.4474    0.4474    0.4474
  band No.  band energies     occupation 
      1       1.0014      1.00000
      2       1.0019      1.00000
      3       5.2208      1.03481
      4       5.2209      1.03482
      5       5.3322      0.97176
      6      13.6231      0.00000
      7      15.4596      0.00000
      8      15.4596      0.00000
      9      20.8911      0.00000
     10      21.7999      0.00000

 k-point    19 :      -0.4737    0.4737    0.4737
  band No.  band energies     occupation 
      1       0.9318      1.00000
      2       0.9322      1.00000
      3       5.3502      0.93943
      4       5.3503      0.93918
      5       5.3798      0.86892
      6      14.6293      0.00000
      7      15.1530      0.00000
      8      15.1531      0.00000
      9      20.8402      0.00000
     10      21.1442      0.00000

 k-point    20 :      -0.5000    0.5000    0.5000
  band No.  band energies     occupation 
      1       0.9083      1.00000
      2       0.9083      1.00000
      3       5.3957      0.82180
      4       5.3957      0.82180
      5       5.3959      0.82122
      6      15.0483      0.00000
      7      15.0484      0.00000
      8      15.0484      0.00000
      9      20.8234      0.00000
     10      20.8234      0.00000

 k-point    21 :      -0.5000    0.5000    0.5000
  band No.  band energies     occupation 
      1       0.9083      1.00000
      2       0.9083      1.00000
      3       5.3957      0.82180
      4       5.3957      0.82180
      5       5.3959      0.82122
      6      15.0483      0.00000
      7      15.0484      0.00000
      8      15.0484      0.00000
      9      20.8234      0.00000
     10      20.8234      0.00000

 k-point    22 :      -0.4737    0.5000    0.4737
  band No.  band energies     occupation 
      1       0.9201      1.00000
      2       0.9203      1.00000
      3       5.3631      0.91133
      4       5.3728      0.88751
      5       5.3976      0.81598
      6      14.9409      0.00000
      7      14.9869      0.00000
      8      15.1008      0.00000
      9      20.8730      0.00000
     10      20.9574      0.00000

 k-point    23 :      -0.4474    0.5000    0.4474
  band No.  band energies     occupation 
      1       0.9549      1.00000
      2       0.9564      1.00000
      3       5.2678      1.03011
      4       5.3048      1.00638
      5       5.4027      0.79947
      6      14.6438      0.00000
      7      14.8163      0.00000
      8      15.2558      0.00000
      9      21.0059      0.00000
     10      21.3344      0.00000

 k-point    24 :      -0.4211    0.5000    0.4211
  band No.  band energies     occupation 
      1       1.0109      1.00000
      2       1.0166      1.00000
      3       5.1169      1.01396
      4       5.1948      1.03092
      5       5.4110      0.77123
      6      14.2114      0.00000
      7      14.5706      0.00000
      8      15.5065      0.00000
      9      21.1863      0.00000
     10      21.9004      0.00000

 k-point    25 :      -0.3947    0.5000    0.3947
  band No.  band energies     occupation 
      1       1.0847      1.00000
      2       1.1009      1.00000
      3       4.9202      1.00028
      4       5.0483      1.00469
      5       5.4224      0.73044
      6      13.6949      0.00000
      7      14.2872      0.00000
      8      15.8436      0.00000
      9      21.3797      0.00000
     10      22.6050      0.00000

 k-point    26 :      -0.3684    0.5000    0.3684
  band No.  band energies     occupation 
      1       1.1712      1.00000
      2       1.2094      1.00000
      3       4.6890      1.00000
      4       4.8735      1.00008
      5       5.4365      0.67666
      6      13.1303      0.00000
      7      13.9967      0.00000
      8      16.2564      0.00000
      9      21.5659      0.00000
     10      23.4130      0.00000

 k-point    27 :      -0.3421    0.5000    0.3421
  band No.  band energies     occupation 
      1       1.2634      1.00000
      2       1.3420      1.00000
      3       4.4346      1.00000
      4       4.6815      1.00000
      5       5.4530      0.61036
      6      12.5404      0.00000
      7      13.7199      0.00000
      8      16.7347      0.00000
      9      21.7385      0.00000
     10      24.3029      0.00000

 k-point    28 :      -0.3158    0.5000    0.3158
  band No.  band energies     occupation 
      1       1.3516      1.00000
      2       1.4989      1.00000
      3       4.1672      1.00000
      4       4.4904      1.00000
      5       5.4714      0.53342
      6      11.9397      0.00000
      7      13.4692      0.00000
      8      17.2690      0.00000
      9      21.9043      0.00000
     10      25.2630      0.00000

 k-point    29 :      -0.2895    0.5000    0.2895
  band No.  band energies     occupation 
      1       1.4232      1.00000
      2       1.6796      1.00000
      3       3.8958      1.00000
      4       4.3104      1.00000
      5       5.4913      0.44937
      6      11.3361      0.00000
      7      13.2499      0.00000
      8      17.8513      0.00000
      9      22.0564      0.00000
     10      26.2833      0.00000

 k-point    30 :      -0.2632    0.5000    0.2632
  band No.  band energies     occupation 
      1       1.4645      1.00000
      2       1.8844      1.00000
      3       3.6281      1.00000
      4       4.1646      1.00000
      5       5.5122      0.36318
      6      10.7359     -0.00000
      7      13.0638      0.00000
      8      18.4749      0.00000
      9      22.2059      0.00000
     10      27.3608      0.00000

 k-point    31 :      -0.2368    0.5000    0.2368
  band No.  band energies     occupation 
      1       1.4634      1.00000
      2       2.1122      1.00000
      3       3.3677      1.00000
      4       4.0652      1.00000
      5       5.5360      0.27055
      6      10.1441     -0.00000
      7      12.9067      0.00000
      8      19.1302      0.00000
      9      22.3513      0.00000
     10      28.4854      0.00000

 k-point    32 :      -0.2105    0.5000    0.2105
  band No.  band energies     occupation 
      1       1.4158      1.00000
      2       2.3629      1.00000
      3       3.1237      1.00000
      4       4.0273      1.00000
      5       5.5564      0.19933
      6       9.5611     -0.00000
      7      12.7807      0.00000
      8      19.8180      0.00000
      9      22.5053      0.00000
     10      29.6654      0.00000

 k-point    33 :      -0.1842    0.5000    0.1842
  band No.  band energies     occupation 
      1       1.3272      1.00000
      2       2.6362      1.00000
      3       2.8996      1.00000
      4       4.0437      1.00000
      5       5.5761      0.13896
      6       8.9915     -0.00000
      7      12.6805      0.00000
      8      20.5316      0.00000
      9      22.6636      0.00000
     10      30.8955      0.00000

 k-point    34 :      -0.1579    0.5000    0.1579
  band No.  band energies     occupation 
      1       1.2104      1.00000
      2       2.6954      1.00000
      3       2.9263      1.00000
      4       4.1007      1.00000
      5       5.5928      0.09520
      6       8.4344     -0.00000
      7      12.5990      0.00000
      8      21.2586      0.00000
      9      22.8185      0.00000
     10      32.2257      0.00000

 k-point    35 :      -0.1316    0.5000    0.1316
  band No.  band energies     occupation 
      1       1.0850      1.00000
      2       2.5235      1.00000
      3       3.2402      1.00000
      4       4.1823      1.00000
      5       5.6121      0.05332
      6       7.8998     -0.00000
      7      12.5403      0.00000
      8      22.0109      0.00000
      9      22.9803      0.00000
     10      31.9474      0.00000

 k-point    36 :      -0.1053    0.5000    0.1053
  band No.  band energies     occupation 
      1       0.9637      1.00000
      2       2.3763      1.00000
      3       3.5699      1.00000
      4       4.2673      1.00000
      5       5.6258      0.02928
      6       7.3873     -0.00000
      7      12.4937      0.00000
      8      22.7621      0.00000
      9      23.1331      0.00000
     10      30.9696      0.00000

 k-point    37 :      -0.0789    0.5000    0.0789
  band No.  band energies     occupation 
      1       0.8590      1.00000
      2       2.2613      1.00000
      3       3.9120      1.00000
      4       4.3531      1.00000
      5       5.6373      0.01262
      6       6.9062     -0.00000
      7      12.4635      0.00000
      8      23.2731      0.00000
      9      23.5040      0.00000
     10      30.0701      0.00000

 k-point    38 :      -0.0526    0.5000    0.0526
  band No.  band energies     occupation 
      1       0.7789      1.00000
      2       2.1772      1.00000
      3       4.2466      1.00000
      4       4.4176      1.00000
      5       5.6454      0.00260
      6       6.4685     -0.00000
      7      12.4424      0.00000
      8      23.3845      0.00000
      9      24.1929      0.00000
     10      29.2573      0.00000

 k-point    39 :      -0.0263    0.5000    0.0263
  band No.  band energies     occupation 
      1       0.7279      1.00000
      2       2.1264      1.00000
      3       4.4590      1.00000
      4       4.5324      1.00000
      5       5.6504     -0.00283
      6       6.1188     -0.00003
      7      12.4258      0.00000
      8      23.4574      0.00000
      9      24.7407      0.00000
     10      28.6352      0.00000

 k-point    40 :       0.0000    0.5000    0.0000
  band No.  band energies     occupation 
      1       0.7108      1.00000
      2       2.1094      1.00000
      3       4.4733      1.00000
      4       4.6622      1.00000
      5       5.6520     -0.00455
      6       5.9682     -0.00148
      7      12.4218      0.00000
      8      23.4830      0.00000
      9      24.9672      0.00000
     10      28.3838      0.00000

 k-point    41 :       0.0000    0.5000    0.0000
  band No.  band energies     occupation 
      1       0.7108      1.00000
      2       2.1094      1.00000
      3       4.4733      1.00000
      4       4.6622      1.00000
      5       5.6520     -0.00455
      6       5.9682     -0.00148
      7      12.4218      0.00000
      8      23.4830      0.00000
      9      24.9672      0.00000
     10      28.3838      0.00000

 k-point    42 :       0.0132    0.4868    0.0132
  band No.  band energies     occupation 
      1       0.7201      1.00000
      2       2.1082      1.00000
      3       4.4748      1.00000
      4       4.6624      1.00000
      5       5.4667      0.55352
      6       6.1663     -0.00001
      7      12.4240      0.00000
      8      23.3796      0.00000
      9      24.8539      0.00000
     10      28.5029      0.00000

 k-point    43 :       0.0263    0.4737    0.0263
  band No.  band energies     occupation 
      1       0.7479      1.00000
      2       2.1047      1.00000
      3       4.4794      1.00000
      4       4.6632      1.00000
      5       5.1919      1.03033
      6       6.4791     -0.00000
      7      12.4305      0.00000
      8      23.0949      0.00000
      9      24.5367      0.00000
     10      28.8347      0.00000

 k-point    44 :       0.0395    0.4605    0.0395
  band No.  band energies     occupation 
      1       0.7937      1.00000
      2       2.0991      1.00000
      3       4.4869      1.00000
      4       4.6645      1.00000
      5       4.9185      1.00027
      6       6.8157     -0.00000
      7      12.4417      0.00000
      8      22.6822      0.00000
      9      24.0674      0.00000
     10      29.3259      0.00000

 k-point    45 :       0.0526    0.4474    0.0526
  band No.  band energies     occupation 
      1       0.8566      1.00000
      2       2.0918      1.00000
      3       4.4971      1.00000
      4       4.6552      1.00000
      5       4.6663      1.00000
      6       7.1677     -0.00000
      7      12.4582      0.00000
      8      22.1904      0.00000
      9      23.4988      0.00000
     10      29.9278      0.00000

 k-point    46 :       0.0658    0.4342    0.0658
  band No.  band energies     occupation 
      1       0.9354      1.00000
      2       2.0832      1.00000
      3       4.4039      1.00000
      4       4.5099      1.00000
      5       4.6684      1.00000
      6       7.5328     -0.00000
      7      12.4809      0.00000
      8      21.6526      0.00000
      9      22.8713      0.00000
     10      30.6076      0.00000

 k-point    47 :       0.0789    0.4211    0.0789
  band No.  band energies     occupation 
      1       1.0281      1.00000
      2       2.0706      1.00000
      3       4.1641      1.00000
      4       4.5243      1.00000
      5       4.6695      1.00000
      6       7.9081     -0.00000
      7      12.5094      0.00000
      8      21.0826      0.00000
      9      22.2128      0.00000
     10      31.3123      0.00000

 k-point    48 :       0.0921    0.4079    0.0921
  band No.  band energies     occupation 
      1       1.1336      1.00000
      2       2.0609      1.00000
      3       3.9387      1.00000
      4       4.5410      1.00000
      5       4.6721      1.00000
      6       8.2970     -0.00000
      7      12.5474      0.00000
      8      20.5044      0.00000
      9      21.5420      0.00000
     10      32.0948      0.00000

 k-point    49 :       0.1053    0.3947    0.1053
  band No.  band energies     occupation 
      1       1.2496      1.00000
      2       2.0534      1.00000
      3       3.7266      1.00000
      4       4.5598      1.00000
      5       4.6750      1.00000
      6       8.6973     -0.00000
      7      12.5966      0.00000
      8      19.9276      0.00000
      9      20.8729      0.00000
     10      32.9224      0.00000

 k-point    50 :       0.1184    0.3816    0.1184
  band No.  band energies     occupation 
      1       1.3723      1.00000
      2       2.0460      1.00000
      3       3.5278      1.00000
      4       4.5752      1.00000
      5       4.6779      1.00000
      6       9.1084     -0.00000
      7      12.6548      0.00000
      8      19.3416      0.00000
      9      20.2120      0.00000
     10      33.7760      0.00000

 k-point    51 :       0.1316    0.3684    0.1316
  band No.  band energies     occupation 
      1       1.4999      1.00000
      2       2.0412      1.00000
      3       3.3428      1.00000
      4       4.5938      1.00000
      5       4.6810      1.00000
      6       9.5309     -0.00000
      7      12.7267      0.00000
      8      18.7574      0.00000
      9      19.5687      0.00000
     10      34.6610      0.00000

 k-point    52 :       0.1447    0.3553    0.1447
  band No.  band energies     occupation 
      1       1.6286      1.00000
      2       2.0400      1.00000
      3       3.1714      1.00000
      4       4.6123      1.00000
      5       4.6841      1.00000
      6       9.9641     -0.00000
      7      12.8133      0.00000
      8      18.1772      0.00000
      9      18.9484      0.00000
     10      35.5754      0.00000

 k-point    53 :       0.1579    0.3421    0.1579
  band No.  band energies     occupation 
      1       1.7549      1.00000
      2       2.0434      1.00000
      3       3.0135      1.00000
      4       4.6301      1.00000
      5       4.6871      1.00000
      6      10.4080     -0.00000
      7      12.9160      0.00000
      8      17.6023      0.00000
      9      18.3565      0.00000
     10      36.5177      0.00000

 k-point    54 :       0.1711    0.3289    0.1711
  band No.  band energies     occupation 
      1       1.8752      1.00000
      2       2.0522      1.00000
      3       2.8689      1.00000
      4       4.6467      1.00000
      5       4.6899      1.00000
      6      10.8622     -0.00000
      7      13.0356      0.00000
      8      17.0337      0.00000
      9      17.7984      0.00000
     10      37.4870      0.00000

 k-point    55 :       0.1842    0.3158    0.1842
  band No.  band energies     occupation 
      1       1.9854      1.00000
      2       2.0675      1.00000
      3       2.7377      1.00000
      4       4.6616      1.00000
      5       4.6926      1.00000
      6      11.3267      0.00000
      7      13.1719      0.00000
      8      16.4722      0.00000
      9      17.2801      0.00000
     10      38.4815      0.00000

 k-point    56 :       0.1974    0.3026    0.1974
  band No.  band energies     occupation 
      1       2.0819      1.00000
      2       2.0901      1.00000
      3       2.6194      1.00000
      4       4.6746      1.00000
      5       4.6949      1.00000
      6      11.8013      0.00000
      7      13.3222      0.00000
      8      15.9183      0.00000
      9      16.8094      0.00000
     10      39.5007      0.00000

 k-point    57 :       0.2105    0.2895    0.2105
  band No.  band energies     occupation 
      1       2.1208      1.00000
      2       2.1638      1.00000
      3       2.5143      1.00000
      4       4.6867      1.00000
      5       4.7010      1.00000
      6      12.2859      0.00000
      7      13.4865      0.00000
      8      15.3726      0.00000
      9      16.3988      0.00000
     10      40.5430      0.00000

 k-point    58 :       0.2237    0.2763    0.2237
  band No.  band energies     occupation 
      1       2.1605      1.00000
      2       2.2228      1.00000
      3       2.4212      1.00000
      4       4.6950      1.00000
      5       4.7026      1.00000
      6      12.7802      0.00000
      7      13.6365      0.00000
      8      14.8351      0.00000
      9      16.0639      0.00000
     10      41.6053      0.00000

 k-point    59 :       0.2368    0.2632    0.2368
  band No.  band energies     occupation 
      1       2.2112      1.00000
      2       2.2609      1.00000
      3       2.3417      1.00000
      4       4.7020      1.00000
      5       4.7102      1.00000
      6      13.2875      0.00000
      7      13.7576      0.00000
      8      14.3126      0.00000
      9      15.8367      0.00000
     10      42.7316      0.00000

 k-point    60 :       0.2500    0.2500    0.2500
  band No.  band energies     occupation 
      1       2.2743      1.00000
      2       2.2743      1.00000
      3       2.2743      1.00000
      4       4.7115      1.00000
      5       4.7115      1.00000
      6      13.8068      0.00000
      7      13.8068      0.00000
      8      13.8069      0.00000
      9      15.7542      0.00000
     10      43.6992      0.00000

 k-point    61 :       0.2500    0.2500    0.2500
  band No.  band energies     occupation 
      1       2.2743      1.00000
      2       2.2743      1.00000
      3       2.2743      1.00000
      4       4.7115      1.00000
      5       4.7115      1.00000
      6      13.8068      0.00000
      7      13.8068      0.00000
      8      13.8069      0.00000
      9      15.7542      0.00000
     10      43.6989      0.00000

 k-point    62 :       0.2368    0.2368    0.2368
  band No.  band energies     occupation 
      1       2.2111      1.00000
      2       2.2111      1.00000
      3       2.3861      1.00000
      4       4.7025      1.00000
      5       4.7025      1.00000
      6      12.6690      0.00000
      7      14.3448      0.00000
      8      14.3448      0.00000
      9      15.9303      0.00000
     10      42.5488      0.00000

 k-point    63 :       0.2237    0.2237    0.2237
  band No.  band energies     occupation 
      1       2.1584      1.00000
      2       2.1584      1.00000
      3       2.4556      1.00000
      4       4.6865      1.00000
      5       4.6865      1.00000
      6      11.4952      0.00000
      7      14.9382      0.00000
      8      14.9382      0.00000
      9      16.3114      0.00000
     10      40.9706      0.00000

 k-point    64 :       0.2105    0.2105    0.2105
  band No.  band energies     occupation 
      1       2.1254      1.00000
      2       2.1254      1.00000
      3       2.4642      1.00000
      4       4.6714      1.00000
      5       4.6714      1.00000
      6      10.3823     -0.00000
      7      15.6013      0.00000
      8      15.6013      0.00000
      9      16.8300      0.00000
     10      39.7240      0.00000

 k-point    65 :       0.1974    0.1974    0.1974
  band No.  band energies     occupation 
      1       2.1123      1.00000
      2       2.1123      1.00000
      3       2.3911      1.00000
      4       4.6511      1.00000
      5       4.6511      1.00000
      6       9.3483     -0.00000
      7      16.3188      0.00000
      8      16.3188      0.00000
      9      17.4746      0.00000
     10      38.5558      0.00000

 k-point    66 :       0.1842    0.1842    0.1842
  band No.  band energies     occupation 
      1       2.1213      1.00000
      2       2.1213      1.00000
      3       2.2238      1.00000
      4       4.6257      1.00000
      5       4.6257      1.00000
      6       8.4068     -0.00000
      7      17.0890      0.00000
      8      17.0890      0.00000
      9      18.2429      0.00000
     10      37.4626      0.00000

 k-point    67 :       0.1711    0.1711    0.1711
  band No.  band energies     occupation 
      1       1.9576      1.00000
      2       2.1532      1.00000
      3       2.1532      1.00000
      4       4.5961      1.00000
      5       4.5961      1.00000
      6       7.5651     -0.00000
      7      17.9109      0.00000
      8      17.9109      0.00000
      9      19.1319      0.00000
     10      36.4445      0.00000

 k-point    68 :       0.1579    0.1579    0.1579
  band No.  band energies     occupation 
      1       1.5977      1.00000
      2       2.2077      1.00000
      3       2.2077      1.00000
      4       4.5633      1.00000
      5       4.5633      1.00000
      6       6.8249     -0.00000
      7      18.7835      0.00000
      8      18.7835      0.00000
      9      20.1362      0.00000
     10      35.5016      0.00000

 k-point    69 :       0.1447    0.1447    0.1447
  band No.  band energies     occupation 
      1       1.1598      1.00000
      2       2.2851      1.00000
      3       2.2851      1.00000
      4       4.5311      1.00000
      5       4.5311      1.00000
      6       6.1836     -0.00000
      7      19.7139      0.00000
      8      19.7139      0.00000
      9      21.2480      0.00000
     10      34.6338      0.00000

 k-point    70 :       0.1316    0.1316    0.1316
  band No.  band energies     occupation 
      1       0.6670      1.00000
      2       2.3774      1.00000
      3       2.3774      1.00000
      4       4.4963      1.00000
      5       4.4963      1.00000
      6       5.6245      0.03143
      7      20.6846      0.00000
      8      20.6846      0.00000
      9      22.4574      0.00000
     10      33.8414      0.00000

 k-point    71 :       0.1184    0.1184    0.1184
  band No.  band energies     occupation 
      1       0.1462      1.00000
      2       2.4831      1.00000
      3       2.4831      1.00000
      4       4.4644      1.00000
      5       4.4644      1.00000
      6       5.1387      1.01840
      7      21.7023      0.00000
      8      21.7023      0.00000
      9      23.7535      0.00000
     10      33.1243      0.00000

 k-point    72 :       0.1053    0.1053    0.1053
  band No.  band energies     occupation 
      1      -0.3770      1.00000
      2       2.5963      1.00000
      3       2.5963      1.00000
      4       4.4381      1.00000
      5       4.4381      1.00000
      6       4.7128      1.00000
      7      22.7640      0.00000
      8      22.7640      0.00000
      9      25.1221      0.00000
     10      32.4826      0.00000

 k-point    73 :       0.0921    0.0921    0.0921
  band No.  band energies     occupation 
      1      -0.8806      1.00000
      2       2.7106      1.00000
      3       2.7106      1.00000
      4       4.3430      1.00000
      5       4.4201      1.00000
      6       4.4201      1.00000
      7      23.8645      0.00000
      8      23.8645      0.00000
      9      26.5552      0.00000
     10      31.9164      0.00000

 k-point    74 :       0.0789    0.0789    0.0789
  band No.  band energies     occupation 
      1      -1.3466      1.00000
      2       2.8191      1.00000
      3       2.8191      1.00000
      4       4.0234      1.00000
      5       4.4155      1.00000
      6       4.4155      1.00000
      7      24.9983      0.00000
      8      24.9983      0.00000
      9      28.0391      0.00000
     10      31.4256      0.00000

 k-point    75 :       0.0658    0.0658    0.0658
  band No.  band energies     occupation 
      1      -1.7613      1.00000
      2       2.9118      1.00000
      3       2.9118      1.00000
      4       3.7504      1.00000
      5       4.4159      1.00000
      6       4.4159      1.00000
      7      26.1317      0.00000
      8      26.1317      0.00000
      9      29.5570      0.00000
     10      31.0084      0.00000

 k-point    76 :       0.0526    0.0526    0.0526
  band No.  band energies     occupation 
      1      -2.1137      1.00000
      2       2.9909      1.00000
      3       2.9909      1.00000
      4       3.5269      1.00000
      5       4.4288      1.00000
      6       4.4288      1.00000
      7      27.2625      0.00000
      8      27.2625      0.00000
      9      30.6686      0.00000
     10      31.0995      0.00000

 k-point    77 :       0.0395    0.0395    0.0395
  band No.  band energies     occupation 
      1      -2.3957      1.00000
      2       3.0472      1.00000
      3       3.0472      1.00000
      4       3.3520      1.00000
      5       4.4465      1.00000
      6       4.4465      1.00000
      7      28.3079      0.00000
[...]
  band No.  band energies     occupation 
      1      -0.0430      1.00000
      2       4.5316      1.00000
      3       4.8693      1.00007
      4       6.6156     -0.00000
      5       6.7063     -0.00000
      6       7.0832     -0.00000
      7      20.9330      0.00000
      8      26.1185      0.00000
      9      29.2913      0.00000
     10      29.2956      0.00000

 k-point    92 :       0.0000    0.2895    0.0000
  band No.  band energies     occupation 
      1       0.3818      1.00000
      2       4.4368      1.00000
      3       4.8382      1.00003
      4       6.7358     -0.00000
      5       6.8524     -0.00000
      6       7.1080     -0.00000
      7      19.8066      0.00000
      8      25.6135      0.00000
      9      28.6044      0.00000
     10      29.2691      0.00000

 k-point    93 :       0.0000    0.3158    0.0000
  band No.  band energies     occupation 
      1       0.7917      1.00000
      2       4.3439      1.00000
      3       4.8483      1.00004
      4       6.7685     -0.00000
      5       7.0890     -0.00000
      6       7.1313     -0.00000
      7      18.7088      0.00000
      8      25.1479      0.00000
      9      27.9663      0.00000
     10      29.2160      0.00000

 k-point    94 :       0.0000    0.3421    0.0000
  band No.  band energies     occupation 
      1       1.1633      1.00000
      2       4.2586      1.00000
      3       4.9216      1.00029
      4       6.8042     -0.00000
      5       7.1551     -0.00000
      6       7.3139     -0.00000
      7      17.6596      0.00000
      8      24.7314      0.00000
      9      27.3865      0.00000
     10      29.1701      0.00000

 k-point    95 :       0.0000    0.3684    0.0000
  band No.  band energies     occupation 
      1       1.4746      1.00000
      2       4.1828      1.00000
      3       5.0702      1.00688
      4       6.8388     -0.00000
      5       7.1723     -0.00000
      6       7.5218     -0.00000
      7      16.6743      0.00000
      8      24.3677      0.00000
      9      26.8759      0.00000
     10      29.1275      0.00000

 k-point    96 :       0.0000    0.3947    0.0000
  band No.  band energies     occupation 
      1       1.7115      1.00000
      2       4.1185      1.00000
      3       5.2934      1.01620
      4       6.8692     -0.00000
      5       7.1923     -0.00000
      6       7.7067     -0.00000
      7      15.7821      0.00000
      8      24.0657      0.00000
      9      26.4450      0.00000
     10      29.0955      0.00000

 k-point    97 :       0.0000    0.4211    0.0000
  band No.  band energies     occupation 
      1       1.8744      1.00000
      2       4.0670      1.00000
      3       5.5650      0.17183
      4       6.8917     -0.00000
      5       7.2093     -0.00000
      6       7.8603     -0.00000
      7      15.0110      0.00000
      8      23.8268      0.00000
      9      26.1002      0.00000
     10      29.0708      0.00000

 k-point    98 :       0.0000    0.4474    0.0000
  band No.  band energies     occupation 
      1       1.9750      1.00000
      2       4.0294      1.00000
      3       5.8356     -0.01516
      4       6.9037     -0.00000
      5       7.2224     -0.00000
      6       7.9756     -0.00000
      7      14.4026      0.00000
      8      23.6540      0.00000
      9      25.8481      0.00000
     10      29.0532      0.00000

 k-point    99 :       0.0000    0.4737    0.0000
  band No.  band energies     occupation 
      1       2.0282      1.00000
      2       4.0066      1.00000
      3       6.0412     -0.00026
      4       6.9057     -0.00000
      5       7.2308     -0.00000
      6       8.0473     -0.00000
      7      14.0069      0.00000
      8      23.5494      0.00000
      9      25.6945      0.00000
     10      29.0427      0.00000

 k-point   100 :       0.0000    0.5000    0.0000
  band No.  band energies     occupation 
      1       2.0443      1.00000
      2       3.9989      1.00000
      3       6.1192     -0.00003
      4       6.9044     -0.00000
      5       7.2319     -0.00000
      6       8.0716     -0.00000
      7      13.8641      0.00000
      8      23.5144      0.00000
      9      25.6428      0.00000
     10      29.0392      0.00000


--------------------------------------------------------------------------------------------------------


 soft charge-density along one line, spin component           1
         0         1         2         3         4         5         6         7         8         9
 total charge-density along one line
 
 soft charge-density along one line, spin component           2
         0         1         2         3         4         5         6         7         8         9
 total charge-density along one line
 
 pseudopotential strength for first ion, spin component:           1
 -5.878   0.000   0.000   0.000   0.000   0.000   0.000   0.000   0.000   0.000  -0.546   0.000  -0.000   0.000  -0.000   0.000
  0.000   0.000  -5.878   0.000  -0.000   0.000   0.000   0.000   0.000   0.000  -0.000   0.000  -0.546   0.000   0.000   0.000
  0.000   0.000  -0.000   0.000  -5.909   0.000  -0.000   0.000   0.000   0.000  -0.000   0.000   0.000   0.000  -0.539   0.000
  0.000   0.000   0.000   0.000  -0.000   0.000  -5.878   0.000  -0.000   0.000  -0.000   0.000  -0.000   0.000   0.000   0.000
  0.000   0.000   0.000   0.000   0.000   0.000  -0.000   0.000  -5.909   0.000  -0.000   0.000  -0.000   0.000  -0.000   0.000
 -0.546   0.000  -0.000   0.000  -0.000   0.000  -0.000   0.000  -0.000   0.000   0.892   0.000   0.000   0.000   0.000   0.000
 -0.000   0.000  -0.546   0.000   0.000   0.000  -0.000   0.000  -0.000   0.000   0.000   0.000   0.892   0.000  -0.000   0.000
 -0.000   0.000   0.000   0.000  -0.539   0.000   0.000   0.000  -0.000   0.000   0.000   0.000  -0.000   0.000   0.891   0.000
 -0.000   0.000  -0.000   0.000   0.000   0.000  -0.546   0.000   0.000   0.000   0.000   0.000   0.000   0.000  -0.000   0.000
 -0.000   0.000  -0.000   0.000  -0.000   0.000   0.000   0.000  -0.539   0.000   0.000   0.000   0.000   0.000   0.000   0.000
 -0.000   0.000  -0.000   0.000   0.000   0.000  -0.000   0.000   0.000   0.000  -0.000   0.000  -0.000   0.000  -0.000   0.000
  0.000   0.000   0.000   0.000  -0.000   0.000   0.000   0.000  -0.000   0.000  -0.000   0.000  -0.000   0.000   0.000   0.000
 -0.000   0.000   0.000   0.000  -0.000   0.000   0.000   0.000  -0.000   0.000   0.000   0.000  -0.000   0.000   0.000   0.000
  0.000   0.000   0.000   0.000   0.000   0.000  -0.000   0.000  -0.000   0.000   0.000   0.000  -0.000   0.000  -0.000   0.000
  0.000   0.000   0.000   0.000   0.000   0.000   0.000   0.000  -0.000   0.000  -0.000   0.000   0.000   0.000  -0.000   0.000
  0.000   0.000  -0.000   0.000   0.000   0.000  -0.000   0.000  -0.000   0.000  -0.000   0.000   0.000   0.000  -0.000   0.000
 -0.000   0.000  -0.000   0.000  -0.000   0.000   0.000   0.000   0.000   0.000   0.000   0.000   0.000   0.000   0.000   0.000
 -0.000   0.000  -0.000   0.000  -0.000   0.000  -0.000   0.000   0.000   0.000   0.000   0.000   0.000   0.000   0.000   0.000
 pseudopotential strength for first ion, spin component:           2
 -4.299   0.000   0.000   0.000   0.000   0.000   0.000   0.000   0.000   0.000  -1.025   0.000  -0.000   0.000  -0.000   0.000
  0.000   0.000  -4.299   0.000  -0.000   0.000   0.000   0.000   0.000   0.000  -0.000   0.000  -1.025   0.000   0.000   0.000
  0.000   0.000  -0.000   0.000  -4.185   0.000  -0.000   0.000   0.000   0.000  -0.000   0.000   0.000   0.000  -1.050   0.000
  0.000   0.000   0.000   0.000  -0.000   0.000  -4.299   0.000  -0.000   0.000  -0.000   0.000  -0.000   0.000   0.000   0.000
  0.000   0.000   0.000   0.000   0.000   0.000  -0.000   0.000  -4.185   0.000  -0.000   0.000  -0.000   0.000  -0.000   0.000
 -1.025   0.000  -0.000   0.000  -0.000   0.000  -0.000   0.000  -0.000   0.000   1.036   0.000   0.000   0.000   0.000   0.000
 -0.000   0.000  -1.025   0.000   0.000   0.000  -0.000   0.000  -0.000   0.000   0.000   0.000   1.036   0.000  -0.000   0.000
 -0.000   0.000   0.000   0.000  -1.050   0.000   0.000   0.000  -0.000   0.000   0.000   0.000  -0.000   0.000   1.040   0.000
 -0.000   0.000  -0.000   0.000   0.000   0.000  -1.025   0.000   0.000   0.000   0.000   0.000   0.000   0.000  -0.000   0.000
 -0.000   0.000  -0.000   0.000  -0.000   0.000   0.000   0.000  -1.050   0.000   0.000   0.000   0.000   0.000   0.000   0.000
  0.000   0.000   0.000   0.000  -0.000   0.000   0.000   0.000   0.000   0.000   0.000   0.000   0.000   0.000  -0.000   0.000
 -0.000   0.000  -0.000   0.000   0.000   0.000  -0.000   0.000  -0.000   0.000   0.000   0.000   0.000   0.000  -0.000   0.000
 -0.000   0.000  -0.000   0.000  -0.000   0.000  -0.000   0.000  -0.000   0.000   0.000   0.000   0.000   0.000   0.000   0.000
 -0.000   0.000   0.000   0.000  -0.000   0.000  -0.000   0.000  -0.000   0.000  -0.000   0.000  -0.000   0.000   0.000   0.000
  0.000   0.000  -0.000   0.000   0.000   0.000  -0.000   0.000  -0.000   0.000  -0.000   0.000  -0.000   0.000  -0.000   0.000
  0.000   0.000  -0.000   0.000   0.000   0.000   0.000   0.000   0.000   0.000  -0.000   0.000  -0.000   0.000  -0.000   0.000
  0.000   0.000  -0.000   0.000   0.000   0.000   0.000   0.000   0.000   0.000  -0.000   0.000   0.000   0.000  -0.000   0.000
 -0.000   0.000   0.000   0.000  -0.000   0.000   0.000   0.000   0.000   0.000   0.000   0.000  -0.000   0.000   0.000   0.000
 total augmentation occupancy for first ion, spin component:           1
  1.400   0.000   0.000   0.000   0.000   0.000   0.000   0.000   0.000   0.000   0.000   0.000   0.000   0.000   0.000   0.000
  0.000   1.400   0.000   0.000   0.000   0.000   0.000   0.000   0.000   0.000   0.000   0.000   0.000   0.000   0.000   0.000
  0.000   0.000   1.400   0.000   0.000   0.000   0.000   0.000   0.000   0.000   0.000   0.000   0.000   0.000   0.000   0.000
  0.000   0.000   0.000   1.400   0.000   0.000   0.000   0.000   0.000   0.000   0.000   0.000   0.000   0.000   0.000   0.000
  0.000   0.000   0.000   0.000   1.400   0.000   0.000   0.000   0.000   0.000   0.000   0.000   0.000   0.000   0.000   0.000
  0.000   0.000   0.000   0.000   0.000   0.000   0.000   0.000   0.000   0.000   0.000   0.000   0.000   0.000   0.000   0.000
  0.000   0.000   0.000   0.000   0.000   0.000   0.000   0.000   0.000   0.000   0.000   0.000   0.000   0.000   0.000   0.000
  0.000   0.000   0.000   0.000   0.000   0.000   0.000   0.000   0.000   0.000   0.000   0.000   0.000   0.000   0.000   0.000
  0.000   0.000   0.000   0.000   0.000   0.000   0.000   0.000   0.000   0.000   0.000   0.000   0.000   0.000   0.000   0.000
  0.000   0.000   0.000   0.000   0.000   0.000   0.000   0.000   0.000   0.000   0.000   0.000   0.000   0.000   0.000   0.000
  0.000   0.000   0.000   0.000   0.000   0.000   0.000   0.000   0.000   0.000   1.000   0.000   0.000   0.000   0.000   0.000
  0.000   0.000   0.000   0.000   0.000   0.000   0.000   0.000   0.000   0.000   0.000   0.000   0.000   0.000   0.000   0.000
  0.000   0.000   0.000   0.000   0.000   0.000   0.000   0.000   0.000   0.000   0.000   0.000   0.000   0.000   0.000   0.000
  0.000   0.000   0.000   0.000   0.000   0.000   0.000   0.000   0.000   0.000   0.000   0.000   0.000   0.000   0.000   0.000
  0.000   0.000   0.000   0.000   0.000   0.000   0.000   0.000   0.000   0.000   0.000   0.000   0.000   0.000   0.000   0.000
  0.000   0.000   0.000   0.000   0.000   0.000   0.000   0.000   0.000   0.000   0.000   0.000   0.000   0.000   0.000   0.000
  0.000   0.000   0.000   0.000   0.000   0.000   0.000   0.000   0.000   0.000   0.000   0.000   0.000   0.000   0.000   0.000
  0.000   0.000   0.000   0.000   0.000   0.000   0.000   0.000   0.000   0.000   0.000   0.000   0.000   0.000   0.000   0.000
 total augmentation occupancy for first ion, spin component:           2
  0.525   0.000   0.000   0.000   0.000   0.000   0.000   0.000   0.000   0.000   0.000   0.000   0.000   0.000   0.000   0.000
  0.000   0.525   0.000   0.000   0.000   0.000   0.000   0.000   0.000   0.000   0.000   0.000   0.000   0.000   0.000   0.000
  0.000   0.000   0.525   0.000   0.000   0.000   0.000   0.000   0.000   0.000   0.000   0.000   0.000   0.000   0.000   0.000
  0.000   0.000   0.000   0.525   0.000   0.000   0.000   0.000   0.000   0.000   0.000   0.000   0.000   0.000   0.000   0.000
  0.000   0.000   0.000   0.000   0.525   0.000   0.000   0.000   0.000   0.000   0.000   0.000   0.000   0.000   0.000   0.000
  0.000   0.000   0.000   0.000   0.000   0.000   0.000   0.000   0.000   0.000   0.000   0.000   0.000   0.000   0.000   0.000
  0.000   0.000   0.000   0.000   0.000   0.000   0.000   0.000   0.000   0.000   0.000   0.000   0.000   0.000   0.000   0.000
  0.000   0.000   0.000   0.000   0.000   0.000   0.000   0.000   0.000   0.000   0.000   0.000   0.000   0.000   0.000   0.000
  0.000   0.000   0.000   0.000   0.000   0.000   0.000   0.000   0.000   0.000   0.000   0.000   0.000   0.000   0.000   0.000
  0.000   0.000   0.000   0.000   0.000   0.000   0.000   0.000   0.000   0.000   0.000   0.000   0.000   0.000   0.000   0.000
  0.000   0.000   0.000   0.000   0.000   0.000   0.000   0.000   0.000   0.000   0.375   0.000   0.000   0.000   0.000   0.000
  0.000   0.000   0.000   0.000   0.000   0.000   0.000   0.000   0.000   0.000   0.000   0.000   0.000   0.000   0.000   0.000
  0.000   0.000   0.000   0.000   0.000   0.000   0.000   0.000   0.000   0.000   0.000   0.000   0.000   0.000   0.000   0.000
  0.000   0.000   0.000   0.000   0.000   0.000   0.000   0.000   0.000   0.000   0.000   0.000   0.000   0.000   0.000   0.000
  0.000   0.000   0.000   0.000   0.000   0.000   0.000   0.000   0.000   0.000   0.000   0.000   0.000   0.000   0.000   0.000
  0.000   0.000   0.000   0.000   0.000   0.000   0.000   0.000   0.000   0.000   0.000   0.000   0.000   0.000   0.000   0.000
  0.000   0.000   0.000   0.000   0.000   0.000   0.000   0.000   0.000   0.000   0.000   0.000   0.000   0.000   0.000   0.000
  0.000   0.000   0.000   0.000   0.000   0.000   0.000   0.000   0.000   0.000   0.000   0.000   0.000   0.000   0.000   0.000


------------------------ aborting loop because EDIFF is reached ----------------------------------------


 


 total charge     
 
# of ion       s       p       d       tot
------------------------------------------
    1        0.539   0.351   6.374   7.264
 


 magnetization (x)
 
# of ion       s       p       d       tot
------------------------------------------
    1       -0.006  -0.018   2.374   2.350
 
    CHARGE:  cpu time    0.0127: real time    0.0127
    FORLOC:  cpu time    0.0004: real time    0.0163
    FORNL :  cpu time    0.0444: real time    0.0836
    STRESS:  cpu time    0.0989: real time    0.2032
    FORCOR:  cpu time    0.0383: real time    0.0774
    FORHAR:  cpu time    0.0013: real time    0.0013
    OFIELD:  cpu time    0.0001: real time    0.0001

  FORCE on cell =-STRESS in cart. coord.  units (eV):
  Direction    XX          YY          ZZ          XY          YZ          ZX
  --------------------------------------------------------------------------------------
  Alpha Z    58.10571    58.10571    58.10571
  Ewald    -194.76585  -194.76585  -194.76585     0.00000     0.00000     0.00000
  Hartree    35.01759    35.01759    35.01759    -0.00000    -0.00000    -0.00000
  E(xc)     -39.74210   -39.74210   -39.74210     0.00006     0.00006     0.00006
  Local      59.72232    59.72232    59.72232    -0.00022    -0.00022    -0.00022
  n-local   -26.95134   -24.54004   -26.50491    -0.17643    -0.17649    -1.60131
  augment    39.68658    39.68658    39.68658     0.00053     0.00053     0.00053
  Kinetic    73.11955    71.97985    72.58334     0.34283     0.34284     1.65826
  Fock        0.00000     0.00000     0.00000     0.00000     0.00000     0.00000
  -------------------------------------------------------------------------------------
  Total       4.58640     4.58640     4.58640     0.00000    -0.00000     0.00000
  in kB     621.67997   621.67997   621.67997     0.00000    -0.00000     0.00000
  external pressure =      621.68 kB  Pullay stress =        0.00 kB


 VOLUME and BASIS-vectors are now :
 -----------------------------------------------------------------------------
  energy-cutoff  :      267.91
  volume of cell :       11.82
      direct lattice vectors                 reciprocal lattice vectors
    -1.435000000  1.435000000  1.435000000     0.000000000  0.348432056  0.348432056
     1.435000000 -1.435000000  1.435000000     0.348432056  0.000000000  0.348432056
     1.435000000  1.435000000 -1.435000000     0.348432056  0.348432056  0.000000000

  length of vectors
     2.485492909  2.485492909  2.485492909     0.492757339  0.492757339  0.492757339


 FORCES acting on ions
    electron-ion (+dipol)            ewald-force                    non-local-force                 convergence-correction
 -----------------------------------------------------------------------------------------------
   0.142E-12 -.840E-13 -.304E-13   0.131E-14 -.418E-15 -.327E-17   -.318E-21 -.318E-21 0.212E-21   -.421E-12 -.974E-13 0.421E-12
 -----------------------------------------------------------------------------------------------
   0.142E-12 -.840E-13 -.304E-13   0.131E-14 -.418E-15 -.327E-17   -.318E-21 -.318E-21 0.212E-21   -.421E-12 -.974E-13 0.421E-12
 
 
 POSITION                                       TOTAL-FORCE (eV/Angst)
 -----------------------------------------------------------------------------------
      0.00000      0.00000      0.00000         0.000000     -0.000000      0.000000
 -----------------------------------------------------------------------------------
    total drift:                               -0.000000     -0.000000      0.000000


--------------------------------------------------------------------------------------------------------



  FREE ENERGIE OF THE ION-ELECTRON SYSTEM (eV)
  ---------------------------------------------------
  free  energy   TOTEN  =        -9.05362478 eV

  energy  without entropy=       -9.05431111  energy(sigma->0) =       -9.05385356
 


--------------------------------------------------------------------------------------------------------


    POTLOK:  cpu time    0.0461: real time    0.0982


--------------------------------------------------------------------------------------------------------


     LOOP+:  cpu time    1.8702: real time    3.7721
    4ORBIT:  cpu time    0.0000: real time    0.0000
 


 total charge     
 
# of ion       s       p       d       tot
------------------------------------------
    1        0.539   0.351   6.374   7.264
 


 magnetization (x)
 
# of ion       s       p       d       tot
------------------------------------------
    1       -0.006  -0.018   2.374   2.350
 

 total amount of memory used by VASP MPI-rank0    38505. kBytes
=======================================================================

   base      :      30000. kBytes
   nonl-proj :       1946. kBytes
   fftplans  :        544. kBytes
   grid      :       1088. kBytes
   one-center:         31. kBytes
   wavefun   :       4896. kBytes
 
  
  
 General timing and accounting informations for this job:
 ========================================================
  
                  Total CPU time used (sec):        2.419
                            User time (sec):        2.076
                          System time (sec):        0.343
                         Elapsed time (sec):        4.980
  
                   Maximum memory used (kb):       62560.
                   Average memory used (kb):           0.
  
                          Minor page faults:         9471
                          Major page faults:            0
                 Voluntary context switches:          268
