<?xml version="1.0" encoding="ISO-8859-1"?>
<modeling>
 <generator>
  <i name="program" type="string">vasp </i>
  <i name="version" type="string">5.4.4.18Apr17-6-g9f103f2a35  </i>
  <i name="subversion" type="string">(build May 20 2018 16:52:39) complex            parallel </i>
  <i name="platform" type="string">LinuxIFC </i>
  <i name="date" type="string">2022 09 19 </i>
  <i name="time" type="string">17:23:39 </i>
 </generator>
 <incar>
  <i type="string" name="SYSTEM"> bcc Fe</i>
  <i type="string" name="PREC">normal</i>
  <i type="int" name="ISPIN">     2</i>
  <i type="int" name="ICHARG">    11</i>
  <v name="RWIGS">      1.30200000</v>
  <v name="MAGMOM">      3.00000000</v>
  <i type="logical" name="LWAVE"> F  </i>
  <i type="logical" name="LCHARG"> F  </i>
  <i type="int" name="LORBIT">    10</i>
  <v type="int" name="KPOINT_BSE">    -1     0     0     0</v>
 </incar>
 <structure name="primitive_cell" >
  <crystal>
   <varray name="basis" >
    <v>      -1.43500000       1.43500000       1.43500000 </v>
    <v>       1.43500000      -1.43500000       1.43500000 </v>
    <v>       1.43500000       1.43500000      -1.43500000 </v>
   </varray>
   <i name="volume">     11.81995150 </i>
   <varray name="rec_basis" >
    <v>       0.00000000       0.34843206       0.34843206 </v>
    <v>       0.34843206       0.00000000       0.34843206 </v>
    <v>       0.34843206       0.34843206       0.00000000 </v>
   </varray>
  </crystal>
  <varray name="positions" >
   <v>       0.00000000       0.00000000       0.00000000 </v>
  </varray>
 </structure>
 <varray name="primitive_index" >
  <v type="int" >        1 </v>
 </varray>
 <kpoints>
  <generation param="listgenerated">
   <i name="divisions" type="int">      20 </i>
   <v>       0.00000000       0.00000000       0.00000000 </v>
   <v>      -0.50000000       0.50000000       0.50000000 </v>
   <v>       0.00000000       0.50000000       0.00000000 </v>
   <v>       0.25000000       0.25000000       0.25000000 </v>
   <v>       0.00000000       0.00000000       0.00000000 </v>
   <v>       0.00000000       0.50000000       0.00000000 </v>
  </generation>
  <varray name="kpointlist" >
   <v>       0.00000000       0.00000000       0.00000000 </v>
   <v>      -0.02631579       0.02631579       0.02631579 </v>
   <v>      -0.05263158       0.05263158       0.05263158 </v>
   <v>      -0.07894737       0.07894737       0.07894737 </v>
   <v>      -0.10526316       0.10526316       0.10526316 </v>
   <v>      -0.13157895       0.13157895       0.13157895 </v>
   <v>      -0.15789474       0.15789474       0.15789474 </v>
   <v>      -0.18421053       0.18421053       0.18421053 </v>
   <v>      -0.21052632       0.21052632       0.21052632 </v>
   <v>      -0.23684211       0.23684211       0.23684211 </v>
   <v>      -0.26315789       0.26315789       0.26315789 </v>
   <v>      -0.28947368       0.28947368       0.28947368 </v>
   <v>      -0.31578947       0.31578947       0.31578947 </v>
   <v>      -0.34210526       0.34210526       0.34210526 </v>
   <v>      -0.36842105       0.36842105       0.36842105 </v>
   <v>      -0.39473684       0.39473684       0.39473684 </v>
   <v>      -0.42105263       0.42105263       0.42105263 </v>
   <v>      -0.44736842       0.44736842       0.44736842 </v>
   <v>      -0.47368421       0.47368421       0.47368421 </v>
   <v>      -0.50000000       0.50000000       0.50000000 </v>
   <v>      -0.50000000       0.50000000       0.50000000 </v>
   <v>      -0.47368421       0.50000000       0.47368421 </v>
   <v>      -0.44736842       0.50000000       0.44736842 </v>
   <v>      -0.42105263       0.50000000       0.42105263 </v>
   <v>      -0.39473684       0.50000000       0.39473684 </v>
   <v>      -0.36842105       0.50000000       0.36842105 </v>
   <v>      -0.34210526       0.50000000       0.34210526 </v>
   <v>      -0.31578947       0.50000000       0.31578947 </v>
   <v>      -0.28947368       0.50000000       0.28947368 </v>
   <v>      -0.26315789       0.50000000       0.26315789 </v>
   <v>      -0.23684211       0.50000000       0.23684211 </v>
   <v>      -0.21052632       0.50000000       0.21052632 </v>
   <v>      -0.18421053       0.50000000       0.18421053 </v>
   <v>      -0.15789474       0.50000000       0.15789474 </v>
   <v>      -0.13157895       0.50000000       0.13157895 </v>
   <v>      -0.10526316       0.50000000       0.10526316 </v>
   <v>      -0.07894737       0.50000000       0.07894737 </v>
   <v>      -0.05263158       0.50000000       0.05263158 </v>
   <v>      -0.02631579       0.50000000       0.02631579 </v>
   <v>       0.00000000       0.50000000       0.00000000 </v>
   <v>       0.00000000       0.50000000       0.00000000 </v>
   <v>       0.01315789       0.48684211       0.01315789 </v>
   <v>       0.02631579       0.47368421       0.02631579 </v>
   <v>       0.03947368       0.46052632       0.03947368 </v>
   <v>       0.05263158       0.44736842       0.05263158 </v>
   <v>       0.06578947       0.43421053       0.06578947 </v>
   <v>       0.07894737       0.42105263       0.07894737 </v>
   <v>       0.09210526       0.40789474       0.09210526 </v>
   <v>       0.10526316       0.39473684       0.10526316 </v>
   <v>       0.11842105       0.38157895       0.11842105 </v>
   <v>       0.13157895       0.36842105       0.13157895 </v>
   <v>       0.14473684       0.35526316       0.14473684 </v>
   <v>       0.15789474       0.34210526       0.15789474 </v>
   <v>       0.17105263       0.32894737       0.17105263 </v>
   <v>       0.18421053       0.31578947       0.18421053 </v>
   <v>       0.19736842       0.30263158       0.19736842 </v>
   <v>       0.21052632       0.28947368       0.21052632 </v>
   <v>       0.22368421       0.27631579       0.22368421 </v>
   <v>       0.23684211       0.26315789       0.23684211 </v>
   <v>       0.25000000       0.25000000       0.25000000 </v>
   <v>       0.25000000       0.25000000       0.25000000 </v>
   <v>       0.23684211       0.23684211       0.23684211 </v>
   <v>       0.22368421       0.22368421       0.22368421 </v>
   <v>       0.21052632       0.21052632       0.21052632 </v>
   <v>       0.19736842       0.19736842       0.19736842 </v>
   <v>       0.18421053       0.18421053       0.18421053 </v>
   <v>       0.17105263       0.17105263       0.17105263 </v>
   <v>       0.15789474       0.15789474       0.15789474 </v>
   <v>       0.14473684       0.14473684       0.14473684 </v>
   <v>       0.13157895       0.13157895       0.13157895 </v>
   <v>       0.11842105       0.11842105       0.11842105 </v>
   <v>       0.10526316       0.10526316       0.10526316 </v>
   <v>       0.09210526       0.09210526       0.09210526 </v>
   <v>       0.07894737       0.07894737       0.07894737 </v>
   <v>       0.06578947       0.06578947       0.06578947 </v>
   <v>       0.05263158       0.05263158       0.05263158 </v>
   <v>       0.03947368       0.03947368       0.03947368 </v>
   <v>       0.02631579       0.02631579       0.02631579 </v>
   <v>       0.01315789       0.01315789       0.01315789 </v>
   <v>       0.00000000       0.00000000       0.00000000 </v>
   <v>       0.00000000       0.00000000       0.00000000 </v>
   <v>       0.00000000       0.02631579       0.00000000 </v>
   <v>       0.00000000       0.05263158       0.00000000 </v>
   <v>       0.00000000       0.07894737       0.00000000 </v>
   <v>       0.00000000       0.10526316       0.00000000 </v>
   <v>       0.00000000       0.13157895       0.00000000 </v>
   <v>       0.00000000       0.15789474       0.00000000 </v>
   <v>       0.00000000       0.18421053       0.00000000 </v>
   <v>       0.00000000       0.21052632       0.00000000 </v>
   <v>       0.00000000       0.23684211       0.00000000 </v>
   <v>       0.00000000       0.26315789       0.00000000 </v>
   <v>       0.00000000       0.28947368       0.00000000 </v>
   <v>       0.00000000       0.31578947       0.00000000 </v>
   <v>       0.00000000       0.34210526       0.00000000 </v>
   <v>       0.00000000       0.36842105       0.00000000 </v>
   <v>       0.00000000       0.39473684       0.00000000 </v>
   <v>       0.00000000       0.42105263       0.00000000 </v>
   <v>       0.00000000       0.44736842       0.00000000 </v>
   <v>       0.00000000       0.47368421       0.00000000 </v>
   <v>       0.00000000       0.50000000       0.00000000 </v>
  </varray>
  <varray name="weights" >
   <v>       0.01000000 </v>
   <v>       0.01000000 </v>
   <v>       0.01000000 </v>
   <v>       0.01000000 </v>
   <v>       0.01000000 </v>
   <v>       0.01000000 </v>
   <v>       0.01000000 </v>
   <v>       0.01000000 </v>
   <v>       0.01000000 </v>
   <v>       0.01000000 </v>
   <v>       0.01000000 </v>
   <v>       0.01000000 </v>
   <v>       0.01000000 </v>
   <v>       0.01000000 </v>
   <v>       0.01000000 </v>
   <v>       0.01000000 </v>
   <v>       0.01000000 </v>
   <v>       0.01000000 </v>
   <v>       0.01000000 </v>
   <v>       0.01000000 </v>
   <v>       0.01000000 </v>
   <v>       0.01000000 </v>
   <v>       0.01000000 </v>
   <v>       0.01000000 </v>
   <v>       0.01000000 </v>
   <v>       0.01000000 </v>
   <v>       0.01000000 </v>
   <v>       0.01000000 </v>
   <v>       0.01000000 </v>
   <v>       0.01000000 </v>
   <v>       0.01000000 </v>
   <v>       0.01000000 </v>
   <v>       0.01000000 </v>
   <v>       0.01000000 </v>
   <v>       0.01000000 </v>
   <v>       0.01000000 </v>
   <v>       0.01000000 </v>
   <v>       0.01000000 </v>
   <v>       0.01000000 </v>
   <v>       0.01000000 </v>
   <v>       0.01000000 </v>
   <v>       0.01000000 </v>
   <v>       0.01000000 </v>
   <v>       0.01000000 </v>
   <v>       0.01000000 </v>
   <v>       0.01000000 </v>
   <v>       0.01000000 </v>
   <v>       0.01000000 </v>
   <v>       0.01000000 </v>
   <v>       0.01000000 </v>
   <v>       0.01000000 </v>
   <v>       0.01000000 </v>
   <v>       0.01000000 </v>
   <v>       0.01000000 </v>
   <v>       0.01000000 </v>
   <v>       0.01000000 </v>
   <v>       0.01000000 </v>
   <v>       0.01000000 </v>
   <v>       0.01000000 </v>
   <v>       0.01000000 </v>
   <v>       0.01000000 </v>
   <v>       0.01000000 </v>
   <v>       0.01000000 </v>
   <v>       0.01000000 </v>
   <v>       0.01000000 </v>
   <v>       0.01000000 </v>
   <v>       0.01000000 </v>
   <v>       0.01000000 </v>
   <v>       0.01000000 </v>
   <v>       0.01000000 </v>
   <v>       0.01000000 </v>
   <v>       0.01000000 </v>
   <v>       0.01000000 </v>
   <v>       0.01000000 </v>
   <v>       0.01000000 </v>
   <v>       0.01000000 </v>
   <v>       0.01000000 </v>
   <v>       0.01000000 </v>
   <v>       0.01000000 </v>
   <v>       0.01000000 </v>
   <v>       0.01000000 </v>
   <v>       0.01000000 </v>
   <v>       0.01000000 </v>
   <v>       0.01000000 </v>
   <v>       0.01000000 </v>
   <v>       0.01000000 </v>
   <v>       0.01000000 </v>
   <v>       0.01000000 </v>
   <v>       0.01000000 </v>
   <v>       0.01000000 </v>
   <v>       0.01000000 </v>
   <v>       0.01000000 </v>
   <v>       0.01000000 </v>
   <v>       0.01000000 </v>
   <v>       0.01000000 </v>
   <v>       0.01000000 </v>
   <v>       0.01000000 </v>
   <v>       0.01000000 </v>
   <v>       0.01000000 </v>
   <v>       0.01000000 </v>
  </varray>
 </kpoints>
 <parameters>
  <separator name="general" >
   <i type="string" name="SYSTEM">bcc Fe</i>
   <i type="logical" name="LCOMPAT"> F  </i>
  </separator>
  <separator name="electronic" >
   <i type="string" name="PREC">normal</i>
   <i name="ENMAX">    267.90700000</i>
   <i name="ENAUG">    511.36800000</i>
   <i name="EDIFF">      0.00010000</i>
   <i type="int" name="IALGO">    38</i>
   <i type="int" name="IWAVPR">    10</i>
   <i type="int" name="NBANDS">    10</i>
   <i name="NELECT">      8.00000000</i>
   <i type="int" name="TURBO">     0</i>
   <i type="int" name="IRESTART">     0</i>
   <i type="int" name="NREBOOT">     0</i>
   <i type="int" name="NMIN">     0</i>
   <i name="EREF">      0.00000000</i>
   <separator name="electronic smearing" >
    <i type="int" name="ISMEAR">     1</i>
    <i name="SIGMA">      0.20000000</i>
    <i name="KSPACING">      0.50000000</i>
    <i type="logical" name="KGAMMA"> T  </i>
   </separator>
   <separator name="electronic projectors" >
    <i type="logical" name="LREAL"> F  </i>
    <v name="ROPT">      0.00000000</v>
    <i type="int" name="LMAXPAW">  -100</i>
    <i type="int" name="LMAXMIX">     2</i>
    <i type="logical" name="NLSPLINE"> F  </i>
   </separator>
   <separator name="electronic startup" >
    <i type="int" name="ISTART">     0</i>
    <i type="int" name="ICHARG">    11</i>
    <i type="int" name="INIWAV">     1</i>
   </separator>
   <separator name="electronic spin" >
    <i type="int" name="ISPIN">     2</i>
    <i type="logical" name="LNONCOLLINEAR"> F  </i>
    <v name="MAGMOM">      3.00000000</v>
    <i name="NUPDOWN">     -1.00000000</i>
    <i type="logical" name="LSORBIT"> F  </i>
    <v name="SAXIS">      0.00000000      0.00000000      1.00000000</v>
    <i type="logical" name="LSPIRAL"> F  </i>
    <v name="QSPIRAL">      0.00000000      0.00000000      0.00000000</v>
    <i type="logical" name="LZEROZ"> F  </i>
   </separator>
   <separator name="electronic exchange-correlation" >
    <i type="logical" name="LASPH"> F  </i>
    <i type="logical" name="LMETAGGA"> F  </i>
   </separator>
   <separator name="electronic convergence" >
    <i type="int" name="NELM">    60</i>
    <i type="int" name="NELMDL">    -5</i>
    <i type="int" name="NELMIN">     2</i>
    <i name="ENINI">    267.90700000</i>
    <separator name="electronic convergence detail" >
     <i type="logical" name="LDIAG"> T  </i>
     <i type="logical" name="LSUBROT"> F  </i>
     <i name="WEIMIN">      0.00000000</i>
     <i name="EBREAK">      0.00000250</i>
     <i name="DEPER">      0.30000000</i>
     <i type="int" name="NRMM">     4</i>
     <i name="TIME">      0.40000000</i>
    </separator>
   </separator>
   <separator name="electronic mixer" >
    <i name="AMIX">      0.40000000</i>
    <i name="BMIX">      1.00000000</i>
    <i name="AMIN">      0.10000000</i>
    <i name="AMIX_MAG">      1.60000000</i>
    <i name="BMIX_MAG">      1.00000000</i>
    <separator name="electronic mixer details" >
     <i type="int" name="IMIX">     4</i>
     <i type="logical" name="MIXFIRST"> F  </i>
     <i type="int" name="MAXMIX">   -45</i>
     <i name="WC">    100.00000000</i>
     <i type="int" name="INIMIX">     1</i>
     <i type="int" name="MIXPRE">     1</i>
     <i type="int" name="MREMOVE">     5</i>
    </separator>
   </separator>
   <separator name="electronic dipolcorrection" >
    <i type="logical" name="LDIPOL"> F  </i>
    <i type="logical" name="LMONO"> F  </i>
    <i type="int" name="IDIPOL">     0</i>
    <i name="EPSILON">      1.00000000</i>
    <v name="DIPOL">   -100.00000000   -100.00000000   -100.00000000</v>
    <i name="EFIELD">      0.00000000</i>
   </separator>
  </separator>
  <separator name="grids" >
   <i type="int" name="NGX">    10</i>
   <i type="int" name="NGY">    10</i>
   <i type="int" name="NGZ">    10</i>
   <i type="int" name="NGXF">    20</i>
   <i type="int" name="NGYF">    20</i>
   <i type="int" name="NGZF">    20</i>
   <i type="logical" name="ADDGRID"> F  </i>
  </separator>
  <separator name="ionic" >
   <i type="int" name="NSW">     0</i>
   <i type="int" name="IBRION">    -1</i>
   <i type="int" name="MDALGO">     0</i>
   <i type="int" name="ISIF">     2</i>
   <i name="PSTRESS">      0.00000000</i>
   <i name="EDIFFG">      0.00100000</i>
   <i type="int" name="NFREE">     0</i>
   <i name="POTIM">      0.50000000</i>
   <i name="SMASS">     -3.00000000</i>
   <i name="SCALEE">      1.00000000</i>
  </separator>
  <separator name="ionic md" >
   <i name="TEBEG">      0.00010000</i>
   <i name="TEEND">      0.00010000</i>
   <i type="int" name="NBLOCK">     1</i>
   <i type="int" name="KBLOCK">     1</i>
   <i type="int" name="NPACO">   256</i>
   <i name="APACO">     16.00000000</i>
  </separator>
  <separator name="symmetry" >
   <i type="int" name="ISYM">     2</i>
   <i name="SYMPREC">      0.00001000</i>
  </separator>
  <separator name="dos" >
   <i type="int" name="LORBIT">    10</i>
   <v name="RWIGS">      1.30200000</v>
   <i type="int" name="NEDOS">   301</i>
   <i name="EMIN">     10.00000000</i>
   <i name="EMAX">    -10.00000000</i>
   <i name="EFERMI">      0.00000000</i>
  </separator>
  <separator name="writing" >
   <i type="int" name="NWRITE">     2</i>
   <i type="logical" name="LWAVE"> F  </i>
   <i type="logical" name="LDOWNSAMPLE"> F  </i>
   <i type="logical" name="LCHARG"> F  </i>
   <i type="logical" name="LPARD"> F  </i>
   <i type="logical" name="LVTOT"> F  </i>
   <i type="logical" name="LVHAR"> F  </i>
   <i type="logical" name="LELF"> F  </i>
   <i type="logical" name="LOPTICS"> F  </i>
   <v name="STM">      0.00000000      0.00000000      0.00000000      0.00000000      0.00000000      0.00000000      0.00000000</v>
  </separator>
  <separator name="performance" >
   <i type="int" name="NPAR">     1</i>
   <i type="int" name="NSIM">     4</i>
   <i type="int" name="NBLK">    -1</i>
   <i type="logical" name="LPLANE"> T  </i>
   <i type="logical" name="LSCALAPACK"> T  </i>
   <i type="logical" name="LSCAAWARE"> F  </i>
   <i type="logical" name="LSCALU"> F  </i>
   <i type="logical" name="LASYNC"> F  </i>
   <i type="logical" name="LORBITALREAL"> F  </i>
  </separator>
  <separator name="miscellaneous" >
   <i type="int" name="IDIOT">     3</i>
   <i type="int" name="ISPECIAL">     0</i>
   <i type="logical" name="LMUSIC"> F  </i>
   <v name="POMASS">     55.84700000</v>
   <v name="DARWINR">      0.00000000</v>
   <v name="DARWINV">      1.00000000</v>
   <i type="logical" name="LCORR"> T  </i>
  </separator>
  <i type="logical" name="GGA_COMPAT"> T  </i>
  <i type="logical" name="LBERRY"> F  </i>
  <i type="int" name="ICORELEVEL">     0</i>
  <i type="logical" name="LDAU"> F  </i>
  <i type="int" name="I_CONSTRAINED_M">     0</i>
  <separator name="electronic exchange-correlation" >
   <i type="string" name="GGA">--</i>
   <i type="int" name="VOSKOWN">     0</i>
   <i type="logical" name="LHFCALC"> F  </i>
   <i type="string" name="PRECFOCK"></i>
   <i type="logical" name="LSYMGRAD"> F  </i>
   <i type="logical" name="LHFONE"> F  </i>
   <i type="logical" name="LRHFCALC"> F  </i>
   <i type="logical" name="LTHOMAS"> F  </i>
   <i type="logical" name="LMODELHF"> F  </i>
   <i name="ENCUT4O">     -1.00000000</i>
   <i type="int" name="EXXOEP">     0</i>
   <i type="int" name="FOURORBIT">     0</i>
   <i name="AEXX">      0.00000000</i>
   <i name="HFALPHA">      0.00000000</i>
   <i name="MCALPHA">      0.00000000</i>
   <i name="ALDAX">      1.00000000</i>
   <i name="AGGAX">      1.00000000</i>
   <i name="ALDAC">      1.00000000</i>
   <i name="AGGAC">      1.00000000</i>
   <i type="int" name="NKREDX">     1</i>
   <i type="int" name="NKREDY">     1</i>
   <i type="int" name="NKREDZ">     1</i>
   <i type="logical" name="SHIFTRED"> F  </i>
   <i type="logical" name="ODDONLY"> F  </i>
   <i type="logical" name="EVENONLY"> F  </i>
   <i type="int" name="LMAXFOCK">     0</i>
   <i type="int" name="NMAXFOCKAE">     0</i>
   <i type="logical" name="LFOCKAEDFT"> F  </i>
   <i name="HFSCREEN">      0.00000000</i>
   <i name="HFSCREENC">      0.00000000</i>
   <i type="int" name="NBANDSGWLOW">     0</i>
  </separator>
  <separator name="vdW DFT" >
   <i type="logical" name="LUSE_VDW"> F  </i>
   <i name="Zab_VDW">     -0.84910000</i>
   <i name="PARAM1">      0.12340000</i>
   <i name="PARAM2">      1.00000000</i>
   <i name="PARAM3">      0.00000000</i>
  </separator>
  <separator name="model GW" >
   <i type="int" name="MODEL_GW">     0</i>
   <i name="MODEL_EPS0">      7.09197090</i>
   <i name="MODEL_ALPHA">      1.00000000</i>
  </separator>
  <separator name="linear response parameters" >
   <i type="logical" name="LEPSILON"> F  </i>
   <i type="logical" name="LRPA"> F  </i>
   <i type="logical" name="LNABLA"> F  </i>
   <i type="logical" name="LVEL"> F  </i>
   <i type="int" name="KINTER">     0</i>
   <i name="CSHIFT">      0.10000000</i>
   <i name="OMEGAMAX">     -1.00000000</i>
   <i name="DEG_THRESHOLD">      0.00200000</i>
   <i name="RTIME">     -0.10000000</i>
   <i name="WPLASMAI">      0.00000000</i>
   <v name="DFIELD">      0.00000000      0.00000000      0.00000000</v>
   <v name="WPLASMA">      0.00000000      0.00000000      0.00000000      0.00000000      0.00000000      0.00000000      0.00000000      0.00000000      0.00000000</v>
  </separator>
  <separator name="orbital magnetization" >
   <i type="logical" name="NUCIND"> F  </i>
   <v name="MAGPOS">      0.00000000      0.00000000      0.00000000</v>
   <i type="logical" name="LNICSALL"> T  </i>
   <i type="logical" name="ORBITALMAG"> F  </i>
   <i type="logical" name="LMAGBLOCH"> F  </i>
   <i type="logical" name="LCHIMAG"> F  </i>
   <i type="logical" name="LGAUGE"> T  </i>
   <i type="int" name="MAGATOM">     0</i>
   <v name="MAGDIPOL">      0.00000000      0.00000000      0.00000000</v>
   <v name="AVECCONST">      0.00000000      0.00000000      0.00000000</v>
  </separator>
  <separator name="response functions" >
   <i type="logical" name="LADDER"> F  </i>
   <i type="logical" name="LRPAFORCE"> F  </i>
   <i type="logical" name="LFXC"> F  </i>
   <i type="logical" name="LHARTREE"> T  </i>
   <i type="int" name="IBSE">     0</i>
   <v type="int" name="KPOINT">    -1     0     0     0</v>
   <i type="logical" name="LTCTE"> F  </i>
   <i type="logical" name="LTETE"> F  </i>
   <i type="logical" name="LTRIPLET"> F  </i>
   <i type="logical" name="LFXCEPS"> F  </i>
   <i type="logical" name="LFXHEG"> F  </i>
   <i type="int" name="NATURALO">     2</i>
   <i type="logical" name="L2ORDER"> F  </i>
   <i type="logical" name="LMP2LT"> F  </i>
   <i type="logical" name="LUSEW"> F  </i>
   <i name="ENCUTGW">     -2.00000000</i>
   <i name="ENCUTGWSOFT">     -2.00000000</i>
   <i name="ENCUTLF">     -1.00000000</i>
   <i type="int" name="LMAXMP2">    -1</i>
   <i name="SCISSOR">      0.00000000</i>
   <i type="int" name="NOMEGA">     0</i>
   <i type="int" name="NOMEGAR">     0</i>
   <i type="int" name="NBANDSGW">    -1</i>
   <i type="int" name="NBANDSO">    -1</i>
   <i type="int" name="NBANDSV">    -1</i>
   <i type="int" name="NELM">     1</i>
   <i type="int" name="NELMHF">     1</i>
   <i type="int" name="DIM">     3</i>
   <i type="int" name="ANTIRES">     0</i>
   <i name="OMEGAMAX">    -30.00000000</i>
   <i name="OMEGAMIN">    -30.00000000</i>
   <i name="OMEGATL">   -200.00000000</i>
   <i type="int" name="OMEGAGRID">   140</i>
   <i name="CSHIFT">     -0.10000000</i>
   <i type="logical" name="SELFENERGY"> F  </i>
   <i type="logical" name="LSPECTRAL"> F  </i>
   <i type="logical" name="LSPECTRALGW"> F  </i>
   <i type="logical" name="LSINGLES"> F  </i>
   <i type="logical" name="LFERMIGW"> F  </i>
   <i type="logical" name="ODDONLYGW"> F  </i>
   <i type="logical" name="EVENONLYGW"> F  </i>
   <i type="int" name="NKREDLFX">     1</i>
   <i type="int" name="NKREDLFY">     1</i>
   <i type="int" name="NKREDLFZ">     1</i>
   <i type="int" name="MAXMEM">  2800</i>
   <i type="int" name="TELESCOPE">     0</i>
   <i type="int" name="TAUPAR">     1</i>
   <i type="int" name="OMEGAPAR">    -1</i>
   <i name="LAMBDA">      1.00000000</i>
  </separator>
  <separator name="External order field" >
   <i name="OFIELD_KAPPA">      0.00000000</i>
   <v name="OFIELD_K">      0.00000000      0.00000000      0.00000000</v>
   <i name="OFIELD_Q6_NEAR">      0.00000000</i>
   <i name="OFIELD_Q6_FAR">      0.00000000</i>
   <i name="OFIELD_A">      0.00000000</i>
  </separator>
 </parameters>
 <atominfo>
  <atoms>       1 </atoms>
  <types>       1 </types>
  <array name="atoms" >
   <dimension dim="1">ion</dimension>
   <field type="string">element</field>
   <field type="int">atomtype</field>
   <set>
    <rc><c>Fe</c><c>   1</c></rc>
   </set>
  </array>
  <array name="atomtypes" >
   <dimension dim="1">type</dimension>
   <field type="int">atomspertype</field>
   <field type="string">element</field>
   <field>mass</field>
   <field>valence</field>
   <field type="string">pseudopotential</field>
   <set>
    <rc><c>   1</c><c>Fe</c><c>     55.84700000</c><c>      8.00000000</c><c> PAW_GGA Fe 03Mar1998                   </c></rc>
   </set>
  </array>
 </atominfo>
 <structure name="initialpos" >
  <crystal>
   <varray name="basis" >
    <v>      -1.43500000       1.43500000       1.43500000 </v>
    <v>       1.43500000      -1.43500000       1.43500000 </v>
    <v>       1.43500000       1.43500000      -1.43500000 </v>
   </varray>
   <i name="volume">     11.81995150 </i>
   <varray name="rec_basis" >
    <v>       0.00000000       0.34843206       0.34843206 </v>
    <v>       0.34843206       0.00000000       0.34843206 </v>
    <v>       0.34843206       0.34843206       0.00000000 </v>
   </varray>
  </crystal>
  <varray name="positions" >
   <v>       0.00000000       0.00000000       0.00000000 </v>
  </varray>
 </structure>
 <calculation>
  <scstep>
   <time name="dav">    0.28    0.56</time>
   <time name="total">    0.33    0.65</time>
   <energy>
    <i name="alphaZ">     58.10571186 </i>
    <i name="ewald">   -584.29755670 </i>
    <i name="hartreedc">    -98.78666613 </i>
    <i name="XCdc">      3.99946285 </i>
    <i name="pawpsdc">    509.92684529 </i>
    <i name="pawaedc">   -518.92590222 </i>
    <i name="eentropy">     -0.00051296 </i>
    <i name="bandstr">     43.42668152 </i>
    <i name="atom">    595.52768804 </i>
    <i name="e_fr_energy">      8.97575154 </i>
    <i name="e_wo_entrp">      8.97626450 </i>
    <i name="e_0_energy">      8.97592253 </i>
   </energy>
  </scstep>
  <scstep>
   <time name="dav">    0.25    0.51</time>
   <time name="total">    0.26    0.51</time>
   <energy>
    <i name="e_fr_energy">     -8.80100268 </i>
    <i name="e_wo_entrp">     -8.79989974 </i>
    <i name="e_0_energy">     -8.80063503 </i>
   </energy>
  </scstep>
  <scstep>
   <time name="dav">    0.27    0.56</time>
   <time name="total">    0.28    0.58</time>
   <energy>
    <i name="e_fr_energy">     -9.05289030 </i>
    <i name="e_wo_entrp">     -9.05357765 </i>
    <i name="e_0_energy">     -9.05311942 </i>
   </energy>
  </scstep>
  <scstep>
   <time name="dav">    0.26    0.52</time>
   <time name="total">    0.27    0.53</time>
   <energy>
    <i name="e_fr_energy">     -9.05362033 </i>
    <i name="e_wo_entrp">     -9.05430666 </i>
    <i name="e_0_energy">     -9.05384910 </i>
   </energy>
  </scstep>
  <scstep>
   <time name="dav">    0.23    0.49</time>
   <time name="total">    0.24    0.50</time>
   <energy>
    <i name="e_fr_energy">     -9.05362464 </i>
    <i name="e_wo_entrp">     -9.05431096 </i>
    <i name="e_0_energy">     -9.05385341 </i>
   </energy>
  </scstep>
  <scstep>
   <time name="dav">    0.20    0.40</time>
   <time name="total">    0.20    0.41</time>
   <energy>
    <i name="alphaZ">     58.10571186 </i>
    <i name="ewald">   -584.29755670 </i>
    <i name="hartreedc">    -98.78666613 </i>
    <i name="XCdc">      3.99946285 </i>
    <i name="pawpsdc">    509.92684529 </i>
    <i name="pawaedc">   -518.92590222 </i>
    <i name="eentropy">      0.00068633 </i>
    <i name="bandstr">     25.39610591 </i>
    <i name="atom">    595.52768804 </i>
    <i name="e_fr_energy">     -9.05362478 </i>
    <i name="e_wo_entrp">     -9.05431111 </i>
    <i name="e_0_energy">     -9.05385356 </i>
   </energy>
  </scstep>
  <structure>
   <crystal>
    <varray name="basis" >
     <v>      -1.43500000       1.43500000       1.43500000 </v>
     <v>       1.43500000      -1.43500000       1.43500000 </v>
     <v>       1.43500000       1.43500000      -1.43500000 </v>
    </varray>
    <i name="volume">     11.81995150 </i>
    <varray name="rec_basis" >
     <v>       0.00000000       0.34843206       0.34843206 </v>
     <v>       0.34843206       0.00000000       0.34843206 </v>
     <v>       0.34843206       0.34843206       0.00000000 </v>
    </varray>
   </crystal>
   <varray name="positions" >
    <v>       0.00000000       0.00000000       0.00000000 </v>
   </varray>
  </structure>
  <varray name="forces" >
   <v>       0.00000000      -0.00000000       0.00000000 </v>
  </varray>
  <varray name="stress" >
   <v>     621.67997257      -0.00000000       0.00000000 </v>
   <v>       0.00000000     621.67997257       0.00000000 </v>
   <v>      -0.00000000      -0.00000000     621.67997257 </v>
  </varray>
  <energy>
   <i name="e_fr_energy">     -9.05362478 </i>
   <i name="e_wo_entrp">     -9.05385356 </i>
   <i name="e_0_energy">      0.00068633 </i>
  </energy>
  <time name="totalsc">    1.87    3.77</time>
  <eigenvalues>
   <array>
    <dimension dim="1">band</dimension>
    <dimension dim="2">kpoint</dimension>
    <dimension dim="3">spin</dimension>
    <field>eigene</field>
    <field>occ</field>
    <set>
     <set comment="spin 1">
      <set comment="kpoint 1">
       <r>   -2.7682    1.0000 </r>
       <r>    3.1180    1.0000 </r>
       <r>    3.1180    1.0000 </r>
       <r>    3.1181    1.0000 </r>
       <r>    4.4844    1.0000 </r>
       <r>    4.4844    1.0000 </r>
       <r>   30.0641    0.0000 </r>
       <r>   30.0641    0.0000 </r>
       <r>   30.0642    0.0000 </r>
       <r>   35.0335    0.0000 </r>
      </set>
      <set comment="kpoint 2">
       <r>   -2.7123    1.0000 </r>
       <r>    3.1177    1.0000 </r>
       <r>    3.1178    1.0000 </r>
       <r>    3.1329    1.0000 </r>
       <r>    4.4601    1.0000 </r>
       <r>    4.4941    1.0000 </r>
       <r>   29.6567    0.0000 </r>
       <r>   30.0066    0.0000 </r>
       <r>   30.0066    0.0000 </r>
       <r>   34.3443    0.0000 </r>
      </set>
      <set comment="kpoint 3">
       <r>   -2.5460    1.0000 </r>
       <r>    3.1176    1.0000 </r>
       <r>    3.1177    1.0000 </r>
       <r>    3.1773    1.0000 </r>
       <r>    4.3876    1.0000 </r>
       <r>    4.5230    1.0000 </r>
       <r>   28.7521    0.0000 </r>
       <r>   29.7801    0.0000 </r>
       <r>   29.7802    0.0000 </r>
       <r>   33.0978    0.0000 </r>
      </set>
      <set comment="kpoint 4">
       <r>   -2.2731    1.0000 </r>
       <r>    3.1239    1.0000 </r>
       <r>    3.1240    1.0000 </r>
       <r>    3.2506    1.0000 </r>
       <r>    4.2692    1.0000 </r>
       <r>    4.5735    1.0000 </r>
       <r>   27.7213    0.0000 </r>
       <r>   29.2866    0.0000 </r>
       <r>   29.2866    0.0000 </r>
       <r>   31.7632    0.0000 </r>
      </set>
      <set comment="kpoint 5">
       <r>   -1.9010    1.0000 </r>
       <r>    3.1367    1.0000 </r>
       <r>    3.1368    1.0000 </r>
       <r>    3.3513    1.0000 </r>
       <r>    4.1097    1.0000 </r>
       <r>    4.6325    1.0000 </r>
       <r>   26.7234    0.0000 </r>
       <r>   28.4746    0.0000 </r>
       <r>   28.4747    0.0000 </r>
       <r>   30.4239    0.0000 </r>
      </set>
      <set comment="kpoint 6">
       <r>   -1.4411    1.0000 </r>
       <r>    3.1576    1.0000 </r>
       <r>    3.1576    1.0000 </r>
       <r>    3.4745    1.0000 </r>
       <r>    3.9069    1.0000 </r>
       <r>    4.7113    1.0000 </r>
       <r>   25.7841    0.0000 </r>
       <r>   27.4068    0.0000 </r>
       <r>   27.4068    0.0000 </r>
       <r>   29.1491    0.0000 </r>
      </set>
      <set comment="kpoint 7">
       <r>   -0.9110    1.0000 </r>
       <r>    3.1991    1.0000 </r>
       <r>    3.1992    1.0000 </r>
       <r>    3.6273    1.0000 </r>
       <r>    3.6716    1.0000 </r>
       <r>    4.8150    1.0000 </r>
       <r>   24.9437    0.0000 </r>
       <r>   26.2346    0.0000 </r>
       <r>   26.2347    0.0000 </r>
       <r>   27.9679    0.0000 </r>
      </set>
      <set comment="kpoint 8">
       <r>   -0.3380    1.0000 </r>
       <r>    3.2620    1.0000 </r>
       <r>    3.2621    1.0000 </r>
       <r>    3.4076    1.0000 </r>
       <r>    3.7882    1.0000 </r>
       <r>    4.9524    1.0006 </r>
       <r>   24.1940    0.0000 </r>
       <r>   25.0100    0.0000 </r>
       <r>   25.0100    0.0000 </r>
       <r>   26.9046    0.0000 </r>
      </set>
      <set comment="kpoint 9">
       <r>    0.2366    1.0000 </r>
       <r>    3.1239    1.0000 </r>
       <r>    3.3533    1.0000 </r>
       <r>    3.3534    1.0000 </r>
       <r>    3.9626    1.0000 </r>
       <r>    5.1557    1.0222 </r>
       <r>   23.5406    0.0000 </r>
       <r>   23.7842    0.0000 </r>
       <r>   23.7842    0.0000 </r>
       <r>   25.9757    0.0000 </r>
      </set>
      <set comment="kpoint 10">
       <r>    0.7551    1.0000 </r>
       <r>    2.8288    1.0000 </r>
       <r>    3.4746    1.0000 </r>
       <r>    3.4747    1.0000 </r>
       <r>    4.1458    1.0000 </r>
       <r>    5.4636    0.5664 </r>
       <r>   22.5757    0.0000 </r>
       <r>   22.5757    0.0000 </r>
       <r>   22.9788    0.0000 </r>
       <r>   25.1885    0.0000 </r>
      </set>
      <set comment="kpoint 11">
       <r>    1.1546    1.0000 </r>
       <r>    2.5307    1.0000 </r>
       <r>    3.6305    1.0000 </r>
       <r>    3.6306    1.0000 </r>
       <r>    4.3330    1.0000 </r>
       <r>    5.9483   -0.0023 </r>
       <r>   21.4096    0.0000 </r>
       <r>   21.4096    0.0000 </r>
       <r>   22.5020    0.0000 </r>
       <r>   24.5433    0.0000 </r>
      </set>
      <set comment="kpoint 12">
       <r>    1.3952    1.0000 </r>
       <r>    2.2383    1.0000 </r>
       <r>    3.8195    1.0000 </r>
       <r>    3.8196    1.0000 </r>
       <r>    4.5190    1.0000 </r>
       <r>    6.6412   -0.0000 </r>
       <r>   20.2938    0.0000 </r>
       <r>   20.2939    0.0000 </r>
       <r>   22.1025    0.0000 </r>
       <r>   24.0305    0.0000 </r>
      </set>
      <set comment="kpoint 13">
       <r>    1.4832    1.0000 </r>
       <r>    1.9579    1.0000 </r>
       <r>    4.0376    1.0000 </r>
       <r>    4.0377    1.0000 </r>
       <r>    4.7003    1.0000 </r>
       <r>    7.5386   -0.0000 </r>
       <r>   19.2413    0.0000 </r>
       <r>   19.2414    0.0000 </r>
       <r>   21.7615    0.0000 </r>
       <r>   23.6309    0.0000 </r>
      </set>
      <set comment="kpoint 14">
       <r>    1.4566    1.0000 </r>
       <r>    1.7001    1.0000 </r>
       <r>    4.2798    1.0000 </r>
       <r>    4.2799    1.0000 </r>
       <r>    4.8676    1.0001 </r>
       <r>    8.6055   -0.0000 </r>
       <r>   18.2624    0.0000 </r>
       <r>   18.2624    0.0000 </r>
       <r>   21.4908    0.0000 </r>
       <r>   23.3167    0.0000 </r>
      </set>
      <set comment="kpoint 15">
       <r>    1.3621    1.0000 </r>
       <r>    1.4702    1.0000 </r>
       <r>    4.5342    1.0000 </r>
       <r>    4.5343    1.0000 </r>
       <r>    5.0187    1.0027 </r>
       <r>    9.7983   -0.0000 </r>
       <r>   17.3730    0.0000 </r>
       <r>   17.3730    0.0000 </r>
       <r>   21.2723    0.0000 </r>
       <r>   23.0568    0.0000 </r>
      </set>
      <set comment="kpoint 16">
       <r>    1.2346    1.0000 </r>
       <r>    1.2742    1.0000 </r>
       <r>    4.7896    1.0000 </r>
       <r>    4.7897    1.0000 </r>
       <r>    5.1489    1.0207 </r>
       <r>   11.0726    0.0000 </r>
       <r>   16.5947    0.0000 </r>
       <r>   16.5948    0.0000 </r>
       <r>   21.1036    0.0000 </r>
       <r>   22.7681    0.0000 </r>
      </set>
      <set comment="kpoint 17">
       <r>    1.1071    1.0000 </r>
       <r>    1.1169    1.0000 </r>
       <r>    5.0261    1.0031 </r>
       <r>    5.0262    1.0031 </r>
       <r>    5.2544    1.0337 </r>
       <r>   12.3767    0.0000 </r>
       <r>   15.9485    0.0000 </r>
       <r>   15.9486    0.0000 </r>
       <r>   20.9779    0.0000 </r>
       <r>   22.3755    0.0000 </r>
      </set>
      <set comment="kpoint 18">
       <r>    1.0014    1.0000 </r>
       <r>    1.0019    1.0000 </r>
       <r>    5.2208    1.0348 </r>
       <r>    5.2209    1.0348 </r>
       <r>    5.3322    0.9718 </r>
       <r>   13.6231    0.0000 </r>
       <r>   15.4596    0.0000 </r>
       <r>   15.4596    0.0000 </r>
       <r>   20.8911    0.0000 </r>
       <r>   21.7999    0.0000 </r>
      </set>
      <set comment="kpoint 19">
       <r>    0.9318    1.0000 </r>
       <r>    0.9322    1.0000 </r>
       <r>    5.3502    0.9394 </r>
       <r>    5.3503    0.9392 </r>
       <r>    5.3798    0.8689 </r>
       <r>   14.6293    0.0000 </r>
       <r>   15.1530    0.0000 </r>
       <r>   15.1531    0.0000 </r>
       <r>   20.8402    0.0000 </r>
       <r>   21.1442    0.0000 </r>
      </set>
      <set comment="kpoint 20">
       <r>    0.9083    1.0000 </r>
       <r>    0.9083    1.0000 </r>
       <r>    5.3957    0.8218 </r>
       <r>    5.3957    0.8218 </r>
       <r>    5.3959    0.8212 </r>
       <r>   15.0483    0.0000 </r>
       <r>   15.0484    0.0000 </r>
       <r>   15.0484    0.0000 </r>
       <r>   20.8234    0.0000 </r>
       <r>   20.8234    0.0000 </r>
      </set>
      <set comment="kpoint 21">
       <r>    0.9083    1.0000 </r>
       <r>    0.9083    1.0000 </r>
       <r>    5.3957    0.8218 </r>
       <r>    5.3957    0.8218 </r>
       <r>    5.3959    0.8212 </r>
       <r>   15.0483    0.0000 </r>
       <r>   15.0484    0.0000 </r>
       <r>   15.0484    0.0000 </r>
       <r>   20.8234    0.0000 </r>
       <r>   20.8234    0.0000 </r>
      </set>
      <set comment="kpoint 22">
       <r>    0.9201    1.0000 </r>
       <r>    0.9203    1.0000 </r>
       <r>    5.3631    0.9113 </r>
       <r>    5.3728    0.8875 </r>
       <r>    5.3976    0.8160 </r>
       <r>   14.9409    0.0000 </r>
       <r>   14.9869    0.0000 </r>
       <r>   15.1008    0.0000 </r>
       <r>   20.8730    0.0000 </r>
       <r>   20.9574    0.0000 </r>
      </set>
      <set comment="kpoint 23">
       <r>    0.9549    1.0000 </r>
       <r>    0.9564    1.0000 </r>
       <r>    5.2678    1.0301 </r>
       <r>    5.3048    1.0064 </r>
       <r>    5.4027    0.7995 </r>
       <r>   14.6438    0.0000 </r>
       <r>   14.8163    0.0000 </r>
       <r>   15.2558    0.0000 </r>
       <r>   21.0059    0.0000 </r>
       <r>   21.3344    0.0000 </r>
      </set>
      <set comment="kpoint 24">
       <r>    1.0109    1.0000 </r>
       <r>    1.0166    1.0000 </r>
       <r>    5.1169    1.0140 </r>
       <r>    5.1948    1.0309 </r>
       <r>    5.4110    0.7712 </r>
       <r>   14.2114    0.0000 </r>
       <r>   14.5706    0.0000 </r>
       <r>   15.5065    0.0000 </r>
       <r>   21.1863    0.0000 </r>
       <r>   21.9004    0.0000 </r>
      </set>
      <set comment="kpoint 25">
       <r>    1.0847    1.0000 </r>
       <r>    1.1009    1.0000 </r>
       <r>    4.9202    1.0003 </r>
       <r>    5.0483    1.0047 </r>
       <r>    5.4224    0.7304 </r>
       <r>   13.6949    0.0000 </r>
       <r>   14.2872    0.0000 </r>
       <r>   15.8436    0.0000 </r>
       <r>   21.3797    0.0000 </r>
       <r>   22.6050    0.0000 </r>
      </set>
      <set comment="kpoint 26">
       <r>    1.1712    1.0000 </r>
       <r>    1.2094    1.0000 </r>
       <r>    4.6890    1.0000 </r>
       <r>    4.8735    1.0001 </r>
       <r>    5.4365    0.6767 </r>
       <r>   13.1303    0.0000 </r>
       <r>   13.9967    0.0000 </r>
       <r>   16.2564    0.0000 </r>
       <r>   21.5659    0.0000 </r>
       <r>   23.4130    0.0000 </r>
      </set>
      <set comment="kpoint 27">
       <r>    1.2634    1.0000 </r>
       <r>    1.3420    1.0000 </r>
       <r>    4.4346    1.0000 </r>
       <r>    4.6815    1.0000 </r>
       <r>    5.4530    0.6104 </r>
       <r>   12.5404    0.0000 </r>
       <r>   13.7199    0.0000 </r>
       <r>   16.7347    0.0000 </r>
       <r>   21.7385    0.0000 </r>
       <r>   24.3029    0.0000 </r>
      </set>
      <set comment="kpoint 28">
       <r>    1.3516    1.0000 </r>
       <r>    1.4989    1.0000 </r>
       <r>    4.1672    1.0000 </r>
       <r>    4.4904    1.0000 </r>
       <r>    5.4714    0.5334 </r>
       <r>   11.9397    0.0000 </r>
       <r>   13.4692    0.0000 </r>
       <r>   17.2690    0.0000 </r>
       <r>   21.9043    0.0000 </r>
       <r>   25.2630    0.0000 </r>
      </set>
      <set comment="kpoint 29">
       <r>    1.4232    1.0000 </r>
       <r>    1.6796    1.0000 </r>
       <r>    3.8958    1.0000 </r>
       <r>    4.3104    1.0000 </r>
       <r>    5.4913    0.4494 </r>
       <r>   11.3361    0.0000 </r>
       <r>   13.2499    0.0000 </r>
       <r>   17.8513    0.0000 </r>
       <r>   22.0564    0.0000 </r>
       <r>   26.2833    0.0000 </r>
      </set>
      <set comment="kpoint 30">
       <r>    1.4645    1.0000 </r>
       <r>    1.8844    1.0000 </r>
       <r>    3.6281    1.0000 </r>
       <r>    4.1646    1.0000 </r>
       <r>    5.5122    0.3632 </r>
       <r>   10.7359   -0.0000 </r>
       <r>   13.0638    0.0000 </r>
       <r>   18.4749    0.0000 </r>
       <r>   22.2059    0.0000 </r>
       <r>   27.3608    0.0000 </r>
      </set>
      <set comment="kpoint 31">
       <r>    1.4634    1.0000 </r>
       <r>    2.1122    1.0000 </r>
       <r>    3.3677    1.0000 </r>
       <r>    4.0652    1.0000 </r>
       <r>    5.5360    0.2705 </r>
       <r>   10.1441   -0.0000 </r>
       <r>   12.9067    0.0000 </r>
       <r>   19.1302    0.0000 </r>
       <r>   22.3513    0.0000 </r>
       <r>   28.4854    0.0000 </r>
      </set>
      <set comment="kpoint 32">
       <r>    1.4158    1.0000 </r>
       <r>    2.3629    1.0000 </r>
       <r>    3.1237    1.0000 </r>
       <r>    4.0273    1.0000 </r>
       <r>    5.5564    0.1993 </r>
       <r>    9.5611   -0.0000 </r>
       <r>   12.7807    0.0000 </r>
       <r>   19.8180    0.0000 </r>
       <r>   22.5053    0.0000 </r>
       <r>   29.6654    0.0000 </r>
      </set>
      <set comment="kpoint 33">
       <r>    1.3272    1.0000 </r>
       <r>    2.6362    1.0000 </r>
       <r>    2.8996    1.0000 </r>
       <r>    4.0437    1.0000 </r>
       <r>    5.5761    0.1390 </r>
       <r>    8.9915   -0.0000 </r>
       <r>   12.6805    0.0000 </r>
       <r>   20.5316    0.0000 </r>
       <r>   22.6636    0.0000 </r>
       <r>   30.8955    0.0000 </r>
      </set>
      <set comment="kpoint 34">
       <r>    1.2104    1.0000 </r>
       <r>    2.6954    1.0000 </r>
       <r>    2.9263    1.0000 </r>
       <r>    4.1007    1.0000 </r>
       <r>    5.5928    0.0952 </r>
       <r>    8.4344   -0.0000 </r>
       <r>   12.5990    0.0000 </r>
       <r>   21.2586    0.0000 </r>
       <r>   22.8185    0.0000 </r>
       <r>   32.2257    0.0000 </r>
      </set>
      <set comment="kpoint 35">
       <r>    1.0850    1.0000 </r>
       <r>    2.5235    1.0000 </r>
       <r>    3.2402    1.0000 </r>
       <r>    4.1823    1.0000 </r>
       <r>    5.6121    0.0533 </r>
       <r>    7.8998   -0.0000 </r>
       <r>   12.5403    0.0000 </r>
       <r>   22.0109    0.0000 </r>
       <r>   22.9803    0.0000 </r>
       <r>   31.9474    0.0000 </r>
      </set>
      <set comment="kpoint 36">
       <r>    0.9637    1.0000 </r>
       <r>    2.3763    1.0000 </r>
       <r>    3.5699    1.0000 </r>
       <r>    4.2673    1.0000 </r>
       <r>    5.6258    0.0293 </r>
       <r>    7.3873   -0.0000 </r>
       <r>   12.4937    0.0000 </r>
       <r>   22.7621    0.0000 </r>
       <r>   23.1331    0.0000 </r>
       <r>   30.9696    0.0000 </r>
      </set>
      <set comment="kpoint 37">
       <r>    0.8590    1.0000 </r>
       <r>    2.2613    1.0000 </r>
       <r>    3.9120    1.0000 </r>
       <r>    4.3531    1.0000 </r>
       <r>    5.6373    0.0126 </r>
       <r>    6.9062   -0.0000 </r>
       <r>   12.4635    0.0000 </r>
       <r>   23.2731    0.0000 </r>
       <r>   23.5040    0.0000 </r>
       <r>   30.0701    0.0000 </r>
      </set>
      <set comment="kpoint 38">
       <r>    0.7789    1.0000 </r>
       <r>    2.1772    1.0000 </r>
       <r>    4.2466    1.0000 </r>
       <r>    4.4176    1.0000 </r>
       <r>    5.6454    0.0026 </r>
       <r>    6.4685   -0.0000 </r>
       <r>   12.4424    0.0000 </r>
       <r>   23.3845    0.0000 </r>
       <r>   24.1929    0.0000 </r>
       <r>   29.2573    0.0000 </r>
      </set>
      <set comment="kpoint 39">
       <r>    0.7279    1.0000 </r>
       <r>    2.1264    1.0000 </r>
       <r>    4.4590    1.0000 </r>
       <r>    4.5324    1.0000 </r>
       <r>    5.6504   -0.0028 </r>
       <r>    6.1188   -0.0000 </r>
       <r>   12.4258    0.0000 </r>
       <r>   23.4574    0.0000 </r>
       <r>   24.7407    0.0000 </r>
       <r>   28.6352    0.0000 </r>
      </set>
      <set comment="kpoint 40">
       <r>    0.7108    1.0000 </r>
       <r>    2.1094    1.0000 </r>
       <r>    4.4733    1.0000 </r>
       <r>    4.6622    1.0000 </r>
       <r>    5.6520   -0.0046 </r>
       <r>    5.9682   -0.0015 </r>
       <r>   12.4218    0.0000 </r>
       <r>   23.4830    0.0000 </r>
       <r>   24.9672    0.0000 </r>
       <r>   28.3838    0.0000 </r>
      </set>
      <set comment="kpoint 41">
       <r>    0.7108    1.0000 </r>
       <r>    2.1094    1.0000 </r>
       <r>    4.4733    1.0000 </r>
       <r>    4.6622    1.0000 </r>
       <r>    5.6520   -0.0046 </r>
       <r>    5.9682   -0.0015 </r>
       <r>   12.4218    0.0000 </r>
       <r>   23.4830    0.0000 </r>
       <r>   24.9672    0.0000 </r>
       <r>   28.3838    0.0000 </r>
      </set>
      <set comment="kpoint 42">
       <r>    0.7201    1.0000 </r>
       <r>    2.1082    1.0000 </r>
       <r>    4.4748    1.0000 </r>
       <r>    4.6624    1.0000 </r>
       <r>    5.4667    0.5535 </r>
       <r>    6.1663   -0.0000 </r>
       <r>   12.4240    0.0000 </r>
       <r>   23.3796    0.0000 </r>
       <r>   24.8539    0.0000 </r>
       <r>   28.5029    0.0000 </r>
      </set>
      <set comment="kpoint 43">
       <r>    0.7479    1.0000 </r>
       <r>    2.1047    1.0000 </r>
       <r>    4.4794    1.0000 </r>
       <r>    4.6632    1.0000 </r>
       <r>    5.1919    1.0303 </r>
       <r>    6.4791   -0.0000 </r>
       <r>   12.4305    0.0000 </r>
       <r>   23.0949    0.0000 </r>
       <r>   24.5367    0.0000 </r>
       <r>   28.8347    0.0000 </r>
      </set>
      <set comment="kpoint 44">
       <r>    0.7937    1.0000 </r>
       <r>    2.0991    1.0000 </r>
       <r>    4.4869    1.0000 </r>
       <r>    4.6645    1.0000 </r>
       <r>    4.9185    1.0003 </r>
       <r>    6.8157   -0.0000 </r>
       <r>   12.4417    0.0000 </r>
       <r>   22.6822    0.0000 </r>
       <r>   24.0674    0.0000 </r>
       <r>   29.3259    0.0000 </r>
      </set>
      <set comment="kpoint 45">
       <r>    0.8566    1.0000 </r>
       <r>    2.0918    1.0000 </r>
       <r>    4.4971    1.0000 </r>
       <r>    4.6552    1.0000 </r>
       <r>    4.6663    1.0000 </r>
       <r>    7.1677   -0.0000 </r>
       <r>   12.4582    0.0000 </r>
       <r>   22.1904    0.0000 </r>
       <r>   23.4988    0.0000 </r>
       <r>   29.9278    0.0000 </r>
      </set>
      <set comment="kpoint 46">
       <r>    0.9354    1.0000 </r>
       <r>    2.0832    1.0000 </r>
       <r>    4.4039    1.0000 </r>
       <r>    4.5099    1.0000 </r>
       <r>    4.6684    1.0000 </r>
       <r>    7.5328   -0.0000 </r>
       <r>   12.4809    0.0000 </r>
       <r>   21.6526    0.0000 </r>
       <r>   22.8713    0.0000 </r>
       <r>   30.6076    0.0000 </r>
      </set>
      <set comment="kpoint 47">
       <r>    1.0281    1.0000 </r>
       <r>    2.0706    1.0000 </r>
       <r>    4.1641    1.0000 </r>
       <r>    4.5243    1.0000 </r>
       <r>    4.6695    1.0000 </r>
       <r>    7.9081   -0.0000 </r>
       <r>   12.5094    0.0000 </r>
       <r>   21.0826    0.0000 </r>
       <r>   22.2128    0.0000 </r>
       <r>   31.3123    0.0000 </r>
      </set>
      <set comment="kpoint 48">
       <r>    1.1336    1.0000 </r>
       <r>    2.0609    1.0000 </r>
       <r>    3.9387    1.0000 </r>
       <r>    4.5410    1.0000 </r>
       <r>    4.6721    1.0000 </r>
       <r>    8.2970   -0.0000 </r>
       <r>   12.5474    0.0000 </r>
       <r>   20.5044    0.0000 </r>
       <r>   21.5420    0.0000 </r>
       <r>   32.0948    0.0000 </r>
      </set>
      <set comment="kpoint 49">
       <r>    1.2496    1.0000 </r>
       <r>    2.0534    1.0000 </r>
       <r>    3.7266    1.0000 </r>
       <r>    4.5598    1.0000 </r>
       <r>    4.6750    1.0000 </r>
       <r>    8.6973   -0.0000 </r>
       <r>   12.5966    0.0000 </r>
       <r>   19.9276    0.0000 </r>
       <r>   20.8729    0.0000 </r>
       <r>   32.9224    0.0000 </r>
      </set>
      <set comment="kpoint 50">
       <r>    1.3723    1.0000 </r>
       <r>    2.0460    1.0000 </r>
       <r>    3.5278    1.0000 </r>
       <r>    4.5752    1.0000 </r>
       <r>    4.6779    1.0000 </r>
       <r>    9.1084   -0.0000 </r>
       <r>   12.6548    0.0000 </r>
       <r>   19.3416    0.0000 </r>
       <r>   20.2120    0.0000 </r>
       <r>   33.7760    0.0000 </r>
      </set>
      <set comment="kpoint 51">
       <r>    1.4999    1.0000 </r>
       <r>    2.0412    1.0000 </r>
       <r>    3.3428    1.0000 </r>
       <r>    4.5938    1.0000 </r>
       <r>    4.6810    1.0000 </r>
       <r>    9.5309   -0.0000 </r>
       <r>   12.7267    0.0000 </r>
       <r>   18.7574    0.0000 </r>
       <r>   19.5687    0.0000 </r>
       <r>   34.6610    0.0000 </r>
      </set>
      <set comment="kpoint 52">
       <r>    1.6286    1.0000 </r>
       <r>    2.0400    1.0000 </r>
       <r>    3.1714    1.0000 </r>
       <r>    4.6123    1.0000 </r>
       <r>    4.6841    1.0000 </r>
       <r>    9.9641   -0.0000 </r>
       <r>   12.8133    0.0000 </r>
       <r>   18.1772    0.0000 </r>
       <r>   18.9484    0.0000 </r>
       <r>   35.5754    0.0000 </r>
      </set>
      <set comment="kpoint 53">
       <r>    1.7549    1.0000 </r>
       <r>    2.0434    1.0000 </r>
       <r>    3.0135    1.0000 </r>
       <r>    4.6301    1.0000 </r>
       <r>    4.6871    1.0000 </r>
       <r>   10.4080   -0.0000 </r>
       <r>   12.9160    0.0000 </r>
       <r>   17.6023    0.0000 </r>
       <r>   18.3565    0.0000 </r>
       <r>   36.5177    0.0000 </r>
      </set>
      <set comment="kpoint 54">
       <r>    1.8752    1.0000 </r>
       <r>    2.0522    1.0000 </r>
       <r>    2.8689    1.0000 </r>
       <r>    4.6467    1.0000 </r>
       <r>    4.6899    1.0000 </r>
       <r>   10.8622   -0.0000 </r>
       <r>   13.0356    0.0000 </r>
       <r>   17.0337    0.0000 </r>
       <r>   17.7984    0.0000 </r>
       <r>   37.4870    0.0000 </r>
      </set>
      <set comment="kpoint 55">
       <r>    1.9854    1.0000 </r>
       <r>    2.0675    1.0000 </r>
       <r>    2.7377    1.0000 </r>
       <r>    4.6616    1.0000 </r>
       <r>    4.6926    1.0000 </r>
       <r>   11.3267    0.0000 </r>
       <r>   13.1719    0.0000 </r>
       <r>   16.4722    0.0000 </r>
       <r>   17.2801    0.0000 </r>
       <r>   38.4815    0.0000 </r>
      </set>
      <set comment="kpoint 56">
       <r>    2.0819    1.0000 </r>
       <r>    2.0901    1.0000 </r>
       <r>    2.6194    1.0000 </r>
       <r>    4.6746    1.0000 </r>
       <r>    4.6949    1.0000 </r>
       <r>   11.8013    0.0000 </r>
       <r>   13.3222    0.0000 </r>
       <r>   15.9183    0.0000 </r>
       <r>   16.8094    0.0000 </r>
       <r>   39.5007    0.0000 </r>
      </set>
      <set comment="kpoint 57">
       <r>    2.1208    1.0000 </r>
       <r>    2.1638    1.0000 </r>
       <r>    2.5143    1.0000 </r>
       <r>    4.6867    1.0000 </r>
       <r>    4.7010    1.0000 </r>
       <r>   12.2859    0.0000 </r>
       <r>   13.4865    0.0000 </r>
       <r>   15.3726    0.0000 </r>
       <r>   16.3988    0.0000 </r>
       <r>   40.5430    0.0000 </r>
      </set>
      <set comment="kpoint 58">
       <r>    2.1605    1.0000 </r>
       <r>    2.2228    1.0000 </r>
       <r>    2.4212    1.0000 </r>
       <r>    4.6950    1.0000 </r>
       <r>    4.7026    1.0000 </r>
       <r>   12.7802    0.0000 </r>
       <r>   13.6365    0.0000 </r>
       <r>   14.8351    0.0000 </r>
       <r>   16.0639    0.0000 </r>
       <r>   41.6053    0.0000 </r>
      </set>
      <set comment="kpoint 59">
       <r>    2.2112    1.0000 </r>
       <r>    2.2609    1.0000 </r>
       <r>    2.3417    1.0000 </r>
       <r>    4.7020    1.0000 </r>
       <r>    4.7102    1.0000 </r>
       <r>   13.2875    0.0000 </r>
       <r>   13.7576    0.0000 </r>
       <r>   14.3126    0.0000 </r>
       <r>   15.8367    0.0000 </r>
       <r>   42.7316    0.0000 </r>
      </set>
      <set comment="kpoint 60">
       <r>    2.2743    1.0000 </r>
       <r>    2.2743    1.0000 </r>
       <r>    2.2743    1.0000 </r>
       <r>    4.7115    1.0000 </r>
       <r>    4.7115    1.0000 </r>
       <r>   13.8068    0.0000 </r>
       <r>   13.8068    0.0000 </r>
       <r>   13.8069    0.0000 </r>
       <r>   15.7542    0.0000 </r>
       <r>   43.6992    0.0000 </r>
      </set>
      <set comment="kpoint 61">
       <r>    2.2743    1.0000 </r>
       <r>    2.2743    1.0000 </r>
       <r>    2.2743    1.0000 </r>
       <r>    4.7115    1.0000 </r>
       <r>    4.7115    1.0000 </r>
       <r>   13.8068    0.0000 </r>
       <r>   13.8068    0.0000 </r>
       <r>   13.8069    0.0000 </r>
       <r>   15.7542    0.0000 </r>
       <r>   43.6989    0.0000 </r>
      </set>
      <set comment="kpoint 62">
       <r>    2.2111    1.0000 </r>
       <r>    2.2111    1.0000 </r>
       <r>    2.3861    1.0000 </r>
       <r>    4.7025    1.0000 </r>
       <r>    4.7025    1.0000 </r>
       <r>   12.6690    0.0000 </r>
       <r>   14.3448    0.0000 </r>
       <r>   14.3448    0.0000 </r>
       <r>   15.9303    0.0000 </r>
       <r>   42.5488    0.0000 </r>
      </set>
      <set comment="kpoint 63">
       <r>    2.1584    1.0000 </r>
       <r>    2.1584    1.0000 </r>
       <r>    2.4556    1.0000 </r>
       <r>    4.6865    1.0000 </r>
       <r>    4.6865    1.0000 </r>
       <r>   11.4952    0.0000 </r>
       <r>   14.9382    0.0000 </r>
       <r>   14.9382    0.0000 </r>
       <r>   16.3114    0.0000 </r>
       <r>   40.9706    0.0000 </r>
      </set>
      <set comment="kpoint 64">
       <r>    2.1254    1.0000 </r>
       <r>    2.1254    1.0000 </r>
       <r>    2.4642    1.0000 </r>
       <r>    4.6714    1.0000 </r>
       <r>    4.6714    1.0000 </r>
       <r>   10.3823   -0.0000 </r>
       <r>   15.6013    0.0000 </r>
       <r>   15.6013    0.0000 </r>
       <r>   16.8300    0.0000 </r>
       <r>   39.7240    0.0000 </r>
      </set>
      <set comment="kpoint 65">
       <r>    2.1123    1.0000 </r>
       <r>    2.1123    1.0000 </r>
       <r>    2.3911    1.0000 </r>
       <r>    4.6511    1.0000 </r>
       <r>    4.6511    1.0000 </r>
       <r>    9.3483   -0.0000 </r>
       <r>   16.3188    0.0000 </r>
       <r>   16.3188    0.0000 </r>
       <r>   17.4746    0.0000 </r>
       <r>   38.5558    0.0000 </r>
      </set>
      <set comment="kpoint 66">
       <r>    2.1213    1.0000 </r>
       <r>    2.1213    1.0000 </r>
       <r>    2.2238    1.0000 </r>
       <r>    4.6257    1.0000 </r>
       <r>    4.6257    1.0000 </r>
       <r>    8.4068   -0.0000 </r>
       <r>   17.0890    0.0000 </r>
       <r>   17.0890    0.0000 </r>
       <r>   18.2429    0.0000 </r>
       <r>   37.4626    0.0000 </r>
      </set>
      <set comment="kpoint 67">
       <r>    1.9576    1.0000 </r>
       <r>    2.1532    1.0000 </r>
       <r>    2.1532    1.0000 </r>
       <r>    4.5961    1.0000 </r>
       <r>    4.5961    1.0000 </r>
       <r>    7.5651   -0.0000 </r>
       <r>   17.9109    0.0000 </r>
       <r>   17.9109    0.0000 </r>
       <r>   19.1319    0.0000 </r>
       <r>   36.4445    0.0000 </r>
      </set>
      <set comment="kpoint 68">
       <r>    1.5977    1.0000 </r>
       <r>    2.2077    1.0000 </r>
       <r>    2.2077    1.0000 </r>
       <r>    4.5633    1.0000 </r>
       <r>    4.5633    1.0000 </r>
       <r>    6.8249   -0.0000 </r>
       <r>   18.7835    0.0000 </r>
       <r>   18.7835    0.0000 </r>
       <r>   20.1362    0.0000 </r>
       <r>   35.5016    0.0000 </r>
      </set>
      <set comment="kpoint 69">
       <r>    1.1598    1.0000 </r>
       <r>    2.2851    1.0000 </r>
       <r>    2.2851    1.0000 </r>
       <r>    4.5311    1.0000 </r>
       <r>    4.5311    1.0000 </r>
       <r>    6.1836   -0.0000 </r>
       <r>   19.7139    0.0000 </r>
       <r>   19.7139    0.0000 </r>
       <r>   21.2480    0.0000 </r>
       <r>   34.6338    0.0000 </r>
      </set>
      <set comment="kpoint 70">
       <r>    0.6670    1.0000 </r>
       <r>    2.3774    1.0000 </r>
       <r>    2.3774    1.0000 </r>
       <r>    4.4963    1.0000 </r>
       <r>    4.4963    1.0000 </r>
       <r>    5.6245    0.0314 </r>
       <r>   20.6846    0.0000 </r>
       <r>   20.6846    0.0000 </r>
       <r>   22.4574    0.0000 </r>
       <r>   33.8414    0.0000 </r>
      </set>
      <set comment="kpoint 71">
       <r>    0.1462    1.0000 </r>
       <r>    2.4831    1.0000 </r>
       <r>    2.4831    1.0000 </r>
       <r>    4.4644    1.0000 </r>
       <r>    4.4644    1.0000 </r>
       <r>    5.1387    1.0184 </r>
       <r>   21.7023    0.0000 </r>
       <r>   21.7023    0.0000 </r>
       <r>   23.7535    0.0000 </r>
       <r>   33.1243    0.0000 </r>
      </set>
      <set comment="kpoint 72">
       <r>   -0.3770    1.0000 </r>
       <r>    2.5963    1.0000 </r>
       <r>    2.5963    1.0000 </r>
       <r>    4.4381    1.0000 </r>
       <r>    4.4381    1.0000 </r>
       <r>    4.7128    1.0000 </r>
       <r>   22.7640    0.0000 </r>
       <r>   22.7640    0.0000 </r>
       <r>   25.1221    0.0000 </r>
       <r>   32.4826    0.0000 </r>
      </set>
      <set comment="kpoint 73">
       <r>   -0.8806    1.0000 </r>
       <r>    2.7106    1.0000 </r>
       <r>    2.7106    1.0000 </r>
       <r>    4.3430    1.0000 </r>
       <r>    4.4201    1.0000 </r>
       <r>    4.4201    1.0000 </r>
       <r>   23.8645    0.0000 </r>
       <r>   23.8645    0.0000 </r>
       <r>   26.5552    0.0000 </r>
       <r>   31.9164    0.0000 </r>
      </set>
      <set comment="kpoint 74">
       <r>   -1.3466    1.0000 </r>
       <r>    2.8191    1.0000 </r>
       <r>    2.8191    1.0000 </r>
       <r>    4.0234    1.0000 </r>
       <r>    4.4155    1.0000 </r>
       <r>    4.4155    1.0000 </r>
       <r>   24.9983    0.0000 </r>
       <r>   24.9983    0.0000 </r>
       <r>   28.0391    0.0000 </r>
       <r>   31.4256    0.0000 </r>
      </set>
      <set comment="kpoint 75">
       <r>   -1.7613    1.0000 </r>
       <r>    2.9118    1.0000 </r>
       <r>    2.9118    1.0000 </r>
       <r>    3.7504    1.0000 </r>
       <r>    4.4159    1.0000 </r>
       <r>    4.4159    1.0000 </r>
       <r>   26.1317    0.0000 </r>
       <r>   26.1317    0.0000 </r>
       <r>   29.5570    0.0000 </r>
       <r>   31.0084    0.0000 </r>
      </set>
      <set comment="kpoint 76">
       <r>   -2.1137    1.0000 </r>
       <r>    2.9909    1.0000 </r>
       <r>    2.9909    1.0000 </r>
       <r>    3.5269    1.0000 </r>
       <r>    4.4288    1.0000 </r>
       <r>    4.4288    1.0000 </r>
       <r>   27.2625    0.0000 </r>
       <r>   27.2625    0.0000 </r>
       <r>   30.6686    0.0000 </r>
       <r>   31.0995    0.0000 </r>
      </set>
      <set comment="kpoint 77">
       <r>   -2.3957    1.0000 </r>
       <r>    3.0472    1.0000 </r>
       <r>    3.0472    1.0000 </r>
       <r>    3.3520    1.0000 </r>
       <r>    4.4465    1.0000 </r>
       <r>    4.4465    1.0000 </r>
       <r>   28.3079    0.0000 </r>
       <r>   28.3079    0.0000 </r>
       <r>   30.4041    0.0000 </r>
       <r>   32.6470    0.0000 </r>
      </set>
      <set comment="kpoint 78">
       <r>   -2.6013    1.0000 </r>
       <r>    3.0871    1.0000 </r>
       <r>    3.0871    1.0000 </r>
       <r>    3.2202    1.0000 </r>
       <r>    4.4646    1.0000 </r>
       <r>    4.4646    1.0000 </r>
       <r>   29.2118    0.0000 </r>
       <r>   29.2118    0.0000 </r>
       <r>   30.2152    0.0000 </r>
       <r>   34.1341    0.0000 </r>
      </set>
      <set comment="kpoint 79">
       <r>   -2.7263    1.0000 </r>
       <r>    3.1104    1.0000 </r>
       <r>    3.1104    1.0000 </r>
       <r>    3.1437    1.0000 </r>
       <r>    4.4791    1.0000 </r>
       <r>    4.4791    1.0000 </r>
       <r>   29.8397    0.0000 </r>
       <r>   29.8397    0.0000 </r>
       <r>   30.1019    0.0000 </r>
       <r>   34.9404    0.0000 </r>
      </set>
      <set comment="kpoint 80">
       <r>   -2.7682    1.0000 </r>
       <r>    3.1180    1.0000 </r>
       <r>    3.1180    1.0000 </r>
       <r>    3.1181    1.0000 </r>
       <r>    4.4844    1.0000 </r>
       <r>    4.4844    1.0000 </r>
       <r>   30.0641    0.0000 </r>
       <r>   30.0641    0.0000 </r>
       <r>   30.0642    0.0000 </r>
       <r>   35.0335    0.0000 </r>
      </set>
      <set comment="kpoint 81">
       <r>   -2.7682    1.0000 </r>
       <r>    3.1180    1.0000 </r>
       <r>    3.1180    1.0000 </r>
       <r>    3.1181    1.0000 </r>
       <r>    4.4844    1.0000 </r>
       <r>    4.4844    1.0000 </r>
       <r>   30.0641    0.0000 </r>
       <r>   30.0641    0.0000 </r>
       <r>   30.0642    0.0000 </r>
       <r>   35.0335    0.0000 </r>
      </set>
      <set comment="kpoint 82">
       <r>   -2.7403    1.0000 </r>
       <r>    3.1106    1.0000 </r>
       <r>    3.1178    1.0000 </r>
       <r>    3.1327    1.0000 </r>
       <r>    4.4766    1.0000 </r>
       <r>    4.4850    1.0000 </r>
       <r>   29.8546    0.0000 </r>
       <r>   30.0256    0.0000 </r>
       <r>   30.0381    0.0000 </r>
       <r>   34.8210    0.0000 </r>
      </set>
      <set comment="kpoint 83">
       <r>   -2.6567    1.0000 </r>
       <r>    3.0887    1.0000 </r>
       <r>    3.1167    1.0000 </r>
       <r>    3.1764    1.0000 </r>
       <r>    4.4541    1.0000 </r>
       <r>    4.4870    1.0000 </r>
       <r>   29.2792    0.0000 </r>
       <r>   29.8997    0.0000 </r>
       <r>   29.9637    0.0000 </r>
       <r>   34.4239    0.0000 </r>
      </set>
      <set comment="kpoint 84">
       <r>   -2.5187    1.0000 </r>
       <r>    3.0531    1.0000 </r>
       <r>    3.1170    1.0000 </r>
       <r>    3.2495    1.0000 </r>
       <r>    4.4213    1.0000 </r>
       <r>    4.4910    1.0000 </r>
       <r>   28.4590    0.0000 </r>
       <r>   29.6654    0.0000 </r>
       <r>   29.8510    0.0000 </r>
       <r>   34.1945    0.0000 </r>
      </set>
      <set comment="kpoint 85">
       <r>   -2.3280    1.0000 </r>
       <r>    3.0053    1.0000 </r>
       <r>    3.1100    1.0000 </r>
       <r>    3.3512    1.0000 </r>
       <r>    4.3802    1.0000 </r>
       <r>    4.4977    1.0000 </r>
       <r>   27.4535    0.0000 </r>
       <r>   29.3116    0.0000 </r>
       <r>   29.7159    0.0000 </r>
       <r>   33.3075    0.0000 </r>
      </set>
      <set comment="kpoint 86">
       <r>   -2.0878    1.0000 </r>
       <r>    2.9461    1.0000 </r>
       <r>    3.0969    1.0000 </r>
       <r>    3.4794    1.0000 </r>
       <r>    4.3401    1.0000 </r>
       <r>    4.5040    1.0000 </r>
       <r>   26.3345    0.0000 </r>
       <r>   28.8469    0.0000 </r>
       <r>   29.5652    0.0000 </r>
       <r>   32.4432    0.0000 </r>
      </set>
      <set comment="kpoint 87">
       <r>   -1.8023    1.0000 </r>
       <r>    2.8801    1.0000 </r>
       <r>    3.0785    1.0000 </r>
       <r>    3.6270    1.0000 </r>
       <r>    4.3043    1.0000 </r>
       <r>    4.5153    1.0000 </r>
       <r>   25.1488    0.0000 </r>
       <r>   28.3127    0.0000 </r>
       <r>   29.4273    0.0000 </r>
       <r>   31.5802    0.0000 </r>
      </set>
      <set comment="kpoint 88">
       <r>   -1.4778    1.0000 </r>
       <r>    2.8038    1.0000 </r>
       <r>    3.0563    1.0000 </r>
       <r>    3.7937    1.0000 </r>
       <r>    4.2782    1.0000 </r>
       <r>    4.5207    1.0000 </r>
       <r>   23.9233    0.0000 </r>
       <r>   27.7316    0.0000 </r>
       <r>   29.2733    0.0000 </r>
       <r>   30.7395    0.0000 </r>
      </set>
      <set comment="kpoint 89">
       <r>   -1.1234    1.0000 </r>
       <r>    2.7226    1.0000 </r>
       <r>    3.0382    1.0000 </r>
       <r>    3.9775    1.0000 </r>
       <r>    4.2673    1.0000 </r>
       <r>    4.5316    1.0000 </r>
       <r>   22.6832    0.0000 </r>
       <r>   27.1485    0.0000 </r>
       <r>   29.1261    0.0000 </r>
       <r>   29.9341    0.0000 </r>
      </set>
      <set comment="kpoint 90">
       <r>   -0.7525    1.0000 </r>
       <r>    2.6391    1.0000 </r>
       <r>    3.0375    1.0000 </r>
       <r>    4.1745    1.0000 </r>
       <r>    4.2711    1.0000 </r>
       <r>    4.5445    1.0000 </r>
       <r>   21.4431    0.0000 </r>
       <r>   26.5787    0.0000 </r>
       <r>   28.9892    0.0000 </r>
       <r>   29.1682    0.0000 </r>
      </set>
      <set comment="kpoint 91">
       <r>   -0.3844    1.0000 </r>
       <r>    2.5554    1.0000 </r>
       <r>    3.0742    1.0000 </r>
       <r>    4.2880    1.0000 </r>
       <r>    4.3801    1.0000 </r>
       <r>    4.5591    1.0000 </r>
       <r>   20.2158    0.0000 </r>
       <r>   26.0365    0.0000 </r>
       <r>   28.4470    0.0000 </r>
       <r>   28.8647    0.0000 </r>
      </set>
      <set comment="kpoint 92">
       <r>   -0.0443    1.0000 </r>
       <r>    2.4782    1.0000 </r>
       <r>    3.1760    1.0000 </r>
       <r>    4.3207    1.0000 </r>
       <r>    4.5780    1.0000 </r>
       <r>    4.5905    1.0000 </r>
       <r>   19.0180    0.0000 </r>
       <r>   25.5345    0.0000 </r>
       <r>   27.7806    0.0000 </r>
       <r>   28.8005    0.0000 </r>
      </set>
      <set comment="kpoint 93">
       <r>    0.2398    1.0000 </r>
       <r>    2.4003    1.0000 </r>
       <r>    3.3641    1.0000 </r>
       <r>    4.3566    1.0000 </r>
       <r>    4.5948    1.0000 </r>
       <r>    4.8002    1.0000 </r>
       <r>   17.8464    0.0000 </r>
       <r>   25.0746    0.0000 </r>
       <r>   27.1686    0.0000 </r>
       <r>   28.7029    0.0000 </r>
      </set>
      <set comment="kpoint 94">
       <r>    0.4488    1.0000 </r>
       <r>    2.3288    1.0000 </r>
       <r>    3.6552    1.0000 </r>
       <r>    4.4007    1.0000 </r>
       <r>    4.6119    1.0000 </r>
       <r>    4.9974    1.0017 </r>
       <r>   16.7198    0.0000 </r>
       <r>   24.6656    0.0000 </r>
       <r>   26.6143    0.0000 </r>
       <r>   28.6189    0.0000 </r>
      </set>
      <set comment="kpoint 95">
       <r>    0.5824    1.0000 </r>
       <r>    2.2647    1.0000 </r>
       <r>    4.0222    1.0000 </r>
       <r>    4.4674    1.0000 </r>
       <r>    4.6216    1.0000 </r>
       <r>    5.1780    1.0274 </r>
       <r>   15.6508    0.0000 </r>
       <r>   24.3104    0.0000 </r>
       <r>   26.1288    0.0000 </r>
       <r>   28.5437    0.0000 </r>
      </set>
      <set comment="kpoint 96">
       <r>    0.6568    1.0000 </r>
       <r>    2.2105    1.0000 </r>
       <r>    4.3203    1.0000 </r>
       <r>    4.6354    1.0000 </r>
       <r>    4.6706    1.0000 </r>
       <r>    5.3383    0.9616 </r>
       <r>   14.6651    0.0000 </r>
       <r>   24.0165    0.0000 </r>
       <r>   25.7211    0.0000 </r>
       <r>   28.4858    0.0000 </r>
      </set>
      <set comment="kpoint 97">
       <r>    0.6924    1.0000 </r>
       <r>    2.1670    1.0000 </r>
       <r>    4.4139    1.0000 </r>
       <r>    4.6471    1.0000 </r>
       <r>    5.0945    1.0101 </r>
       <r>    5.4708    0.5361 </r>
       <r>   13.7917    0.0000 </r>
       <r>   23.7849    0.0000 </r>
       <r>   25.3961    0.0000 </r>
       <r>   28.4410    0.0000 </r>
      </set>
      <set comment="kpoint 98">
       <r>    0.7065    1.0000 </r>
       <r>    2.1353    1.0000 </r>
       <r>    4.4497    1.0000 </r>
       <r>    4.6561    1.0000 </r>
       <r>    5.5274    0.3030 </r>
       <r>    5.5699    0.1569 </r>
       <r>   13.0794    0.0000 </r>
       <r>   23.6178    0.0000 </r>
       <r>   25.1594    0.0000 </r>
       <r>   28.4092    0.0000 </r>
      </set>
      <set comment="kpoint 99">
       <r>    0.7109    1.0000 </r>
       <r>    2.1159    1.0000 </r>
       <r>    4.4676    1.0000 </r>
       <r>    4.6620    1.0000 </r>
       <r>    5.6313    0.0210 </r>
       <r>    5.8484   -0.0128 </r>
       <r>   12.5988    0.0000 </r>
       <r>   23.5168    0.0000 </r>
       <r>   25.0155    0.0000 </r>
       <r>   28.3902    0.0000 </r>
      </set>
      <set comment="kpoint 100">
       <r>    0.7108    1.0000 </r>
       <r>    2.1094    1.0000 </r>
       <r>    4.4733    1.0000 </r>
       <r>    4.6622    1.0000 </r>
       <r>    5.6520   -0.0046 </r>
       <r>    5.9682   -0.0015 </r>
       <r>   12.4218    0.0000 </r>
       <r>   23.4830    0.0000 </r>
       <r>   24.9672    0.0000 </r>
       <r>   28.3838    0.0000 </r>
      </set>
     </set>
     <set comment="spin 2">
      <set comment="kpoint 1">
       <r>   -2.5500    1.0000 </r>
       <r>    5.2164    1.0344 </r>
       <r>    5.2164    1.0344 </r>
       <r>    5.2168    1.0344 </r>
       <r>    6.9851   -0.0000 </r>
       <r>    6.9851   -0.0000 </r>
       <r>   29.9057    0.0000 </r>
       <r>   29.9057    0.0000 </r>
       <r>   29.9058    0.0000 </r>
       <r>   35.0798    0.0000 </r>
      </set>
      <set comment="kpoint 2">
       <r>   -2.4939    1.0000 </r>
       <r>    5.2139    1.0341 </r>
       <r>    5.2141    1.0341 </r>
       <r>    5.2332    1.0355 </r>
       <r>    6.9542   -0.0000 </r>
       <r>    6.9974   -0.0000 </r>
       <r>   29.5335    0.0000 </r>
       <r>   29.8773    0.0000 </r>
       <r>   29.8773    0.0000 </r>
       <r>   34.5485    0.0000 </r>
      </set>
      <set comment="kpoint 3">
       <r>   -2.3267    1.0000 </r>
       <r>    5.2075    1.0332 </r>
       <r>    5.2077    1.0332 </r>
       <r>    5.2826    1.0233 </r>
       <r>    6.8620   -0.0000 </r>
       <r>    7.0332   -0.0000 </r>
       <r>   28.6940    0.0000 </r>
       <r>   29.7516    0.0000 </r>
       <r>   29.7516    0.0000 </r>
       <r>   33.4229    0.0000 </r>
      </set>
      <set comment="kpoint 4">
       <r>   -2.0518    1.0000 </r>
       <r>    5.2032    1.0325 </r>
       <r>    5.2034    1.0325 </r>
       <r>    5.3640    0.9092 </r>
       <r>    6.7111   -0.0000 </r>
       <r>    7.0934   -0.0000 </r>
       <r>   27.7304    0.0000 </r>
       <r>   29.4380    0.0000 </r>
       <r>   29.4381    0.0000 </r>
       <r>   32.1332    0.0000 </r>
      </set>
      <set comment="kpoint 5">
       <r>   -1.6752    1.0000 </r>
       <r>    5.2034    1.0325 </r>
       <r>    5.2036    1.0325 </r>
       <r>    5.4759    0.5145 </r>
       <r>    6.5073   -0.0000 </r>
       <r>    7.1631   -0.0000 </r>
       <r>   26.8000    0.0000 </r>
       <r>   28.8342    0.0000 </r>
       <r>   28.8343    0.0000 </r>
       <r>   30.8064    0.0000 </r>
      </set>
      <set comment="kpoint 6">
       <r>   -1.2057    1.0000 </r>
       <r>    5.2121    1.0338 </r>
       <r>    5.2123    1.0338 </r>
       <r>    5.6137    0.0503 </r>
       <r>    6.2512   -0.0000 </r>
       <r>    7.2472   -0.0000 </r>
       <r>   25.9331    0.0000 </r>
       <r>   27.9367    0.0000 </r>
       <r>   27.9368    0.0000 </r>
       <r>   29.5315    0.0000 </r>
      </set>
      <set comment="kpoint 7">
       <r>   -0.6562    1.0000 </r>
       <r>    5.2417    1.0352 </r>
       <r>    5.2419    1.0352 </r>
       <r>    5.7820   -0.0270 </r>
       <r>    5.9546   -0.0020 </r>
       <r>    7.3433   -0.0000 </r>
       <r>   25.1675    0.0000 </r>
       <r>   26.8720    0.0000 </r>
       <r>   26.8721    0.0000 </r>
       <r>   28.3464    0.0000 </r>
      </set>
      <set comment="kpoint 8">
       <r>   -0.0451    1.0000 </r>
       <r>    5.2957    1.0144 </r>
       <r>    5.2959    1.0143 </r>
       <r>    5.6241    0.0321 </r>
       <r>    5.9627   -0.0017 </r>
       <r>    7.4489   -0.0000 </r>
       <r>   24.4956    0.0000 </r>
       <r>   25.7124    0.0000 </r>
       <r>   25.7125    0.0000 </r>
       <r>   27.2823    0.0000 </r>
      </set>
      <set comment="kpoint 9">
       <r>    0.6011    1.0000 </r>
       <r>    5.2711    1.0289 </r>
       <r>    5.3821    0.8625 </r>
       <r>    5.3822    0.8620 </r>
       <r>    6.1589   -0.0000 </r>
       <r>    7.5776   -0.0000 </r>
       <r>   23.9204    0.0000 </r>
       <r>   24.5220    0.0000 </r>
       <r>   24.5221    0.0000 </r>
       <r>   26.3601    0.0000 </r>
      </set>
      <set comment="kpoint 10">
       <r>    1.2447    1.0000 </r>
       <r>    4.9061    1.0002 </r>
       <r>    5.5043    0.3953 </r>
       <r>    5.5045    0.3945 </r>
       <r>    6.3652   -0.0000 </r>
       <r>    7.7460   -0.0000 </r>
       <r>   23.3284    0.0000 </r>
       <r>   23.3285    0.0000 </r>
       <r>   23.4355    0.0000 </r>
       <r>   25.5909    0.0000 </r>
      </set>
      <set comment="kpoint 11">
       <r>    1.8353    1.0000 </r>
       <r>    4.5402    1.0000 </r>
       <r>    5.6673   -0.0177 </r>
       <r>    5.6675   -0.0178 </r>
       <r>    6.5764   -0.0000 </r>
       <r>    8.0107   -0.0000 </r>
       <r>   22.1616    0.0000 </r>
       <r>   22.1616    0.0000 </r>
       <r>   23.0323    0.0000 </r>
       <r>   24.9751    0.0000 </r>
      </set>
      <set comment="kpoint 12">
       <r>    2.3161    1.0000 </r>
       <r>    4.1837    1.0000 </r>
       <r>    5.8713   -0.0091 </r>
       <r>    5.8715   -0.0091 </r>
       <r>    6.7865   -0.0000 </r>
       <r>    8.4210   -0.0000 </r>
       <r>   21.0319    0.0000 </r>
       <r>   21.0319    0.0000 </r>
       <r>   22.7016    0.0000 </r>
       <r>   24.5021    0.0000 </r>
      </set>
      <set comment="kpoint 13">
       <r>    2.6445    1.0000 </r>
       <r>    3.8451    1.0000 </r>
       <r>    6.1135   -0.0000 </r>
       <r>    6.1137   -0.0000 </r>
       <r>    6.9910   -0.0000 </r>
       <r>    9.0229   -0.0000 </r>
       <r>   19.9533    0.0000 </r>
       <r>   19.9534    0.0000 </r>
       <r>   22.4252    0.0000 </r>
       <r>   24.1493    0.0000 </r>
      </set>
      <set comment="kpoint 14">
       <r>    2.8146    1.0000 </r>
       <r>    3.5353    1.0000 </r>
       <r>    6.3897   -0.0000 </r>
       <r>    6.3900   -0.0000 </r>
       <r>    7.1809   -0.0000 </r>
       <r>    9.8278   -0.0000 </r>
       <r>   18.9371    0.0000 </r>
       <r>   18.9371    0.0000 </r>
       <r>   22.2101    0.0000 </r>
       <r>   23.8844    0.0000 </r>
      </set>
      <set comment="kpoint 15">
       <r>    2.8579    1.0000 </r>
       <r>    3.2607    1.0000 </r>
       <r>    6.6891   -0.0000 </r>
       <r>    6.6894   -0.0000 </r>
       <r>    7.3525   -0.0000 </r>
       <r>   10.8085   -0.0000 </r>
       <r>   17.9992    0.0000 </r>
       <r>   17.9992    0.0000 </r>
       <r>   22.0396    0.0000 </r>
       <r>   23.6707    0.0000 </r>
      </set>
      <set comment="kpoint 16">
       <r>    2.8195    1.0000 </r>
       <r>    3.0278    1.0000 </r>
       <r>    6.9985   -0.0000 </r>
       <r>    6.9987   -0.0000 </r>
       <r>    7.5006   -0.0000 </r>
       <r>   11.9123    0.0000 </r>
       <r>   17.1634    0.0000 </r>
       <r>   17.1635    0.0000 </r>
       <r>   21.9103    0.0000 </r>
       <r>   23.4216    0.0000 </r>
      </set>
      <set comment="kpoint 17">
       <r>    2.7453    1.0000 </r>
       <r>    2.8415    1.0000 </r>
       <r>    7.2946   -0.0000 </r>
       <r>    7.2949   -0.0000 </r>
       <r>    7.6207   -0.0000 </r>
       <r>   13.0726    0.0000 </r>
       <r>   16.4545    0.0000 </r>
       <r>   16.4546    0.0000 </r>
       <r>   21.8154    0.0000 </r>
       <r>   23.0659    0.0000 </r>
      </set>
      <set comment="kpoint 18">
       <r>    2.6694    1.0000 </r>
       <r>    2.7057    1.0000 </r>
       <r>    7.5470   -0.0000 </r>
       <r>    7.5473   -0.0000 </r>
       <r>    7.7093   -0.0000 </r>
       <r>   14.1872    0.0000 </r>
       <r>   15.9055    0.0000 </r>
       <r>   15.9056    0.0000 </r>
       <r>   21.7506    0.0000 </r>
       <r>   22.5445    0.0000 </r>
      </set>
      <set comment="kpoint 19">
       <r>    2.6151    1.0000 </r>
       <r>    2.6232    1.0000 </r>
       <r>    7.7198   -0.0000 </r>
       <r>    7.7201   -0.0000 </r>
       <r>    7.7636   -0.0000 </r>
       <r>   15.0730    0.0000 </r>
       <r>   15.5540    0.0000 </r>
       <r>   15.5541    0.0000 </r>
       <r>   21.7130    0.0000 </r>
       <r>   21.9713    0.0000 </r>
      </set>
      <set comment="kpoint 20">
       <r>    2.5955    1.0000 </r>
       <r>    2.5955    1.0000 </r>
       <r>    7.7817   -0.0000 </r>
       <r>    7.7817   -0.0000 </r>
       <r>    7.7822   -0.0000 </r>
       <r>   15.4324    0.0000 </r>
       <r>   15.4326    0.0000 </r>
       <r>   15.4326    0.0000 </r>
       <r>   21.7006    0.0000 </r>
       <r>   21.7006    0.0000 </r>
      </set>
      <set comment="kpoint 21">
       <r>    2.5955    1.0000 </r>
       <r>    2.5955    1.0000 </r>
       <r>    7.7817   -0.0000 </r>
       <r>    7.7817   -0.0000 </r>
       <r>    7.7822   -0.0000 </r>
       <r>   15.4324    0.0000 </r>
       <r>   15.4326    0.0000 </r>
       <r>   15.4326    0.0000 </r>
       <r>   21.7006    0.0000 </r>
       <r>   21.7006    0.0000 </r>
      </set>
      <set comment="kpoint 22">
       <r>    2.6065    1.0000 </r>
       <r>    2.6083    1.0000 </r>
       <r>    7.7394   -0.0000 </r>
       <r>    7.7505   -0.0000 </r>
       <r>    7.7840   -0.0000 </r>
       <r>   15.3475    0.0000 </r>
       <r>   15.3902    0.0000 </r>
       <r>   15.4935    0.0000 </r>
       <r>   21.7414    0.0000 </r>
       <r>   21.8125    0.0000 </r>
      </set>
      <set comment="kpoint 23">
       <r>    2.6393    1.0000 </r>
       <r>    2.6460    1.0000 </r>
       <r>    7.6171   -0.0000 </r>
       <r>    7.6580   -0.0000 </r>
       <r>    7.7897   -0.0000 </r>
       <r>   15.1082    0.0000 </r>
       <r>   15.2728    0.0000 </r>
       <r>   15.6723    0.0000 </r>
       <r>   21.8516    0.0000 </r>
       <r>   22.1328    0.0000 </r>
      </set>
      <set comment="kpoint 24">
       <r>    2.6941    1.0000 </r>
       <r>    2.7061    1.0000 </r>
       <r>    7.4264   -0.0000 </r>
       <r>    7.5099   -0.0000 </r>
       <r>    7.7992   -0.0000 </r>
       <r>   14.7505    0.0000 </r>
       <r>   15.1045    0.0000 </r>
       <r>   15.9574    0.0000 </r>
       <r>   22.0026    0.0000 </r>
       <r>   22.6258    0.0000 </r>
      </set>
      <set comment="kpoint 25">
       <r>    2.7709    1.0000 </r>
       <r>    2.7843    1.0000 </r>
       <r>    7.1829   -0.0000 </r>
       <r>    7.3154   -0.0000 </r>
       <r>    7.8120   -0.0000 </r>
       <r>   14.3123    0.0000 </r>
       <r>   14.9129    0.0000 </r>
       <r>   16.3339    0.0000 </r>
       <r>   22.1650    0.0000 </r>
       <r>   23.2546    0.0000 </r>
      </set>
      <set comment="kpoint 26">
       <r>    2.8699    1.0000 </r>
[...]
        <r>  0.0000  0.0000  0.9667 </r>
       </set>
       <set comment="band 7">
        <r>  0.0000  0.0009  0.0531 </r>
       </set>
       <set comment="band 8">
        <r>  0.0000  0.0009  0.0531 </r>
       </set>
       <set comment="band 9">
        <r>  0.0000  0.0000  0.0000 </r>
       </set>
       <set comment="band 10">
        <r>  0.0000  0.0576  0.5735 </r>
       </set>
      </set>
      <set comment="kpoint 80">
       <set comment="band 1">
        <r>  0.6990  0.0000  0.0000 </r>
       </set>
       <set comment="band 2">
        <r>  0.0000  0.0000  0.9769 </r>
       </set>
       <set comment="band 3">
        <r>  0.0000  0.0000  0.9769 </r>
       </set>
       <set comment="band 4">
        <r>  0.0000  0.0000  0.9770 </r>
       </set>
       <set comment="band 5">
        <r>  0.0000  0.0000  0.9670 </r>
       </set>
       <set comment="band 6">
        <r>  0.0000  0.0000  0.9670 </r>
       </set>
       <set comment="band 7">
        <r>  0.0000  0.0000  0.0000 </r>
       </set>
       <set comment="band 8">
        <r>  0.0000  0.0000  0.0000 </r>
       </set>
       <set comment="band 9">
        <r>  0.0000  0.0000  0.0000 </r>
       </set>
       <set comment="band 10">
        <r>  0.0000  0.0000  0.6736 </r>
       </set>
      </set>
      <set comment="kpoint 81">
       <set comment="band 1">
        <r>  0.6990  0.0000  0.0000 </r>
       </set>
       <set comment="band 2">
        <r>  0.0000  0.0000  0.9769 </r>
       </set>
       <set comment="band 3">
        <r>  0.0000  0.0000  0.9769 </r>
       </set>
       <set comment="band 4">
        <r>  0.0000  0.0000  0.9770 </r>
       </set>
       <set comment="band 5">
        <r>  0.0000  0.0000  0.9670 </r>
       </set>
       <set comment="band 6">
        <r>  0.0000  0.0000  0.9670 </r>
       </set>
       <set comment="band 7">
        <r>  0.0000  0.0000  0.0000 </r>
       </set>
       <set comment="band 8">
        <r>  0.0000  0.0000  0.0000 </r>
       </set>
       <set comment="band 9">
        <r>  0.0000  0.0000  0.0000 </r>
       </set>
       <set comment="band 10">
        <r>  0.0000  0.0000  0.6735 </r>
       </set>
      </set>
      <set comment="kpoint 82">
       <set comment="band 1">
        <r>  0.6971  0.0019  0.0000 </r>
       </set>
       <set comment="band 2">
        <r>  0.0000  0.0000  0.9766 </r>
       </set>
       <set comment="band 3">
        <r>  0.0000  0.0002  0.9764 </r>
       </set>
       <set comment="band 4">
        <r>  0.0000  0.0002  0.9766 </r>
       </set>
       <set comment="band 5">
        <r>  0.0000  0.0000  0.9665 </r>
       </set>
       <set comment="band 6">
        <r>  0.0000  0.0000  0.9670 </r>
       </set>
       <set comment="band 7">
        <r>  0.0000  0.0005  0.0453 </r>
       </set>
       <set comment="band 8">
        <r>  0.0000  0.0002  0.0105 </r>
       </set>
       <set comment="band 9">
        <r>  0.0000  0.0000  0.0168 </r>
       </set>
       <set comment="band 10">
        <r>  0.0000  0.0516  0.5992 </r>
       </set>
      </set>
      <set comment="kpoint 83">
       <set comment="band 1">
        <r>  0.6913  0.0076  0.0001 </r>
       </set>
       <set comment="band 2">
        <r>  0.0000  0.0000  0.9758 </r>
       </set>
       <set comment="band 3">
        <r>  0.0000  0.0010  0.9747 </r>
       </set>
       <set comment="band 4">
        <r>  0.0000  0.0009  0.9757 </r>
       </set>
       <set comment="band 5">
        <r>  0.0000  0.0000  0.9651 </r>
       </set>
       <set comment="band 6">
        <r>  0.0000  0.0000  0.9671 </r>
       </set>
       <set comment="band 7">
        <r>  0.0001  0.0069  0.1483 </r>
       </set>
       <set comment="band 8">
        <r>  0.0000  0.0025  0.0403 </r>
       </set>
       <set comment="band 9">
        <r>  0.0000  0.0000  0.0647 </r>
       </set>
       <set comment="band 10">
        <r>  0.0000  0.1481  0.4429 </r>
       </set>
      </set>
      <set comment="kpoint 84">
       <set comment="band 1">
        <r>  0.6818  0.0170  0.0003 </r>
       </set>
       <set comment="band 2">
        <r>  0.0000  0.0000  0.9744 </r>
       </set>
       <set comment="band 3">
        <r>  0.0000  0.0022  0.9730 </r>
       </set>
       <set comment="band 4">
        <r>  0.0000  0.0019  0.9747 </r>
       </set>
       <set comment="band 5">
        <r>  0.0000  0.0000  0.9635 </r>
       </set>
       <set comment="band 6">
        <r>  0.0000  0.0001  0.9675 </r>
       </set>
       <set comment="band 7">
        <r>  0.0009  0.0255  0.2495 </r>
       </set>
       <set comment="band 8">
        <r>  0.0000  0.0116  0.0817 </r>
       </set>
       <set comment="band 9">
        <r>  0.0000  0.0000  0.1373 </r>
       </set>
       <set comment="band 10">
        <r>  0.0000  0.2293  0.2910 </r>
       </set>
      </set>
      <set comment="kpoint 85">
       <set comment="band 1">
        <r>  0.6685  0.0298  0.0011 </r>
       </set>
       <set comment="band 2">
        <r>  0.0000  0.0000  0.9729 </r>
       </set>
       <set comment="band 3">
        <r>  0.0001  0.0044  0.9679 </r>
       </set>
       <set comment="band 4">
        <r>  0.0000  0.0033  0.9740 </r>
       </set>
       <set comment="band 5">
        <r>  0.0001  0.0000  0.9613 </r>
       </set>
       <set comment="band 6">
        <r>  0.0000  0.0001  0.9682 </r>
       </set>
       <set comment="band 7">
        <r>  0.0034  0.0564  0.3338 </r>
       </set>
       <set comment="band 8">
        <r>  0.0000  0.0313  0.1210 </r>
       </set>
       <set comment="band 9">
        <r>  0.0000  0.0000  0.2250 </r>
       </set>
       <set comment="band 10">
        <r>  0.0002  0.3663  0.4177 </r>
       </set>
      </set>
      <set comment="kpoint 86">
       <set comment="band 1">
        <r>  0.6515  0.0456  0.0027 </r>
       </set>
       <set comment="band 2">
        <r>  0.0000  0.0000  0.9709 </r>
       </set>
       <set comment="band 3">
        <r>  0.0004  0.0076  0.9596 </r>
       </set>
       <set comment="band 4">
        <r>  0.0000  0.0048  0.9735 </r>
       </set>
       <set comment="band 5">
        <r>  0.0002  0.0000  0.9601 </r>
       </set>
       <set comment="band 6">
        <r>  0.0000  0.0001  0.9686 </r>
       </set>
       <set comment="band 7">
        <r>  0.0087  0.0945  0.3913 </r>
       </set>
       <set comment="band 8">
        <r>  0.0000  0.0598  0.1482 </r>
       </set>
       <set comment="band 9">
        <r>  0.0000  0.0000  0.3215 </r>
       </set>
       <set comment="band 10">
        <r>  0.0000  0.4944  0.5809 </r>
       </set>
      </set>
      <set comment="kpoint 87">
       <set comment="band 1">
        <r>  0.6306  0.0639  0.0059 </r>
       </set>
       <set comment="band 2">
        <r>  0.0000  0.0000  0.9697 </r>
       </set>
       <set comment="band 3">
        <r>  0.0008  0.0126  0.9476 </r>
       </set>
       <set comment="band 4">
        <r>  0.0000  0.0065  0.9715 </r>
       </set>
       <set comment="band 5">
        <r>  0.0004  0.0000  0.9594 </r>
       </set>
       <set comment="band 6">
        <r>  0.0000  0.0002  0.9699 </r>
       </set>
       <set comment="band 7">
        <r>  0.0176  0.1340  0.4235 </r>
       </set>
       <set comment="band 8">
        <r>  0.0000  0.0927  0.1563 </r>
       </set>
       <set comment="band 9">
        <r>  0.0000  0.0000  0.4119 </r>
       </set>
       <set comment="band 10">
        <r>  0.0000  0.5223  0.5166 </r>
       </set>
      </set>
      <set comment="kpoint 88">
       <set comment="band 1">
        <r>  0.6059  0.0839  0.0116 </r>
       </set>
       <set comment="band 2">
        <r>  0.0000  0.0000  0.9671 </r>
       </set>
       <set comment="band 3">
        <r>  0.0017  0.0199  0.9305 </r>
       </set>
       <set comment="band 4">
        <r>  0.0000  0.0081  0.9693 </r>
       </set>
       <set comment="band 5">
        <r>  0.0006  0.0000  0.9595 </r>
       </set>
       <set comment="band 6">
        <r>  0.0000  0.0002  0.9696 </r>
       </set>
       <set comment="band 7">
        <r>  0.0305  0.1705  0.4380 </r>
       </set>
       <set comment="band 8">
        <r>  0.0000  0.1244  0.1550 </r>
       </set>
       <set comment="band 9">
        <r>  0.0000  0.0000  0.5083 </r>
       </set>
       <set comment="band 10">
        <r>  0.0000  0.5476  0.4589 </r>
       </set>
      </set>
      <set comment="kpoint 89">
       <set comment="band 1">
        <r>  0.5773  0.1045  0.0215 </r>
       </set>
       <set comment="band 2">
        <r>  0.0000  0.0000  0.9645 </r>
       </set>
       <set comment="band 3">
        <r>  0.0033  0.0305  0.9071 </r>
       </set>
       <set comment="band 4">
        <r>  0.0000  0.0095  0.9676 </r>
       </set>
       <set comment="band 5">
        <r>  0.0008  0.0001  0.9609 </r>
       </set>
       <set comment="band 6">
        <r>  0.0000  0.0003  0.9705 </r>
       </set>
       <set comment="band 7">
        <r>  0.0473  0.2003  0.4398 </r>
       </set>
       <set comment="band 8">
        <r>  0.0000  0.1523  0.1420 </r>
       </set>
       <set comment="band 9">
        <r>  0.0000  0.0000  0.5993 </r>
       </set>
       <set comment="band 10">
        <r>  0.0000  0.5718  0.4019 </r>
       </set>
      </set>
      <set comment="kpoint 90">
       <set comment="band 1">
        <r>  0.5445  0.1241  0.0377 </r>
       </set>
       <set comment="band 2">
        <r>  0.0000  0.0000  0.9620 </r>
       </set>
       <set comment="band 3">
        <r>  0.0059  0.0461  0.8755 </r>
       </set>
       <set comment="band 4">
        <r>  0.0000  0.0106  0.9667 </r>
       </set>
       <set comment="band 5">
        <r>  0.0009  0.0003  0.9630 </r>
       </set>
       <set comment="band 6">
        <r>  0.0000  0.0003  0.9716 </r>
       </set>
       <set comment="band 7">
        <r>  0.0681  0.2217  0.4348 </r>
       </set>
       <set comment="band 8">
        <r>  0.0000  0.1761  0.1243 </r>
       </set>
       <set comment="band 9">
        <r>  0.0000  0.0000  0.6830 </r>
       </set>
       <set comment="band 10">
        <r>  0.0000  0.5955  0.3458 </r>
       </set>
      </set>
      <set comment="kpoint 91">
       <set comment="band 1">
        <r>  0.5072  0.1405  0.0637 </r>
       </set>
       <set comment="band 2">
        <r>  0.0000  0.0000  0.9597 </r>
       </set>
       <set comment="band 3">
        <r>  0.0100  0.0690  0.8325 </r>
       </set>
       <set comment="band 4">
        <r>  0.0000  0.0112  0.9667 </r>
       </set>
       <set comment="band 5">
        <r>  0.0011  0.0007  0.9653 </r>
       </set>
       <set comment="band 6">
        <r>  0.0000  0.0003  0.9731 </r>
       </set>
       <set comment="band 7">
        <r>  0.0927  0.2339  0.4273 </r>
       </set>
       <set comment="band 8">
        <r>  0.0000  0.1961  0.1048 </r>
       </set>
       <set comment="band 9">
        <r>  0.0000  0.0000  0.7585 </r>
       </set>
       <set comment="band 10">
        <r>  0.0000  0.6183  0.2912 </r>
       </set>
      </set>
      <set comment="kpoint 92">
       <set comment="band 1">
        <r>  0.4650  0.1504  0.1042 </r>
       </set>
       <set comment="band 2">
        <r>  0.0000  0.0000  0.9597 </r>
       </set>
       <set comment="band 3">
        <r>  0.0160  0.1024  0.7743 </r>
       </set>
       <set comment="band 4">
        <r>  0.0013  0.0014  0.9688 </r>
       </set>
       <set comment="band 5">
        <r>  0.0000  0.0111  0.9683 </r>
       </set>
       <set comment="band 6">
        <r>  0.0000  0.0003  0.9756 </r>
       </set>
       <set comment="band 7">
        <r>  0.1210  0.2359  0.4178 </r>
       </set>
       <set comment="band 8">
        <r>  0.0000  0.2133  0.0843 </r>
       </set>
       <set comment="band 9">
        <r>  0.0000  0.6415  0.2371 </r>
       </set>
       <set comment="band 10">
        <r>  0.0000  0.0000  0.8042 </r>
       </set>
      </set>
      <set comment="kpoint 93">
       <set comment="band 1">
        <r>  0.4175  0.1503  0.1645 </r>
       </set>
       <set comment="band 2">
        <r>  0.0000  0.0000  0.9577 </r>
       </set>
       <set comment="band 3">
        <r>  0.0243  0.1498  0.6932 </r>
       </set>
       <set comment="band 4">
        <r>  0.0015  0.0024  0.9701 </r>
       </set>
       <set comment="band 5">
        <r>  0.0000  0.0105  0.9713 </r>
       </set>
       <set comment="band 6">
        <r>  0.0000  0.0003  0.9776 </r>
       </set>
       <set comment="band 7">
        <r>  0.1530  0.2291  0.4148 </r>
       </set>
       <set comment="band 8">
        <r>  0.0000  0.2268  0.0660 </r>
       </set>
       <set comment="band 9">
        <r>  0.0000  0.6626  0.1863 </r>
       </set>
       <set comment="band 10">
        <r>  0.0000  0.0000  0.8623 </r>
       </set>
      </set>
      <set comment="kpoint 94">
       <set comment="band 1">
        <r>  0.3655  0.1367  0.2478 </r>
       </set>
       <set comment="band 2">
        <r>  0.0000  0.0000  0.9560 </r>
       </set>
       <set comment="band 3">
        <r>  0.0344  0.2151  0.5874 </r>
       </set>
       <set comment="band 4">
        <r>  0.0018  0.0038  0.9702 </r>
       </set>
       <set comment="band 5">
        <r>  0.0000  0.0003  0.9797 </r>
       </set>
       <set comment="band 6">
        <r>  0.0000  0.0093  0.9746 </r>
       </set>
       <set comment="band 7">
        <r>  0.1885  0.2110  0.4163 </r>
       </set>
       <set comment="band 8">
        <r>  0.0000  0.2378  0.0493 </r>
       </set>
       <set comment="band 9">
        <r>  0.0000  0.6812  0.1417 </r>
       </set>
       <set comment="band 10">
        <r>  0.0000  0.0000  0.9121 </r>
       </set>
      </set>
      <set comment="kpoint 95">
       <set comment="band 1">
        <r>  0.3119  0.1104  0.3500 </r>
       </set>
       <set comment="band 2">
        <r>  0.0000  0.0000  0.9544 </r>
       </set>
       <set comment="band 3">
        <r>  0.0434  0.2973  0.4597 </r>
       </set>
       <set comment="band 4">
        <r>  0.0022  0.0058  0.9690 </r>
       </set>
       <set comment="band 5">
        <r>  0.0000  0.0002  0.9802 </r>
       </set>
       <set comment="band 6">
        <r>  0.0000  0.0075  0.9784 </r>
       </set>
       <set comment="band 7">
        <r>  0.2272  0.1832  0.4255 </r>
       </set>
       <set comment="band 8">
        <r>  0.0000  0.2469  0.0355 </r>
       </set>
       <set comment="band 9">
        <r>  0.0000  0.6982  0.1023 </r>
       </set>
       <set comment="band 10">
        <r>  0.0000  0.0000  0.9557 </r>
       </set>
      </set>
      <set comment="kpoint 96">
       <set comment="band 1">
        <r>  0.2619  0.0768  0.4571 </r>
       </set>
       <set comment="band 2">
        <r>  0.0000  0.0000  0.9532 </r>
       </set>
       <set comment="band 3">
        <r>  0.0467  0.3909  0.3247 </r>
       </set>
       <set comment="band 4">
        <r>  0.0030  0.0080  0.9665 </r>
       </set>
       <set comment="band 5">
        <r>  0.0000  0.0001  0.9820 </r>
       </set>
       <set comment="band 6">
        <r>  0.0000  0.0055  0.9829 </r>
       </set>
       <set comment="band 7">
        <r>  0.2687  0.1451  0.4405 </r>
       </set>
       <set comment="band 8">
        <r>  0.0000  0.2539  0.0230 </r>
       </set>
       <set comment="band 9">
        <r>  0.0000  0.7129  0.0674 </r>
       </set>
       <set comment="band 10">
        <r>  0.0000  0.0000  0.9895 </r>
       </set>
      </set>
      <set comment="kpoint 97">
       <set comment="band 1">
        <r>  0.2210  0.0445  0.5510 </r>
       </set>
       <set comment="band 2">
        <r>  0.0000  0.0000  0.9523 </r>
       </set>
       <set comment="band 3">
        <r>  0.0405  0.4857  0.2001 </r>
       </set>
       <set comment="band 4">
        <r>  0.0043  0.0099  0.9631 </r>
       </set>
       <set comment="band 5">
        <r>  0.0000  0.0001  0.9836 </r>
       </set>
       <set comment="band 6">
        <r>  0.0000  0.0034  0.9873 </r>
       </set>
       <set comment="band 7">
        <r>  0.3111  0.0995  0.4623 </r>
       </set>
       <set comment="band 8">
        <r>  0.0000  0.2591  0.0130 </r>
       </set>
       <set comment="band 9">
        <r>  0.0000  0.7251  0.0388 </r>
       </set>
       <set comment="band 10">
        <r>  0.0000  0.0000  1.0155 </r>
       </set>
      </set>
      <set comment="kpoint 98">
       <set comment="band 1">
        <r>  0.1922  0.0198  0.6199 </r>
       </set>
       <set comment="band 2">
        <r>  0.0000  0.0000  0.9517 </r>
       </set>
       <set comment="band 3">
        <r>  0.0252  0.5715  0.0988 </r>
       </set>
       <set comment="band 4">
        <r>  0.0065  0.0094  0.9613 </r>
       </set>
       <set comment="band 5">
        <r>  0.0000  0.0000  0.9848 </r>
       </set>
       <set comment="band 6">
        <r>  0.0000  0.0017  0.9911 </r>
       </set>
       <set comment="band 7">
        <r>  0.3504  0.0524  0.4877 </r>
       </set>
       <set comment="band 8">
        <r>  0.0000  0.2628  0.0058 </r>
       </set>
       <set comment="band 9">
        <r>  0.0000  0.7341  0.0176 </r>
       </set>
       <set comment="band 10">
        <r>  0.0000  0.0000  1.0338 </r>
       </set>
      </set>
      <set comment="kpoint 99">
       <set comment="band 1">
        <r>  0.1754  0.0049  0.6606 </r>
       </set>
       <set comment="band 2">
        <r>  0.0000  0.0000  0.9513 </r>
       </set>
       <set comment="band 3">
        <r>  0.0080  0.6372  0.0278 </r>
       </set>
       <set comment="band 4">
        <r>  0.0096  0.0044  0.9644 </r>
       </set>
       <set comment="band 5">
        <r>  0.0000  0.0000  0.9857 </r>
       </set>
       <set comment="band 6">
        <r>  0.0000  0.0004  0.9936 </r>
       </set>
       <set comment="band 7">
        <r>  0.3798  0.0147  0.5096 </r>
       </set>
       <set comment="band 8">
        <r>  0.0000  0.2649  0.0015 </r>
       </set>
       <set comment="band 9">
        <r>  0.0000  0.7398  0.0044 </r>
       </set>
       <set comment="band 10">
        <r>  0.0000  0.0000  1.0448 </r>
       </set>
      </set>
      <set comment="kpoint 100">
       <set comment="band 1">
        <r>  0.1700  0.0000  0.6734 </r>
       </set>
       <set comment="band 2">
        <r>  0.0000  0.0000  0.9512 </r>
       </set>
       <set comment="band 3">
        <r>  0.0000  0.6638  0.0000 </r>
       </set>
       <set comment="band 4">
        <r>  0.0114  0.0000  0.9682 </r>
       </set>
       <set comment="band 5">
        <r>  0.0000  0.0000  0.9855 </r>
       </set>
       <set comment="band 6">
        <r>  0.0000  0.0000  0.9945 </r>
       </set>
       <set comment="band 7">
        <r>  0.3906  0.0000  0.5199 </r>
       </set>
       <set comment="band 8">
        <r>  0.0000  0.2656  0.0000 </r>
       </set>
       <set comment="band 9">
        <r>  0.0000  0.7417  0.0000 </r>
       </set>
       <set comment="band 10">
        <r>  0.0000  0.0000  1.0484 </r>
       </set>
      </set>
     </set>
    </set>
   </array>
  </projected>
 </calculation>
 <structure name="finalpos" >
  <crystal>
   <varray name="basis" >
    <v>      -1.43500000       1.43500000       1.43500000 </v>
    <v>       1.43500000      -1.43500000       1.43500000 </v>
    <v>       1.43500000       1.43500000      -1.43500000 </v>
   </varray>
   <i name="volume">     11.81995150 </i>
   <varray name="rec_basis" >
    <v>       0.00000000       0.34843206       0.34843206 </v>
    <v>       0.34843206       0.00000000       0.34843206 </v>
    <v>       0.34843206       0.34843206       0.00000000 </v>
   </varray>
  </crystal>
  <varray name="positions" >
   <v>       0.00000000       0.00000000       0.00000000 </v>
  </varray>
 </structure>
</modeling>
