bcc Fe                                  
           1
    -1.435000    1.435000    1.435000
     1.435000   -1.435000    1.435000
     1.435000    1.435000   -1.435000
   Si
   1
Direct configuration=     1
   0.00000000  0.00000000  0.00000000
