   2   2   1   0
  0.2001288E+02  0.3839590E-09  0.3839590E-09  0.3839590E-09  0.5000000E-15
  1.000000000000000E-004
  CAR 
 diamond Si                              
     17.03169055     -7.24829456  301      6.10124227      1.00000000
     -7.248  0.0000E+00  0.0000E+00
     -7.167  0.0000E+00  0.0000E+00
     -7.086  0.0000E+00  0.0000E+00
     -7.005  0.0000E+00  0.0000E+00
     -6.925  0.0000E+00  0.0000E+00
     -6.844  0.0000E+00  0.0000E+00
     -6.763  0.0000E+00  0.0000E+00
     -6.682  0.9612E-14  0.7779E-15
     -6.601  0.3704E-10  0.2999E-11
     -6.520  0.4009E-07  0.3247E-08
     -6.439  0.1235E-04  0.1003E-05
     -6.358  0.1107E-02  0.9056E-04
     -6.277  0.2985E-01  0.2507E-02
     -6.196  0.2555E+00  0.2318E-01
     -6.115  0.7577E+00  0.8450E-01
     -6.034  0.9344E+00  0.1601E+00
     -5.953  0.7101E+00  0.2176E+00
     -5.872  0.5338E+00  0.2608E+00
     -5.791  0.4477E+00  0.2970E+00
     -5.711  0.3962E+00  0.3291E+00
     -5.630  0.3603E+00  0.3583E+00
     -5.549  0.3333E+00  0.3852E+00
     -5.468  0.3120E+00  0.4105E+00
     -5.387  0.2948E+00  0.4344E+00
     -5.306  0.2804E+00  0.4571E+00
     -5.225  0.2683E+00  0.4788E+00
     -5.144  0.2579E+00  0.4996E+00
     -5.063  0.2489E+00  0.5198E+00
     -4.982  0.2412E+00  0.5393E+00
     -4.901  0.2345E+00  0.5583E+00
     -4.820  0.2286E+00  0.5768E+00
     -4.739  0.2236E+00  0.5949E+00
     -4.658  0.2193E+00  0.6126E+00
     -4.577  0.2157E+00  0.6301E+00
     -4.497  0.2129E+00  0.6473E+00
     -4.416  0.2109E+00  0.6644E+00
     -4.335  0.2098E+00  0.6814E+00
     -4.254  0.2099E+00  0.6983E+00
     -4.173  0.2116E+00  0.7155E+00
     -4.092  0.2160E+00  0.7330E+00
     -4.011  0.2273E+00  0.7513E+00
     -3.930  0.2756E+00  0.7737E+00
     -3.849  0.4488E+00  0.8100E+00
     -3.768  0.6425E+00  0.8620E+00
     -3.687  0.5727E+00  0.9083E+00
     -3.606  0.4178E+00  0.9421E+00
     -3.525  0.3427E+00  0.9699E+00
     -3.444  0.3080E+00  0.9948E+00
     -3.363  0.2860E+00  0.1018E+01
     -3.283  0.2712E+00  0.1040E+01
     -3.202  0.2594E+00  0.1061E+01
     -3.121  0.2509E+00  0.1081E+01
     -3.040  0.2443E+00  0.1101E+01
     -2.959  0.2388E+00  0.1120E+01
     -2.878  0.2358E+00  0.1139E+01
     -2.797  0.2325E+00  0.1158E+01
     -2.716  0.2323E+00  0.1177E+01
     -2.635  0.2319E+00  0.1196E+01
     -2.554  0.2382E+00  0.1215E+01
     -2.473  0.2734E+00  0.1237E+01
     -2.392  0.3710E+00  0.1267E+01
     -2.311  0.4740E+00  0.1306E+01
     -2.230  0.5607E+00  0.1351E+01
     -2.149  0.7798E+00  0.1414E+01
     -2.069  0.1659E+01  0.1548E+01
     -1.988  0.3426E+01  0.1826E+01
     -1.907  0.4182E+01  0.2164E+01
     -1.826  0.3238E+01  0.2426E+01
     -1.745  0.1679E+01  0.2562E+01
     -1.664  0.7332E+00  0.2621E+01
     -1.583  0.5086E+00  0.2663E+01
     -1.502  0.4699E+00  0.2701E+01
     -1.421  0.4295E+00  0.2735E+01
     -1.340  0.3522E+00  0.2764E+01
     -1.259  0.3389E+00  0.2791E+01
     -1.178  0.6180E+00  0.2841E+01
     -1.097  0.1068E+01  0.2928E+01
     -1.016  0.1205E+01  0.3025E+01
     -0.935  0.9316E+00  0.3101E+01
     -0.855  0.4557E+00  0.3138E+01
     -0.774  0.2131E+00  0.3155E+01
     -0.693  0.1682E+00  0.3168E+01
     -0.612  0.1618E+00  0.3181E+01
     -0.531  0.1544E+00  0.3194E+01
     -0.450  0.1531E+00  0.3206E+01
     -0.369  0.1459E+00  0.3218E+01
     -0.288  0.1467E+00  0.3230E+01
     -0.207  0.1394E+00  0.3241E+01
     -0.126  0.1414E+00  0.3253E+01
     -0.045  0.1347E+00  0.3264E+01
      0.036  0.1365E+00  0.3275E+01
      0.117  0.1317E+00  0.3285E+01
      0.198  0.1313E+00  0.3296E+01
      0.279  0.1300E+00  0.3307E+01
      0.359  0.1262E+00  0.3317E+01
      0.440  0.1289E+00  0.3327E+01
      0.521  0.1217E+00  0.3337E+01
      0.602  0.1276E+00  0.3347E+01
      0.683  0.1185E+00  0.3357E+01
      0.764  0.1253E+00  0.3367E+01
      0.845  0.1170E+00  0.3377E+01
      0.926  0.1220E+00  0.3386E+01
      1.007  0.1167E+00  0.3396E+01
      1.088  0.1181E+00  0.3405E+01
      1.169  0.1173E+00  0.3415E+01
      1.250  0.1205E+00  0.3425E+01
      1.331  0.1817E+00  0.3439E+01
      1.412  0.3534E+00  0.3468E+01
      1.493  0.5216E+00  0.3510E+01
      1.573  0.5775E+00  0.3557E+01
      1.654  0.6976E+00  0.3613E+01
      1.735  0.8629E+00  0.3683E+01
      1.816  0.8519E+00  0.3752E+01
      1.897  0.9094E+00  0.3826E+01
      1.978  0.1312E+01  0.3932E+01
      2.059  0.1532E+01  0.4056E+01
      2.140  0.1305E+01  0.4162E+01
      2.221  0.1114E+01  0.4252E+01
      2.302  0.1012E+01  0.4334E+01
      2.383  0.9658E+00  0.4412E+01
      2.464  0.9367E+00  0.4488E+01
      2.545  0.9226E+00  0.4562E+01
      2.626  0.9348E+00  0.4638E+01
      2.706  0.9556E+00  0.4715E+01
      2.787  0.1055E+01  0.4801E+01
      2.868  0.1397E+01  0.4914E+01
      2.949  0.2219E+01  0.5093E+01
      3.030  0.2544E+01  0.5299E+01
      3.111  0.1887E+01  0.5452E+01
      3.192  0.1350E+01  0.5561E+01
      3.273  0.1129E+01  0.5653E+01
      3.354  0.1005E+01  0.5734E+01
      3.435  0.8495E+00  0.5803E+01
      3.516  0.7082E+00  0.5860E+01
      3.597  0.6410E+00  0.5912E+01
      3.678  0.6241E+00  0.5962E+01
      3.759  0.6054E+00  0.6011E+01
      3.840  0.6030E+00  0.6060E+01
      3.920  0.5917E+00  0.6108E+01
      4.001  0.5915E+00  0.6156E+01
      4.082  0.5940E+00  0.6204E+01
      4.163  0.5923E+00  0.6252E+01
      4.244  0.6109E+00  0.6301E+01
      4.325  0.6198E+00  0.6352E+01
      4.406  0.6618E+00  0.6405E+01
      4.487  0.7810E+00  0.6468E+01
      4.568  0.1172E+01  0.6563E+01
      4.649  0.1616E+01  0.6694E+01
      4.730  0.1444E+01  0.6811E+01
      4.811  0.1096E+01  0.6900E+01
      4.892  0.9241E+00  0.6974E+01
      4.973  0.8559E+00  0.7044E+01
      5.054  0.8215E+00  0.7110E+01
      5.134  0.7993E+00  0.7175E+01
      5.215  0.7985E+00  0.7239E+01
      5.296  0.8018E+00  0.7304E+01
      5.377  0.8260E+00  0.7371E+01
      5.458  0.8648E+00  0.7441E+01
      5.539  0.9393E+00  0.7517E+01
      5.620  0.1089E+01  0.7605E+01
      5.701  0.1433E+01  0.7721E+01
      5.782  0.1785E+01  0.7866E+01
      5.863  0.1267E+01  0.7968E+01
      5.944  0.3569E+00  0.7997E+01
      6.025  0.3406E-01  0.8000E+01
      6.106  0.1033E-02  0.8000E+01
      6.187  0.1161E-02  0.8000E+01
      6.268  0.2560E-01  0.8002E+01
      6.348  0.1917E+00  0.8018E+01
      6.429  0.6314E+00  0.8069E+01
      6.510  0.1391E+01  0.8181E+01
      6.591  0.2042E+01  0.8347E+01
      6.672  0.1823E+01  0.8494E+01
      6.753  0.1369E+01  0.8605E+01
      6.834  0.1125E+01  0.8696E+01
      6.915  0.9934E+00  0.8776E+01
      6.996  0.8880E+00  0.8848E+01
      7.077  0.7479E+00  0.8909E+01
      7.158  0.6206E+00  0.8959E+01
      7.239  0.6023E+00  0.9008E+01
      7.320  0.7901E+00  0.9072E+01
      7.401  0.1071E+01  0.9158E+01
      7.482  0.1057E+01  0.9244E+01
      7.562  0.9005E+00  0.9317E+01
      7.643  0.8092E+00  0.9382E+01
      7.724  0.7622E+00  0.9444E+01
      7.805  0.7338E+00  0.9503E+01
      7.886  0.7161E+00  0.9561E+01
      7.967  0.7065E+00  0.9619E+01
      8.048  0.7049E+00  0.9676E+01
      8.129  0.7125E+00  0.9733E+01
      8.210  0.7481E+00  0.9794E+01
      8.291  0.9738E+00  0.9873E+01
      8.372  0.1746E+01  0.1001E+02
      8.453  0.2392E+01  0.1021E+02
      8.534  0.1999E+01  0.1037E+02
      8.615  0.1517E+01  0.1049E+02
      8.696  0.1390E+01  0.1060E+02
      8.776  0.1434E+01  0.1072E+02
      8.857  0.1606E+01  0.1085E+02
      8.938  0.1775E+01  0.1099E+02
      9.019  0.1744E+01  0.1114E+02
      9.100  0.1909E+01  0.1129E+02
      9.181  0.2623E+01  0.1150E+02
      9.262  0.2984E+01  0.1174E+02
      9.343  0.2646E+01  0.1196E+02
      9.424  0.1869E+01  0.1211E+02
      9.505  0.1171E+01  0.1220E+02
      9.586  0.9396E+00  0.1228E+02
      9.667  0.8969E+00  0.1235E+02
      9.748  0.8764E+00  0.1242E+02
      9.829  0.8758E+00  0.1249E+02
      9.910  0.9032E+00  0.1257E+02
      9.990  0.9577E+00  0.1265E+02
     10.071  0.1001E+01  0.1273E+02
     10.152  0.9263E+00  0.1280E+02
     10.233  0.7004E+00  0.1286E+02
     10.314  0.4963E+00  0.1290E+02
     10.395  0.3387E+00  0.1293E+02
     10.476  0.3209E+00  0.1295E+02
     10.557  0.3235E+00  0.1298E+02
     10.638  0.3464E+00  0.1301E+02
     10.719  0.4280E+00  0.1304E+02
     10.800  0.6555E+00  0.1309E+02
     10.881  0.7972E+00  0.1316E+02
     10.962  0.7189E+00  0.1322E+02
     11.043  0.6199E+00  0.1327E+02
     11.124  0.5985E+00  0.1331E+02
     11.204  0.6044E+00  0.1336E+02
     11.285  0.6018E+00  0.1341E+02
     11.366  0.6299E+00  0.1346E+02
     11.447  0.7671E+00  0.1353E+02
     11.528  0.8492E+00  0.1359E+02
     11.609  0.7308E+00  0.1365E+02
     11.690  0.6384E+00  0.1370E+02
     11.771  0.6071E+00  0.1375E+02
     11.852  0.6005E+00  0.1380E+02
     11.933  0.5942E+00  0.1385E+02
     12.014  0.5868E+00  0.1390E+02
     12.095  0.5240E+00  0.1394E+02
     12.176  0.4743E+00  0.1398E+02
     12.257  0.4761E+00  0.1402E+02
     12.338  0.4536E+00  0.1405E+02
     12.418  0.4672E+00  0.1409E+02
     12.499  0.4482E+00  0.1413E+02
     12.580  0.4496E+00  0.1416E+02
     12.661  0.4393E+00  0.1420E+02
     12.742  0.4158E+00  0.1423E+02
     12.823  0.4317E+00  0.1427E+02
     12.904  0.4174E+00  0.1430E+02
     12.985  0.3948E+00  0.1433E+02
     13.066  0.3461E+00  0.1436E+02
     13.147  0.3540E+00  0.1439E+02
     13.228  0.3545E+00  0.1442E+02
     13.309  0.4106E+00  0.1445E+02
     13.390  0.4462E+00  0.1449E+02
     13.471  0.5460E+00  0.1453E+02
     13.552  0.8632E+00  0.1460E+02
     13.632  0.1081E+01  0.1469E+02
     13.713  0.9928E+00  0.1477E+02
     13.794  0.7716E+00  0.1483E+02
     13.875  0.7094E+00  0.1489E+02
     13.956  0.6801E+00  0.1495E+02
     14.037  0.5126E+00  0.1499E+02
     14.118  0.4056E+00  0.1502E+02
     14.199  0.3649E+00  0.1505E+02
     14.280  0.3703E+00  0.1508E+02
     14.361  0.3573E+00  0.1511E+02
     14.442  0.3543E+00  0.1514E+02
     14.523  0.3845E+00  0.1517E+02
     14.604  0.3783E+00  0.1520E+02
     14.685  0.3952E+00  0.1523E+02
     14.766  0.3895E+00  0.1526E+02
     14.846  0.3951E+00  0.1529E+02
     14.927  0.3923E+00  0.1533E+02
     15.008  0.3984E+00  0.1536E+02
     15.089  0.4533E+00  0.1540E+02
     15.170  0.4538E+00  0.1543E+02
     15.251  0.4385E+00  0.1547E+02
     15.332  0.4544E+00  0.1550E+02
     15.413  0.5134E+00  0.1555E+02
     15.494  0.5345E+00  0.1559E+02
     15.575  0.5374E+00  0.1563E+02
     15.656  0.5877E+00  0.1568E+02
     15.737  0.6861E+00  0.1574E+02
     15.818  0.9255E+00  0.1581E+02
     15.899  0.1179E+01  0.1591E+02
     15.980  0.8741E+00  0.1598E+02
     16.060  0.2601E+00  0.1600E+02
     16.141  0.2650E-01  0.1600E+02
     16.222  0.8541E-03  0.1600E+02
     16.303  0.8301E-05  0.1600E+02
     16.384  0.2356E-07  0.1600E+02
     16.465  0.1913E-10  0.1600E+02
     16.546  0.4362E-14  0.1600E+02
     16.627  0.0000E+00  0.1600E+02
     16.708  0.0000E+00  0.1600E+02
     16.789  0.0000E+00  0.1600E+02
     16.870  0.0000E+00  0.1600E+02
     16.951  0.0000E+00  0.1600E+02
     17.032  0.0000E+00  0.1600E+02
     17.03169055     -7.24829456  301      6.10124227      1.00000000
     -7.248  0.0000E+00  0.0000E+00  0.0000E+00
     -7.167  0.0000E+00  0.0000E+00  0.0000E+00
     -7.086  0.0000E+00  0.0000E+00  0.0000E+00
     -7.005  0.0000E+00  0.0000E+00  0.0000E+00
     -6.925  0.0000E+00  0.0000E+00  0.0000E+00
     -6.844  0.0000E+00  0.0000E+00  0.0000E+00
     -6.763  0.0000E+00  0.0000E+00  0.0000E+00
     -6.682  0.2055E-14  0.3832E-18  0.0000E+00
     -6.601  0.7921E-11  0.1734E-14  0.0000E+00
     -6.520  0.8572E-08  0.2265E-11  0.0000E+00
     -6.439  0.2640E-05  0.8703E-09  0.0000E+00
     -6.358  0.2366E-03  0.1017E-06  0.0000E+00
     -6.277  0.6382E-02  0.3810E-05  0.0000E+00
     -6.196  0.5461E-01  0.4959E-04  0.0000E+00
     -6.115  0.1619E+00  0.2550E-03  0.0000E+00
     -6.034  0.1995E+00  0.6329E-03  0.0000E+00
     -5.953  0.1514E+00  0.9936E-03  0.0000E+00
     -5.872  0.1136E+00  0.1262E-02  0.0000E+00
     -5.791  0.9507E-01  0.1474E-02  0.0000E+00
     -5.711  0.8400E-01  0.1656E-02  0.0000E+00
     -5.630  0.7626E-01  0.1818E-02  0.0000E+00
     -5.549  0.7043E-01  0.1965E-02  0.0000E+00
     -5.468  0.6584E-01  0.2101E-02  0.0000E+00
     -5.387  0.6210E-01  0.2228E-02  0.0000E+00
     -5.306  0.5900E-01  0.2348E-02  0.0000E+00
     -5.225  0.5638E-01  0.2461E-02  0.0000E+00
     -5.144  0.5415E-01  0.2569E-02  0.0000E+00
     -5.063  0.5222E-01  0.2672E-02  0.0000E+00
     -4.982  0.5056E-01  0.2771E-02  0.0000E+00
     -4.901  0.4913E-01  0.2868E-02  0.0000E+00
     -4.820  0.4788E-01  0.2961E-02  0.0000E+00
     -4.739  0.4682E-01  0.3052E-02  0.0000E+00
     -4.658  0.4592E-01  0.3142E-02  0.0000E+00
     -4.577  0.4519E-01  0.3232E-02  0.0000E+00
     -4.497  0.4462E-01  0.3322E-02  0.0000E+00
     -4.416  0.4424E-01  0.3414E-02  0.0000E+00
     -4.335  0.4407E-01  0.3509E-02  0.0000E+00
     -4.254  0.4418E-01  0.3613E-02  0.0000E+00
     -4.173  0.4466E-01  0.3732E-02  0.0000E+00
     -4.092  0.4576E-01  0.3877E-02  0.0000E+00
     -4.011  0.4842E-01  0.4106E-02  0.0000E+00
     -3.930  0.5947E-01  0.4834E-02  0.0000E+00
     -3.849  0.9871E-01  0.7290E-02  0.0000E+00
     -3.768  0.1425E+00  0.1013E-01  0.0000E+00
     -3.687  0.1267E+00  0.9463E-02  0.0000E+00
     -3.606  0.9169E-01  0.7615E-02  0.0000E+00
     -3.525  0.7466E-01  0.6815E-02  0.0000E+00
     -3.444  0.6673E-01  0.6541E-02  0.0000E+00
     -3.363  0.6173E-01  0.6420E-02  0.0000E+00
     -3.283  0.5831E-01  0.6399E-02  0.0000E+00
     -3.202  0.5562E-01  0.6404E-02  0.0000E+00
     -3.121  0.5365E-01  0.6457E-02  0.0000E+00
     -3.040  0.5210E-01  0.6539E-02  0.0000E+00
     -2.959  0.5081E-01  0.6625E-02  0.0000E+00
     -2.878  0.5005E-01  0.6778E-02  0.0000E+00
     -2.797  0.4927E-01  0.6902E-02  0.0000E+00
     -2.716  0.4913E-01  0.7125E-02  0.0000E+00
     -2.635  0.4896E-01  0.7330E-02  0.0000E+00
     -2.554  0.5020E-01  0.7762E-02  0.0000E+00
     -2.473  0.5759E-01  0.9166E-02  0.0000E+00
     -2.392  0.7823E-01  0.1271E-01  0.0000E+00
     -2.311  0.9971E-01  0.1666E-01  0.0000E+00
     -2.230  0.1171E+00  0.2054E-01  0.0000E+00
     -2.149  0.1597E+00  0.3068E-01  0.0000E+00
     -2.069  0.3299E+00  0.7121E-01  0.0000E+00
     -1.988  0.6727E+00  0.1526E+00  0.0000E+00
     -1.907  0.8240E+00  0.1868E+00  0.0000E+00
     -1.826  0.6447E+00  0.1436E+00  0.0000E+00
     -1.745  0.3345E+00  0.7534E-01  0.0000E+00
     -1.664  0.1429E+00  0.3489E-01  0.0000E+00
     -1.583  0.9716E-01  0.2559E-01  0.0000E+00
     -1.502  0.8911E-01  0.2433E-01  0.0000E+00
     -1.421  0.8103E-01  0.2272E-01  0.0000E+00
     -1.340  0.6600E-01  0.1908E-01  0.0000E+00
     -1.259  0.5841E-01  0.2092E-01  0.0000E+00
     -1.178  0.8555E-01  0.4777E-01  0.0000E+00
     -1.097  0.1341E+00  0.8896E-01  0.0000E+00
     -1.016  0.1554E+00  0.9923E-01  0.0000E+00
     -0.935  0.1262E+00  0.7448E-01  0.0000E+00
     -0.855  0.6411E-01  0.3561E-01  0.0000E+00
     -0.774  0.3123E-01  0.1629E-01  0.0000E+00
     -0.693  0.2505E-01  0.1284E-01  0.0000E+00
     -0.612  0.2426E-01  0.1239E-01  0.0000E+00
     -0.531  0.2310E-01  0.1197E-01  0.0000E+00
     -0.450  0.2300E-01  0.1192E-01  0.0000E+00
     -0.369  0.2177E-01  0.1152E-01  0.0000E+00
     -0.288  0.2200E-01  0.1165E-01  0.0000E+00
     -0.207  0.2073E-01  0.1124E-01  0.0000E+00
     -0.126  0.2109E-01  0.1148E-01  0.0000E+00
     -0.045  0.1992E-01  0.1110E-01  0.0000E+00
      0.036  0.2020E-01  0.1134E-01  0.0000E+00
      0.117  0.1934E-01  0.1109E-01  0.0000E+00
      0.198  0.1926E-01  0.1117E-01  0.0000E+00
      0.279  0.1895E-01  0.1118E-01  0.0000E+00
      0.359  0.1830E-01  0.1099E-01  0.0000E+00
      0.440  0.1866E-01  0.1133E-01  0.0000E+00
      0.521  0.1744E-01  0.1086E-01  0.0000E+00
      0.602  0.1829E-01  0.1147E-01  0.0000E+00
      0.683  0.1680E-01  0.1082E-01  0.0000E+00
      0.764  0.1776E-01  0.1153E-01  0.0000E+00
      0.845  0.1641E-01  0.1091E-01  0.0000E+00
      0.926  0.1705E-01  0.1151E-01  0.0000E+00
      1.007  0.1622E-01  0.1111E-01  0.0000E+00
      1.088  0.1626E-01  0.1141E-01  0.0000E+00
      1.169  0.1611E-01  0.1142E-01  0.0000E+00
      1.250  0.1553E-01  0.1224E-01  0.0000E+00
      1.331  0.1610E-01  0.2153E-01  0.0000E+00
      1.412  0.1564E-01  0.4836E-01  0.0000E+00
      1.493  0.1666E-01  0.7427E-01  0.0000E+00
      1.573  0.1599E-01  0.8382E-01  0.0000E+00
      1.654  0.1727E-01  0.1029E+00  0.0000E+00
      1.735  0.1860E-01  0.1292E+00  0.0000E+00
      1.816  0.1872E-01  0.1282E+00  0.0000E+00
      1.897  0.1886E-01  0.1386E+00  0.0000E+00
      1.978  0.1783E-01  0.2054E+00  0.0000E+00
      2.059  0.1904E-01  0.2421E+00  0.0000E+00
      2.140  0.1799E-01  0.2073E+00  0.0000E+00
      2.221  0.1907E-01  0.1775E+00  0.0000E+00
      2.302  0.1818E-01  0.1628E+00  0.0000E+00
      2.383  0.1845E-01  0.1567E+00  0.0000E+00
      2.464  0.1832E-01  0.1538E+00  0.0000E+00
      2.545  0.1755E-01  0.1537E+00  0.0000E+00
      2.626  0.1818E-01  0.1578E+00  0.0000E+00
      2.706  0.1671E-01  0.1648E+00  0.0000E+00
      2.787  0.1747E-01  0.1860E+00  0.0000E+00
      2.868  0.1600E-01  0.2569E+00  0.0000E+00
      2.949  0.1602E-01  0.4225E+00  0.0000E+00
      3.030  0.1515E-01  0.4898E+00  0.0000E+00
      3.111  0.1463E-01  0.3614E+00  0.0000E+00
      3.192  0.1468E-01  0.2555E+00  0.0000E+00
      3.273  0.1400E-01  0.2127E+00  0.0000E+00
      3.354  0.1415E-01  0.1886E+00  0.0000E+00
      3.435  0.1352E-01  0.1583E+00  0.0000E+00
      3.516  0.1358E-01  0.1303E+00  0.0000E+00
      3.597  0.1291E-01  0.1178E+00  0.0000E+00
      3.678  0.1314E-01  0.1147E+00  0.0000E+00
      3.759  0.1221E-01  0.1120E+00  0.0000E+00
      3.840  0.1258E-01  0.1118E+00  0.0000E+00
      3.920  0.1172E-01  0.1105E+00  0.0000E+00
      4.001  0.1165E-01  0.1111E+00  0.0000E+00
      4.082  0.1145E-01  0.1123E+00  0.0000E+00
      4.163  0.1061E-01  0.1131E+00  0.0000E+00
      4.244  0.1094E-01  0.1174E+00  0.0000E+00
      4.325  0.9864E-02  0.1207E+00  0.0000E+00
      4.406  0.9904E-02  0.1304E+00  0.0000E+00
      4.487  0.9302E-02  0.1575E+00  0.0000E+00
      4.568  0.8544E-02  0.2443E+00  0.0000E+00
      4.649  0.8338E-02  0.3420E+00  0.0000E+00
      4.730  0.7440E-02  0.3053E+00  0.0000E+00
      4.811  0.7424E-02  0.2288E+00  0.0000E+00
      4.892  0.7006E-02  0.1916E+00  0.0000E+00
      4.973  0.6630E-02  0.1771E+00  0.0000E+00
      5.054  0.6510E-02  0.1697E+00  0.0000E+00
      5.134  0.5923E-02  0.1655E+00  0.0000E+00
      5.215  0.5797E-02  0.1656E+00  0.0000E+00
      5.296  0.5238E-02  0.1670E+00  0.0000E+00
      5.377  0.4938E-02  0.1727E+00  0.0000E+00
      5.458  0.4418E-02  0.1819E+00  0.0000E+00
      5.539  0.3938E-02  0.1987E+00  0.0000E+00
      5.620  0.3319E-02  0.2320E+00  0.0000E+00
      5.701  0.2549E-02  0.3077E+00  0.0000E+00
      5.782  0.1518E-02  0.3853E+00  0.0000E+00
      5.863  0.5423E-03  0.2739E+00  0.0000E+00
      5.944  0.8936E-04  0.7725E-01  0.0000E+00
      6.025  0.5655E-05  0.7375E-02  0.0000E+00
      6.106  0.9682E-06  0.2210E-03  0.0000E+00
      6.187  0.6131E-04  0.5232E-04  0.0000E+00
      6.268  0.1360E-02  0.1119E-02  0.0000E+00
      6.348  0.1016E-01  0.8328E-02  0.0000E+00
      6.429  0.3317E-01  0.2643E-01  0.0000E+00
      6.510  0.7221E-01  0.5443E-01  0.0000E+00
      6.591  0.1052E+00  0.7782E-01  0.0000E+00
      6.672  0.9313E-01  0.7121E-01  0.0000E+00
      6.753  0.6909E-01  0.5635E-01  0.0000E+00
      6.834  0.5608E-01  0.4871E-01  0.0000E+00
      6.915  0.4893E-01  0.4489E-01  0.0000E+00
      6.996  0.4318E-01  0.4182E-01  0.0000E+00
      7.077  0.3560E-01  0.3709E-01  0.0000E+00
      7.158  0.2898E-01  0.3266E-01  0.0000E+00
      7.239  0.3318E-01  0.3179E-01  0.0000E+00
      7.320  0.7103E-01  0.3582E-01  0.0000E+00
      7.401  0.1245E+00  0.4245E-01  0.0000E+00
      7.482  0.1223E+00  0.4392E-01  0.0000E+00
      7.562  0.9338E-01  0.4254E-01  0.0000E+00
      7.643  0.7645E-01  0.4226E-01  0.0000E+00
      7.724  0.6758E-01  0.4283E-01  0.0000E+00
      7.805  0.6183E-01  0.4386E-01  0.0000E+00
      7.886  0.5767E-01  0.4527E-01  0.0000E+00
      7.967  0.5452E-01  0.4713E-01  0.0000E+00
      8.048  0.5210E-01  0.4961E-01  0.0000E+00
      8.129  0.5021E-01  0.5308E-01  0.0000E+00
      8.210  0.4883E-01  0.6038E-01  0.0000E+00
      8.291  0.4806E-01  0.9624E-01  0.0000E+00
      8.372  0.4801E-01  0.2149E+00  0.0000E+00
      8.453  0.4557E-01  0.3159E+00  0.0000E+00
      8.534  0.3878E-01  0.2611E+00  0.0000E+00
      8.615  0.3760E-01  0.1895E+00  0.0000E+00
      8.696  0.4518E-01  0.1671E+00  0.0000E+00
      8.776  0.5856E-01  0.1664E+00  0.0000E+00
      8.857  0.6955E-01  0.1784E+00  0.0000E+00
      8.938  0.5704E-01  0.1885E+00  0.0000E+00
      9.019  0.3538E-01  0.1824E+00  0.0000E+00
      9.100  0.5093E-01  0.1938E+00  0.0000E+00
      9.181  0.1199E+00  0.2484E+00  0.0000E+00
      9.262  0.1541E+00  0.2841E+00  0.0000E+00
      9.343  0.1189E+00  0.2697E+00  0.0000E+00
      9.424  0.8789E-01  0.1922E+00  0.0000E+00
      9.505  0.7351E-01  0.1122E+00  0.0000E+00
      9.586  0.6563E-01  0.8669E-01  0.0000E+00
      9.667  0.6003E-01  0.8398E-01  0.0000E+00
      9.748  0.5655E-01  0.8293E-01  0.0000E+00
      9.829  0.5325E-01  0.8404E-01  0.0000E+00
      9.910  0.5252E-01  0.8672E-01  0.0000E+00
      9.990  0.5047E-01  0.9230E-01  0.0000E+00
     10.071  0.5059E-01  0.9624E-01  0.0000E+00
     10.152  0.5389E-01  0.9015E-01  0.0000E+00
     10.233  0.5417E-01  0.7039E-01  0.0000E+00
     10.314  0.4141E-01  0.5416E-01  0.0000E+00
     10.395  0.2206E-01  0.4118E-01  0.0000E+00
     10.476  0.1867E-01  0.4064E-01  0.0000E+00
     10.557  0.1713E-01  0.4033E-01  0.0000E+00
     10.638  0.1792E-01  0.4325E-01  0.0000E+00
     10.719  0.2406E-01  0.5130E-01  0.0000E+00
     10.800  0.3536E-01  0.7490E-01  0.0000E+00
     10.881  0.4334E-01  0.8881E-01  0.0000E+00
     10.962  0.3631E-01  0.8141E-01  0.0000E+00
     11.043  0.3169E-01  0.7135E-01  0.0000E+00
     11.124  0.2834E-01  0.6938E-01  0.0000E+00
     11.204  0.2834E-01  0.6965E-01  0.0000E+00
     11.285  0.2800E-01  0.6973E-01  0.0000E+00
     11.366  0.3083E-01  0.7282E-01  0.0000E+00
     11.447  0.3920E-01  0.8533E-01  0.0000E+00
     11.528  0.4199E-01  0.9284E-01  0.0000E+00
     11.609  0.3428E-01  0.8118E-01  0.0000E+00
     11.690  0.2596E-01  0.7308E-01  0.0000E+00
     11.771  0.2358E-01  0.6917E-01  0.0000E+00
     11.852  0.2145E-01  0.6908E-01  0.0000E+00
     11.933  0.2065E-01  0.6738E-01  0.0000E+00
     12.014  0.1933E-01  0.6679E-01  0.0000E+00
     12.095  0.1821E-01  0.6272E-01  0.0000E+00
     12.176  0.1752E-01  0.5896E-01  0.0000E+00
     12.257  0.1675E-01  0.6033E-01  0.0000E+00
     12.338  0.1651E-01  0.5742E-01  0.0000E+00
     12.418  0.1564E-01  0.5993E-01  0.0000E+00
     12.499  0.1557E-01  0.5751E-01  0.0000E+00
     12.580  0.1436E-01  0.5889E-01  0.0000E+00
     12.661  0.1417E-01  0.5802E-01  0.0000E+00
     12.742  0.1360E-01  0.5520E-01  0.0000E+00
     12.823  0.1501E-01  0.5817E-01  0.0000E+00
     12.904  0.1378E-01  0.5628E-01  0.0000E+00
     12.985  0.1140E-01  0.5317E-01  0.0000E+00
     13.066  0.9412E-02  0.4546E-01  0.0000E+00
     13.147  0.8606E-02  0.4660E-01  0.0000E+00
     13.228  0.7837E-02  0.4608E-01  0.0000E+00
     13.309  0.7437E-02  0.5401E-01  0.0000E+00
     13.390  0.6915E-02  0.5774E-01  0.0000E+00
     13.471  0.7139E-02  0.6045E-01  0.0000E+00
     13.552  0.8292E-02  0.7910E-01  0.0000E+00
     13.632  0.9687E-02  0.9639E-01  0.0000E+00
     13.713  0.8607E-02  0.9934E-01  0.0000E+00
     13.794  0.7084E-02  0.8574E-01  0.0000E+00
     13.875  0.6906E-02  0.8515E-01  0.0000E+00
     13.956  0.6353E-02  0.8610E-01  0.0000E+00
     14.037  0.5744E-02  0.6748E-01  0.0000E+00
     14.118  0.5062E-02  0.5603E-01  0.0000E+00
     14.199  0.4820E-02  0.5082E-01  0.0000E+00
     14.280  0.4793E-02  0.5207E-01  0.0000E+00
     14.361  0.4742E-02  0.5059E-01  0.0000E+00
     14.442  0.5440E-02  0.5022E-01  0.0000E+00
     14.523  0.6857E-02  0.5462E-01  0.0000E+00
     14.604  0.7437E-02  0.5407E-01  0.0000E+00
     14.685  0.7235E-02  0.5819E-01  0.0000E+00
     14.766  0.6726E-02  0.5993E-01  0.0000E+00
     14.846  0.5755E-02  0.6462E-01  0.0000E+00
     14.927  0.4743E-02  0.6532E-01  0.0000E+00
     15.008  0.4409E-02  0.6618E-01  0.0000E+00
     15.089  0.4885E-02  0.7791E-01  0.0000E+00
     15.170  0.5059E-02  0.8185E-01  0.0000E+00
     15.251  0.4783E-02  0.8097E-01  0.0000E+00
     15.332  0.5631E-02  0.8514E-01  0.0000E+00
     15.413  0.6145E-02  0.9978E-01  0.0000E+00
     15.494  0.4997E-02  0.1079E+00  0.0000E+00
     15.575  0.3760E-02  0.1122E+00  0.0000E+00
     15.656  0.3195E-02  0.1262E+00  0.0000E+00
     15.737  0.2752E-02  0.1523E+00  0.0000E+00
     15.818  0.2257E-02  0.2125E+00  0.0000E+00
     15.899  0.1379E-02  0.2771E+00  0.0000E+00
     15.980  0.4940E-03  0.2073E+00  0.0000E+00
     16.060  0.8300E-04  0.6192E-01  0.0000E+00
     16.141  0.5478E-05  0.6314E-02  0.0000E+00
     16.222  0.1267E-06  0.2036E-03  0.0000E+00
     16.303  0.9499E-09  0.1977E-05  0.0000E+00
     16.384  0.2184E-11  0.5602E-08  0.0000E+00
     16.465  0.1484E-14  0.4541E-11  0.0000E+00
     16.546  0.2624E-18  0.1034E-14  0.0000E+00
     16.627  0.0000E+00  0.0000E+00  0.0000E+00
     16.708  0.0000E+00  0.0000E+00  0.0000E+00
     16.789  0.0000E+00  0.0000E+00  0.0000E+00
     16.870  0.0000E+00  0.0000E+00  0.0000E+00
     16.951  0.0000E+00  0.0000E+00  0.0000E+00
     17.032  0.0000E+00  0.0000E+00  0.0000E+00
     17.03169055     -7.24829456  301      6.10124227      1.00000000
     -7.248  0.0000E+00  0.0000E+00  0.0000E+00
     -7.167  0.0000E+00  0.0000E+00  0.0000E+00
     -7.086  0.0000E+00  0.0000E+00  0.0000E+00
     -7.005  0.0000E+00  0.0000E+00  0.0000E+00
     -6.925  0.0000E+00  0.0000E+00  0.0000E+00
     -6.844  0.0000E+00  0.0000E+00  0.0000E+00
     -6.763  0.0000E+00  0.0000E+00  0.0000E+00
     -6.682  0.2055E-14  0.3832E-18  0.0000E+00
     -6.601  0.7921E-11  0.1734E-14  0.0000E+00
     -6.520  0.8572E-08  0.2265E-11  0.0000E+00
     -6.439  0.2640E-05  0.8703E-09  0.0000E+00
     -6.358  0.2366E-03  0.1017E-06  0.0000E+00
     -6.277  0.6382E-02  0.3810E-05  0.0000E+00
     -6.196  0.5461E-01  0.4959E-04  0.0000E+00
     -6.115  0.1619E+00  0.2550E-03  0.0000E+00
     -6.034  0.1995E+00  0.6329E-03  0.0000E+00
     -5.953  0.1514E+00  0.9936E-03  0.0000E+00
     -5.872  0.1136E+00  0.1262E-02  0.0000E+00
     -5.791  0.9507E-01  0.1474E-02  0.0000E+00
     -5.711  0.8400E-01  0.1656E-02  0.0000E+00
     -5.630  0.7626E-01  0.1818E-02  0.0000E+00
     -5.549  0.7043E-01  0.1965E-02  0.0000E+00
     -5.468  0.6584E-01  0.2101E-02  0.0000E+00
     -5.387  0.6210E-01  0.2228E-02  0.0000E+00
     -5.306  0.5900E-01  0.2348E-02  0.0000E+00
     -5.225  0.5638E-01  0.2461E-02  0.0000E+00
     -5.144  0.5415E-01  0.2569E-02  0.0000E+00
     -5.063  0.5222E-01  0.2672E-02  0.0000E+00
     -4.982  0.5056E-01  0.2771E-02  0.0000E+00
     -4.901  0.4913E-01  0.2868E-02  0.0000E+00
     -4.820  0.4788E-01  0.2961E-02  0.0000E+00
     -4.739  0.4682E-01  0.3052E-02  0.0000E+00
     -4.658  0.4592E-01  0.3142E-02  0.0000E+00
     -4.577  0.4519E-01  0.3232E-02  0.0000E+00
     -4.497  0.4462E-01  0.3322E-02  0.0000E+00
     -4.416  0.4424E-01  0.3414E-02  0.0000E+00
     -4.335  0.4407E-01  0.3509E-02  0.0000E+00
     -4.254  0.4418E-01  0.3613E-02  0.0000E+00
     -4.173  0.4466E-01  0.3732E-02  0.0000E+00
     -4.092  0.4576E-01  0.3877E-02  0.0000E+00
     -4.011  0.4842E-01  0.4106E-02  0.0000E+00
     -3.930  0.5947E-01  0.4834E-02  0.0000E+00
     -3.849  0.9871E-01  0.7290E-02  0.0000E+00
     -3.768  0.1425E+00  0.1013E-01  0.0000E+00
     -3.687  0.1267E+00  0.9463E-02  0.0000E+00
     -3.606  0.9169E-01  0.7615E-02  0.0000E+00
     -3.525  0.7466E-01  0.6815E-02  0.0000E+00
     -3.444  0.6673E-01  0.6541E-02  0.0000E+00
     -3.363  0.6173E-01  0.6420E-02  0.0000E+00
     -3.283  0.5831E-01  0.6399E-02  0.0000E+00
     -3.202  0.5562E-01  0.6404E-02  0.0000E+00
     -3.121  0.5365E-01  0.6457E-02  0.0000E+00
     -3.040  0.5210E-01  0.6539E-02  0.0000E+00
     -2.959  0.5081E-01  0.6625E-02  0.0000E+00
     -2.878  0.5005E-01  0.6778E-02  0.0000E+00
     -2.797  0.4927E-01  0.6902E-02  0.0000E+00
     -2.716  0.4913E-01  0.7125E-02  0.0000E+00
     -2.635  0.4896E-01  0.7330E-02  0.0000E+00
     -2.554  0.5020E-01  0.7762E-02  0.0000E+00
     -2.473  0.5759E-01  0.9166E-02  0.0000E+00
     -2.392  0.7823E-01  0.1271E-01  0.0000E+00
     -2.311  0.9971E-01  0.1666E-01  0.0000E+00
     -2.230  0.1171E+00  0.2054E-01  0.0000E+00
     -2.149  0.1597E+00  0.3068E-01  0.0000E+00
     -2.069  0.3299E+00  0.7121E-01  0.0000E+00
     -1.988  0.6727E+00  0.1526E+00  0.0000E+00
     -1.907  0.8240E+00  0.1868E+00  0.0000E+00
     -1.826  0.6447E+00  0.1436E+00  0.0000E+00
     -1.745  0.3345E+00  0.7534E-01  0.0000E+00
     -1.664  0.1429E+00  0.3489E-01  0.0000E+00
     -1.583  0.9716E-01  0.2559E-01  0.0000E+00
     -1.502  0.8911E-01  0.2433E-01  0.0000E+00
     -1.421  0.8103E-01  0.2272E-01  0.0000E+00
     -1.340  0.6600E-01  0.1908E-01  0.0000E+00
     -1.259  0.5841E-01  0.2092E-01  0.0000E+00
     -1.178  0.8555E-01  0.4777E-01  0.0000E+00
     -1.097  0.1341E+00  0.8896E-01  0.0000E+00
     -1.016  0.1554E+00  0.9923E-01  0.0000E+00
     -0.935  0.1262E+00  0.7448E-01  0.0000E+00
     -0.855  0.6411E-01  0.3561E-01  0.0000E+00
     -0.774  0.3123E-01  0.1629E-01  0.0000E+00
     -0.693  0.2505E-01  0.1284E-01  0.0000E+00
     -0.612  0.2426E-01  0.1239E-01  0.0000E+00
     -0.531  0.2310E-01  0.1197E-01  0.0000E+00
     -0.450  0.2300E-01  0.1192E-01  0.0000E+00
     -0.369  0.2177E-01  0.1152E-01  0.0000E+00
     -0.288  0.2200E-01  0.1165E-01  0.0000E+00
     -0.207  0.2073E-01  0.1124E-01  0.0000E+00
     -0.126  0.2109E-01  0.1148E-01  0.0000E+00
     -0.045  0.1992E-01  0.1110E-01  0.0000E+00