    2    2    1    1
  0.2001288E+02  0.3839590E-09  0.3839590E-09  0.3839590E-09  0.5000000E-15
  1.000000000000000E-004
  CAR 
 diamond Si                              
      8    300      8
 
  0.0000000E+00  0.0000000E+00  0.0000000E+00  0.3333333E-02
    1       -6.144659   1.000000
    2        5.795872   0.999992
    3        5.795873   0.999992
    4        5.795873   0.999992
    5        8.382276   0.000000
    6        8.382276   0.000000
    7        8.382276   0.000000
    8        9.167867   0.000000
 
  0.1020408E-01  0.0000000E+00  0.1020408E-01  0.3333333E-02
    1       -6.142843   1.000000
    2        5.783302   0.999997
    3        5.787997   0.999995
    4        5.787998   0.999995
    5        8.377686   0.000000
    6        8.392393   0.000000
    7        8.392394   0.000000
    8        9.180210   0.000000
 
  0.2040816E-01  0.0000000E+00  0.2040816E-01  0.3333333E-02
    1       -6.137380   1.000000
    2        5.746163   1.000000
    3        5.764749   0.999999
    4        5.764749   0.999999
    5        8.364009   0.000000
    6        8.422362   0.000000
    7        8.422362   0.000000
    8        9.216577   0.000000
 
  0.3061224E-01  0.0000000E+00  0.3061224E-01  0.3333333E-02
    1       -6.128274   1.000000
    2        5.686055   1.000000
    3        5.727190   1.000000
    4        5.727191   1.000000
    5        8.341522   0.000000
    6        8.471114   0.000000
    7        8.471114   0.000000
    8        9.275108   0.000000
 
  0.4081633E-01  0.0000000E+00  0.4081633E-01  0.3333333E-02
    1       -6.115527   1.000000
    2        5.605298   1.000000
    3        5.676880   1.000000
    4        5.676880   1.000000
    5        8.310674   0.000000
    6        8.537076   0.000000
    7        8.537076   0.000000
    8        9.353011   0.000000
 
  0.5102041E-01  0.0000000E+00  0.5102041E-01  0.3333333E-02
    1       -6.099136   1.000000
    2        5.506587   1.000000
    3        5.615646   1.000000
    4        5.615646   1.000000
    5        8.272048   0.000000
    6        8.618413   0.000000
    7        8.618413   0.000000
    8        9.446907   0.000000
 
  0.6122449E-01  0.0000000E+00  0.6122449E-01  0.3333333E-02
    1       -6.079106   1.000000
    2        5.392637   1.000000
    3        5.545366   1.000000
    4        5.545366   1.000000
    5        8.226338   0.000000
    6        8.713245   0.000000
    7        8.713245   0.000000
    8        9.553067   0.000000
 
  0.7142857E-01  0.0000000E+00  0.7142857E-01  0.3333333E-02
    1       -6.055439   1.000000
    2        5.265948   1.000000
    3        5.467814   1.000000
    4        5.467814   1.000000
    5        8.174292   0.000000
    6        8.819762   0.000000
    7        8.819762   0.000000
    8        9.667471   0.000000
 
  0.8163265E-01  0.0000000E+00  0.8163265E-01  0.3333333E-02
    1       -6.028148   1.000000
    2        5.128771   1.000000
    3        5.384595   1.000000
    4        5.384595   1.000000
    5        8.116696   0.000000
    6        8.936345   0.000000
    7        8.936345   0.000000
    8        9.785781   0.000000
 
  0.9183673E-01  0.0000000E+00  0.9183673E-01  0.3333333E-02
    1       -5.997250   1.000000
    2        4.982974   1.000000
    3        5.297088   1.000000
    4        5.297089   1.000000
    5        8.054351   0.000000
    6        9.061574   0.000000
    7        9.061574   0.000000
    8        9.903110   0.000000
 
  0.1020408E+00  0.0000000E+00  0.1020408E+00  0.3333333E-02
    1       -5.962741   1.000000
    2        4.830156   1.000000
    3        5.206489   1.000000
    4        5.206489   1.000000
    5        7.988039   0.000000
    6        9.194250   0.000000
    7        9.194251   0.000000
    8       10.013706   0.000000
 
  0.1122449E+00  0.0000000E+00  0.1122449E+00  0.3333333E-02
    1       -5.924626   1.000000
    2        4.671592   1.000000
    3        5.113777   1.000000
    4        5.113777   1.000000
    5        7.918508   0.000000
    6        9.333353   0.000000
    7        9.333353   0.000000
    8       10.110632   0.000000
 
  0.1224490E+00  0.0000000E+00  0.1224490E+00  0.3333333E-02
    1       -5.882907   1.000000
    2        4.508331   1.000000
    3        5.019776   1.000000
    4        5.019776   1.000000
    5        7.846464   0.000000
    6        9.478030   0.000000
    7        9.478030   0.000000
    8       10.185781   0.000000
 
  0.1326531E+00  0.0000000E+00  0.1326531E+00  0.3333333E-02
    1       -5.837610   1.000000
    2        4.341222   1.000000
    3        4.925161   1.000000
    4        4.925161   1.000000
    5        7.772561   0.000000
    6        9.627560   0.000000
    7        9.627560   0.000000
    8       10.230723   0.000000
 
  0.1428571E+00  0.0000000E+00  0.1428571E+00  0.3333333E-02
    1       -5.788737   1.000000
    2        4.170955   1.000000
    3        4.830503   1.000000
    4        4.830503   1.000000
    5        7.697405   0.000000
    6        9.781349   0.000000
    7        9.781349   0.000000
    8       10.238829   0.000000
 
  0.1530612E+00  0.0000000E+00  0.1530612E+00  0.3333333E-02
    1       -5.736304   1.000000
    2        3.998082   1.000000
    3        4.736271   1.000000
    4        4.736271   1.000000
    5        7.621529   0.000000
    6        9.938897   0.000000
    7        9.938897   0.000000
    8       10.207766   0.000000
 
  0.1632653E+00  0.0000000E+00  0.1632653E+00  0.3333333E-02
    1       -5.680317   1.000000
    2        3.823067   1.000000
    3        4.642860   1.000000
    4        4.642860   1.000000
    5        7.545468   0.000000
    6       10.099776   0.000000
    7       10.099776   0.000000
    8       10.140421   0.000000
 
  0.1734694E+00  0.0000000E+00  0.1734694E+00  0.3333333E-02
    1       -5.620796   1.000000
    2        3.646286   1.000000
    3        4.550599   1.000000
    4        4.550599   1.000000
    5        7.469657   0.000000
    6       10.043290   0.000000
    7       10.263624   0.000000
    8       10.263624   0.000000
 
  0.1836735E+00  0.0000000E+00  0.1836735E+00  0.3333333E-02
    1       -5.557766   1.000000
    2        3.468047   1.000000
    3        4.459769   1.000000
    4        4.459769   1.000000
    5        7.394502   0.000000
    6        9.923872   0.000000
    7       10.430131   0.000000
    8       10.430131   0.000000
 
  0.1938776E+00  0.0000000E+00  0.1938776E+00  0.3333333E-02
    1       -5.491228   1.000000
    2        3.288609   1.000000
    3        4.370605   1.000000
    4        4.370606   1.000000
    5        7.320361   0.000000
    6        9.788899   0.000000
    7       10.599029   0.000000
    8       10.599029   0.000000
 
  0.2040816E+00  0.0000000E+00  0.2040816E+00  0.3333333E-02
    1       -5.421205   1.000000
    2        3.108186   1.000000
    3        4.283307   1.000000
    4        4.283307   1.000000
    5        7.247583   0.000000
    6        9.643660   0.000000
    7       10.770095   0.000000
    8       10.770095   0.000000
 
  0.2142857E+00  0.0000000E+00  0.2142857E+00  0.3333333E-02
    1       -5.347712   1.000000
    2        2.926969   1.000000
    3        4.198053   1.000000
    4        4.198053   1.000000
    5        7.176458   0.000000
    6        9.492147   0.000000
    7       10.943128   0.000000
    8       10.943129   0.000000
 
  0.2244898E+00  0.0000000E+00  0.2244898E+00  0.3333333E-02
    1       -5.270769   1.000000
    2        2.745118   1.000000
    3        4.114994   1.000000
    4        4.114994   1.000000
    5        7.107256   0.000000
    6        9.337273   0.000000
    7       11.117958   0.000000
    8       11.117958   0.000000
 
  0.2346939E+00  0.0000000E+00  0.2346939E+00  0.3333333E-02
    1       -5.190396   1.000000
    2        2.562771   1.000000
    3        4.034261   1.000000
    4        4.034261   1.000000
    5        7.040217   0.000000
    6        9.181171   0.000000
    7       11.294436   0.000000
    8       11.294436   0.000000
 
  0.2448980E+00  0.0000000E+00  0.2448980E+00  0.3333333E-02
    1       -5.106616   1.000000
    2        2.380059   1.000000
    3        3.955968   1.000000
    4        3.955968   1.000000
    5        6.975562   0.000000
    6        9.025414   0.000000
    7       11.472434   0.000000
    8       11.472434   0.000000
 
  0.2551020E+00  0.0000000E+00  0.2551020E+00  0.3333333E-02
    1       -5.019453   1.000000
    2        2.197103   1.000000
    3        3.880215   1.000000
    4        3.880215   1.000000
    5        6.913490   0.000000
    6        8.871181   0.000000
    7       11.651835   0.000000
    8       11.651835   0.000000
 
  0.2653061E+00  0.0000000E+00  0.2653061E+00  0.3333333E-02
    1       -4.928949   1.000000
    2        2.013991   1.000000
    3        3.807085   1.000000
    4        3.807085   1.000000
    5        6.854167   0.000000
    6        8.719363   0.000000
    7       11.832542   0.000000
    8       11.832547   0.000000
 
  0.2755102E+00  0.0000000E+00  0.2755102E+00  0.3333333E-02
    1       -4.835111   1.000000
    2        1.830877   1.000000
    3        3.736667   1.000000
    4        3.736667   1.000000
    5        6.797791   0.000000
    6        8.570649   0.000000
    7       12.014490   0.000000
    8       12.014491   0.000000
 
  0.2857143E+00  0.0000000E+00  0.2857143E+00  0.3333333E-02
    1       -4.737969   1.000000
    2        1.647838   1.000000
    3        3.669024   1.000000
    4        3.669024   1.000000
    5        6.744497   0.000000
    6        8.425569   0.000000
    7       12.197602   0.000000
    8       12.197602   0.000000
 
  0.2959184E+00  0.0000000E+00  0.2959184E+00  0.3333333E-02
    1       -4.637552   1.000000
    2        1.464974   1.000000
    3        3.604218   1.000000
    4        3.604218   1.000000
    5        6.694424   0.000000
    6        8.284536   0.000000
    7       12.381836   0.000000
    8       12.381870   0.000000
 
  0.3061224E+00  0.0000000E+00  0.3061224E+00  0.3333333E-02
    1       -4.533892   1.000000
    2        1.282384   1.000000
    3        3.542305   1.000000
    4        3.542305   1.000000
    5        6.647703   0.000000
    6        8.147874   0.000000
    7       12.567086   0.000000
    8       12.567112   0.000000
 
  0.3163265E+00  0.0000000E+00  0.3163265E+00  0.3333333E-02
    1       -4.427020   1.000000
    2        1.100163   1.000000
    3        3.483332   1.000000
    4        3.483332   1.000000
    5        6.604454   0.000000
    6        8.015840   0.000000
    7       12.753359   0.000000
    8       12.753360   0.000000
 
  0.3265306E+00  0.0000000E+00  0.3265306E+00  0.3333333E-02
    1       -4.316972   1.000000
    2        0.918402   1.000000
    3        3.427344   1.000000
    4        3.427344   1.000000
    5        6.564788   0.000000
    6        7.888632   0.000000
    7       12.940600   0.000000
    8       12.940601   0.000000
 
  0.3367347E+00  0.0000000E+00  0.3367347E+00  0.3333333E-02
    1       -4.203785   1.000000
    2        0.737209   1.000000
    3        3.374380   1.000000
    4        3.374380   1.000000
    5        6.528811   0.000000
    6        7.766403   0.000000
    7       13.128768   0.000000
    8       13.128777   0.000000
 
  0.3469388E+00  0.0000000E+00  0.3469388E+00  0.3333333E-02
    1       -4.087504   1.000000
    2        0.556672   1.000000
    3        3.324474   1.000000
    4        3.324474   1.000000
    5        6.496614   0.000000
    6        7.649273   0.000000
    7       13.317808   0.000000
    8       13.317812   0.000000
 
  0.3571429E+00  0.0000000E+00  0.3571429E+00  0.3333333E-02
    1       -3.968170   1.000000
    2        0.376914   1.000000
    3        3.277660   1.000000
    4        3.277660   1.000000
    5        6.468304   0.000000
    6        7.537329   0.000000
    7       13.507703   0.000000
    8       13.507703   0.000000
 
  0.3673469E+00  0.0000000E+00  0.3673469E+00  0.3333333E-02
    1       -3.845818   1.000000
    2        0.198023   1.000000
    3        3.233965   1.000000
    4        3.233966   1.000000
    5        6.443962   0.000001
    6        7.430635   0.000000
    7       13.698382   0.000000
    8       13.698382   0.000000
 
  0.3775510E+00  0.0000000E+00  0.3775510E+00  0.3333333E-02
    1       -3.720493   1.000000
    2        0.020099   1.000000
    3        3.193416   1.000000
    4        3.193416   1.000000
    5        6.423673   0.000003
    6        7.329233   0.000000
    7       13.889775   0.000000
    8       13.889781   0.000000
 
  0.3877551E+00  0.0000000E+00  0.3877551E+00  0.3333333E-02
    1       -3.592241   1.000000
    2       -0.156758   1.000000
    3        3.156034   1.000000
    4        3.156034   1.000000
    5        6.407518   0.000007
    6        7.233146   0.000000
    7       14.081790   0.000000
    8       14.081794   0.000000
 
  0.3979592E+00  0.0000000E+00  0.3979592E+00  0.3333333E-02
    1       -3.461096   1.000000
    2       -0.332448   1.000000
    3        3.121843   1.000000
    4        3.121843   1.000000
    5        6.395573   0.000016
    6        7.142386   0.000000
    7       14.274292   0.000000
    8       14.274314   0.000000
 
  0.4081633E+00  0.0000000E+00  0.4081633E+00  0.3333333E-02
    1       -3.327134   1.000000
    2       -0.506883   1.000000
    3        3.090855   1.000000
    4        3.090855   1.000000
    5        6.387913   0.000025
    6        7.056954   0.000000
    7       14.467084   0.000000
    8       14.467085   0.000000
 
  0.4183673E+00  0.0000000E+00  0.4183673E+00  0.3333333E-02
    1       -3.190404   1.000000
    2       -0.679955   1.000000
    3        3.063091   1.000000
    4        3.063091   1.000000
    5        6.384613   0.000031
    6        6.976844   0.000000
    7       14.659875   0.000000
    8       14.659880   0.000000
 
  0.4285714E+00  0.0000000E+00  0.4285714E+00  0.3333333E-02
    1       -3.050958   1.000000
    2       -0.851566   1.000000
    3        3.038561   1.000000
    4        3.038561   1.000000
    5        6.385741   0.000029
    6        6.902008   0.000000
    7       14.852198   0.000000
    8       14.852204   0.000000
 
  0.4387755E+00  0.0000000E+00  0.4387755E+00  0.3333333E-02
    1       -2.908868   1.000000
    2       -1.021620   1.000000
    3        3.017278   1.000000
    4        3.017278   1.000000
    5        6.391367   0.000020
    6        6.832432   0.000000
    7       15.043329   0.000000
    8       15.043331   0.000000
 
  0.4489796E+00  0.0000000E+00  0.4489796E+00  0.3333333E-02
    1       -2.764185   1.000000
    2       -1.190023   1.000000
    3        2.999249   1.000000
    4        2.999249   1.000000
    5        6.401558   0.000011
    6        6.768083   0.000000
    7       15.232023   0.000000
    8       15.232235   0.000000
 
  0.4591837E+00  0.0000000E+00  0.4591837E+00  0.3333333E-02
    1       -2.616969   1.000000
    2       -1.356688   1.000000
    3        2.984489   1.000000
    4        2.984489   1.000000
    5        6.416377   0.000004
    6        6.708921   0.000000
    7       15.416036   0.000000
    8       15.416052   0.000000
 
  0.4693878E+00  0.0000000E+00  0.4693878E+00  0.3333333E-02
    1       -2.467287   1.000000
    2       -1.521512   1.000000
    3        2.973003   1.000000
    4        2.973003   1.000000
    5        6.435891   0.000001
    6        6.654900   0.000000
    7       15.591015   0.000000
    8       15.591868   0.000000
 
  0.4795918E+00  0.0000000E+00  0.4795918E+00  0.3333333E-02
    1       -2.315210   1.000000
    2       -1.684426   1.000000
    3        2.964794   1.000000
    4        2.964795   1.000000
    5        6.460159   0.000000
    6        6.605974   0.000000
    7       15.748009   0.000000
    8       15.748533   0.000000
 
  0.4897959E+00  0.0000000E+00  0.4897959E+00  0.3333333E-02
    1       -2.160810   1.000000
    2       -1.845327   1.000000
    3        2.959869   1.000000
    4        2.959869   1.000000
    5        6.489244   0.000000
    6        6.562091   0.000000
    7       15.866794   0.000000
    8       15.875599   0.000000
 
  0.5000000E+00  0.0000000E+00  0.5000000E+00  0.3333333E-02
    1       -2.004163   1.000000
    2       -2.004163   1.000000
    3        2.958220   1.000000
    4        2.958221   1.000000
    5        6.523197   0.000000
    6        6.523197   0.000000
    7       15.914082   0.000000
    8       15.914272   0.000000
 
  0.5000000E+00  0.0000000E+00  0.5000000E+00  0.3333333E-02
    1       -2.004163   1.000000
    2       -2.004163   1.000000
    3        2.958220   1.000000
    4        2.958221   1.000000
    5        6.523197   0.000000
    6        6.523197   0.000000
    7       15.915319   0.000000
    8       15.928055   0.000000
 
  0.5025510E+00  0.5102041E-02  0.5025510E+00  0.3333333E-02
    1       -2.004246   1.000000
    2       -2.003907   1.000000
    3        2.956648   1.000000
    4        2.958409   1.000000
    5        6.523412   0.000000
    6        6.525533   0.000000
    7       15.912812   0.000000
    8       15.915080   0.000000
 
  0.5051020E+00  0.1020408E-01  0.5051020E+00  0.3333333E-02
    1       -2.004527   1.000000
    2       -2.003169   1.000000
    3        2.951922   1.000000
    4        2.958956   1.000000
    5        6.524046   0.000000
    6        6.532514   0.000000
    7       15.903845   0.000000
    8       15.909918   0.000000
 
  0.5076531E+00  0.1530612E-01  0.5076531E+00  0.3333333E-02
    1       -2.004995   1.000000
    2       -2.001938   1.000000
    3        2.944092   1.000000
    4        2.959868   1.000000
    5        6.525101   0.000000
    6        6.544104   0.000000
    7       15.891317   0.000000
    8       15.902646   0.000000
 
  0.5102041E+00  0.2040816E-01  0.5102041E+00  0.3333333E-02
    1       -2.005654   1.000000
    2       -2.000214   1.000000
    3        2.933227   1.000000
    4        2.961145   1.000000
    5        6.526580   0.000000
    6        6.560236   0.000000
    7       15.872734   0.000000
    8       15.892813   0.000000
 
  0.5127551E+00  0.2551020E-01  0.5127551E+00  0.3333333E-02
    1       -2.006507   1.000000
    2       -1.997998   1.000000
    3        2.919421   1.000000
    4        2.962786   1.000000
    5        6.528480   0.000000
    6        6.580819   0.000000
    7       15.851316   0.000000
    8       15.881874   0.000000
 
  0.5153061E+00  0.3061224E-01  0.5153061E+00  0.3333333E-02
    1       -2.007558   1.000000
    2       -1.995290   1.000000
    3        2.902790   1.000000
    4        2.964792   1.000000
    5        6.530802   0.000000
    6        6.605742   0.000000
    7       15.824303   0.000000
    8       15.866404   0.000000
 
  0.5178571E+00  0.3571429E-01  0.5178571E+00  0.3333333E-02
    1       -2.008813   1.000000
    2       -1.992089   1.000000
    3        2.883464   1.000000
    4        2.967162   1.000000
    5        6.533546   0.000000
    6        6.634873   0.000000
    7       15.792305   0.000000
    8       15.849007   0.000000
 
  0.5204082E+00  0.4081633E-01  0.5204082E+00  0.3333333E-02
    1       -2.010277   1.000000
    2       -1.988396   1.000000
    3        2.861596   1.000000
    4        2.969896   1.000000
    5        6.536711   0.000000
    6        6.668071   0.000000
    7       15.757833   0.000000
    8       15.828742   0.000000
 
  0.5229592E+00  0.4591837E-01  0.5229592E+00  0.3333333E-02
    1       -2.011954   1.000000
    2       -1.984209   1.000000
    3        2.837350   1.000000
    4        2.972993   1.000000
    5        6.540298   0.000000
    6        6.705178   0.000000
    7       15.724086   0.000000
    8       15.808822   0.000000
 
  0.5255102E+00  0.5102041E-01  0.5255102E+00  0.3333333E-02
    1       -2.013856   1.000000
    2       -1.979532   1.000000
    3        2.810891   1.000000
    4        2.976454   1.000000
    5        6.544304   0.000000
    6        6.746034   0.000000
    7       15.678745   0.000000
    8       15.785361   0.000000
 
  0.5280612E+00  0.5612245E-01  0.5280612E+00  0.3333333E-02
    1       -2.015991   1.000000
    2       -1.974363   1.000000
    3        2.782396   1.000000
    4        2.980277   1.000000
    5        6.548731   0.000000
    6        6.790470   0.000000
    7       15.633920   0.000000
    8       15.757294   0.000000
 
  0.5306122E+00  0.6122449E-01  0.5306122E+00  0.3333333E-02
    1       -2.018366   1.000000
    2       -1.968701   1.000000
    3        2.752043   1.000000
    4        2.984462   1.000000
    5        6.553578   0.000000
    6        6.838317   0.000000
    7       15.586695   0.000000
    8       15.729713   0.000000
 
  0.5331633E+00  0.6632653E-01  0.5331633E+00  0.3333333E-02
    1       -2.020993   1.000000
    2       -1.962548   1.000000
    3        2.720009   1.000000
    4        2.989008   1.000000
    5        6.558843   0.000000
    6        6.889407   0.000000
    7       15.536399   0.000000
    8       15.741707   0.000000
 
  0.5357143E+00  0.7142857E-01  0.5357143E+00  0.3333333E-02
    1       -2.023882   1.000000
    2       -1.955903   1.000000
    3        2.686470   1.000000
    4        2.993916   1.000000
    5        6.564526   0.000000
    6        6.943574   0.000000
    7       15.485099   0.000000
    8       15.670679   0.000000
 
  0.5382653E+00  0.7653061E-01  0.5382653E+00  0.3333333E-02
    1       -2.027046   1.000000
    2       -1.948766   1.000000
    3        2.651598   1.000000
    4        2.999183   1.000000
    5        6.570627   0.000000
    6        7.000657   0.000000
    7       15.432022   0.000000
    8       15.636157   0.000000
 
  0.5408163E+00  0.8163265E-01  0.5408163E+00  0.3333333E-02
    1       -2.030498   1.000000
    2       -1.941136   1.000000
    3        2.615561   1.000000
    4        3.004813   1.000000
    5        6.577146   0.000000
    6        7.060500   0.000000
    7       15.378004   0.000000
    8       15.605689   0.000000
 
  0.5433673E+00  0.8673469E-01  0.5433673E+00  0.3333333E-02
    1       -2.034251   1.000000
    2       -1.933016   1.000000
    3        2.578520   1.000000
    4        3.010799   1.000000
    5        6.584080   0.000000
    6        7.122954   0.000000
    7       15.319920   0.000000
    8       15.572850   0.000000
 
  0.5459184E+00  0.9183673E-01  0.5459184E+00  0.3333333E-02
    1       -2.038319   1.000000
    2       -1.924404   1.000000
    3        2.540630   1.000000
    4        3.017143   1.000000
    5        6.591429   0.000000
    6        7.187877   0.000000
    7       15.262280   0.000000
    8       15.523204   0.000000
 
  0.5484694E+00  0.9693878E-01  0.5484694E+00  0.3333333E-02
    1       -2.042719   1.000000
    2       -1.915302   1.000000
    3        2.502037   1.000000
    4        3.023843   1.000000
    5        6.599193   0.000000
    6        7.255131   0.000000
    7       15.203349   0.000000
    8       15.484103   0.000000
 
  0.5510204E+00  0.1020408E+00  0.5510204E+00  0.3333333E-02
    1       -2.047465   1.000000
    2       -1.905708   1.000000
    3        2.462886   1.000000
    4        3.030900   1.000000
    5        6.607371   0.000000
    6        7.324591   0.000000
    7       15.145129   0.000000
    8       15.446771   0.000000
 
  0.5535714E+00  0.1071429E+00  0.5535714E+00  0.3333333E-02
    1       -2.052574   1.000000
    2       -1.895623   1.000000
    3        2.423310   1.000000
    4        3.038312   1.000000
    5        6.615961   0.000000
    6        7.396138   0.000000
    7       15.082741   0.000000
    8       15.405183   0.000000
 
  0.5561224E+00  0.1122449E+00  0.5561224E+00  0.3333333E-02
    1       -2.058066   1.000000
    2       -1.885048   1.000000
    3        2.383433   1.000000
    4        3.046077   1.000000
    5        6.624961   0.000000
    6        7.469659   0.000000
    7       15.028868   0.000000
    8       15.391631   0.000000
 
  0.5586735E+00  0.1173469E+00  0.5586735E+00  0.3333333E-02
    1       -2.063954   1.000000
    2       -1.873982   1.000000
    3        2.343383   1.000000
    4        3.054196   1.000000
    5        6.634372   0.000000
    6        7.545049   0.000000
    7       14.959999   0.000000
    8       15.377531   0.000000
 
  0.5612245E+00  0.1224490E+00  0.5612245E+00  0.3333333E-02
    1       -2.070259   1.000000
    2       -1.862425   1.000000
    3        2.303272   1.000000
    4        3.062667   1.000000
    5        6.644192   0.000000
    6        7.622210   0.000000
    7       14.896535   0.000000
    8       15.303822   0.000000
 
  0.5637755E+00  0.1275510E+00  0.5637755E+00  0.3333333E-02
    1       -2.076995   1.000000
    2       -1.850372   1.000000
    3        2.263207   1.000000
    4        3.071488   1.000000
    5        6.654421   0.000000
    6        7.701051   0.000000
    7       14.834759   0.000000
    8       15.297644   0.000000
 
  0.5663265E+00  0.1326531E+00  0.5663265E+00  0.3333333E-02
    1       -2.084190   1.000000
    2       -1.837835   1.000000
    3        2.223289   1.000000
    4        3.080659   1.000000
    5        6.665055   0.000000
    6        7.781484   0.000000
    7       14.768937   0.000000
    8       15.195976   0.000000
 
  0.5688776E+00  0.1377551E+00  0.5688776E+00  0.3333333E-02
    1       -2.091860   1.000000
    2       -1.824807   1.000000
    3        2.183615   1.000000
    4        3.090177   1.000000
    5        6.676095   0.000000
    6        7.863431   0.000000
    7       14.705745   0.000000
    8       15.136748   0.000000
 
  0.5714286E+00  0.1428571E+00  0.5714286E+00  0.3333333E-02
    1       -2.100024   1.000000
    2       -1.811290   1.000000
    3        2.144277   1.000000
    4        3.100041   1.000000
    5        6.687538   0.000000
    6        7.946816   0.000000
    7       14.641998   0.000000
    8       15.112174   0.000000
 
  0.5739796E+00  0.1479592E+00  0.5739796E+00  0.3333333E-02
    1       -2.108703   1.000000
    2       -1.797284   1.000000
    3        2.105361   1.000000
    4        3.110251   1.000000
    5        6.699382   0.000000
    6        8.031570   0.000000
    7       14.575858   0.000000
    8       15.106745   0.000000
 
  0.5765306E+00  0.1530612E+00  0.5765306E+00  0.3333333E-02
    1       -2.117925   1.000000
    2       -1.782792   1.000000
    3        2.066945   1.000000
    4        3.120801   1.000000
    5        6.711627   0.000000
    6        8.117627   0.000000
    7       14.510666   0.000000
    8       15.032966   0.000000
 
  0.5790816E+00  0.1581633E+00  0.5790816E+00  0.3333333E-02
    1       -2.127695   1.000000
    2       -1.767807   1.000000
    3        2.029110   1.000000
    4        3.131696   1.000000
    5        6.724271   0.000000
    6        8.204927   0.000000
    7       14.450560   0.000000
    8       15.012222   0.000000
 
  0.5816327E+00  0.1632653E+00  0.5816327E+00  0.3333333E-02
    1       -2.138039   1.000000
    2       -1.752333   1.000000
    3        1.991929   1.000000
    4        3.142932   1.000000
    5        6.737312   0.000000
    6        8.293413   0.000000
    7       14.380614   0.000000
    8       14.934758   0.000000
 
  0.5841837E+00  0.1683673E+00  0.5841837E+00  0.3333333E-02
    1       -2.148974   1.000000
    2       -1.736370   1.000000
    3        1.955474   1.000000
    4        3.154506   1.000000
    5        6.750748   0.000000
    6        8.383032   0.000000
    7       14.315829   0.000000
    8       14.857674   0.000000
 
  0.5867347E+00  0.1734694E+00  0.5867347E+00  0.3333333E-02
    1       -2.160526   1.000000
    2       -1.719919   1.000000
    3        1.919800   1.000000
    4        3.166416   1.000000
    5        6.764577   0.000000
    6        8.473732   0.000000
    7       14.250323   0.000000
    8       14.808775   0.000000
 
  0.5892857E+00  0.1785714E+00  0.5892857E+00  0.3333333E-02
    1       -2.172711   1.000000
    2       -1.702981   1.000000
    3        1.884974   1.000000
    4        3.178661   1.000000
    5        6.778797   0.000000
    6        8.565465   0.000000
    7       14.185537   0.000000
    8       14.751239   0.000000
 
  0.5918367E+00  0.1836735E+00  0.5918367E+00  0.3333333E-02
    1       -2.185545   1.000000
    2       -1.685555   1.000000
    3        1.851051   1.000000
    4        3.191239   1.000000
    5        6.793406   0.000000
    6        8.658187   0.000000
    7       14.120660   0.000000
    8       14.689839   0.000000
 
  0.5943878E+00  0.1887755E+00  0.5943878E+00  0.3333333E-02
    1       -2.199046   1.000000
    2       -1.667641   1.000000
    3        1.818086   1.000000
    4        3.204148   1.000000
    5        6.808402   0.000000
    6        8.751855   0.000000
    7       14.056090   0.000000
    8       14.631264   0.000000
 
  0.5969388E+00  0.1938776E+00  0.5969388E+00  0.3333333E-02
    1       -2.213231   1.000000
    2       -1.649240   1.000000
    3        1.786129   1.000000
    4        3.217385   1.000000
    5        6.823782   0.000000
    6        8.846427   0.000000
    7       13.989337   0.000000
    8       14.572998   0.000000
 
  0.5994898E+00  0.1989796E+00  0.5994898E+00  0.3333333E-02
    1       -2.228113   1.000000
    2       -1.630347   1.000000
    3        1.755228   1.000000
    4        3.230951   1.000000
    5        6.839547   0.000000
    6        8.941865   0.000000
    7       13.924425   0.000000
    8       14.499240   0.000000
 
  0.6020408E+00  0.2040816E+00  0.6020408E+00  0.3333333E-02
    1       -2.243709   1.000000
    2       -1.610973   1.000000
    3        1.725423   1.000000
    4        3.244840   1.000000
    5        6.855689   0.000000
    6        9.038131   0.000000
    7       13.859302   0.000000
    8       14.461800   0.000000
 