 vasp.5.4.4.18Apr17-6-g9f103f2a35 (build May 20 2018 16:52:39) complex          
  
 executed on             LinuxIFC date 2022.10.01  21:51:53
 running on    1 total cores
 distrk:  each k-point on    1 cores,    1 groups
 distr:  one band on NCORES_PER_BAND=   1 cores,    1 groups


--------------------------------------------------------------------------------------------------------


 INCAR:
 POTCAR:    PAW Si                                
 POTCAR:    PAW Si                                
   VRHFIN =Si: s2p2                                                             
   LEXCH  = 91                                                                  
   EATOM  =   103.3076 eV,    7.5929 Ry                                         
                                                                                
   TITEL  = PAW Si                                                              
   LULTRA =        F    use ultrasoft PP ?                                      
   IUNSCR =        1    unscreen: 0-lin 1-nonlin 2-no                           
   RPACOR =    1.500    partial core radius                                     
   POMASS =   28.085; ZVAL   =    4.000    mass and valenz                      
   RCORE  =    1.900    outmost cutoff radius                                   
   RWIGS  =    2.480; RWIGS  =    1.312    wigner-seitz radius (au A)           
   ENMAX  =  245.435; ENMIN  =  184.076 eV                                      
   ICORE  =        2    local potential                                         
   LCOR   =        T    correct aug charges                                     
   LPAW   =        T    paw PP                                                  
   EAUG   =  322.069                                                            
   DEXC   =    -.001                                                            
   RMAX   =    2.943    core radius for proj-oper                               
   RAUG   =    1.300    factor for augmentation sphere                          
   RDEP   =    1.993    core radius for depl-charge                             
   QCUT   =   -4.247; QGAM   =    8.494    optimization parameters              
                                                                                
   Description                                                                  
     l     E      TYP  RCUT    TYP  RCUT                                        
     0   .000     23  1.900                                                     
     0   .000     23  1.900                                                     
     1   .000     23  1.900                                                     
     1   .000     23  1.900                                                     
     2   .000      7  1.900                                                     
  local pseudopotential read in
  partial core-charges read in
  atomic valenz-charges read in
  non local Contribution for L=           0  read in
    real space projection operators read in
  non local Contribution for L=           0  read in
    real space projection operators read in
  non local Contribution for L=           1  read in
    real space projection operators read in
  non local Contribution for L=           1  read in
    real space projection operators read in
    PAW grid and wavefunctions read in
 
   number of l-projection  operators is LMAX  =           4
   number of lm-projection operators is LMMAX =           8
 
  PAW Si                                :
 energy of atom  1       EATOM= -103.3076
 kinetic energy error for atom=    0.0006 (will be added to EATOM!!)
 
 
 POSCAR: Si diamond structure                    
  positions in direct lattice
  No initial velocities read in
 exchange correlation table for  LEXCH =        7
   RHO(1)=    0.500       N(1)  =     2000
   RHO(2)=  100.500       N(2)  =     4000
 


--------------------------------------------------------------------------------------------------------


 ion  position               nearest neighbor table
   1  0.000  0.000  0.000-   2 2.35   2 2.35   2 2.35   2 2.35
   2  0.250  0.250  0.250-   1 2.35   1 2.35   1 2.35   1 2.35
 
  LATTYP: Found a face centered cubic cell.
 ALAT       =     5.4300000000
  
  Lattice vectors:
  
 A1 = (   0.0000000000,   2.7150000000,   2.7150000000)
 A2 = (   2.7150000000,   0.0000000000,   2.7150000000)
 A3 = (   2.7150000000,   2.7150000000,   0.0000000000)


Analysis of symmetry for initial positions (statically):
=====================================================================
 Subroutine PRICEL returns:
 Original cell was already a primitive cell.
 

 Routine SETGRP: Setting up the symmetry group for a 
 face centered cubic supercell.


 Subroutine GETGRP returns: Found 48 space group operations
 (whereof 24 operations were pure point group operations)
 out of a pool of 48 trial point group operations.


The static configuration has the point symmetry T_d .
 The point group associated with its full space group is O_h .


Analysis of symmetry for dynamics (positions and initial velocities):
=====================================================================
 Subroutine PRICEL returns:
 Original cell was already a primitive cell.
 

 Routine SETGRP: Setting up the symmetry group for a 
 face centered cubic supercell.


 Subroutine GETGRP returns: Found 48 space group operations
 (whereof 24 operations were pure point group operations)
 out of a pool of 48 trial point group operations.


The dynamic configuration has the point symmetry T_d .
 The point group associated with its full space group is O_h .


 Subroutine INISYM returns: Found 48 space group operations
 (whereof 24 operations are pure point group operations),
 and found     1 'primitive' translations

 
 
 KPOINTS: K-Path Generated by VASPKIT.            
  interpolating k-points between supplied coordinates
  k-points in reciprocal lattice
Space group operators:
 irot       det(A)        alpha          n_x          n_y          n_z        tau_x        tau_y        tau_z
    1     1.000000     0.000001     1.000000     0.000000     0.000000     0.000000     0.000000     0.000000
    2     1.000000   120.000000    -0.577350    -0.577350    -0.577350     0.000000     0.000000     0.000000
    3     1.000000   120.000000     0.577350     0.577350     0.577350     0.000000     0.000000     0.000000
    4    -1.000000    90.000000     0.000000     0.000000    -1.000000     0.000000     0.000000     0.000000
    5    -1.000000   180.000000     0.000000     0.707107     0.707107     0.000000     0.000000     0.000000
    6    -1.000000    90.000000     0.000000     1.000000     0.000000     0.000000     0.000000     0.000000
    7     1.000000   180.000000     0.000000     0.000000     1.000000     0.000000     0.000000     0.000000
    8     1.000000   120.000000    -0.577350     0.577350     0.577350     0.000000     0.000000     0.000000
    9     1.000000   120.000000    -0.577350     0.577350    -0.577350     0.000000     0.000000     0.000000
   10    -1.000000    90.000000     0.000000     0.000000     1.000000     0.000000     0.000000     0.000000
   11    -1.000000    90.000000    -1.000000     0.000000     0.000000     0.000000     0.000000     0.000000
   12    -1.000000   180.000000     0.707107     0.000000     0.707107     0.000000     0.000000     0.000000
   13     1.000000   120.000000     0.577350    -0.577350     0.577350     0.000000     0.000000     0.000000
   14     1.000000   120.000000    -0.577350    -0.577350     0.577350     0.000000     0.000000     0.000000
   15     1.000000   180.000000     1.000000     0.000000     0.000000     0.000000     0.000000     0.000000
   16    -1.000000    90.000000     0.000000    -1.000000     0.000000     0.000000     0.000000     0.000000
   17    -1.000000   180.000000     0.707107     0.707107     0.000000     0.000000     0.000000     0.000000
   18    -1.000000    90.000000     1.000000     0.000000     0.000000     0.000000     0.000000     0.000000
   19     1.000000   120.000000     0.577350    -0.577350    -0.577350     0.000000     0.000000     0.000000
   20     1.000000   180.000000     0.000000     1.000000     0.000000     0.000000     0.000000     0.000000
   21     1.000000   120.000000     0.577350     0.577350    -0.577350     0.000000     0.000000     0.000000
   22    -1.000000   180.000000     0.000000    -0.707107     0.707107     0.000000     0.000000     0.000000
   23    -1.000000   180.000000     0.707107    -0.707107     0.000000     0.000000     0.000000     0.000000
   24    -1.000000   180.000000     0.707107     0.000000    -0.707107     0.000000     0.000000     0.000000
   25    -1.000000     0.000001     1.000000     0.000000     0.000000     0.250000     0.250000     0.250000
   26    -1.000000   120.000000    -0.577350    -0.577350    -0.577350     0.250000     0.250000     0.250000
   27    -1.000000   120.000000     0.577350     0.577350     0.577350     0.250000     0.250000     0.250000
   28     1.000000    90.000000     0.000000     0.000000    -1.000000     0.250000     0.250000     0.250000
   29     1.000000   180.000000     0.000000     0.707107     0.707107     0.250000     0.250000     0.250000
   30     1.000000    90.000000     0.000000     1.000000     0.000000     0.250000     0.250000     0.250000
   31    -1.000000   180.000000     0.000000     0.000000     1.000000     0.250000     0.250000     0.250000
   32    -1.000000   120.000000    -0.577350     0.577350     0.577350     0.250000     0.250000     0.250000
   33    -1.000000   120.000000    -0.577350     0.577350    -0.577350     0.250000     0.250000     0.250000
   34     1.000000    90.000000     0.000000     0.000000     1.000000     0.250000     0.250000     0.250000
   35     1.000000    90.000000    -1.000000     0.000000     0.000000     0.250000     0.250000     0.250000
   36     1.000000   180.000000     0.707107     0.000000     0.707107     0.250000     0.250000     0.250000
   37    -1.000000   120.000000     0.577350    -0.577350     0.577350     0.250000     0.250000     0.250000
   38    -1.000000   120.000000    -0.577350    -0.577350     0.577350     0.250000     0.250000     0.250000
   39    -1.000000   180.000000     1.000000     0.000000     0.000000     0.250000     0.250000     0.250000
   40     1.000000    90.000000     0.000000    -1.000000     0.000000     0.250000     0.250000     0.250000
   41     1.000000   180.000000     0.707107     0.707107     0.000000     0.250000     0.250000     0.250000
   42     1.000000    90.000000     1.000000     0.000000     0.000000     0.250000     0.250000     0.250000
   43    -1.000000   120.000000     0.577350    -0.577350    -0.577350     0.250000     0.250000     0.250000
   44    -1.000000   180.000000     0.000000     1.000000     0.000000     0.250000     0.250000     0.250000
   45    -1.000000   120.000000     0.577350     0.577350    -0.577350     0.250000     0.250000     0.250000
   46     1.000000   180.000000     0.000000    -0.707107     0.707107     0.250000     0.250000     0.250000
   47     1.000000   180.000000     0.707107    -0.707107     0.000000     0.250000     0.250000     0.250000
   48     1.000000   180.000000     0.707107     0.000000    -0.707107     0.250000     0.250000     0.250000


--------------------------------------------------------------------------------------------------------




 Dimension of arrays:
   k-points           NKPTS =    300   k-points in BZ     NKDIM =    300   number of bands    NBANDS=      8
   number of dos      NEDOS =    301   number of ions     NIONS =      2
   non local maximal  LDIM  =      4   non local SUM 2l+1 LMDIM =      8
   total plane-waves  NPLWV =  13824
   max r-space proj   IRMAX =      1   max aug-charges    IRDMAX=  11746
   dimension x,y,z NGX =    24 NGY =   24 NGZ =   24
   dimension x,y,z NGXF=    48 NGYF=   48 NGZF=   48
   support grid    NGXF=    48 NGYF=   48 NGZF=   48
   ions per type =               2
   NGX,Y,Z   is equivalent  to a cutoff of  10.39, 10.39, 10.39 a.u.
   NGXF,Y,Z  is equivalent  to a cutoff of  20.78, 20.78, 20.78 a.u.

 SYSTEM =  diamond Si                              
 POSCAR =  Si diamond structure                    

 Startparameter for this run:
   NWRITE =      2    write-flag & timer
   PREC   = normal    normal or accurate (medium, high low for compatibility)
   ISTART =      0    job   : 0-new  1-cont  2-samecut
   ICHARG =     11    charge: 1-file 2-atom 10-const
   ISPIN  =      1    spin polarized calculation?
   LNONCOLLINEAR =      F non collinear calculations
   LSORBIT =      F    spin-orbit coupling
   INIWAV =      1    electr: 0-lowe 1-rand  2-diag
   LASPH  =      F    aspherical Exc in radial PAW
   METAGGA=      F    non-selfconsistent MetaGGA calc.

 Electronic Relaxation 1
   ENCUT  =  500.0 eV  36.75 Ry    6.06 a.u.   7.00  7.00  7.00*2*pi/ulx,y,z
   ENINI  =  500.0     initial cutoff
   ENAUG  =  322.1 eV  augmentation charge cutoff
   NELM   =     60;   NELMIN=  2; NELMDL= -5     # of ELM steps 
   EDIFF  = 0.1E-06   stopping-criterion for ELM
   LREAL  =      F    real-space projection
   NLSPLINE    = F    spline interpolate recip. space projectors
   LCOMPAT=      F    compatible to vasp.4.4
   GGA_COMPAT  = T    GGA compatible to vasp.4.4-vasp.4.6
   LMAXPAW     = -100 max onsite density
   LMAXMIX     =    2 max onsite mixed and CHGCAR
   VOSKOWN=      0    Vosko Wilk Nusair interpolation
   ROPT   =    0.00000
 Ionic relaxation
   EDIFFG = 0.1E-05   stopping-criterion for IOM
   NSW    =      0    number of steps for IOM
   NBLOCK =      1;   KBLOCK =      1    inner block; outer block 
   IBRION =     -1    ionic relax: 0-MD 1-quasi-New 2-CG
   NFREE  =      0    steps in history (QN), initial steepest desc. (CG)
   ISIF   =      2    stress and relaxation
   IWAVPR =     10    prediction:  0-non 1-charg 2-wave 3-comb
   ISYM   =      2    0-nonsym 1-usesym 2-fastsym
   LCORR  =      T    Harris-Foulkes like correction to forces

   POTIM  = 0.5000    time-step for ionic-motion
   TEIN   =    0.0    initial temperature
   TEBEG  =    0.0;   TEEND  =   0.0 temperature during run
   SMASS  =  -3.00    Nose mass-parameter (am)
   estimated Nose-frequenzy (Omega)   =  0.10E-29 period in steps =****** mass=  -0.337E-27a.u.
   SCALEE = 1.0000    scale energy and forces
   NPACO  =    256;   APACO  = 16.0  distance and # of slots for P.C.
   PSTRESS=    0.0 pullay stress

  Mass of Ions in am
   POMASS =  28.09
  Ionic Valenz
   ZVAL   =   4.00
  Atomic Wigner-Seitz radii
   RWIGS  =   1.62
  virtual crystal weights 
   VCA    =   1.00
   NELECT =       8.0000    total number of electrons
   NUPDOWN=      -1.0000    fix difference up-down

 DOS related values:
   EMIN   =  10.00;   EMAX   =-10.00  energy-range for DOS
   EFERMI =   0.00
   ISMEAR =     0;   SIGMA  =   0.10  broadening in eV -4-tet -1-fermi 0-gaus

 Electronic relaxation 2 (details)
   IALGO  =     38    algorithm
   LDIAG  =      T    sub-space diagonalisation (order eigenvalues)
   LSUBROT=      F    optimize rotation matrix (better conditioning)
   TURBO    =      0    0=normal 1=particle mesh
   IRESTART =      0    0=no restart 2=restart with 2 vectors
   NREBOOT  =      0    no. of reboots
   NMIN     =      0    reboot dimension
   EREF     =   0.00    reference energy to select bands
   IMIX   =      4    mixing-type and parameters
     AMIX     =   0.40;   BMIX     =  1.00
     AMIX_MAG =   1.60;   BMIX_MAG =  1.00
     AMIN     =   0.10
     WC   =   100.;   INIMIX=   1;  MIXPRE=   1;  MAXMIX= -45

 Intra band minimization:
   WEIMIN = 0.0000     energy-eigenvalue tresh-hold
   EBREAK =  0.31E-08  absolut break condition
   DEPER  =   0.30     relativ break condition  

   TIME   =   0.40     timestep for ELM

  volume/ion in A,a.u.               =      20.01       135.05
  Fermi-wavevector in a.u.,A,eV,Ry     =   0.957176  1.808800 12.465458  0.916185
  Thomas-Fermi vector in A             =   2.086170
 
 Write flags
   LWAVE        =      F    write WAVECAR
   LDOWNSAMPLE  =      F    k-point downsampling of WAVECAR
   LCHARG       =      F    write CHGCAR
   LVTOT        =      F    write LOCPOT, total local potential
   LVHAR        =      F    write LOCPOT, Hartree potential only
   LELF         =      F    write electronic localiz. function (ELF)
   LORBIT       =     10    0 simple, 1 ext, 2 COOP (PROOUT), +10 PAW based schemes


 Dipole corrections
   LMONO  =      F    monopole corrections only (constant potential shift)
   LDIPOL =      F    correct potential (dipole corrections)
   IDIPOL =      0    1-x, 2-y, 3-z, 4-all directions 
   EPSILON=  1.0000000 bulk dielectric constant

 Exchange correlation treatment:
   GGA     =    --    GGA type
   LEXCH   =     7    internal setting for exchange type
   VOSKOWN=      0    Vosko Wilk Nusair interpolation
   LHFCALC =     F    Hartree Fock is set to
   LHFONE  =     F    Hartree Fock one center treatment
   AEXX    =    0.0000 exact exchange contribution

 Linear response parameters
   LEPSILON=     F    determine dielectric tensor
   LRPA    =     F    only Hartree local field effects (RPA)
   LNABLA  =     F    use nabla operator in PAW spheres
   LVEL    =     F    velocity operator in full k-point grid
   LINTERFAST=   F  fast interpolation
   KINTER  =     0    interpolate to denser k-point grid
   CSHIFT  =0.1000    complex shift for real part using Kramers Kronig
   OMEGAMAX=  -1.0    maximum frequency
   DEG_THRESHOLD= 0.2000000E-02 threshold for treating states as degnerate
   RTIME   =   -0.100 relaxation time in fs
  (WPLASMAI=    0.000 imaginary part of plasma frequency in eV, 0.658/RTIME)
   DFIELD  = 0.0000000 0.0000000 0.0000000 field for delta impulse in time
 
 Orbital magnetization related:
   ORBITALMAG=     F  switch on orbital magnetization
   LCHIMAG   =     F  perturbation theory with respect to B field
   DQ        =  0.001000  dq finite difference perturbation B field
   LLRAUG    =     F  two centre corrections for induced B field



--------------------------------------------------------------------------------------------------------


 Static calculation
 charge density and potential remain constant during run
 non-spin polarized calculation
 Variant of blocked Davidson
 Davidson routine will perform the subspace rotation
 perform sub-space diagonalisation
    after iterative eigenvector-optimisation
 no mixing
 using additional bands            4
 reciprocal scheme for non local part
 use partial core corrections
 calculate Harris-corrections to forces 
   (improved forces if not selfconsistent)
 use gradient corrections 
 WARNING: stress and forces are not correct
  (second derivative of E(xc) not defined)
 use of overlap-Matrix (Vanderbilt PP)
 Gauss-broadening in eV      SIGMA  =   0.10


--------------------------------------------------------------------------------------------------------


  energy-cutoff  :      500.00
  volume of cell :       40.03
      direct lattice vectors                 reciprocal lattice vectors
     0.000000000  2.715000000  2.715000000    -0.184162063  0.184162063  0.184162063
     2.715000000  0.000000000  2.715000000     0.184162063 -0.184162063  0.184162063
     2.715000000  2.715000000  0.000000000     0.184162063  0.184162063 -0.184162063

  length of vectors
     3.839589822  3.839589822  3.839589822     0.318978049  0.318978049  0.318978049


 
 k-points in units of 2pi/SCALE and weight: K-Path Generated by VASPKIT.            
   0.00000000  0.00000000  0.00000000       0.003
   0.00000000  0.02040816  0.00000000       0.003
   0.00000000  0.04081633  0.00000000       0.003
   0.00000000  0.06122449  0.00000000       0.003
   0.00000000  0.08163265  0.00000000       0.003
   0.00000000  0.10204082  0.00000000       0.003
   0.00000000  0.12244898  0.00000000       0.003
   0.00000000  0.14285714  0.00000000       0.003
   0.00000000  0.16326531  0.00000000       0.003
   0.00000000  0.18367347  0.00000000       0.003
   0.00000000  0.20408163  0.00000000       0.003
   0.00000000  0.22448980  0.00000000       0.003
   0.00000000  0.24489796  0.00000000       0.003
   0.00000000  0.26530612  0.00000000       0.003
   0.00000000  0.28571429  0.00000000       0.003
   0.00000000  0.30612245  0.00000000       0.003
   0.00000000  0.32653061  0.00000000       0.003
   0.00000000  0.34693878  0.00000000       0.003
   0.00000000  0.36734694  0.00000000       0.003
   0.00000000  0.38775510  0.00000000       0.003
   0.00000000  0.40816327  0.00000000       0.003
   0.00000000  0.42857143  0.00000000       0.003
   0.00000000  0.44897959  0.00000000       0.003
   0.00000000  0.46938776  0.00000000       0.003
   0.00000000  0.48979592  0.00000000       0.003
   0.00000000  0.51020408  0.00000000       0.003
   0.00000000  0.53061224  0.00000000       0.003
   0.00000000  0.55102041  0.00000000       0.003
   0.00000000  0.57142857  0.00000000       0.003
   0.00000000  0.59183673  0.00000000       0.003
   0.00000000  0.61224490  0.00000000       0.003
   0.00000000  0.63265306  0.00000000       0.003
   0.00000000  0.65306122  0.00000000       0.003
   0.00000000  0.67346939  0.00000000       0.003
   0.00000000  0.69387755  0.00000000       0.003
   0.00000000  0.71428571  0.00000000       0.003
   0.00000000  0.73469388  0.00000000       0.003
   0.00000000  0.75510204  0.00000000       0.003
   0.00000000  0.77551020  0.00000000       0.003
   0.00000000  0.79591837  0.00000000       0.003
   0.00000000  0.81632653  0.00000000       0.003
   0.00000000  0.83673469  0.00000000       0.003
   0.00000000  0.85714286  0.00000000       0.003
   0.00000000  0.87755102  0.00000000       0.003
   0.00000000  0.89795918  0.00000000       0.003
   0.00000000  0.91836735  0.00000000       0.003
   0.00000000  0.93877551  0.00000000       0.003
   0.00000000  0.95918367  0.00000000       0.003
   0.00000000  0.97959184  0.00000000       0.003
   0.00000000  1.00000000  0.00000000       0.003
   0.00000000  1.00000000  0.00000000       0.003
   0.00510204  1.00000000  0.00510204       0.003
   0.01020408  1.00000000  0.01020408       0.003
   0.01530612  1.00000000  0.01530612       0.003
   0.02040816  1.00000000  0.02040816       0.003
   0.02551020  1.00000000  0.02551020       0.003
   0.03061224  1.00000000  0.03061224       0.003
   0.03571429  1.00000000  0.03571429       0.003
   0.04081633  1.00000000  0.04081633       0.003
   0.04591837  1.00000000  0.04591837       0.003
   0.05102041  1.00000000  0.05102041       0.003
   0.05612245  1.00000000  0.05612245       0.003
   0.06122449  1.00000000  0.06122449       0.003
   0.06632653  1.00000000  0.06632653       0.003
   0.07142857  1.00000000  0.07142857       0.003
   0.07653061  1.00000000  0.07653061       0.003
   0.08163265  1.00000000  0.08163265       0.003
   0.08673469  1.00000000  0.08673469       0.003
   0.09183673  1.00000000  0.09183673       0.003
   0.09693878  1.00000000  0.09693878       0.003
   0.10204082  1.00000000  0.10204082       0.003
   0.10714286  1.00000000  0.10714286       0.003
   0.11224490  1.00000000  0.11224490       0.003
   0.11734694  1.00000000  0.11734694       0.003
   0.12244898  1.00000000  0.12244898       0.003
   0.12755102  1.00000000  0.12755102       0.003
   0.13265306  1.00000000  0.13265306       0.003
   0.13775510  1.00000000  0.13775510       0.003
   0.14285714  1.00000000  0.14285714       0.003
   0.14795918  1.00000000  0.14795918       0.003
   0.15306122  1.00000000  0.15306122       0.003
   0.15816327  1.00000000  0.15816327       0.003
   0.16326531  1.00000000  0.16326531       0.003
   0.16836735  1.00000000  0.16836735       0.003
   0.17346939  1.00000000  0.17346939       0.003
   0.17857143  1.00000000  0.17857143       0.003
   0.18367347  1.00000000  0.18367347       0.003
   0.18877551  1.00000000  0.18877551       0.003
   0.19387755  1.00000000  0.19387755       0.003
   0.19897959  1.00000000  0.19897959       0.003
   0.20408163  1.00000000  0.20408163       0.003
   0.20918367  1.00000000  0.20918367       0.003
   0.21428571  1.00000000  0.21428571       0.003
   0.21938776  1.00000000  0.21938776       0.003
   0.22448980  1.00000000  0.22448980       0.003
   0.22959184  1.00000000  0.22959184       0.003
   0.23469388  1.00000000  0.23469388       0.003
   0.23979592  1.00000000  0.23979592       0.003
   0.24489796  1.00000000  0.24489796       0.003
   0.25000000  1.00000000  0.25000000       0.003
   0.75000000  0.75000000  0.00000000       0.003
   0.73469388  0.73469388  0.00000000       0.003
   0.71938776  0.71938776  0.00000000       0.003
   0.70408163  0.70408163  0.00000000       0.003
   0.68877551  0.68877551  0.00000000       0.003
   0.67346939  0.67346939  0.00000000       0.003
   0.65816327  0.65816327  0.00000000       0.003
   0.64285714  0.64285714  0.00000000       0.003
   0.62755102  0.62755102  0.00000000       0.003
   0.61224490  0.61224490  0.00000000       0.003
   0.59693878  0.59693878  0.00000000       0.003
   0.58163265  0.58163265  0.00000000       0.003
   0.56632653  0.56632653  0.00000000       0.003
   0.55102041  0.55102041  0.00000000       0.003
   0.53571429  0.53571429  0.00000000       0.003
   0.52040816  0.52040816  0.00000000       0.003
   0.50510204  0.50510204  0.00000000       0.003
   0.48979592  0.48979592  0.00000000       0.003
   0.47448980  0.47448980  0.00000000       0.003
   0.45918367  0.45918367  0.00000000       0.003
   0.44387755  0.44387755  0.00000000       0.003
   0.42857143  0.42857143  0.00000000       0.003
   0.41326531  0.41326531  0.00000000       0.003
   0.39795918  0.39795918  0.00000000       0.003
   0.38265306  0.38265306  0.00000000       0.003
   0.36734694  0.36734694  0.00000000       0.003
   0.35204082  0.35204082  0.00000000       0.003
   0.33673469  0.33673469  0.00000000       0.003
   0.32142857  0.32142857  0.00000000       0.003
   0.30612245  0.30612245  0.00000000       0.003
   0.29081633  0.29081633  0.00000000       0.003
   0.27551020  0.27551020  0.00000000       0.003
   0.26020408  0.26020408  0.00000000       0.003
   0.24489796  0.24489796  0.00000000       0.003
   0.22959184  0.22959184  0.00000000       0.003
   0.21428571  0.21428571  0.00000000       0.003
   0.19897959  0.19897959  0.00000000       0.003
   0.18367347  0.18367347  0.00000000       0.003
   0.16836735  0.16836735  0.00000000       0.003
   0.15306122  0.15306122  0.00000000       0.003
   0.13775510  0.13775510  0.00000000       0.003
   0.12244898  0.12244898  0.00000000       0.003
   0.10714286  0.10714286  0.00000000       0.003
   0.09183673  0.09183673  0.00000000       0.003
   0.07653061  0.07653061  0.00000000       0.003
   0.06122449  0.06122449  0.00000000       0.003
   0.04591837  0.04591837  0.00000000       0.003
   0.03061224  0.03061224  0.00000000       0.003
   0.01530612  0.01530612  0.00000000       0.003
   0.00000000  0.00000000  0.00000000       0.003
   0.00000000  0.00000000  0.00000000       0.003
   0.01020408  0.01020408  0.01020408       0.003
   0.02040816  0.02040816  0.02040816       0.003
   0.03061224  0.03061224  0.03061224       0.003
   0.04081633  0.04081633  0.04081633       0.003
   0.05102041  0.05102041  0.05102041       0.003
   0.06122449  0.06122449  0.06122449       0.003
   0.07142857  0.07142857  0.07142857       0.003
   0.08163265  0.08163265  0.08163265       0.003
   0.09183673  0.09183673  0.09183673       0.003
   0.10204082  0.10204082  0.10204082       0.003
   0.11224490  0.11224490  0.11224490       0.003
   0.12244898  0.12244898  0.12244898       0.003
   0.13265306  0.13265306  0.13265306       0.003
   0.14285714  0.14285714  0.14285714       0.003
   0.15306122  0.15306122  0.15306122       0.003
   0.16326531  0.16326531  0.16326531       0.003
   0.17346939  0.17346939  0.17346939       0.003
   0.18367347  0.18367347  0.18367347       0.003
   0.19387755  0.19387755  0.19387755       0.003
   0.20408163  0.20408163  0.20408163       0.003
   0.21428571  0.21428571  0.21428571       0.003
   0.22448980  0.22448980  0.22448980       0.003
   0.23469388  0.23469388  0.23469388       0.003
   0.24489796  0.24489796  0.24489796       0.003
   0.25510204  0.25510204  0.25510204       0.003
   0.26530612  0.26530612  0.26530612       0.003
   0.27551020  0.27551020  0.27551020       0.003
   0.28571429  0.28571429  0.28571429       0.003
   0.29591837  0.29591837  0.29591837       0.003
   0.30612245  0.30612245  0.30612245       0.003
   0.31632653  0.31632653  0.31632653       0.003
   0.32653061  0.32653061  0.32653061       0.003
   0.33673469  0.33673469  0.33673469       0.003
   0.34693878  0.34693878  0.34693878       0.003
   0.35714286  0.35714286  0.35714286       0.003
   0.36734694  0.36734694  0.36734694       0.003
   0.37755102  0.37755102  0.37755102       0.003
   0.38775510  0.38775510  0.38775510       0.003
   0.39795918  0.39795918  0.39795918       0.003
   0.40816327  0.40816327  0.40816327       0.003
   0.41836735  0.41836735  0.41836735       0.003
   0.42857143  0.42857143  0.42857143       0.003
   0.43877551  0.43877551  0.43877551       0.003
   0.44897959  0.44897959  0.44897959       0.003
   0.45918367  0.45918367  0.45918367       0.003
   0.46938776  0.46938776  0.46938776       0.003
   0.47959184  0.47959184  0.47959184       0.003
   0.48979592  0.48979592  0.48979592       0.003
   0.50000000  0.50000000  0.50000000       0.003
   0.50000000  0.50000000  0.50000000       0.003
   0.50000000  0.51020408  0.48979592       0.003
   0.50000000  0.52040816  0.47959184       0.003
   0.50000000  0.53061224  0.46938776       0.003
   0.50000000  0.54081633  0.45918367       0.003
   0.50000000  0.55102041  0.44897959       0.003
   0.50000000  0.56122449  0.43877551       0.003
   0.50000000  0.57142857  0.42857143       0.003
   0.50000000  0.58163265  0.41836735       0.003
   0.50000000  0.59183673  0.40816327       0.003
   0.50000000  0.60204082  0.39795918       0.003
   0.50000000  0.61224490  0.38775510       0.003
   0.50000000  0.62244898  0.37755102       0.003
   0.50000000  0.63265306  0.36734694       0.003
   0.50000000  0.64285714  0.35714286       0.003
   0.50000000  0.65306122  0.34693878       0.003
   0.50000000  0.66326531  0.33673469       0.003
   0.50000000  0.67346939  0.32653061       0.003
   0.50000000  0.68367347  0.31632653       0.003
   0.50000000  0.69387755  0.30612245       0.003
   0.50000000  0.70408163  0.29591837       0.003
   0.50000000  0.71428571  0.28571429       0.003
   0.50000000  0.72448980  0.27551020       0.003
   0.50000000  0.73469388  0.26530612       0.003
   0.50000000  0.74489796  0.25510204       0.003
   0.50000000  0.75510204  0.24489796       0.003
   0.50000000  0.76530612  0.23469388       0.003
   0.50000000  0.77551020  0.22448980       0.003
   0.50000000  0.78571429  0.21428571       0.003
   0.50000000  0.79591837  0.20408163       0.003
   0.50000000  0.80612245  0.19387755       0.003
   0.50000000  0.81632653  0.18367347       0.003
   0.50000000  0.82653061  0.17346939       0.003
   0.50000000  0.83673469  0.16326531       0.003
   0.50000000  0.84693878  0.15306122       0.003
   0.50000000  0.85714286  0.14285714       0.003
   0.50000000  0.86734694  0.13265306       0.003
   0.50000000  0.87755102  0.12244898       0.003
   0.50000000  0.88775510  0.11224490       0.003
   0.50000000  0.89795918  0.10204082       0.003
   0.50000000  0.90816327  0.09183673       0.003
   0.50000000  0.91836735  0.08163265       0.003
   0.50000000  0.92857143  0.07142857       0.003
   0.50000000  0.93877551  0.06122449       0.003
   0.50000000  0.94897959  0.05102041       0.003
   0.50000000  0.95918367  0.04081633       0.003
   0.50000000  0.96938776  0.03061224       0.003
   0.50000000  0.97959184  0.02040816       0.003
   0.50000000  0.98979592  0.01020408       0.003
   0.50000000  1.00000000  0.00000000       0.003
   0.50000000  1.00000000  0.00000000       0.003
   0.48979592  1.00000000 -0.00000000       0.003
   0.47959184  1.00000000  0.00000000       0.003
   0.46938776  1.00000000  0.00000000       0.003
   0.45918367  1.00000000  0.00000000       0.003
   0.44897959  1.00000000  0.00000000       0.003
   0.43877551  1.00000000  0.00000000       0.003
   0.42857143  1.00000000  0.00000000       0.003
   0.41836735  1.00000000  0.00000000       0.003
   0.40816327  1.00000000  0.00000000       0.003
   0.39795918  1.00000000  0.00000000       0.003
   0.38775510  1.00000000  0.00000000       0.003
   0.37755102  1.00000000 -0.00000000       0.003
   0.36734694  1.00000000  0.00000000       0.003
   0.35714286  1.00000000  0.00000000       0.003
   0.34693878  1.00000000  0.00000000       0.003
   0.33673469  1.00000000  0.00000000       0.003
   0.32653061  1.00000000  0.00000000       0.003
   0.31632653  1.00000000  0.00000000       0.003
   0.30612245  1.00000000 -0.00000000       0.003
   0.29591837  1.00000000  0.00000000       0.003
   0.28571429  1.00000000 -0.00000000       0.003
   0.27551020  1.00000000  0.00000000       0.003
   0.26530612  1.00000000  0.00000000       0.003
   0.25510204  1.00000000  0.00000000       0.003
   0.24489796  1.00000000 -0.00000000       0.003
   0.23469388  1.00000000  0.00000000       0.003
   0.22448980  1.00000000  0.00000000       0.003
   0.21428571  1.00000000 -0.00000000       0.003
   0.20408163  1.00000000  0.00000000       0.003
   0.19387755  1.00000000  0.00000000       0.003
   0.18367347  1.00000000  0.00000000       0.003
   0.17346939  1.00000000  0.00000000       0.003
   0.16326531  1.00000000  0.00000000       0.003
   0.15306122  1.00000000  0.00000000       0.003
   0.14285714  1.00000000  0.00000000       0.003
   0.13265306  1.00000000  0.00000000       0.003
   0.12244898  1.00000000 -0.00000000       0.003
   0.11224490  1.00000000  0.00000000       0.003
   0.10204082  1.00000000  0.00000000       0.003
   0.09183673  1.00000000  0.00000000       0.003
   0.08163265  1.00000000 -0.00000000       0.003
   0.07142857  1.00000000  0.00000000       0.003
   0.06122449  1.00000000 -0.00000000       0.003
   0.05102041  1.00000000  0.00000000       0.003
   0.04081633  1.00000000  0.00000000       0.003
   0.03061224  1.00000000  0.00000000       0.003
   0.02040816  1.00000000  0.00000000       0.003
   0.01020408  1.00000000  0.00000000       0.003
   0.00000000  1.00000000  0.00000000       0.003
 
 k-points in reciprocal lattice and weights: K-Path Generated by VASPKIT.            
   0.00000000  0.00000000  0.00000000       0.003
   0.01020408  0.00000000  0.01020408       0.003
   0.02040816  0.00000000  0.02040816       0.003
   0.03061224  0.00000000  0.03061224       0.003
   0.04081633  0.00000000  0.04081633       0.003
   0.05102041  0.00000000  0.05102041       0.003
   0.06122449  0.00000000  0.06122449       0.003
   0.07142857  0.00000000  0.07142857       0.003
   0.08163265  0.00000000  0.08163265       0.003
   0.09183673  0.00000000  0.09183673       0.003
   0.10204082  0.00000000  0.10204082       0.003
   0.11224490  0.00000000  0.11224490       0.003
   0.12244898  0.00000000  0.12244898       0.003
   0.13265306  0.00000000  0.13265306       0.003
   0.14285714  0.00000000  0.14285714       0.003
   0.15306122  0.00000000  0.15306122       0.003
   0.16326531  0.00000000  0.16326531       0.003
   0.17346939  0.00000000  0.17346939       0.003
   0.18367347  0.00000000  0.18367347       0.003
   0.19387755  0.00000000  0.19387755       0.003
   0.20408163  0.00000000  0.20408163       0.003
   0.21428571  0.00000000  0.21428571       0.003
   0.22448980  0.00000000  0.22448980       0.003
   0.23469388  0.00000000  0.23469388       0.003
   0.24489796  0.00000000  0.24489796       0.003
   0.25510204  0.00000000  0.25510204       0.003
   0.26530612  0.00000000  0.26530612       0.003
   0.27551020  0.00000000  0.27551020       0.003
   0.28571429  0.00000000  0.28571429       0.003
   0.29591837  0.00000000  0.29591837       0.003
   0.30612245  0.00000000  0.30612245       0.003
   0.31632653  0.00000000  0.31632653       0.003
   0.32653061  0.00000000  0.32653061       0.003
   0.33673469  0.00000000  0.33673469       0.003
   0.34693878  0.00000000  0.34693878       0.003
   0.35714286  0.00000000  0.35714286       0.003
   0.36734694  0.00000000  0.36734694       0.003
   0.37755102  0.00000000  0.37755102       0.003
   0.38775510  0.00000000  0.38775510       0.003
   0.39795918  0.00000000  0.39795918       0.003
   0.40816327  0.00000000  0.40816327       0.003
   0.41836735  0.00000000  0.41836735       0.003
   0.42857143  0.00000000  0.42857143       0.003
   0.43877551  0.00000000  0.43877551       0.003
   0.44897959  0.00000000  0.44897959       0.003
   0.45918367  0.00000000  0.45918367       0.003
   0.46938776  0.00000000  0.46938776       0.003
   0.47959184  0.00000000  0.47959184       0.003
   0.48979592  0.00000000  0.48979592       0.003
   0.50000000  0.00000000  0.50000000       0.003
   0.50000000  0.00000000  0.50000000       0.003
   0.50255102  0.00510204  0.50255102       0.003
   0.50510204  0.01020408  0.50510204       0.003
   0.50765306  0.01530612  0.50765306       0.003
   0.51020408  0.02040816  0.51020408       0.003
   0.51275510  0.02551020  0.51275510       0.003
   0.51530612  0.03061224  0.51530612       0.003
   0.51785714  0.03571429  0.51785714       0.003
   0.52040816  0.04081633  0.52040816       0.003
   0.52295918  0.04591837  0.52295918       0.003
   0.52551020  0.05102041  0.52551020       0.003
   0.52806122  0.05612245  0.52806122       0.003
   0.53061224  0.06122449  0.53061224       0.003
   0.53316327  0.06632653  0.53316327       0.003
   0.53571429  0.07142857  0.53571429       0.003
   0.53826531  0.07653061  0.53826531       0.003
   0.54081633  0.08163265  0.54081633       0.003
   0.54336735  0.08673469  0.54336735       0.003
   0.54591837  0.09183673  0.54591837       0.003
   0.54846939  0.09693878  0.54846939       0.003
   0.55102041  0.10204082  0.55102041       0.003
   0.55357143  0.10714286  0.55357143       0.003
   0.55612245  0.11224490  0.55612245       0.003
   0.55867347  0.11734694  0.55867347       0.003
   0.56122449  0.12244898  0.56122449       0.003
   0.56377551  0.12755102  0.56377551       0.003
   0.56632653  0.13265306  0.56632653       0.003
   0.56887755  0.13775510  0.56887755       0.003
   0.57142857  0.14285714  0.57142857       0.003
   0.57397959  0.14795918  0.57397959       0.003
   0.57653061  0.15306122  0.57653061       0.003
   0.57908163  0.15816327  0.57908163       0.003
   0.58163265  0.16326531  0.58163265       0.003
   0.58418367  0.16836735  0.58418367       0.003
   0.58673469  0.17346939  0.58673469       0.003
   0.58928571  0.17857143  0.58928571       0.003
   0.59183673  0.18367347  0.59183673       0.003
   0.59438776  0.18877551  0.59438776       0.003
   0.59693878  0.19387755  0.59693878       0.003
   0.59948980  0.19897959  0.59948980       0.003
   0.60204082  0.20408163  0.60204082       0.003
   0.60459184  0.20918367  0.60459184       0.003
   0.60714286  0.21428571  0.60714286       0.003
   0.60969388  0.21938776  0.60969388       0.003
   0.61224490  0.22448980  0.61224490       0.003
   0.61479592  0.22959184  0.61479592       0.003
   0.61734694  0.23469388  0.61734694       0.003
   0.61989796  0.23979592  0.61989796       0.003
   0.62244898  0.24489796  0.62244898       0.003
   0.62500000  0.25000000  0.62500000       0.003
   0.37500000  0.37500000  0.75000000       0.003
   0.36734694  0.36734694  0.73469388       0.003
   0.35969388  0.35969388  0.71938776       0.003
   0.35204082  0.35204082  0.70408163       0.003
   0.34438776  0.34438776  0.68877551       0.003
   0.33673469  0.33673469  0.67346939       0.003
   0.32908163  0.32908163  0.65816327       0.003
   0.32142857  0.32142857  0.64285714       0.003
   0.31377551  0.31377551  0.62755102       0.003
   0.30612245  0.30612245  0.61224490       0.003
   0.29846939  0.29846939  0.59693878       0.003
   0.29081633  0.29081633  0.58163265       0.003
   0.28316327  0.28316327  0.56632653       0.003
   0.27551020  0.27551020  0.55102041       0.003
   0.26785714  0.26785714  0.53571429       0.003
   0.26020408  0.26020408  0.52040816       0.003
   0.25255102  0.25255102  0.50510204       0.003
   0.24489796  0.24489796  0.48979592       0.003
   0.23724490  0.23724490  0.47448980       0.003
   0.22959184  0.22959184  0.45918367       0.003
   0.22193878  0.22193878  0.44387755       0.003
   0.21428571  0.21428571  0.42857143       0.003
   0.20663265  0.20663265  0.41326531       0.003
   0.19897959  0.19897959  0.39795918       0.003
   0.19132653  0.19132653  0.38265306       0.003
   0.18367347  0.18367347  0.36734694       0.003
   0.17602041  0.17602041  0.35204082       0.003
   0.16836735  0.16836735  0.33673469       0.003
   0.16071429  0.16071429  0.32142857       0.003
   0.15306122  0.15306122  0.30612245       0.003
   0.14540816  0.14540816  0.29081633       0.003
   0.13775510  0.13775510  0.27551020       0.003
   0.13010204  0.13010204  0.26020408       0.003
   0.12244898  0.12244898  0.24489796       0.003
   0.11479592  0.11479592  0.22959184       0.003
   0.10714286  0.10714286  0.21428571       0.003
   0.09948980  0.09948980  0.19897959       0.003
   0.09183673  0.09183673  0.18367347       0.003
   0.08418367  0.08418367  0.16836735       0.003
   0.07653061  0.07653061  0.15306122       0.003
   0.06887755  0.06887755  0.13775510       0.003
   0.06122449  0.06122449  0.12244898       0.003
   0.05357143  0.05357143  0.10714286       0.003
   0.04591837  0.04591837  0.09183673       0.003
   0.03826531  0.03826531  0.07653061       0.003
   0.03061224  0.03061224  0.06122449       0.003
   0.02295918  0.02295918  0.04591837       0.003
   0.01530612  0.01530612  0.03061224       0.003
   0.00765306  0.00765306  0.01530612       0.003
   0.00000000  0.00000000  0.00000000       0.003
   0.00000000  0.00000000  0.00000000       0.003
   0.01020408  0.01020408  0.01020408       0.003
   0.02040816  0.02040816  0.02040816       0.003
   0.03061224  0.03061224  0.03061224       0.003
   0.04081633  0.04081633  0.04081633       0.003
   0.05102041  0.05102041  0.05102041       0.003
   0.06122449  0.06122449  0.06122449       0.003
   0.07142857  0.07142857  0.07142857       0.003
   0.08163265  0.08163265  0.08163265       0.003
   0.09183673  0.09183673  0.09183673       0.003
   0.10204082  0.10204082  0.10204082       0.003
   0.11224490  0.11224490  0.11224490       0.003
   0.12244898  0.12244898  0.12244898       0.003
   0.13265306  0.13265306  0.13265306       0.003
   0.14285714  0.14285714  0.14285714       0.003
   0.15306122  0.15306122  0.15306122       0.003
   0.16326531  0.16326531  0.16326531       0.003
   0.17346939  0.17346939  0.17346939       0.003
   0.18367347  0.18367347  0.18367347       0.003
   0.19387755  0.19387755  0.19387755       0.003
   0.20408163  0.20408163  0.20408163       0.003
   0.21428571  0.21428571  0.21428571       0.003
   0.22448980  0.22448980  0.22448980       0.003
   0.23469388  0.23469388  0.23469388       0.003
   0.24489796  0.24489796  0.24489796       0.003
   0.25510204  0.25510204  0.25510204       0.003
   0.26530612  0.26530612  0.26530612       0.003
   0.27551020  0.27551020  0.27551020       0.003
   0.28571429  0.28571429  0.28571429       0.003
   0.29591837  0.29591837  0.29591837       0.003
   0.30612245  0.30612245  0.30612245       0.003
   0.31632653  0.31632653  0.31632653       0.003
   0.32653061  0.32653061  0.32653061       0.003
   0.33673469  0.33673469  0.33673469       0.003
   0.34693878  0.34693878  0.34693878       0.003
   0.35714286  0.35714286  0.35714286       0.003
   0.36734694  0.36734694  0.36734694       0.003
   0.37755102  0.37755102  0.37755102       0.003
   0.38775510  0.38775510  0.38775510       0.003
   0.39795918  0.39795918  0.39795918       0.003
   0.40816327  0.40816327  0.40816327       0.003
   0.41836735  0.41836735  0.41836735       0.003
   0.42857143  0.42857143  0.42857143       0.003
   0.43877551  0.43877551  0.43877551       0.003
   0.44897959  0.44897959  0.44897959       0.003
   0.45918367  0.45918367  0.45918367       0.003
   0.46938776  0.46938776  0.46938776       0.003
   0.47959184  0.47959184  0.47959184       0.003
   0.48979592  0.48979592  0.48979592       0.003
   0.50000000  0.50000000  0.50000000       0.003
   0.50000000  0.50000000  0.50000000       0.003
   0.50000000  0.49489796  0.50510204       0.003
   0.50000000  0.48979592  0.51020408       0.003
   0.50000000  0.48469388  0.51530612       0.003
   0.50000000  0.47959184  0.52040816       0.003
   0.50000000  0.47448980  0.52551020       0.003
   0.50000000  0.46938776  0.53061224       0.003
   0.50000000  0.46428571  0.53571429       0.003
   0.50000000  0.45918367  0.54081633       0.003
   0.50000000  0.45408163  0.54591837       0.003
   0.50000000  0.44897959  0.55102041       0.003
   0.50000000  0.44387755  0.55612245       0.003
   0.50000000  0.43877551  0.56122449       0.003
   0.50000000  0.43367347  0.56632653       0.003
   0.50000000  0.42857143  0.57142857       0.003
   0.50000000  0.42346939  0.57653061       0.003
   0.50000000  0.41836735  0.58163265       0.003
   0.50000000  0.41326531  0.58673469       0.003
   0.50000000  0.40816327  0.59183673       0.003
   0.50000000  0.40306122  0.59693878       0.003
   0.50000000  0.39795918  0.60204082       0.003
   0.50000000  0.39285714  0.60714286       0.003
   0.50000000  0.38775510  0.61224490       0.003
   0.50000000  0.38265306  0.61734694       0.003
   0.50000000  0.37755102  0.62244898       0.003
   0.50000000  0.37244898  0.62755102       0.003
   0.50000000  0.36734694  0.63265306       0.003
   0.50000000  0.36224490  0.63775510       0.003
   0.50000000  0.35714286  0.64285714       0.003
   0.50000000  0.35204082  0.64795918       0.003
   0.50000000  0.34693878  0.65306122       0.003
   0.50000000  0.34183673  0.65816327       0.003
   0.50000000  0.33673469  0.66326531       0.003
   0.50000000  0.33163265  0.66836735       0.003
   0.50000000  0.32653061  0.67346939       0.003
   0.50000000  0.32142857  0.67857143       0.003
   0.50000000  0.31632653  0.68367347       0.003
   0.50000000  0.31122449  0.68877551       0.003
   0.50000000  0.30612245  0.69387755       0.003
   0.50000000  0.30102041  0.69897959       0.003
   0.50000000  0.29591837  0.70408163       0.003
   0.50000000  0.29081633  0.70918367       0.003
   0.50000000  0.28571429  0.71428571       0.003
   0.50000000  0.28061224  0.71938776       0.003
   0.50000000  0.27551020  0.72448980       0.003
   0.50000000  0.27040816  0.72959184       0.003
   0.50000000  0.26530612  0.73469388       0.003
   0.50000000  0.26020408  0.73979592       0.003
   0.50000000  0.25510204  0.74489796       0.003
   0.50000000  0.25000000  0.75000000       0.003
   0.50000000  0.25000000  0.75000000       0.003
   0.50000000  0.24489796  0.74489796       0.003
   0.50000000  0.23979592  0.73979592       0.003
   0.50000000  0.23469388  0.73469388       0.003
   0.50000000  0.22959184  0.72959184       0.003
   0.50000000  0.22448980  0.72448980       0.003
   0.50000000  0.21938776  0.71938776       0.003
   0.50000000  0.21428571  0.71428571       0.003
   0.50000000  0.20918367  0.70918367       0.003
   0.50000000  0.20408163  0.70408163       0.003
   0.50000000  0.19897959  0.69897959       0.003
   0.50000000  0.19387755  0.69387755       0.003
   0.50000000  0.18877551  0.68877551       0.003
   0.50000000  0.18367347  0.68367347       0.003
   0.50000000  0.17857143  0.67857143       0.003
   0.50000000  0.17346939  0.67346939       0.003
   0.50000000  0.16836735  0.66836735       0.003
   0.50000000  0.16326531  0.66326531       0.003
   0.50000000  0.15816327  0.65816327       0.003
   0.50000000  0.15306122  0.65306122       0.003
   0.50000000  0.14795918  0.64795918       0.003
   0.50000000  0.14285714  0.64285714       0.003
   0.50000000  0.13775510  0.63775510       0.003
   0.50000000  0.13265306  0.63265306       0.003
   0.50000000  0.12755102  0.62755102       0.003
   0.50000000  0.12244898  0.62244898       0.003
   0.50000000  0.11734694  0.61734694       0.003
   0.50000000  0.11224490  0.61224490       0.003
   0.50000000  0.10714286  0.60714286       0.003
   0.50000000  0.10204082  0.60204082       0.003
   0.50000000  0.09693878  0.59693878       0.003
   0.50000000  0.09183673  0.59183673       0.003
   0.50000000  0.08673469  0.58673469       0.003
   0.50000000  0.08163265  0.58163265       0.003
   0.50000000  0.07653061  0.57653061       0.003
   0.50000000  0.07142857  0.57142857       0.003
   0.50000000  0.06632653  0.56632653       0.003
   0.50000000  0.06122449  0.56122449       0.003
   0.50000000  0.05612245  0.55612245       0.003
   0.50000000  0.05102041  0.55102041       0.003
   0.50000000  0.04591837  0.54591837       0.003
   0.50000000  0.04081633  0.54081633       0.003
   0.50000000  0.03571429  0.53571429       0.003
   0.50000000  0.03061224  0.53061224       0.003
   0.50000000  0.02551020  0.52551020       0.003
   0.50000000  0.02040816  0.52040816       0.003
   0.50000000  0.01530612  0.51530612       0.003
   0.50000000  0.01020408  0.51020408       0.003
   0.50000000  0.00510204  0.50510204       0.003
   0.50000000  0.00000000  0.50000000       0.003
 
 position of ions in fractional coordinates (direct lattice) 
   0.00000000  0.00000000  0.00000000
   0.25000000  0.25000000  0.25000000
 
 position of ions in cartesian coordinates  (Angst):
   0.00000000  0.00000000  0.00000000
   1.35750000  1.35750000  1.35750000
 


--------------------------------------------------------------------------------------------------------


 k-point  1 :   0.0000 0.0000 0.0000  plane waves:     965
 k-point  2 :   0.0102 0.0000 0.0102  plane waves:     965
 k-point  3 :   0.0204 0.0000 0.0204  plane waves:     965
 k-point  4 :   0.0306 0.0000 0.0306  plane waves:     969
 k-point  5 :   0.0408 0.0000 0.0408  plane waves:     981
 k-point  6 :   0.0510 0.0000 0.0510  plane waves:     990
 k-point  7 :   0.0612 0.0000 0.0612  plane waves:     990
 k-point  8 :   0.0714 0.0000 0.0714  plane waves:     990
 k-point  9 :   0.0816 0.0000 0.0816  plane waves:     990
 k-point 10 :   0.0918 0.0000 0.0918  plane waves:    1002
 k-point 11 :   0.1020 0.0000 0.1020  plane waves:    1002
 k-point 12 :   0.1122 0.0000 0.1122  plane waves:    1002
 k-point 13 :   0.1224 0.0000 0.1224  plane waves:     994
 k-point 14 :   0.1327 0.0000 0.1327  plane waves:     994
 k-point 15 :   0.1429 0.0000 0.1429  plane waves:     994
 k-point 16 :   0.1531 0.0000 0.1531  plane waves:     998
 k-point 17 :   0.1633 0.0000 0.1633  plane waves:     998
 k-point 18 :   0.1735 0.0000 0.1735  plane waves:     998
 k-point 19 :   0.1837 0.0000 0.1837  plane waves:     998
 k-point 20 :   0.1939 0.0000 0.1939  plane waves:     998
 k-point 21 :   0.2041 0.0000 0.2041  plane waves:     998
 k-point 22 :   0.2143 0.0000 0.2143  plane waves:     998
 k-point 23 :   0.2245 0.0000 0.2245  plane waves:     998
 k-point 24 :   0.2347 0.0000 0.2347  plane waves:     998
 k-point 25 :   0.2449 0.0000 0.2449  plane waves:     998
 k-point 26 :   0.2551 0.0000 0.2551  plane waves:     998
 k-point 27 :   0.2653 0.0000 0.2653  plane waves:    1018
 k-point 28 :   0.2755 0.0000 0.2755  plane waves:    1018
 k-point 29 :   0.2857 0.0000 0.2857  plane waves:    1018
 k-point 30 :   0.2959 0.0000 0.2959  plane waves:    1018
 k-point 31 :   0.3061 0.0000 0.3061  plane waves:    1018
 k-point 32 :   0.3163 0.0000 0.3163  plane waves:    1018
 k-point 33 :   0.3265 0.0000 0.3265  plane waves:    1018
 k-point 34 :   0.3367 0.0000 0.3367  plane waves:    1018
 k-point 35 :   0.3469 0.0000 0.3469  plane waves:    1026
 k-point 36 :   0.3571 0.0000 0.3571  plane waves:    1026
 k-point 37 :   0.3673 0.0000 0.3673  plane waves:    1026
 k-point 38 :   0.3776 0.0000 0.3776  plane waves:    1026
 k-point 39 :   0.3878 0.0000 0.3878  plane waves:    1026
 k-point 40 :   0.3980 0.0000 0.3980  plane waves:    1018
 k-point 41 :   0.4082 0.0000 0.4082  plane waves:    1014
 k-point 42 :   0.4184 0.0000 0.4184  plane waves:    1006
 k-point 43 :   0.4286 0.0000 0.4286  plane waves:    1006
 k-point 44 :   0.4388 0.0000 0.4388  plane waves:    1006
 k-point 45 :   0.4490 0.0000 0.4490  plane waves:    1010
 k-point 46 :   0.4592 0.0000 0.4592  plane waves:    1014
 k-point 47 :   0.4694 0.0000 0.4694  plane waves:    1014
 k-point 48 :   0.4796 0.0000 0.4796  plane waves:    1018
 k-point 49 :   0.4898 0.0000 0.4898  plane waves:    1018
 k-point 50 :   0.5000 0.0000 0.5000  plane waves:    1034
 k-point 51 :   0.5000 0.0000 0.5000  plane waves:    1034
 k-point 52 :   0.5026 0.0051 0.5026  plane waves:    1017
 k-point 53 :   0.5051 0.0102 0.5051  plane waves:    1017
 k-point 54 :   0.5077 0.0153 0.5077  plane waves:    1017
 k-point 55 :   0.5102 0.0204 0.5102  plane waves:    1017
 k-point 56 :   0.5128 0.0255 0.5128  plane waves:    1017
 k-point 57 :   0.5153 0.0306 0.5153  plane waves:    1017
 k-point 58 :   0.5179 0.0357 0.5179  plane waves:    1017
 k-point 59 :   0.5204 0.0408 0.5204  plane waves:    1017
 k-point 60 :   0.5230 0.0459 0.5230  plane waves:    1015
 k-point 61 :   0.5255 0.0510 0.5255  plane waves:    1015
 k-point 62 :   0.5281 0.0561 0.5281  plane waves:    1015
 k-point 63 :   0.5306 0.0612 0.5306  plane waves:    1015
 k-point 64 :   0.5332 0.0663 0.5332  plane waves:    1015
 k-point 65 :   0.5357 0.0714 0.5357  plane waves:    1015
 k-point 66 :   0.5383 0.0765 0.5383  plane waves:    1015
 k-point 67 :   0.5408 0.0816 0.5408  plane waves:    1013
 k-point 68 :   0.5434 0.0867 0.5434  plane waves:    1013
 k-point 69 :   0.5459 0.0918 0.5459  plane waves:    1013
 k-point 70 :   0.5485 0.0969 0.5485  plane waves:    1013
 k-point 71 :   0.5510 0.1020 0.5510  plane waves:    1013
 k-point 72 :   0.5536 0.1071 0.5536  plane waves:    1013
 k-point 73 :   0.5561 0.1122 0.5561  plane waves:    1017
 k-point 74 :   0.5587 0.1173 0.5587  plane waves:    1017
 k-point 75 :   0.5612 0.1224 0.5612  plane waves:    1017
 k-point 76 :   0.5638 0.1276 0.5638  plane waves:    1013
 k-point 77 :   0.5663 0.1327 0.5663  plane waves:    1013
 k-point 78 :   0.5689 0.1378 0.5689  plane waves:    1013
 k-point 79 :   0.5714 0.1429 0.5714  plane waves:    1013
 k-point 80 :   0.5740 0.1480 0.5740  plane waves:    1015
 k-point 81 :   0.5765 0.1531 0.5765  plane waves:    1023
 k-point 82 :   0.5791 0.1582 0.5791  plane waves:    1023
 k-point 83 :   0.5816 0.1633 0.5816  plane waves:    1023
 k-point 84 :   0.5842 0.1684 0.5842  plane waves:    1019
 k-point 85 :   0.5867 0.1735 0.5867  plane waves:    1019
 k-point 86 :   0.5893 0.1786 0.5893  plane waves:    1019
 k-point 87 :   0.5918 0.1837 0.5918  plane waves:    1019
 k-point 88 :   0.5944 0.1888 0.5944  plane waves:    1019
 k-point 89 :   0.5969 0.1939 0.5969  plane waves:    1019
 k-point 90 :   0.5995 0.1990 0.5995  plane waves:    1015
 k-point 91 :   0.6020 0.2041 0.6020  plane waves:    1015
 k-point 92 :   0.6046 0.2092 0.6046  plane waves:    1015
 k-point 93 :   0.6071 0.2143 0.6071  plane waves:    1015
 k-point 94 :   0.6097 0.2194 0.6097  plane waves:    1015
 k-point 95 :   0.6122 0.2245 0.6122  plane waves:    1015
 k-point 96 :   0.6148 0.2296 0.6148  plane waves:    1015
 k-point 97 :   0.6173 0.2347 0.6173  plane waves:    1015
 k-point 98 :   0.6199 0.2398 0.6199  plane waves:    1015
 k-point 99 :   0.6224 0.2449 0.6224  plane waves:    1011
 k-point ** :   0.6250 0.2500 0.6250  plane waves:    1011
 k-point ** :   0.3750 0.3750 0.7500  plane waves:    1011
 k-point ** :   0.3673 0.3673 0.7347  plane waves:    1015
 k-point ** :   0.3597 0.3597 0.7194  plane waves:    1015
 k-point ** :   0.3520 0.3520 0.7041  plane waves:    1017
 k-point ** :   0.3444 0.3444 0.6888  plane waves:    1025
 k-point ** :   0.3367 0.3367 0.6735  plane waves:    1015
 k-point ** :   0.3291 0.3291 0.6582  plane waves:    1015
 k-point ** :   0.3214 0.3214 0.6429  plane waves:    1019
 k-point ** :   0.3138 0.3138 0.6276  plane waves:    1015
 k-point ** :   0.3061 0.3061 0.6122  plane waves:    1015
 k-point ** :   0.2985 0.2985 0.5969  plane waves:    1011
 k-point ** :   0.2908 0.2908 0.5816  plane waves:    1015
 k-point ** :   0.2832 0.2832 0.5663  plane waves:    1015
 k-point ** :   0.2755 0.2755 0.5510  plane waves:    1019
 k-point ** :   0.2679 0.2679 0.5357  plane waves:    1019
 k-point ** :   0.2602 0.2602 0.5204  plane waves:    1019
 k-point ** :   0.2526 0.2526 0.5051  plane waves:    1019
 k-point ** :   0.2449 0.2449 0.4898  plane waves:    1019
 k-point ** :   0.2372 0.2372 0.4745  plane waves:    1023
 k-point ** :   0.2296 0.2296 0.4592  plane waves:    1015
 k-point ** :   0.2219 0.2219 0.4439  plane waves:    1015
 k-point ** :   0.2143 0.2143 0.4286  plane waves:    1009
 k-point ** :   0.2066 0.2066 0.4133  plane waves:    1013
 k-point ** :   0.1990 0.1990 0.3980  plane waves:    1015
 k-point ** :   0.1913 0.1913 0.3827  plane waves:    1009
 k-point ** :   0.1837 0.1837 0.3673  plane waves:    1009
 k-point ** :   0.1760 0.1760 0.3520  plane waves:    1009
 k-point ** :   0.1684 0.1684 0.3367  plane waves:    1013
 k-point ** :   0.1607 0.1607 0.3214  plane waves:    1007
 k-point ** :   0.1531 0.1531 0.3061  plane waves:     999
 k-point ** :   0.1454 0.1454 0.2908  plane waves:     999
 k-point ** :   0.1378 0.1378 0.2755  plane waves:     999
 k-point ** :   0.1301 0.1301 0.2602  plane waves:     999
 k-point ** :   0.1224 0.1224 0.2449  plane waves:     997
 k-point ** :   0.1148 0.1148 0.2296  plane waves:    1001
 k-point ** :   0.1071 0.1071 0.2143  plane waves:     997
 k-point ** :   0.0995 0.0995 0.1990  plane waves:     997
 k-point ** :   0.0918 0.0918 0.1837  plane waves:     997
 k-point ** :   0.0842 0.0842 0.1684  plane waves:     993
 k-point ** :   0.0765 0.0765 0.1531  plane waves:     993
 k-point ** :   0.0689 0.0689 0.1378  plane waves:     993
 k-point ** :   0.0612 0.0612 0.1224  plane waves:     991
 k-point ** :   0.0536 0.0536 0.1071  plane waves:     991
 k-point ** :   0.0459 0.0459 0.0918  plane waves:     989
 k-point ** :   0.0383 0.0383 0.0765  plane waves:     983
 k-point ** :   0.0306 0.0306 0.0612  plane waves:     977
 k-point ** :   0.0230 0.0230 0.0459  plane waves:     975
 k-point ** :   0.0153 0.0153 0.0306  plane waves:     965
 k-point ** :   0.0077 0.0077 0.0153  plane waves:     965
 k-point ** :   0.0000 0.0000 0.0000  plane waves:     965
 k-point ** :   0.0000 0.0000 0.0000  plane waves:     965
 k-point ** :   0.0102 0.0102 0.0102  plane waves:     965
 k-point ** :   0.0204 0.0204 0.0204  plane waves:     965
 k-point ** :   0.0306 0.0306 0.0306  plane waves:     968
 k-point ** :   0.0408 0.0408 0.0408  plane waves:     977
 k-point ** :   0.0510 0.0510 0.0510  plane waves:     977
 k-point ** :   0.0612 0.0612 0.0612  plane waves:     983
 k-point ** :   0.0714 0.0714 0.0714  plane waves:     980
 k-point ** :   0.0816 0.0816 0.0816  plane waves:     992
 k-point ** :   0.0918 0.0918 0.0918  plane waves:     992
 k-point ** :   0.1020 0.1020 0.1020  plane waves:     995
 k-point ** :   0.1122 0.1122 0.1122  plane waves:     995
 k-point ** :   0.1224 0.1224 0.1224  plane waves:     995
 k-point ** :   0.1327 0.1327 0.1327  plane waves:     989
 k-point ** :   0.1429 0.1429 0.1429  plane waves:     989
 k-point ** :   0.1531 0.1531 0.1531  plane waves:     989
 k-point ** :   0.1633 0.1633 0.1633  plane waves:     989
 k-point ** :   0.1735 0.1735 0.1735  plane waves:     989
 k-point ** :   0.1837 0.1837 0.1837  plane waves:     995
 k-point ** :   0.1939 0.1939 0.1939  plane waves:    1001
 k-point ** :   0.2041 0.2041 0.2041  plane waves:    1001
 k-point ** :   0.2143 0.2143 0.2143  plane waves:    1001
 k-point ** :   0.2245 0.2245 0.2245  plane waves:    1001
 k-point ** :   0.2347 0.2347 0.2347  plane waves:    1001
 k-point ** :   0.2449 0.2449 0.2449  plane waves:    1001
 k-point ** :   0.2551 0.2551 0.2551  plane waves:    1001
 k-point ** :   0.2653 0.2653 0.2653  plane waves:    1007
 k-point ** :   0.2755 0.2755 0.2755  plane waves:    1010
 k-point ** :   0.2857 0.2857 0.2857  plane waves:    1011
 k-point ** :   0.2959 0.2959 0.2959  plane waves:    1011
 k-point ** :   0.3061 0.3061 0.3061  plane waves:    1002
 k-point ** :   0.3163 0.3163 0.3163  plane waves:    1008
 k-point ** :   0.3265 0.3265 0.3265  plane waves:    1008
 k-point ** :   0.3367 0.3367 0.3367  plane waves:    1008
 k-point ** :   0.3469 0.3469 0.3469  plane waves:    1008
 k-point ** :   0.3571 0.3571 0.3571  plane waves:    1008
 k-point ** :   0.3673 0.3673 0.3673  plane waves:    1014
 k-point ** :   0.3776 0.3776 0.3776  plane waves:    1017
 k-point ** :   0.3878 0.3878 0.3878  plane waves:    1017
 k-point ** :   0.3980 0.3980 0.3980  plane waves:    1017
 k-point ** :   0.4082 0.4082 0.4082  plane waves:    1023
 k-point ** :   0.4184 0.4184 0.4184  plane waves:    1023
 k-point ** :   0.4286 0.4286 0.4286  plane waves:    1023
 k-point ** :   0.4388 0.4388 0.4388  plane waves:    1026
 k-point ** :   0.4490 0.4490 0.4490  plane waves:    1026
 k-point ** :   0.4592 0.4592 0.4592  plane waves:    1020
 k-point ** :   0.4694 0.4694 0.4694  plane waves:    1020
 k-point ** :   0.4796 0.4796 0.4796  plane waves:    1008
 k-point ** :   0.4898 0.4898 0.4898  plane waves:    1008
 k-point ** :   0.5000 0.5000 0.5000  plane waves:    1008
 k-point ** :   0.5000 0.5000 0.5000  plane waves:    1008
 k-point ** :   0.5000 0.4949 0.5051  plane waves:    1008
 k-point ** :   0.5000 0.4898 0.5102  plane waves:    1008
 k-point ** :   0.5000 0.4847 0.5153  plane waves:    1010
 k-point ** :   0.5000 0.4796 0.5204  plane waves:    1012
 k-point ** :   0.5000 0.4745 0.5255  plane waves:    1016
 k-point ** :   0.5000 0.4694 0.5306  plane waves:    1010
 k-point ** :   0.5000 0.4643 0.5357  plane waves:    1010
 k-point ** :   0.5000 0.4592 0.5408  plane waves:    1010
 k-point ** :   0.5000 0.4541 0.5459  plane waves:    1010
 k-point ** :   0.5000 0.4490 0.5510  plane waves:    1018
 k-point ** :   0.5000 0.4439 0.5561  plane waves:    1018
 k-point ** :   0.5000 0.4388 0.5612  plane waves:    1018
 k-point ** :   0.5000 0.4337 0.5663  plane waves:    1018
 k-point ** :   0.5000 0.4286 0.5714  plane waves:    1018
 k-point ** :   0.5000 0.4235 0.5765  plane waves:    1018
 k-point ** :   0.5000 0.4184 0.5816  plane waves:    1016
 k-point ** :   0.5000 0.4133 0.5867  plane waves:    1018
 k-point ** :   0.5000 0.4082 0.5918  plane waves:    1020
 k-point ** :   0.5000 0.4031 0.5969  plane waves:    1020
 k-point ** :   0.5000 0.3980 0.6020  plane waves:    1022
 k-point ** :   0.5000 0.3929 0.6071  plane waves:    1028
 k-point ** :   0.5000 0.3878 0.6122  plane waves:    1026
 k-point ** :   0.5000 0.3827 0.6173  plane waves:    1026
 k-point ** :   0.5000 0.3776 0.6224  plane waves:    1030
 k-point ** :   0.5000 0.3724 0.6276  plane waves:    1034
 k-point ** :   0.5000 0.3673 0.6327  plane waves:    1026
 k-point ** :   0.5000 0.3622 0.6378  plane waves:    1026
 k-point ** :   0.5000 0.3571 0.6429  plane waves:    1024
 k-point ** :   0.5000 0.3520 0.6480  plane waves:    1024
 k-point ** :   0.5000 0.3469 0.6531  plane waves:    1024
 k-point ** :   0.5000 0.3418 0.6582  plane waves:    1026
 k-point ** :   0.5000 0.3367 0.6633  plane waves:    1020
 k-point ** :   0.5000 0.3316 0.6684  plane waves:    1020
 k-point ** :   0.5000 0.3265 0.6735  plane waves:    1020
 k-point ** :   0.5000 0.3214 0.6786  plane waves:    1022
 k-point ** :   0.5000 0.3163 0.6837  plane waves:    1022
 k-point ** :   0.5000 0.3112 0.6888  plane waves:    1020
 k-point ** :   0.5000 0.3061 0.6939  plane waves:    1020
 k-point ** :   0.5000 0.3010 0.6990  plane waves:    1022
 k-point ** :   0.5000 0.2959 0.7041  plane waves:    1022
 k-point ** :   0.5000 0.2908 0.7092  plane waves:    1022
 k-point ** :   0.5000 0.2857 0.7143  plane waves:    1026
 k-point ** :   0.5000 0.2806 0.7194  plane waves:    1026
 k-point ** :   0.5000 0.2755 0.7245  plane waves:    1030
 k-point ** :   0.5000 0.2704 0.7296  plane waves:    1030
 k-point ** :   0.5000 0.2653 0.7347  plane waves:    1032
 k-point ** :   0.5000 0.2602 0.7398  plane waves:    1036
 k-point ** :   0.5000 0.2551 0.7449  plane waves:    1036
 k-point ** :   0.5000 0.2500 0.7500  plane waves:    1036
 k-point ** :   0.5000 0.2500 0.7500  plane waves:    1036
 k-point ** :   0.5000 0.2449 0.7449  plane waves:    1036
 k-point ** :   0.5000 0.2398 0.7398  plane waves:    1036
 k-point ** :   0.5000 0.2347 0.7347  plane waves:    1036
 k-point ** :   0.5000 0.2296 0.7296  plane waves:    1036
 k-point ** :   0.5000 0.2245 0.7245  plane waves:    1026
 k-point ** :   0.5000 0.2194 0.7194  plane waves:    1026
 k-point ** :   0.5000 0.2143 0.7143  plane waves:    1028
 k-point ** :   0.5000 0.2092 0.7092  plane waves:    1028
 k-point ** :   0.5000 0.2041 0.7041  plane waves:    1028
 k-point ** :   0.5000 0.1990 0.6990  plane waves:    1028
 k-point ** :   0.5000 0.1939 0.6939  plane waves:    1020
 k-point ** :   0.5000 0.1888 0.6888  plane waves:    1020
 k-point ** :   0.5000 0.1837 0.6837  plane waves:    1020
 k-point ** :   0.5000 0.1786 0.6786  plane waves:    1020
 k-point ** :   0.5000 0.1735 0.6735  plane waves:    1016
 k-point ** :   0.5000 0.1684 0.6684  plane waves:    1016
 k-point ** :   0.5000 0.1633 0.6633  plane waves:    1016
 k-point ** :   0.5000 0.1582 0.6582  plane waves:    1016
 k-point ** :   0.5000 0.1531 0.6531  plane waves:    1020
 k-point ** :   0.5000 0.1480 0.6480  plane waves:    1020
 k-point ** :   0.5000 0.1429 0.6429  plane waves:    1016
 k-point ** :   0.5000 0.1378 0.6378  plane waves:    1020
 k-point ** :   0.5000 0.1327 0.6327  plane waves:    1020
 k-point ** :   0.5000 0.1276 0.6276  plane waves:    1020
 k-point ** :   0.5000 0.1224 0.6224  plane waves:    1012
 k-point ** :   0.5000 0.1173 0.6173  plane waves:    1012
 k-point ** :   0.5000 0.1122 0.6122  plane waves:    1012
 k-point ** :   0.5000 0.1071 0.6071  plane waves:    1016
 k-point ** :   0.5000 0.1020 0.6020  plane waves:    1016
 k-point ** :   0.5000 0.0969 0.5969  plane waves:    1016
 k-point ** :   0.5000 0.0918 0.5918  plane waves:    1012
 k-point ** :   0.5000 0.0867 0.5867  plane waves:    1012
 k-point ** :   0.5000 0.0816 0.5816  plane waves:    1012
 k-point ** :   0.5000 0.0765 0.5765  plane waves:    1012
 k-point ** :   0.5000 0.0714 0.5714  plane waves:    1010
 k-point ** :   0.5000 0.0663 0.5663  plane waves:    1010
 k-point ** :   0.5000 0.0612 0.5612  plane waves:    1012
 k-point ** :   0.5000 0.0561 0.5561  plane waves:    1012
 k-point ** :   0.5000 0.0510 0.5510  plane waves:    1012
 k-point ** :   0.5000 0.0459 0.5459  plane waves:    1012
 k-point ** :   0.5000 0.0408 0.5408  plane waves:    1016
 k-point ** :   0.5000 0.0357 0.5357  plane waves:    1016
 k-point ** :   0.5000 0.0306 0.5306  plane waves:    1016
 k-point ** :   0.5000 0.0255 0.5255  plane waves:    1016
 k-point ** :   0.5000 0.0204 0.5204  plane waves:    1016
 k-point ** :   0.5000 0.0153 0.5153  plane waves:    1016
 k-point ** :   0.5000 0.0102 0.5102  plane waves:    1016
 k-point ** :   0.5000 0.0051 0.5051  plane waves:    1016
 k-point ** :   0.5000 0.0000 0.5000  plane waves:    1034

 maximum and minimum number of plane-waves per node :      1036      965

 maximum number of plane-waves:      1036
 maximum index in each direction: 
   IXMAX=    6   IYMAX=    7   IZMAX=    6
   IXMIN=   -7   IYMIN=   -7   IZMIN=   -7


 serial   3D FFT for wavefunctions
 parallel 3D FFT for charge:
    minimum data exchange during FFTs selected (reduces bandwidth)


 total amount of memory used by VASP MPI-rank0   107127. kBytes
=======================================================================

   base      :      30000. kBytes
   nonl-proj :      19924. kBytes
   fftplans  :       7512. kBytes
   grid      :       9289. kBytes
   one-center:          6. kBytes
   wavefun   :      40396. kBytes
 
     INWAV:  cpu time    0.0002: real time    0.0002
 initial charge density was supplied:
 number of electron       7.9999999 magnetization 
 keeping initial charge density in first step


--------------------------------------------------------------------------------------------------------


 Maximum index for augmentation-charges        11057 (set IRDMAX)


--------------------------------------------------------------------------------------------------------


 First call to EWALD:  gamma=   0.518
 Maximum number of real-space cells 3x 3x 3
 Maximum number of reciprocal cells 3x 3x 3

    FEWALD:  cpu time    0.0013: real time    0.0013


--------------------------------------- Iteration      1(   1)  ---------------------------------------


    POTLOK:  cpu time    0.0768: real time    0.1150
    SETDIJ:  cpu time    0.0032: real time    0.0032
     EDDAV:  cpu time    3.4390: real time    3.4878
       DOS:  cpu time    0.0063: real time    0.0063
    --------------------------------------------
      LOOP:  cpu time    3.5253: real time    3.6123

 eigenvalue-minimisations  :  4808
 total energy-change (2. order) : 0.7769108E+01  (-0.3211765E+03)
 number of electron       7.9999999 magnetization 
 augmentation part        7.9999999 magnetization 

 Free energy of the ion-electron system (eV)
  ---------------------------------------------------
  alpha Z        PSCENC =         3.24298762
  Ewald energy   TEWEN  =      -228.56352493
  -Hartree energ DENC   =       -15.00867141
  -exchange      EXHF   =         0.00000000
  -V(xc)+E(xc)   XCENC  =       -18.45142324
  PAW double counting   =        74.74430996      -39.40552429
  entropy T*S    EENTRO =        -0.00258558
  eigenvalues    EBANDS =        24.59963843
  atomic energy  EATOM  =       206.61390135
  Solvation  Ediel_sol  =         0.00000000
  ---------------------------------------------------
  free energy    TOTEN  =         7.76910792 eV

  energy without entropy =        7.77169350  energy(sigma->0) =        7.77040071


--------------------------------------------------------------------------------------------------------




--------------------------------------- Iteration      1(   2)  ---------------------------------------


     EDDAV:  cpu time    4.5576: real time    4.7177
       DOS:  cpu time    0.0071: real time    0.0201
    --------------------------------------------
      LOOP:  cpu time    4.5647: real time    4.7379

 eigenvalue-minimisations  :  7360
 total energy-change (2. order) :-0.1677572E+02  (-0.1606065E+02)
 number of electron       7.9999999 magnetization 
 augmentation part        7.9999999 magnetization 

 Free energy of the ion-electron system (eV)
  ---------------------------------------------------
  alpha Z        PSCENC =         3.24298762
  Ewald energy   TEWEN  =      -228.56352493
  -Hartree energ DENC   =       -15.00867141
  -exchange      EXHF   =         0.00000000
  -V(xc)+E(xc)   XCENC  =       -18.45142324
  PAW double counting   =        74.74430996      -39.40552429
  entropy T*S    EENTRO =        -0.00080807
  eigenvalues    EBANDS =         7.82214519
  atomic energy  EATOM  =       206.61390135
  Solvation  Ediel_sol  =         0.00000000
  ---------------------------------------------------
  free energy    TOTEN  =        -9.00660780 eV

  energy without entropy =       -9.00579974  energy(sigma->0) =       -9.00620377


--------------------------------------------------------------------------------------------------------




--------------------------------------- Iteration      1(   3)  ---------------------------------------


     EDDAV:  cpu time    4.2666: real time    4.7912
       DOS:  cpu time    0.0065: real time    0.0065
    --------------------------------------------
      LOOP:  cpu time    4.2732: real time    4.7978

 eigenvalue-minimisations  :  6312
 total energy-change (2. order) :-0.2576443E+00  (-0.2525854E+00)
 number of electron       7.9999999 magnetization 
 augmentation part        7.9999999 magnetization 

 Free energy of the ion-electron system (eV)
  ---------------------------------------------------
  alpha Z        PSCENC =         3.24298762
  Ewald energy   TEWEN  =      -228.56352493
  -Hartree energ DENC   =       -15.00867141
  -exchange      EXHF   =         0.00000000
  -V(xc)+E(xc)   XCENC  =       -18.45142324
  PAW double counting   =        74.74430996      -39.40552429
  entropy T*S    EENTRO =        -0.00000063
  eigenvalues    EBANDS =         7.56369343
  atomic energy  EATOM  =       206.61390135
  Solvation  Ediel_sol  =         0.00000000
  ---------------------------------------------------
  free energy    TOTEN  =        -9.26425213 eV

  energy without entropy =       -9.26425150  energy(sigma->0) =       -9.26425182


--------------------------------------------------------------------------------------------------------




--------------------------------------- Iteration      1(   4)  ---------------------------------------


     EDDAV:  cpu time    5.2433: real time    5.7992
       DOS:  cpu time    0.0065: real time    0.0066
    --------------------------------------------
      LOOP:  cpu time    5.2498: real time    5.8058

 eigenvalue-minimisations  :  8080
 total energy-change (2. order) :-0.1250334E-02  (-0.1250334E-02)
 number of electron       7.9999999 magnetization 
 augmentation part        7.9999999 magnetization 

 Free energy of the ion-electron system (eV)
  ---------------------------------------------------
  alpha Z        PSCENC =         3.24298762
  Ewald energy   TEWEN  =      -228.56352493
  -Hartree energ DENC   =       -15.00867141
  -exchange      EXHF   =         0.00000000
  -V(xc)+E(xc)   XCENC  =       -18.45142324
  PAW double counting   =        74.74430996      -39.40552429
  entropy T*S    EENTRO =        -0.00000062
  eigenvalues    EBANDS =         7.56244309
  atomic energy  EATOM  =       206.61390135
  Solvation  Ediel_sol  =         0.00000000
  ---------------------------------------------------
  free energy    TOTEN  =        -9.26550246 eV

  energy without entropy =       -9.26550184  energy(sigma->0) =       -9.26550215


--------------------------------------------------------------------------------------------------------




--------------------------------------- Iteration      1(   5)  ---------------------------------------


     EDDAV:  cpu time    4.3368: real time    5.9309
       DOS:  cpu time    0.0067: real time    0.0067
    --------------------------------------------
      LOOP:  cpu time    4.3435: real time    5.9376

 eigenvalue-minimisations  :  6440
 total energy-change (2. order) :-0.2135158E-05  (-0.2135547E-05)
 number of electron       7.9999999 magnetization 
 augmentation part        7.9999999 magnetization 

 Free energy of the ion-electron system (eV)
  ---------------------------------------------------
  alpha Z        PSCENC =         3.24298762
  Ewald energy   TEWEN  =      -228.56352493
  -Hartree energ DENC   =       -15.00867141
  -exchange      EXHF   =         0.00000000
  -V(xc)+E(xc)   XCENC  =       -18.45142324
  PAW double counting   =        74.74430996      -39.40552429
  entropy T*S    EENTRO =        -0.00000062
  eigenvalues    EBANDS =         7.56244095
  atomic energy  EATOM  =       206.61390135
  Solvation  Ediel_sol  =         0.00000000
  ---------------------------------------------------
  free energy    TOTEN  =        -9.26550460 eV

  energy without entropy =       -9.26550398  energy(sigma->0) =       -9.26550429


--------------------------------------------------------------------------------------------------------




--------------------------------------- Iteration      1(   6)  ---------------------------------------


     EDDAV:  cpu time    5.0909: real time    7.8785
       DOS:  cpu time    0.0066: real time    0.0066
    --------------------------------------------
      LOOP:  cpu time    5.0975: real time    7.8851

 eigenvalue-minimisations  :  8208
 total energy-change (2. order) :-0.2634317E-07  (-0.2621940E-07)
 number of electron       7.9999999 magnetization 
 augmentation part        7.9999999 magnetization 

 Free energy of the ion-electron system (eV)
  ---------------------------------------------------
  alpha Z        PSCENC =         3.24298762
  Ewald energy   TEWEN  =      -228.56352493
  -Hartree energ DENC   =       -15.00867141
  -exchange      EXHF   =         0.00000000
  -V(xc)+E(xc)   XCENC  =       -18.45142324
  PAW double counting   =        74.74430996      -39.40552429
  entropy T*S    EENTRO =        -0.00000062
  eigenvalues    EBANDS =         7.56244093
  atomic energy  EATOM  =       206.61390135
  Solvation  Ediel_sol  =         0.00000000
  ---------------------------------------------------
  free energy    TOTEN  =        -9.26550463 eV

  energy without entropy =       -9.26550400  energy(sigma->0) =       -9.26550431


--------------------------------------------------------------------------------------------------------




 average (electrostatic) potential at core
  the test charge radii are     0.9892
  (the norm of the test charge is              1.0000)
       1 -83.4928       2 -83.4928
 
 
 
 E-fermi :   6.1012     XC(G=0):  -9.4343     alpha+bet :-11.9992


 k-point     1 :       0.0000    0.0000    0.0000
  band No.  band energies     occupation 
      1      -6.1447      2.00000
      2       5.7959      1.99998
      3       5.7959      1.99998
      4       5.7959      1.99998
      5       8.3823      0.00000
      6       8.3823      0.00000
      7       8.3823      0.00000
      8       9.1679      0.00000

 k-point     2 :       0.0102    0.0000    0.0102
  band No.  band energies     occupation 
      1      -6.1428      2.00000
      2       5.7833      1.99999
      3       5.7880      1.99999
      4       5.7880      1.99999
      5       8.3777      0.00000
      6       8.3924      0.00000
      7       8.3924      0.00000
      8       9.1802      0.00000

 k-point     3 :       0.0204    0.0000    0.0204
  band No.  band energies     occupation 
      1      -6.1374      2.00000
      2       5.7462      2.00000
      3       5.7647      2.00000
      4       5.7647      2.00000
      5       8.3640      0.00000
      6       8.4224      0.00000
      7       8.4224      0.00000
      8       9.2166      0.00000

 k-point     4 :       0.0306    0.0000    0.0306
  band No.  band energies     occupation 
      1      -6.1283      2.00000
      2       5.6861      2.00000
      3       5.7272      2.00000
      4       5.7272      2.00000
      5       8.3415      0.00000
      6       8.4711      0.00000
      7       8.4711      0.00000
      8       9.2751      0.00000

 k-point     5 :       0.0408    0.0000    0.0408
  band No.  band energies     occupation 
      1      -6.1155      2.00000
      2       5.6053      2.00000
      3       5.6769      2.00000
      4       5.6769      2.00000
      5       8.3107      0.00000
      6       8.5371      0.00000
      7       8.5371      0.00000
      8       9.3530      0.00000

 k-point     6 :       0.0510    0.0000    0.0510
  band No.  band energies     occupation 
      1      -6.0991      2.00000
      2       5.5066      2.00000
      3       5.6156      2.00000
      4       5.6156      2.00000
      5       8.2720      0.00000
      6       8.6184      0.00000
      7       8.6184      0.00000
      8       9.4469      0.00000

[...]
      7      12.5283      0.00000
      8      12.5283      0.00000

 k-point   268 :       0.5000    0.1633    0.6633
  band No.  band energies     occupation 
      1      -1.8878      2.00000
      2      -1.8878      2.00000
      3       2.1843      2.00000
      4       2.1843      2.00000
      5       8.4915      0.00000
      6       8.4915      0.00000
      7      12.6592      0.00000
      8      12.6592      0.00000

 k-point   269 :       0.5000    0.1582    0.6582
  band No.  band energies     occupation 
      1      -1.8927      2.00000
      2      -1.8927      2.00000
      3       2.2095      2.00000
      4       2.2095      2.00000
      5       8.3919      0.00000
      6       8.3919      0.00000
      7      12.7906      0.00000
      8      12.7906      0.00000

 k-point   270 :       0.5000    0.1531    0.6531
  band No.  band energies     occupation 
      1      -1.8978      2.00000
      2      -1.8978      2.00000
      3       2.2359      2.00000
      4       2.2359      2.00000
      5       8.2936      0.00000
      6       8.2936      0.00000
      7      12.9225      0.00000
      8      12.9225      0.00000

 k-point   271 :       0.5000    0.1480    0.6480
  band No.  band energies     occupation 
      1      -1.9029      2.00000
      2      -1.9029      2.00000
      3       2.2631      2.00000
      4       2.2631      2.00000
      5       8.1968      0.00000
      6       8.1968      0.00000
      7      13.0548      0.00000
      8      13.0548      0.00000

 k-point   272 :       0.5000    0.1429    0.6429
  band No.  band energies     occupation 
      1      -1.9080      2.00000
      2      -1.9080      2.00000
      3       2.2913      2.00000
      4       2.2913      2.00000
      5       8.1016      0.00000
      6       8.1016      0.00000
      7      13.1874      0.00000
      8      13.1874      0.00000

 k-point   273 :       0.5000    0.1378    0.6378
  band No.  band energies     occupation 
      1      -1.9133      2.00000
      2      -1.9133      2.00000
      3       2.3202      2.00000
      4       2.3202      2.00000
      5       8.0079      0.00000
      6       8.0079      0.00000
      7      13.3202      0.00000
      8      13.3202      0.00000

 k-point   274 :       0.5000    0.1327    0.6327
  band No.  band energies     occupation 
      1      -1.9185      2.00000
      2      -1.9185      2.00000
      3       2.3499      2.00000
      4       2.3499      2.00000
      5       7.9160      0.00000
      6       7.9160      0.00000
      7      13.4532      0.00000
      8      13.4532      0.00000

 k-point   275 :       0.5000    0.1276    0.6276
  band No.  band energies     occupation 
      1      -1.9237      2.00000
      2      -1.9237      2.00000
      3       2.3802      2.00000
      4       2.3802      2.00000
      5       7.8259      0.00000
      6       7.8259      0.00000
      7      13.5862      0.00000
      8      13.5863      0.00000

 k-point   276 :       0.5000    0.1224    0.6224
  band No.  band energies     occupation 
      1      -1.9290      2.00000
      2      -1.9290      2.00000
      3       2.4110      2.00000
      4       2.4110      2.00000
      5       7.7377      0.00000
      6       7.7377      0.00000
      7      13.7192      0.00000
      8      13.7192      0.00000

 k-point   277 :       0.5000    0.1173    0.6173
  band No.  band energies     occupation 
      1      -1.9341      2.00000
      2      -1.9341      2.00000
      3       2.4422      2.00000
      4       2.4422      2.00000
      5       7.6515      0.00000
      6       7.6515      0.00000
      7      13.8519      0.00000
      8      13.8519      0.00000

 k-point   278 :       0.5000    0.1122    0.6122
  band No.  band energies     occupation 
      1      -1.9392      2.00000
      2      -1.9392      2.00000
      3       2.4738      2.00000
      4       2.4738      2.00000
      5       7.5674      0.00000
      6       7.5674      0.00000
      7      13.9843      0.00000
      8      13.9843      0.00000

 k-point   279 :       0.5000    0.1071    0.6071
  band No.  band energies     occupation 
      1      -1.9443      2.00000
      2      -1.9443      2.00000
      3       2.5055      2.00000
      4       2.5055      2.00000
      5       7.4855      0.00000
      6       7.4855      0.00000
      7      14.1163      0.00000
      8      14.1163      0.00000

 k-point   280 :       0.5000    0.1020    0.6020
  band No.  band energies     occupation 
      1      -1.9492      2.00000
      2      -1.9492      2.00000
      3       2.5374      2.00000
      4       2.5374      2.00000
      5       7.4059      0.00000
      6       7.4059      0.00000
      7      14.2475      0.00000
      8      14.2475      0.00000

 k-point   281 :       0.5000    0.0969    0.5969
  band No.  band energies     occupation 
      1      -1.9540      2.00000
      2      -1.9540      2.00000
      3       2.5692      2.00000
      4       2.5692      2.00000
      5       7.3288      0.00000
      6       7.3288      0.00000
      7      14.3778      0.00000
      8      14.3778      0.00000

 k-point   282 :       0.5000    0.0918    0.5918
  band No.  band energies     occupation 
      1      -1.9587      2.00000
      2      -1.9587      2.00000
      3       2.6009      2.00000
      4       2.6009      2.00000
      5       7.2542      0.00000
      6       7.2542      0.00000
      7      14.5069      0.00000
      8      14.5069      0.00000

 k-point   283 :       0.5000    0.0867    0.5867
  band No.  band energies     occupation 
      1      -1.9632      2.00000
      2      -1.9632      2.00000
      3       2.6322      2.00000
      4       2.6322      2.00000
      5       7.1823      0.00000
      6       7.1823      0.00000
      7      14.6346      0.00000
      8      14.6346      0.00000

 k-point   284 :       0.5000    0.0816    0.5816
  band No.  band energies     occupation 
      1      -1.9676      2.00000
      2      -1.9676      2.00000
      3       2.6630      2.00000
      4       2.6630      2.00000
      5       7.1132      0.00000
      6       7.1132      0.00000
      7      14.7604      0.00000
      8      14.7604      0.00000

 k-point   285 :       0.5000    0.0765    0.5765
  band No.  band energies     occupation 
      1      -1.9717      2.00000
      2      -1.9717      2.00000
      3       2.6933      2.00000
      4       2.6933      2.00000
      5       7.0471      0.00000
      6       7.0471      0.00000
      7      14.8838      0.00000
      8      14.8838      0.00000

 k-point   286 :       0.5000    0.0714    0.5714
  band No.  band energies     occupation 
      1      -1.9757      2.00000
      2      -1.9757      2.00000
      3       2.7227      2.00000
      4       2.7227      2.00000
      5       6.9841      0.00000
      6       6.9841      0.00000
      7      15.0044      0.00000
      8      15.0044      0.00000

 k-point   287 :       0.5000    0.0663    0.5663
  band No.  band energies     occupation 
      1      -1.9794      2.00000
      2      -1.9794      2.00000
      3       2.7512      2.00000
      4       2.7512      2.00000
      5       6.9245      0.00000
      6       6.9245      0.00000
      7      15.1214      0.00000
      8      15.1216      0.00000

 k-point   288 :       0.5000    0.0612    0.5612
  band No.  band energies     occupation 
      1      -1.9829      2.00000
      2      -1.9829      2.00000
      3       2.7786      2.00000
      4       2.7786      2.00000
      5       6.8683      0.00000
      6       6.8683      0.00000
      7      15.2340      0.00000
      8      15.2341      0.00000

 k-point   289 :       0.5000    0.0561    0.5561
  band No.  band energies     occupation 
      1      -1.9862      2.00000
      2      -1.9862      2.00000
      3       2.8047      2.00000
      4       2.8047      2.00000
      5       6.8157      0.00000
      6       6.8157      0.00000
      7      15.3411      0.00000
      8      15.3420      0.00000

 k-point   290 :       0.5000    0.0510    0.5510
  band No.  band energies     occupation 
      1      -1.9892      2.00000
      2      -1.9892      2.00000
      3       2.8293      2.00000
      4       2.8293      2.00000
      5       6.7669      0.00000
      6       6.7669      0.00000
      7      15.4417      0.00000
      8      15.4428      0.00000

 k-point   291 :       0.5000    0.0459    0.5459
  band No.  band energies     occupation 
      1      -1.9920      2.00000
      2      -1.9920      2.00000
      3       2.8522      2.00000
      4       2.8522      2.00000
      5       6.7221      0.00000
      6       6.7221      0.00000
      7      15.5345      0.00000
      8      15.5373      0.00000

 k-point   292 :       0.5000    0.0408    0.5408
  band No.  band energies     occupation 
      1      -1.9945      2.00000
      2      -1.9945      2.00000
      3       2.8733      2.00000
      4       2.8733      2.00000
      5       6.6815      0.00000
      6       6.6815      0.00000
      7      15.6183      0.00000
      8      15.6196      0.00000

 k-point   293 :       0.5000    0.0357    0.5357
  band No.  band energies     occupation 
      1      -1.9968      2.00000
      2      -1.9968      2.00000
      3       2.8924      2.00000
      4       2.8924      2.00000
      5       6.6452      0.00000
      6       6.6452      0.00000
      7      15.6917      0.00000
      8      15.6922      0.00000

 k-point   294 :       0.5000    0.0306    0.5306
  band No.  band energies     occupation 
      1      -1.9987      2.00000
      2      -1.9987      2.00000
      3       2.9094      2.00000
      4       2.9094      2.00000
      5       6.6133      0.00000
      6       6.6133      0.00000
      7      15.7544      0.00000
      8      15.7553      0.00000

 k-point   295 :       0.5000    0.0255    0.5255
  band No.  band energies     occupation 
      1      -2.0004      2.00000
      2      -2.0004      2.00000
      3       2.9240      2.00000
      4       2.9240      2.00000
      5       6.5861      0.00000
      6       6.5861      0.00000
      7      15.8073      0.00000
      8      15.8331      0.00000

 k-point   296 :       0.5000    0.0204    0.5204
  band No.  band energies     occupation 
      1      -2.0017      2.00000
      2      -2.0017      2.00000
      3       2.9362      2.00000
      4       2.9362      2.00000
      5       6.5636      0.00000
      6       6.5636      0.00000
      7      15.8466      0.00000
      8      15.8578      0.00000

 k-point   297 :       0.5000    0.0153    0.5153
  band No.  band energies     occupation 
      1      -2.0028      2.00000
      2      -2.0028      2.00000
      3       2.9457      2.00000
      4       2.9457      2.00000
      5       6.5460      0.00000
      6       6.5460      0.00000
      7      15.8786      0.00000
      8      15.8800      0.00000

 k-point   298 :       0.5000    0.0102    0.5102
  band No.  band energies     occupation 
      1      -2.0035      2.00000
      2      -2.0035      2.00000
      3       2.9527      2.00000
      4       2.9527      2.00000
      5       6.5334      0.00000
      6       6.5334      0.00000
      7      15.8987      0.00000
      8      15.9138      0.00000

 k-point   299 :       0.5000    0.0051    0.5051
  band No.  band energies     occupation 
      1      -2.0040      2.00000
      2      -2.0040      2.00000
      3       2.9568      2.00000
      4       2.9568      2.00000
      5       6.5257      0.00000
      6       6.5257      0.00000
      7      15.9100      0.00000
      8      15.9142      0.00000

 k-point   300 :       0.5000    0.0000    0.5000
  band No.  band energies     occupation 
      1      -2.0042      2.00000
      2      -2.0042      2.00000
      3       2.9582      2.00000
      4       2.9582      2.00000
      5       6.5232      0.00000
      6       6.5232      0.00000
      7      15.9143      0.00000
      8      15.9157      0.00000


--------------------------------------------------------------------------------------------------------


 soft charge-density along one line, spin component           1
         0         1         2         3         4         5         6         7         8         9
 total charge-density along one line
 
 pseudopotential strength for first ion, spin component:           1
 18.617   0.000  -0.001   0.000   0.000   0.000   0.000   0.000   0.000   0.000  -0.000   0.000  -0.000   0.000  -0.000   0.000
 -0.001   0.000   0.006   0.000  -0.000   0.000  -0.000   0.000  -0.000   0.000   0.000   0.000   0.000   0.000   0.000   0.000
  0.000   0.000  -0.000   0.000   4.224   0.000  -0.000   0.000  -0.000   0.000  -0.005   0.000   0.000   0.000   0.000   0.000
  0.000   0.000  -0.000   0.000  -0.000   0.000   4.224   0.000  -0.000   0.000   0.000   0.000  -0.005   0.000   0.000   0.000
  0.000   0.000  -0.000   0.000  -0.000   0.000  -0.000   0.000   4.224   0.000   0.000   0.000   0.000   0.000  -0.005   0.000
 -0.000   0.000   0.000   0.000  -0.005   0.000   0.000   0.000   0.000   0.000   0.005   0.000  -0.000   0.000  -0.000   0.000
 -0.000   0.000   0.000   0.000   0.000   0.000  -0.005   0.000   0.000   0.000  -0.000   0.000   0.005   0.000  -0.000   0.000
 -0.000   0.000   0.000   0.000   0.000   0.000   0.000   0.000  -0.005   0.000  -0.000   0.000  -0.000   0.000   0.005   0.000
 total augmentation occupancy for first ion, spin component:           1
  2.000   0.000   0.000   0.000   0.000   0.000   0.000   0.000
  0.000   0.000   0.000   0.000   0.000   0.000   0.000   0.000
  0.000   0.000   0.667   0.000   0.000   0.000   0.000   0.000
  0.000   0.000   0.000   0.667   0.000   0.000   0.000   0.000
  0.000   0.000   0.000   0.000   0.667   0.000   0.000   0.000
  0.000   0.000   0.000   0.000   0.000   0.000   0.000   0.000
  0.000   0.000   0.000   0.000   0.000   0.000   0.000   0.000
  0.000   0.000   0.000   0.000   0.000   0.000   0.000   0.000


------------------------ aborting loop because EDIFF is reached ----------------------------------------


 


 total charge     
 
# of ion       s       p       d       tot
------------------------------------------
    1        0.715   0.996   0.000   1.711
    2        0.715   0.996   0.000   1.711
--------------------------------------------------
tot          1.430   1.992   0.000   3.422
 
    CHARGE:  cpu time    0.2443: real time    0.4753
    FORLOC:  cpu time    0.0051: real time    0.0181
    FORNL :  cpu time    0.3227: real time    0.6445
    STRESS:  cpu time    0.9562: real time    1.9203
    FORCOR:  cpu time    0.0789: real time    0.1441
    FORHAR:  cpu time    0.0182: real time    0.0443
    OFIELD:  cpu time    0.0005: real time    0.0005

  FORCE on cell =-STRESS in cart. coord.  units (eV):
  Direction    XX          YY          ZZ          XY          YZ          ZX
  --------------------------------------------------------------------------------------
  Alpha Z     3.24299     3.24299     3.24299
  Ewald     -76.18788   -76.18788   -76.18788     0.00000    -0.00000     0.00000
  Hartree     5.40922     5.40922     5.40922     0.00000     0.00000     0.00000
  E(xc)     -25.50474   -25.50474   -25.50474     0.00000     0.00000     0.00000
  Local     -30.36669   -30.36669   -30.36669     0.00001     0.00001     0.00001
  n-local    79.98944    74.66414    78.53217    -1.63969    -0.70333    -1.21467
  augment   -11.49874   -11.49874   -11.49874    -0.00001    -0.00001    -0.00001
  Kinetic    59.89527    56.80349    61.20420    -1.45635    -1.09077    -1.75779
  Fock        0.00000     0.00000     0.00000     0.00000     0.00000     0.00000
  -------------------------------------------------------------------------------------
  Total       2.12374     2.12374     2.12374     0.00000    -0.00000     0.00000
  in kB      85.01030    85.01030    85.01030     0.00000    -0.00000     0.00000
  external pressure =       85.01 kB  Pullay stress =        0.00 kB


 VOLUME and BASIS-vectors are now :
 -----------------------------------------------------------------------------
  energy-cutoff  :      500.00
  volume of cell :       40.03
      direct lattice vectors                 reciprocal lattice vectors
     0.000000000  2.715000000  2.715000000    -0.184162063  0.184162063  0.184162063
     2.715000000  0.000000000  2.715000000     0.184162063 -0.184162063  0.184162063
     2.715000000  2.715000000  0.000000000     0.184162063  0.184162063 -0.184162063

  length of vectors
     3.839589822  3.839589822  3.839589822     0.318978049  0.318978049  0.318978049


 FORCES acting on ions
    electron-ion (+dipol)            ewald-force                    non-local-force                 convergence-correction
 -----------------------------------------------------------------------------------------------
   0.388E-06 0.388E-06 0.388E-06   0.132E-14 -.451E-14 -.305E-14   0.108E-15 0.694E-16 0.833E-16   0.157E-09 0.157E-09 0.157E-09
   -.388E-06 -.388E-06 -.388E-06   -.113E-14 0.493E-14 0.317E-14   -.937E-16 -.520E-16 -.798E-16   -.157E-09 -.157E-09 -.157E-09
 -----------------------------------------------------------------------------------------------
   -.389E-13 0.266E-14 0.934E-14   0.187E-15 0.422E-15 0.120E-15   0.139E-16 0.173E-16 0.347E-17   0.292E-15 0.268E-15 -.454E-15
 
 
 POSITION                                       TOTAL-FORCE (eV/Angst)
 -----------------------------------------------------------------------------------
      0.00000      0.00000      0.00000        -0.000000     -0.000000      0.000000
      1.35750      1.35750      1.35750         0.000000      0.000000     -0.000000
 -----------------------------------------------------------------------------------
    total drift:                               -0.000000      0.000000      0.000000


--------------------------------------------------------------------------------------------------------



  FREE ENERGIE OF THE ION-ELECTRON SYSTEM (eV)
  ---------------------------------------------------
  free  energy   TOTEN  =        -9.26550463 eV

  energy  without entropy=       -9.26550400  energy(sigma->0) =       -9.26550431
 


--------------------------------------------------------------------------------------------------------


    POTLOK:  cpu time    0.0747: real time    0.1529


--------------------------------------------------------------------------------------------------------


     LOOP+:  cpu time   28.7995: real time   36.3260
    4ORBIT:  cpu time    0.0000: real time    0.0000
 


 total charge     
 
# of ion       s       p       d       tot
------------------------------------------
    1        0.715   0.996   0.000   1.711
    2        0.715   0.996   0.000   1.711
--------------------------------------------------
tot          1.430   1.992   0.000   3.422
 

 total amount of memory used by VASP MPI-rank0   107127. kBytes
=======================================================================

   base      :      30000. kBytes
   nonl-proj :      19924. kBytes
   fftplans  :       7512. kBytes
   grid      :       9289. kBytes
   one-center:          6. kBytes
   wavefun   :      40396. kBytes
 
  
  
 General timing and accounting informations for this job:
 ========================================================
  
                  Total CPU time used (sec):       31.891
                            User time (sec):       27.819
                          System time (sec):        4.072
                         Elapsed time (sec):       43.780
  
                   Maximum memory used (kb):      150360.
                   Average memory used (kb):           0.
  
                          Minor page faults:        44708
                          Major page faults:            0
                 Voluntary context switches:          272
