<?xml version="1.0" encoding="ISO-8859-1"?>
<modeling>
 <generator>
  <i name="program" type="string">vasp </i>
  <i name="version" type="string">5.4.4.18Apr17-6-g9f103f2a35  </i>
  <i name="subversion" type="string">(build May 20 2018 16:52:39) complex            parallel </i>
  <i name="platform" type="string">LinuxIFC </i>
  <i name="date" type="string">2022 10 01 </i>
  <i name="time" type="string">21:51:53 </i>
 </generator>
 <incar>
  <i type="string" name="SYSTEM"> diamond Si</i>
  <i type="int" name="ISTART">     0</i>
  <i type="string" name="PREC">normal</i>
  <i type="int" name="ICHARG">    11</i>
  <i name="EDIFF">      0.00000010</i>
  <i name="ENCUT">    500.00000000</i>
  <v name="RWIGS">      1.61626000</v>
  <i type="int" name="ISMEAR">     0</i>
  <i name="SIGMA">      0.10000000</i>
  <i type="logical" name="LWAVE"> F  </i>
  <i type="logical" name="LCHARG"> F  </i>
  <i type="int" name="LORBIT">    10</i>
  <v type="int" name="KPOINT_BSE">    -1     0     0     0</v>
 </incar>
 <structure name="primitive_cell" >
  <crystal>
   <varray name="basis" >
    <v>       0.00000000       2.71500000       2.71500000 </v>
    <v>       2.71500000       0.00000000       2.71500000 </v>
    <v>       2.71500000       2.71500000       0.00000000 </v>
   </varray>
   <i name="volume">     40.02575175 </i>
   <varray name="rec_basis" >
    <v>      -0.18416206       0.18416206       0.18416206 </v>
    <v>       0.18416206      -0.18416206       0.18416206 </v>
    <v>       0.18416206       0.18416206      -0.18416206 </v>
   </varray>
  </crystal>
  <varray name="positions" >
   <v>       0.00000000       0.00000000       0.00000000 </v>
   <v>       0.25000000       0.25000000       0.25000000 </v>
  </varray>
 </structure>
 <varray name="primitive_index" >
  <v type="int" >        1 </v>
  <v type="int" >        2 </v>
 </varray>
 <kpoints>
  <generation param="listgenerated">
   <i name="divisions" type="int">      50 </i>
   <v>       0.00000000       0.00000000       0.00000000 </v>
   <v>       0.50000000       0.00000000       0.50000000 </v>
   <v>       0.37500000       0.37500000       0.75000000 </v>
   <v>       0.00000000       0.00000000       0.00000000 </v>
   <v>       0.50000000       0.50000000       0.50000000 </v>
   <v>       0.50000000       0.25000000       0.75000000 </v>
   <v>       0.50000000       0.00000000       0.50000000 </v>
  </generation>
  <varray name="kpointlist" >
   <v>       0.00000000       0.00000000       0.00000000 </v>
   <v>       0.01020408       0.00000000       0.01020408 </v>
   <v>       0.02040816       0.00000000       0.02040816 </v>
   <v>       0.03061224       0.00000000       0.03061224 </v>
   <v>       0.04081633       0.00000000       0.04081633 </v>
   <v>       0.05102041       0.00000000       0.05102041 </v>
   <v>       0.06122449       0.00000000       0.06122449 </v>
   <v>       0.07142857       0.00000000       0.07142857 </v>
   <v>       0.08163265       0.00000000       0.08163265 </v>
   <v>       0.09183673       0.00000000       0.09183673 </v>
   <v>       0.10204082       0.00000000       0.10204082 </v>
   <v>       0.11224490       0.00000000       0.11224490 </v>
   <v>       0.12244898       0.00000000       0.12244898 </v>
   <v>       0.13265306       0.00000000       0.13265306 </v>
   <v>       0.14285714       0.00000000       0.14285714 </v>
   <v>       0.15306122       0.00000000       0.15306122 </v>
   <v>       0.16326531       0.00000000       0.16326531 </v>
   <v>       0.17346939       0.00000000       0.17346939 </v>
   <v>       0.18367347       0.00000000       0.18367347 </v>
   <v>       0.19387755       0.00000000       0.19387755 </v>
   <v>       0.20408163       0.00000000       0.20408163 </v>
   <v>       0.21428571       0.00000000       0.21428571 </v>
   <v>       0.22448980       0.00000000       0.22448980 </v>
   <v>       0.23469388       0.00000000       0.23469388 </v>
   <v>       0.24489796       0.00000000       0.24489796 </v>
   <v>       0.25510204       0.00000000       0.25510204 </v>
   <v>       0.26530612       0.00000000       0.26530612 </v>
   <v>       0.27551020       0.00000000       0.27551020 </v>
   <v>       0.28571429       0.00000000       0.28571429 </v>
   <v>       0.29591837       0.00000000       0.29591837 </v>
   <v>       0.30612245       0.00000000       0.30612245 </v>
   <v>       0.31632653       0.00000000       0.31632653 </v>
   <v>       0.32653061       0.00000000       0.32653061 </v>
   <v>       0.33673469       0.00000000       0.33673469 </v>
   <v>       0.34693878       0.00000000       0.34693878 </v>
   <v>       0.35714286       0.00000000       0.35714286 </v>
   <v>       0.36734694       0.00000000       0.36734694 </v>
   <v>       0.37755102       0.00000000       0.37755102 </v>
   <v>       0.38775510       0.00000000       0.38775510 </v>
   <v>       0.39795918       0.00000000       0.39795918 </v>
   <v>       0.40816327       0.00000000       0.40816327 </v>
   <v>       0.41836735       0.00000000       0.41836735 </v>
   <v>       0.42857143       0.00000000       0.42857143 </v>
   <v>       0.43877551       0.00000000       0.43877551 </v>
   <v>       0.44897959       0.00000000       0.44897959 </v>
   <v>       0.45918367       0.00000000       0.45918367 </v>
   <v>       0.46938776       0.00000000       0.46938776 </v>
   <v>       0.47959184       0.00000000       0.47959184 </v>
   <v>       0.48979592       0.00000000       0.48979592 </v>
   <v>       0.50000000       0.00000000       0.50000000 </v>
   <v>       0.50000000       0.00000000       0.50000000 </v>
   <v>       0.50255102       0.00510204       0.50255102 </v>
   <v>       0.50510204       0.01020408       0.50510204 </v>
   <v>       0.50765306       0.01530612       0.50765306 </v>
   <v>       0.51020408       0.02040816       0.51020408 </v>
   <v>       0.51275510       0.02551020       0.51275510 </v>
   <v>       0.51530612       0.03061224       0.51530612 </v>
   <v>       0.51785714       0.03571429       0.51785714 </v>
   <v>       0.52040816       0.04081633       0.52040816 </v>
   <v>       0.52295918       0.04591837       0.52295918 </v>
   <v>       0.52551020       0.05102041       0.52551020 </v>
   <v>       0.52806122       0.05612245       0.52806122 </v>
   <v>       0.53061224       0.06122449       0.53061224 </v>
   <v>       0.53316327       0.06632653       0.53316327 </v>
   <v>       0.53571429       0.07142857       0.53571429 </v>
   <v>       0.53826531       0.07653061       0.53826531 </v>
   <v>       0.54081633       0.08163265       0.54081633 </v>
   <v>       0.54336735       0.08673469       0.54336735 </v>
   <v>       0.54591837       0.09183673       0.54591837 </v>
   <v>       0.54846939       0.09693878       0.54846939 </v>
   <v>       0.55102041       0.10204082       0.55102041 </v>
   <v>       0.55357143       0.10714286       0.55357143 </v>
   <v>       0.55612245       0.11224490       0.55612245 </v>
   <v>       0.55867347       0.11734694       0.55867347 </v>
   <v>       0.56122449       0.12244898       0.56122449 </v>
   <v>       0.56377551       0.12755102       0.56377551 </v>
   <v>       0.56632653       0.13265306       0.56632653 </v>
   <v>       0.56887755       0.13775510       0.56887755 </v>
   <v>       0.57142857       0.14285714       0.57142857 </v>
   <v>       0.57397959       0.14795918       0.57397959 </v>
   <v>       0.57653061       0.15306122       0.57653061 </v>
   <v>       0.57908163       0.15816327       0.57908163 </v>
   <v>       0.58163265       0.16326531       0.58163265 </v>
   <v>       0.58418367       0.16836735       0.58418367 </v>
   <v>       0.58673469       0.17346939       0.58673469 </v>
   <v>       0.58928571       0.17857143       0.58928571 </v>
   <v>       0.59183673       0.18367347       0.59183673 </v>
   <v>       0.59438776       0.18877551       0.59438776 </v>
   <v>       0.59693878       0.19387755       0.59693878 </v>
   <v>       0.59948980       0.19897959       0.59948980 </v>
   <v>       0.60204082       0.20408163       0.60204082 </v>
   <v>       0.60459184       0.20918367       0.60459184 </v>
   <v>       0.60714286       0.21428571       0.60714286 </v>
   <v>       0.60969388       0.21938776       0.60969388 </v>
   <v>       0.61224490       0.22448980       0.61224490 </v>
   <v>       0.61479592       0.22959184       0.61479592 </v>
   <v>       0.61734694       0.23469388       0.61734694 </v>
   <v>       0.61989796       0.23979592       0.61989796 </v>
   <v>       0.62244898       0.24489796       0.62244898 </v>
   <v>       0.62500000       0.25000000       0.62500000 </v>
   <v>       0.37500000       0.37500000       0.75000000 </v>
   <v>       0.36734694       0.36734694       0.73469388 </v>
   <v>       0.35969388       0.35969388       0.71938776 </v>
   <v>       0.35204082       0.35204082       0.70408163 </v>
   <v>       0.34438776       0.34438776       0.68877551 </v>
   <v>       0.33673469       0.33673469       0.67346939 </v>
   <v>       0.32908163       0.32908163       0.65816327 </v>
   <v>       0.32142857       0.32142857       0.64285714 </v>
   <v>       0.31377551       0.31377551       0.62755102 </v>
   <v>       0.30612245       0.30612245       0.61224490 </v>
   <v>       0.29846939       0.29846939       0.59693878 </v>
   <v>       0.29081633       0.29081633       0.58163265 </v>
   <v>       0.28316327       0.28316327       0.56632653 </v>
   <v>       0.27551020       0.27551020       0.55102041 </v>
   <v>       0.26785714       0.26785714       0.53571429 </v>
   <v>       0.26020408       0.26020408       0.52040816 </v>
   <v>       0.25255102       0.25255102       0.50510204 </v>
   <v>       0.24489796       0.24489796       0.48979592 </v>
   <v>       0.23724490       0.23724490       0.47448980 </v>
   <v>       0.22959184       0.22959184       0.45918367 </v>
   <v>       0.22193878       0.22193878       0.44387755 </v>
   <v>       0.21428571       0.21428571       0.42857143 </v>
   <v>       0.20663265       0.20663265       0.41326531 </v>
   <v>       0.19897959       0.19897959       0.39795918 </v>
   <v>       0.19132653       0.19132653       0.38265306 </v>
   <v>       0.18367347       0.18367347       0.36734694 </v>
   <v>       0.17602041       0.17602041       0.35204082 </v>
   <v>       0.16836735       0.16836735       0.33673469 </v>
   <v>       0.16071429       0.16071429       0.32142857 </v>
   <v>       0.15306122       0.15306122       0.30612245 </v>
   <v>       0.14540816       0.14540816       0.29081633 </v>
   <v>       0.13775510       0.13775510       0.27551020 </v>
   <v>       0.13010204       0.13010204       0.26020408 </v>
   <v>       0.12244898       0.12244898       0.24489796 </v>
   <v>       0.11479592       0.11479592       0.22959184 </v>
   <v>       0.10714286       0.10714286       0.21428571 </v>
   <v>       0.09948980       0.09948980       0.19897959 </v>
   <v>       0.09183673       0.09183673       0.18367347 </v>
   <v>       0.08418367       0.08418367       0.16836735 </v>
   <v>       0.07653061       0.07653061       0.15306122 </v>
   <v>       0.06887755       0.06887755       0.13775510 </v>
   <v>       0.06122449       0.06122449       0.12244898 </v>
   <v>       0.05357143       0.05357143       0.10714286 </v>
   <v>       0.04591837       0.04591837       0.09183673 </v>
   <v>       0.03826531       0.03826531       0.07653061 </v>
   <v>       0.03061224       0.03061224       0.06122449 </v>
   <v>       0.02295918       0.02295918       0.04591837 </v>
   <v>       0.01530612       0.01530612       0.03061224 </v>
   <v>       0.00765306       0.00765306       0.01530612 </v>
   <v>       0.00000000       0.00000000       0.00000000 </v>
   <v>       0.00000000       0.00000000       0.00000000 </v>
   <v>       0.01020408       0.01020408       0.01020408 </v>
   <v>       0.02040816       0.02040816       0.02040816 </v>
   <v>       0.03061224       0.03061224       0.03061224 </v>
   <v>       0.04081633       0.04081633       0.04081633 </v>
   <v>       0.05102041       0.05102041       0.05102041 </v>
   <v>       0.06122449       0.06122449       0.06122449 </v>
   <v>       0.07142857       0.07142857       0.07142857 </v>
   <v>       0.08163265       0.08163265       0.08163265 </v>
   <v>       0.09183673       0.09183673       0.09183673 </v>
   <v>       0.10204082       0.10204082       0.10204082 </v>
   <v>       0.11224490       0.11224490       0.11224490 </v>
   <v>       0.12244898       0.12244898       0.12244898 </v>
   <v>       0.13265306       0.13265306       0.13265306 </v>
   <v>       0.14285714       0.14285714       0.14285714 </v>
   <v>       0.15306122       0.15306122       0.15306122 </v>
   <v>       0.16326531       0.16326531       0.16326531 </v>
   <v>       0.17346939       0.17346939       0.17346939 </v>
   <v>       0.18367347       0.18367347       0.18367347 </v>
   <v>       0.19387755       0.19387755       0.19387755 </v>
   <v>       0.20408163       0.20408163       0.20408163 </v>
   <v>       0.21428571       0.21428571       0.21428571 </v>
   <v>       0.22448980       0.22448980       0.22448980 </v>
   <v>       0.23469388       0.23469388       0.23469388 </v>
   <v>       0.24489796       0.24489796       0.24489796 </v>
   <v>       0.25510204       0.25510204       0.25510204 </v>
   <v>       0.26530612       0.26530612       0.26530612 </v>
   <v>       0.27551020       0.27551020       0.27551020 </v>
   <v>       0.28571429       0.28571429       0.28571429 </v>
   <v>       0.29591837       0.29591837       0.29591837 </v>
   <v>       0.30612245       0.30612245       0.30612245 </v>
   <v>       0.31632653       0.31632653       0.31632653 </v>
   <v>       0.32653061       0.32653061       0.32653061 </v>
   <v>       0.33673469       0.33673469       0.33673469 </v>
   <v>       0.34693878       0.34693878       0.34693878 </v>
   <v>       0.35714286       0.35714286       0.35714286 </v>
   <v>       0.36734694       0.36734694       0.36734694 </v>
   <v>       0.37755102       0.37755102       0.37755102 </v>
   <v>       0.38775510       0.38775510       0.38775510 </v>
   <v>       0.39795918       0.39795918       0.39795918 </v>
   <v>       0.40816327       0.40816327       0.40816327 </v>
   <v>       0.41836735       0.41836735       0.41836735 </v>
   <v>       0.42857143       0.42857143       0.42857143 </v>
   <v>       0.43877551       0.43877551       0.43877551 </v>
   <v>       0.44897959       0.44897959       0.44897959 </v>
   <v>       0.45918367       0.45918367       0.45918367 </v>
   <v>       0.46938776       0.46938776       0.46938776 </v>
   <v>       0.47959184       0.47959184       0.47959184 </v>
   <v>       0.48979592       0.48979592       0.48979592 </v>
   <v>       0.50000000       0.50000000       0.50000000 </v>
   <v>       0.50000000       0.50000000       0.50000000 </v>
   <v>       0.50000000       0.49489796       0.50510204 </v>
   <v>       0.50000000       0.48979592       0.51020408 </v>
   <v>       0.50000000       0.48469388       0.51530612 </v>
   <v>       0.50000000       0.47959184       0.52040816 </v>
   <v>       0.50000000       0.47448980       0.52551020 </v>
   <v>       0.50000000       0.46938776       0.53061224 </v>
   <v>       0.50000000       0.46428571       0.53571429 </v>
   <v>       0.50000000       0.45918367       0.54081633 </v>
   <v>       0.50000000       0.45408163       0.54591837 </v>
   <v>       0.50000000       0.44897959       0.55102041 </v>
   <v>       0.50000000       0.44387755       0.55612245 </v>
   <v>       0.50000000       0.43877551       0.56122449 </v>
   <v>       0.50000000       0.43367347       0.56632653 </v>
   <v>       0.50000000       0.42857143       0.57142857 </v>
   <v>       0.50000000       0.42346939       0.57653061 </v>
   <v>       0.50000000       0.41836735       0.58163265 </v>
   <v>       0.50000000       0.41326531       0.58673469 </v>
   <v>       0.50000000       0.40816327       0.59183673 </v>
   <v>       0.50000000       0.40306122       0.59693878 </v>
   <v>       0.50000000       0.39795918       0.60204082 </v>
   <v>       0.50000000       0.39285714       0.60714286 </v>
   <v>       0.50000000       0.38775510       0.61224490 </v>
   <v>       0.50000000       0.38265306       0.61734694 </v>
   <v>       0.50000000       0.37755102       0.62244898 </v>
   <v>       0.50000000       0.37244898       0.62755102 </v>
   <v>       0.50000000       0.36734694       0.63265306 </v>
   <v>       0.50000000       0.36224490       0.63775510 </v>
   <v>       0.50000000       0.35714286       0.64285714 </v>
   <v>       0.50000000       0.35204082       0.64795918 </v>
   <v>       0.50000000       0.34693878       0.65306122 </v>
   <v>       0.50000000       0.34183673       0.65816327 </v>
   <v>       0.50000000       0.33673469       0.66326531 </v>
   <v>       0.50000000       0.33163265       0.66836735 </v>
   <v>       0.50000000       0.32653061       0.67346939 </v>
   <v>       0.50000000       0.32142857       0.67857143 </v>
   <v>       0.50000000       0.31632653       0.68367347 </v>
   <v>       0.50000000       0.31122449       0.68877551 </v>
   <v>       0.50000000       0.30612245       0.69387755 </v>
   <v>       0.50000000       0.30102041       0.69897959 </v>
   <v>       0.50000000       0.29591837       0.70408163 </v>
   <v>       0.50000000       0.29081633       0.70918367 </v>
   <v>       0.50000000       0.28571429       0.71428571 </v>
   <v>       0.50000000       0.28061224       0.71938776 </v>
   <v>       0.50000000       0.27551020       0.72448980 </v>
   <v>       0.50000000       0.27040816       0.72959184 </v>
   <v>       0.50000000       0.26530612       0.73469388 </v>
   <v>       0.50000000       0.26020408       0.73979592 </v>
   <v>       0.50000000       0.25510204       0.74489796 </v>
   <v>       0.50000000       0.25000000       0.75000000 </v>
   <v>       0.50000000       0.25000000       0.75000000 </v>
   <v>       0.50000000       0.24489796       0.74489796 </v>
   <v>       0.50000000       0.23979592       0.73979592 </v>
   <v>       0.50000000       0.23469388       0.73469388 </v>
   <v>       0.50000000       0.22959184       0.72959184 </v>
   <v>       0.50000000       0.22448980       0.72448980 </v>
   <v>       0.50000000       0.21938776       0.71938776 </v>
   <v>       0.50000000       0.21428571       0.71428571 </v>
   <v>       0.50000000       0.20918367       0.70918367 </v>
   <v>       0.50000000       0.20408163       0.70408163 </v>
   <v>       0.50000000       0.19897959       0.69897959 </v>
   <v>       0.50000000       0.19387755       0.69387755 </v>
   <v>       0.50000000       0.18877551       0.68877551 </v>
   <v>       0.50000000       0.18367347       0.68367347 </v>
   <v>       0.50000000       0.17857143       0.67857143 </v>
   <v>       0.50000000       0.17346939       0.67346939 </v>
   <v>       0.50000000       0.16836735       0.66836735 </v>
   <v>       0.50000000       0.16326531       0.66326531 </v>
   <v>       0.50000000       0.15816327       0.65816327 </v>
   <v>       0.50000000       0.15306122       0.65306122 </v>
   <v>       0.50000000       0.14795918       0.64795918 </v>
   <v>       0.50000000       0.14285714       0.64285714 </v>
   <v>       0.50000000       0.13775510       0.63775510 </v>
   <v>       0.50000000       0.13265306       0.63265306 </v>
   <v>       0.50000000       0.12755102       0.62755102 </v>
   <v>       0.50000000       0.12244898       0.62244898 </v>
   <v>       0.50000000       0.11734694       0.61734694 </v>
   <v>       0.50000000       0.11224490       0.61224490 </v>
   <v>       0.50000000       0.10714286       0.60714286 </v>
   <v>       0.50000000       0.10204082       0.60204082 </v>
   <v>       0.50000000       0.09693878       0.59693878 </v>
   <v>       0.50000000       0.09183673       0.59183673 </v>
   <v>       0.50000000       0.08673469       0.58673469 </v>
   <v>       0.50000000       0.08163265       0.58163265 </v>
   <v>       0.50000000       0.07653061       0.57653061 </v>
   <v>       0.50000000       0.07142857       0.57142857 </v>
   <v>       0.50000000       0.06632653       0.56632653 </v>
   <v>       0.50000000       0.06122449       0.56122449 </v>
   <v>       0.50000000       0.05612245       0.55612245 </v>
   <v>       0.50000000       0.05102041       0.55102041 </v>
   <v>       0.50000000       0.04591837       0.54591837 </v>
   <v>       0.50000000       0.04081633       0.54081633 </v>
   <v>       0.50000000       0.03571429       0.53571429 </v>
   <v>       0.50000000       0.03061224       0.53061224 </v>
   <v>       0.50000000       0.02551020       0.52551020 </v>
   <v>       0.50000000       0.02040816       0.52040816 </v>
   <v>       0.50000000       0.01530612       0.51530612 </v>
   <v>       0.50000000       0.01020408       0.51020408 </v>
   <v>       0.50000000       0.00510204       0.50510204 </v>
   <v>       0.50000000       0.00000000       0.50000000 </v>
  </varray>
  <varray name="weights" >
   <v>       0.00333333 </v>
   <v>       0.00333333 </v>
   <v>       0.00333333 </v>
   <v>       0.00333333 </v>
   <v>       0.00333333 </v>
   <v>       0.00333333 </v>
   <v>       0.00333333 </v>
   <v>       0.00333333 </v>
   <v>       0.00333333 </v>
   <v>       0.00333333 </v>
   <v>       0.00333333 </v>
   <v>       0.00333333 </v>
   <v>       0.00333333 </v>
   <v>       0.00333333 </v>
   <v>       0.00333333 </v>
   <v>       0.00333333 </v>
   <v>       0.00333333 </v>
   <v>       0.00333333 </v>
   <v>       0.00333333 </v>
   <v>       0.00333333 </v>
   <v>       0.00333333 </v>
   <v>       0.00333333 </v>
   <v>       0.00333333 </v>
   <v>       0.00333333 </v>
   <v>       0.00333333 </v>
   <v>       0.00333333 </v>
   <v>       0.00333333 </v>
   <v>       0.00333333 </v>
   <v>       0.00333333 </v>
   <v>       0.00333333 </v>
   <v>       0.00333333 </v>
   <v>       0.00333333 </v>
   <v>       0.00333333 </v>
   <v>       0.00333333 </v>
   <v>       0.00333333 </v>
   <v>       0.00333333 </v>
   <v>       0.00333333 </v>
   <v>       0.00333333 </v>
   <v>       0.00333333 </v>
   <v>       0.00333333 </v>
   <v>       0.00333333 </v>
   <v>       0.00333333 </v>
   <v>       0.00333333 </v>
   <v>       0.00333333 </v>
   <v>       0.00333333 </v>
   <v>       0.00333333 </v>
   <v>       0.00333333 </v>
   <v>       0.00333333 </v>
   <v>       0.00333333 </v>
   <v>       0.00333333 </v>
   <v>       0.00333333 </v>
   <v>       0.00333333 </v>
   <v>       0.00333333 </v>
   <v>       0.00333333 </v>
   <v>       0.00333333 </v>
   <v>       0.00333333 </v>
   <v>       0.00333333 </v>
   <v>       0.00333333 </v>
   <v>       0.00333333 </v>
   <v>       0.00333333 </v>
   <v>       0.00333333 </v>
   <v>       0.00333333 </v>
   <v>       0.00333333 </v>
   <v>       0.00333333 </v>
   <v>       0.00333333 </v>
   <v>       0.00333333 </v>
   <v>       0.00333333 </v>
   <v>       0.00333333 </v>
   <v>       0.00333333 </v>
   <v>       0.00333333 </v>
   <v>       0.00333333 </v>
   <v>       0.00333333 </v>
   <v>       0.00333333 </v>
   <v>       0.00333333 </v>
   <v>       0.00333333 </v>
   <v>       0.00333333 </v>
   <v>       0.00333333 </v>
   <v>       0.00333333 </v>
   <v>       0.00333333 </v>
   <v>       0.00333333 </v>
   <v>       0.00333333 </v>
   <v>       0.00333333 </v>
   <v>       0.00333333 </v>
   <v>       0.00333333 </v>
   <v>       0.00333333 </v>
   <v>       0.00333333 </v>
   <v>       0.00333333 </v>
   <v>       0.00333333 </v>
   <v>       0.00333333 </v>
   <v>       0.00333333 </v>
   <v>       0.00333333 </v>
   <v>       0.00333333 </v>
   <v>       0.00333333 </v>
   <v>       0.00333333 </v>
   <v>       0.00333333 </v>
   <v>       0.00333333 </v>
   <v>       0.00333333 </v>
   <v>       0.00333333 </v>
   <v>       0.00333333 </v>
   <v>       0.00333333 </v>
   <v>       0.00333333 </v>
   <v>       0.00333333 </v>
   <v>       0.00333333 </v>
   <v>       0.00333333 </v>
   <v>       0.00333333 </v>
   <v>       0.00333333 </v>
   <v>       0.00333333 </v>
   <v>       0.00333333 </v>
   <v>       0.00333333 </v>
   <v>       0.00333333 </v>
   <v>       0.00333333 </v>
   <v>       0.00333333 </v>
   <v>       0.00333333 </v>
   <v>       0.00333333 </v>
   <v>       0.00333333 </v>
   <v>       0.00333333 </v>
   <v>       0.00333333 </v>
   <v>       0.00333333 </v>
   <v>       0.00333333 </v>
   <v>       0.00333333 </v>
   <v>       0.00333333 </v>
   <v>       0.00333333 </v>
   <v>       0.00333333 </v>
   <v>       0.00333333 </v>
   <v>       0.00333333 </v>
   <v>       0.00333333 </v>
   <v>       0.00333333 </v>
   <v>       0.00333333 </v>
   <v>       0.00333333 </v>
   <v>       0.00333333 </v>
   <v>       0.00333333 </v>
   <v>       0.00333333 </v>
   <v>       0.00333333 </v>
   <v>       0.00333333 </v>
   <v>       0.00333333 </v>
   <v>       0.00333333 </v>
   <v>       0.00333333 </v>
   <v>       0.00333333 </v>
   <v>       0.00333333 </v>
   <v>       0.00333333 </v>
   <v>       0.00333333 </v>
   <v>       0.00333333 </v>
   <v>       0.00333333 </v>
   <v>       0.00333333 </v>
   <v>       0.00333333 </v>
   <v>       0.00333333 </v>
   <v>       0.00333333 </v>
   <v>       0.00333333 </v>
   <v>       0.00333333 </v>
   <v>       0.00333333 </v>
   <v>       0.00333333 </v>
   <v>       0.00333333 </v>
   <v>       0.00333333 </v>
   <v>       0.00333333 </v>
   <v>       0.00333333 </v>
   <v>       0.00333333 </v>
   <v>       0.00333333 </v>
   <v>       0.00333333 </v>
   <v>       0.00333333 </v>
   <v>       0.00333333 </v>
   <v>       0.00333333 </v>
   <v>       0.00333333 </v>
   <v>       0.00333333 </v>
   <v>       0.00333333 </v>
   <v>       0.00333333 </v>
   <v>       0.00333333 </v>
   <v>       0.00333333 </v>
   <v>       0.00333333 </v>
   <v>       0.00333333 </v>
   <v>       0.00333333 </v>
   <v>       0.00333333 </v>
   <v>       0.00333333 </v>
   <v>       0.00333333 </v>
   <v>       0.00333333 </v>
   <v>       0.00333333 </v>
   <v>       0.00333333 </v>
   <v>       0.00333333 </v>
   <v>       0.00333333 </v>
   <v>       0.00333333 </v>
   <v>       0.00333333 </v>
   <v>       0.00333333 </v>
   <v>       0.00333333 </v>
   <v>       0.00333333 </v>
   <v>       0.00333333 </v>
   <v>       0.00333333 </v>
   <v>       0.00333333 </v>
   <v>       0.00333333 </v>
   <v>       0.00333333 </v>
   <v>       0.00333333 </v>
   <v>       0.00333333 </v>
   <v>       0.00333333 </v>
   <v>       0.00333333 </v>
   <v>       0.00333333 </v>
   <v>       0.00333333 </v>
   <v>       0.00333333 </v>
   <v>       0.00333333 </v>
   <v>       0.00333333 </v>
   <v>       0.00333333 </v>
   <v>       0.00333333 </v>
   <v>       0.00333333 </v>
   <v>       0.00333333 </v>
   <v>       0.00333333 </v>
   <v>       0.00333333 </v>
   <v>       0.00333333 </v>
   <v>       0.00333333 </v>
   <v>       0.00333333 </v>
   <v>       0.00333333 </v>
   <v>       0.00333333 </v>
   <v>       0.00333333 </v>
   <v>       0.00333333 </v>
   <v>       0.00333333 </v>
   <v>       0.00333333 </v>
   <v>       0.00333333 </v>
   <v>       0.00333333 </v>
   <v>       0.00333333 </v>
   <v>       0.00333333 </v>
   <v>       0.00333333 </v>
   <v>       0.00333333 </v>
   <v>       0.00333333 </v>
   <v>       0.00333333 </v>
   <v>       0.00333333 </v>
   <v>       0.00333333 </v>
   <v>       0.00333333 </v>
   <v>       0.00333333 </v>
   <v>       0.00333333 </v>
   <v>       0.00333333 </v>
   <v>       0.00333333 </v>
   <v>       0.00333333 </v>
   <v>       0.00333333 </v>
   <v>       0.00333333 </v>
   <v>       0.00333333 </v>
   <v>       0.00333333 </v>
   <v>       0.00333333 </v>
   <v>       0.00333333 </v>
   <v>       0.00333333 </v>
   <v>       0.00333333 </v>
   <v>       0.00333333 </v>
   <v>       0.00333333 </v>
   <v>       0.00333333 </v>
   <v>       0.00333333 </v>
   <v>       0.00333333 </v>
   <v>       0.00333333 </v>
   <v>       0.00333333 </v>
   <v>       0.00333333 </v>
   <v>       0.00333333 </v>
   <v>       0.00333333 </v>
   <v>       0.00333333 </v>
   <v>       0.00333333 </v>
   <v>       0.00333333 </v>
   <v>       0.00333333 </v>
   <v>       0.00333333 </v>
   <v>       0.00333333 </v>
   <v>       0.00333333 </v>
   <v>       0.00333333 </v>
   <v>       0.00333333 </v>
   <v>       0.00333333 </v>
   <v>       0.00333333 </v>
   <v>       0.00333333 </v>
   <v>       0.00333333 </v>
   <v>       0.00333333 </v>
   <v>       0.00333333 </v>
   <v>       0.00333333 </v>
   <v>       0.00333333 </v>
   <v>       0.00333333 </v>
   <v>       0.00333333 </v>
   <v>       0.00333333 </v>
   <v>       0.00333333 </v>
   <v>       0.00333333 </v>
   <v>       0.00333333 </v>
   <v>       0.00333333 </v>
   <v>       0.00333333 </v>
   <v>       0.00333333 </v>
   <v>       0.00333333 </v>
   <v>       0.00333333 </v>
   <v>       0.00333333 </v>
   <v>       0.00333333 </v>
   <v>       0.00333333 </v>
   <v>       0.00333333 </v>
   <v>       0.00333333 </v>
   <v>       0.00333333 </v>
   <v>       0.00333333 </v>
   <v>       0.00333333 </v>
   <v>       0.00333333 </v>
   <v>       0.00333333 </v>
   <v>       0.00333333 </v>
   <v>       0.00333333 </v>
   <v>       0.00333333 </v>
   <v>       0.00333333 </v>
   <v>       0.00333333 </v>
   <v>       0.00333333 </v>
   <v>       0.00333333 </v>
   <v>       0.00333333 </v>
   <v>       0.00333333 </v>
   <v>       0.00333333 </v>
   <v>       0.00333333 </v>
   <v>       0.00333333 </v>
   <v>       0.00333333 </v>
   <v>       0.00333333 </v>
   <v>       0.00333333 </v>
   <v>       0.00333333 </v>
  </varray>
 </kpoints>
 <parameters>
  <separator name="general" >
   <i type="string" name="SYSTEM">diamond Si</i>
   <i type="logical" name="LCOMPAT"> F  </i>
  </separator>
  <separator name="electronic" >
   <i type="string" name="PREC">normal</i>
   <i name="ENMAX">    500.00000000</i>
   <i name="ENAUG">    322.06900000</i>
   <i name="EDIFF">      0.00000010</i>
   <i type="int" name="IALGO">    38</i>
   <i type="int" name="IWAVPR">    10</i>
   <i type="int" name="NBANDS">     8</i>
   <i name="NELECT">      8.00000000</i>
   <i type="int" name="TURBO">     0</i>
   <i type="int" name="IRESTART">     0</i>
   <i type="int" name="NREBOOT">     0</i>
   <i type="int" name="NMIN">     0</i>
   <i name="EREF">      0.00000000</i>
   <separator name="electronic smearing" >
    <i type="int" name="ISMEAR">     0</i>
    <i name="SIGMA">      0.10000000</i>
    <i name="KSPACING">      0.50000000</i>
    <i type="logical" name="KGAMMA"> T  </i>
   </separator>
   <separator name="electronic projectors" >
    <i type="logical" name="LREAL"> F  </i>
    <v name="ROPT">      0.00000000</v>
    <i type="int" name="LMAXPAW">  -100</i>
    <i type="int" name="LMAXMIX">     2</i>
    <i type="logical" name="NLSPLINE"> F  </i>
   </separator>
   <separator name="electronic startup" >
    <i type="int" name="ISTART">     0</i>
    <i type="int" name="ICHARG">    11</i>
    <i type="int" name="INIWAV">     1</i>
   </separator>
   <separator name="electronic spin" >
    <i type="int" name="ISPIN">     1</i>
    <i type="logical" name="LNONCOLLINEAR"> F  </i>
    <v name="MAGMOM">      1.00000000      1.00000000</v>
    <i name="NUPDOWN">     -1.00000000</i>
    <i type="logical" name="LSORBIT"> F  </i>
    <v name="SAXIS">      0.00000000      0.00000000      1.00000000</v>
    <i type="logical" name="LSPIRAL"> F  </i>
    <v name="QSPIRAL">      0.00000000      0.00000000      0.00000000</v>
    <i type="logical" name="LZEROZ"> F  </i>
   </separator>
   <separator name="electronic exchange-correlation" >
    <i type="logical" name="LASPH"> F  </i>
    <i type="logical" name="LMETAGGA"> F  </i>
   </separator>
   <separator name="electronic convergence" >
    <i type="int" name="NELM">    60</i>
    <i type="int" name="NELMDL">    -5</i>
    <i type="int" name="NELMIN">     2</i>
    <i name="ENINI">    500.00000000</i>
    <separator name="electronic convergence detail" >
     <i type="logical" name="LDIAG"> T  </i>
     <i type="logical" name="LSUBROT"> F  </i>
     <i name="WEIMIN">      0.00000000</i>
     <i name="EBREAK">      0.00000000</i>
     <i name="DEPER">      0.30000000</i>
     <i type="int" name="NRMM">     4</i>
     <i name="TIME">      0.40000000</i>
    </separator>
   </separator>
   <separator name="electronic mixer" >
    <i name="AMIX">      0.40000000</i>
    <i name="BMIX">      1.00000000</i>
    <i name="AMIN">      0.10000000</i>
    <i name="AMIX_MAG">      1.60000000</i>
    <i name="BMIX_MAG">      1.00000000</i>
    <separator name="electronic mixer details" >
     <i type="int" name="IMIX">     4</i>
     <i type="logical" name="MIXFIRST"> F  </i>
     <i type="int" name="MAXMIX">   -45</i>
     <i name="WC">    100.00000000</i>
     <i type="int" name="INIMIX">     1</i>
     <i type="int" name="MIXPRE">     1</i>
     <i type="int" name="MREMOVE">     5</i>
    </separator>
   </separator>
   <separator name="electronic dipolcorrection" >
    <i type="logical" name="LDIPOL"> F  </i>
    <i type="logical" name="LMONO"> F  </i>
    <i type="int" name="IDIPOL">     0</i>
    <i name="EPSILON">      1.00000000</i>
    <v name="DIPOL">   -100.00000000   -100.00000000   -100.00000000</v>
    <i name="EFIELD">      0.00000000</i>
   </separator>
  </separator>
  <separator name="grids" >
   <i type="int" name="NGX">    24</i>
   <i type="int" name="NGY">    24</i>
   <i type="int" name="NGZ">    24</i>
   <i type="int" name="NGXF">    48</i>
   <i type="int" name="NGYF">    48</i>
   <i type="int" name="NGZF">    48</i>
   <i type="logical" name="ADDGRID"> F  </i>
  </separator>
  <separator name="ionic" >
   <i type="int" name="NSW">     0</i>
   <i type="int" name="IBRION">    -1</i>
   <i type="int" name="MDALGO">     0</i>
   <i type="int" name="ISIF">     2</i>
   <i name="PSTRESS">      0.00000000</i>
   <i name="EDIFFG">      0.00000100</i>
   <i type="int" name="NFREE">     0</i>
   <i name="POTIM">      0.50000000</i>
   <i name="SMASS">     -3.00000000</i>
   <i name="SCALEE">      1.00000000</i>
  </separator>
  <separator name="ionic md" >
   <i name="TEBEG">      0.00010000</i>
   <i name="TEEND">      0.00010000</i>
   <i type="int" name="NBLOCK">     1</i>
   <i type="int" name="KBLOCK">     1</i>
   <i type="int" name="NPACO">   256</i>
   <i name="APACO">     16.00000000</i>
  </separator>
  <separator name="symmetry" >
   <i type="int" name="ISYM">     2</i>
   <i name="SYMPREC">      0.00001000</i>
  </separator>
  <separator name="dos" >
   <i type="int" name="LORBIT">    10</i>
   <v name="RWIGS">      1.61626000</v>
   <i type="int" name="NEDOS">   301</i>
   <i name="EMIN">     10.00000000</i>
   <i name="EMAX">    -10.00000000</i>
   <i name="EFERMI">      0.00000000</i>
  </separator>
  <separator name="writing" >
   <i type="int" name="NWRITE">     2</i>
   <i type="logical" name="LWAVE"> F  </i>
   <i type="logical" name="LDOWNSAMPLE"> F  </i>
   <i type="logical" name="LCHARG"> F  </i>
   <i type="logical" name="LPARD"> F  </i>
   <i type="logical" name="LVTOT"> F  </i>
   <i type="logical" name="LVHAR"> F  </i>
   <i type="logical" name="LELF"> F  </i>
   <i type="logical" name="LOPTICS"> F  </i>
   <v name="STM">      0.00000000      0.00000000      0.00000000      0.00000000      0.00000000      0.00000000      0.00000000</v>
  </separator>
  <separator name="performance" >
   <i type="int" name="NPAR">     1</i>
   <i type="int" name="NSIM">     4</i>
   <i type="int" name="NBLK">    -1</i>
   <i type="logical" name="LPLANE"> T  </i>
   <i type="logical" name="LSCALAPACK"> T  </i>
   <i type="logical" name="LSCAAWARE"> F  </i>
   <i type="logical" name="LSCALU"> F  </i>
   <i type="logical" name="LASYNC"> F  </i>
   <i type="logical" name="LORBITALREAL"> F  </i>
  </separator>
  <separator name="miscellaneous" >
   <i type="int" name="IDIOT">     3</i>
   <i type="int" name="ISPECIAL">     0</i>
   <i type="logical" name="LMUSIC"> F  </i>
   <v name="POMASS">     28.08500000</v>
   <v name="DARWINR">      0.00000000</v>
   <v name="DARWINV">      1.00000000</v>
   <i type="logical" name="LCORR"> T  </i>
  </separator>
  <i type="logical" name="GGA_COMPAT"> T  </i>
  <i type="logical" name="LBERRY"> F  </i>
  <i type="int" name="ICORELEVEL">     0</i>
  <i type="logical" name="LDAU"> F  </i>
  <i type="int" name="I_CONSTRAINED_M">     0</i>
  <separator name="electronic exchange-correlation" >
   <i type="string" name="GGA">--</i>
   <i type="int" name="VOSKOWN">     0</i>
   <i type="logical" name="LHFCALC"> F  </i>
   <i type="string" name="PRECFOCK"></i>
   <i type="logical" name="LSYMGRAD"> F  </i>
   <i type="logical" name="LHFONE"> F  </i>
   <i type="logical" name="LRHFCALC"> F  </i>
   <i type="logical" name="LTHOMAS"> F  </i>
   <i type="logical" name="LMODELHF"> F  </i>
   <i name="ENCUT4O">     -1.00000000</i>
   <i type="int" name="EXXOEP">     0</i>
   <i type="int" name="FOURORBIT">     0</i>
   <i name="AEXX">      0.00000000</i>
   <i name="HFALPHA">      0.00000000</i>
   <i name="MCALPHA">      0.00000000</i>
   <i name="ALDAX">      1.00000000</i>
   <i name="AGGAX">      1.00000000</i>
   <i name="ALDAC">      1.00000000</i>
   <i name="AGGAC">      1.00000000</i>
   <i type="int" name="NKREDX">     1</i>
   <i type="int" name="NKREDY">     1</i>
   <i type="int" name="NKREDZ">     1</i>
   <i type="logical" name="SHIFTRED"> F  </i>
   <i type="logical" name="ODDONLY"> F  </i>
   <i type="logical" name="EVENONLY"> F  </i>
   <i type="int" name="LMAXFOCK">     0</i>
   <i type="int" name="NMAXFOCKAE">     0</i>
   <i type="logical" name="LFOCKAEDFT"> F  </i>
   <i name="HFSCREEN">      0.00000000</i>
   <i name="HFSCREENC">      0.00000000</i>
   <i type="int" name="NBANDSGWLOW">     0</i>
  </separator>
  <separator name="vdW DFT" >
   <i type="logical" name="LUSE_VDW"> F  </i>
   <i name="Zab_VDW">     -0.84910000</i>
   <i name="PARAM1">      0.12340000</i>
   <i name="PARAM2">      1.00000000</i>
   <i name="PARAM3">      0.00000000</i>
  </separator>
  <separator name="model GW" >
   <i type="int" name="MODEL_GW">     0</i>
   <i name="MODEL_EPS0">     12.00772552</i>
   <i name="MODEL_ALPHA">      1.00000000</i>
  </separator>
  <separator name="linear response parameters" >
   <i type="logical" name="LEPSILON"> F  </i>
   <i type="logical" name="LRPA"> F  </i>
   <i type="logical" name="LNABLA"> F  </i>
   <i type="logical" name="LVEL"> F  </i>
   <i type="int" name="KINTER">     0</i>
   <i name="CSHIFT">      0.10000000</i>
   <i name="OMEGAMAX">     -1.00000000</i>
   <i name="DEG_THRESHOLD">      0.00200000</i>
   <i name="RTIME">     -0.10000000</i>
   <i name="WPLASMAI">      0.00000000</i>
   <v name="DFIELD">      0.00000000      0.00000000      0.00000000</v>
   <v name="WPLASMA">      0.00000000      0.00000000      0.00000000      0.00000000      0.00000000      0.00000000      0.00000000      0.00000000      0.00000000</v>
  </separator>
  <separator name="orbital magnetization" >
   <i type="logical" name="NUCIND"> F  </i>
   <v name="MAGPOS">      0.00000000      0.00000000      0.00000000</v>
   <i type="logical" name="LNICSALL"> T  </i>
   <i type="logical" name="ORBITALMAG"> F  </i>
   <i type="logical" name="LMAGBLOCH"> F  </i>
   <i type="logical" name="LCHIMAG"> F  </i>
   <i type="logical" name="LGAUGE"> T  </i>
   <i type="int" name="MAGATOM">     0</i>
   <v name="MAGDIPOL">      0.00000000      0.00000000      0.00000000</v>
   <v name="AVECCONST">      0.00000000      0.00000000      0.00000000</v>
  </separator>
  <separator name="response functions" >
   <i type="logical" name="LADDER"> F  </i>
   <i type="logical" name="LRPAFORCE"> F  </i>
   <i type="logical" name="LFXC"> F  </i>
   <i type="logical" name="LHARTREE"> T  </i>
   <i type="int" name="IBSE">     0</i>
   <v type="int" name="KPOINT">    -1     0     0     0</v>
   <i type="logical" name="LTCTE"> F  </i>
   <i type="logical" name="LTETE"> F  </i>
   <i type="logical" name="LTRIPLET"> F  </i>
   <i type="logical" name="LFXCEPS"> F  </i>
   <i type="logical" name="LFXHEG"> F  </i>
   <i type="int" name="NATURALO">     2</i>
   <i type="logical" name="L2ORDER"> F  </i>
   <i type="logical" name="LMP2LT"> F  </i>
   <i type="logical" name="LUSEW"> F  </i>
   <i name="ENCUTGW">     -2.00000000</i>
   <i name="ENCUTGWSOFT">     -2.00000000</i>
   <i name="ENCUTLF">     -1.00000000</i>
   <i type="int" name="LMAXMP2">    -1</i>
   <i name="SCISSOR">      0.00000000</i>
   <i type="int" name="NOMEGA">     0</i>
   <i type="int" name="NOMEGAR">     0</i>
   <i type="int" name="NBANDSGW">    -1</i>
   <i type="int" name="NBANDSO">    -1</i>
   <i type="int" name="NBANDSV">    -1</i>
   <i type="int" name="NELM">     1</i>
   <i type="int" name="NELMHF">     1</i>
   <i type="int" name="DIM">     3</i>
   <i type="int" name="ANTIRES">     0</i>
   <i name="OMEGAMAX">    -30.00000000</i>
   <i name="OMEGAMIN">    -30.00000000</i>
   <i name="OMEGATL">   -200.00000000</i>
   <i type="int" name="OMEGAGRID">   140</i>
   <i name="CSHIFT">     -0.10000000</i>
   <i type="logical" name="SELFENERGY"> F  </i>
   <i type="logical" name="LSPECTRAL"> F  </i>
   <i type="logical" name="LSPECTRALGW"> F  </i>
   <i type="logical" name="LSINGLES"> F  </i>
   <i type="logical" name="LFERMIGW"> F  </i>
   <i type="logical" name="ODDONLYGW"> F  </i>
   <i type="logical" name="EVENONLYGW"> F  </i>
   <i type="int" name="NKREDLFX">     1</i>
   <i type="int" name="NKREDLFY">     1</i>
   <i type="int" name="NKREDLFZ">     1</i>
   <i type="int" name="MAXMEM">  2800</i>
   <i type="int" name="TELESCOPE">     0</i>
   <i type="int" name="TAUPAR">     1</i>
   <i type="int" name="OMEGAPAR">    -1</i>
   <i name="LAMBDA">      1.00000000</i>
  </separator>
  <separator name="External order field" >
   <i name="OFIELD_KAPPA">      0.00000000</i>
   <v name="OFIELD_K">      0.00000000      0.00000000      0.00000000</v>
   <i name="OFIELD_Q6_NEAR">      0.00000000</i>
   <i name="OFIELD_Q6_FAR">      0.00000000</i>
   <i name="OFIELD_A">      0.00000000</i>
  </separator>
 </parameters>
 <atominfo>
  <atoms>       2 </atoms>
  <types>       1 </types>
  <array name="atoms" >
   <dimension dim="1">ion</dimension>
   <field type="string">element</field>
   <field type="int">atomtype</field>
   <set>
    <rc><c>Si</c><c>   1</c></rc>
    <rc><c>Si</c><c>   1</c></rc>
   </set>
  </array>
  <array name="atomtypes" >
   <dimension dim="1">type</dimension>
   <field type="int">atomspertype</field>
   <field type="string">element</field>
   <field>mass</field>
   <field>valence</field>
   <field type="string">pseudopotential</field>
   <set>
    <rc><c>   2</c><c>Si</c><c>     28.08500000</c><c>      4.00000000</c><c>  PAW Si                                </c></rc>
   </set>
  </array>
 </atominfo>
 <structure name="initialpos" >
  <crystal>
   <varray name="basis" >
    <v>       0.00000000       2.71500000       2.71500000 </v>
    <v>       2.71500000       0.00000000       2.71500000 </v>
    <v>       2.71500000       2.71500000       0.00000000 </v>
   </varray>
   <i name="volume">     40.02575175 </i>
   <varray name="rec_basis" >
    <v>      -0.18416206       0.18416206       0.18416206 </v>
    <v>       0.18416206      -0.18416206       0.18416206 </v>
    <v>       0.18416206       0.18416206      -0.18416206 </v>
   </varray>
  </crystal>
  <varray name="positions" >
   <v>       0.00000000       0.00000000       0.00000000 </v>
   <v>       0.25000000       0.25000000       0.25000000 </v>
  </varray>
 </structure>
 <calculation>
  <scstep>
   <time name="dav">    3.44    3.49</time>
   <time name="total">    3.53    3.61</time>
   <energy>
    <i name="alphaZ">      3.24298762 </i>
    <i name="ewald">   -228.56352493 </i>
    <i name="hartreedc">    -15.00867141 </i>
    <i name="XCdc">    -18.45142324 </i>
    <i name="pawpsdc">     74.74430996 </i>
    <i name="pawaedc">    -39.40552429 </i>
    <i name="eentropy">     -0.00258558 </i>
    <i name="bandstr">     24.59963843 </i>
    <i name="atom">    206.61390135 </i>
    <i name="e_fr_energy">      7.76910792 </i>
    <i name="e_wo_entrp">      7.77169350 </i>
    <i name="e_0_energy">      7.77040071 </i>
   </energy>
  </scstep>
  <scstep>
   <time name="dav">    4.56    4.72</time>
   <time name="total">    4.56    4.74</time>
   <energy>
    <i name="e_fr_energy">     -9.00660780 </i>
    <i name="e_wo_entrp">     -9.00579974 </i>
    <i name="e_0_energy">     -9.00620377 </i>
   </energy>
  </scstep>
  <scstep>
   <time name="dav">    4.27    4.79</time>
   <time name="total">    4.27    4.80</time>
   <energy>
    <i name="e_fr_energy">     -9.26425213 </i>
    <i name="e_wo_entrp">     -9.26425150 </i>
    <i name="e_0_energy">     -9.26425182 </i>
   </energy>
  </scstep>
  <scstep>
   <time name="dav">    5.24    5.80</time>
   <time name="total">    5.25    5.81</time>
   <energy>
    <i name="e_fr_energy">     -9.26550246 </i>
    <i name="e_wo_entrp">     -9.26550184 </i>
    <i name="e_0_energy">     -9.26550215 </i>
   </energy>
  </scstep>
  <scstep>
   <time name="dav">    4.34    5.93</time>
   <time name="total">    4.34    5.94</time>
   <energy>
    <i name="e_fr_energy">     -9.26550460 </i>
    <i name="e_wo_entrp">     -9.26550398 </i>
    <i name="e_0_energy">     -9.26550429 </i>
   </energy>
  </scstep>
  <scstep>
   <time name="dav">    5.09    7.88</time>
   <time name="total">    5.10    7.89</time>
   <energy>
    <i name="alphaZ">      3.24298762 </i>
    <i name="ewald">   -228.56352493 </i>
    <i name="hartreedc">    -15.00867141 </i>
    <i name="XCdc">    -18.45142324 </i>
    <i name="pawpsdc">     74.74430996 </i>
    <i name="pawaedc">    -39.40552429 </i>
    <i name="eentropy">     -0.00000062 </i>
    <i name="bandstr">      7.56244093 </i>
    <i name="atom">    206.61390135 </i>
    <i name="e_fr_energy">     -9.26550463 </i>
    <i name="e_wo_entrp">     -9.26550400 </i>
    <i name="e_0_energy">     -9.26550431 </i>
   </energy>
  </scstep>
  <structure>
   <crystal>
    <varray name="basis" >
     <v>       0.00000000       2.71500000       2.71500000 </v>
     <v>       2.71500000       0.00000000       2.71500000 </v>
     <v>       2.71500000       2.71500000       0.00000000 </v>
    </varray>
    <i name="volume">     40.02575175 </i>
    <varray name="rec_basis" >
     <v>      -0.18416206       0.18416206       0.18416206 </v>
     <v>       0.18416206      -0.18416206       0.18416206 </v>
     <v>       0.18416206       0.18416206      -0.18416206 </v>
    </varray>
   </crystal>
   <varray name="positions" >
    <v>       0.00000000       0.00000000       0.00000000 </v>
    <v>       0.25000000       0.25000000       0.25000000 </v>
   </varray>
  </structure>
  <varray name="forces" >
   <v>      -0.00000000      -0.00000000       0.00000000 </v>
   <v>       0.00000000       0.00000000      -0.00000000 </v>
  </varray>
  <varray name="stress" >
   <v>      85.01030124       0.00000000       0.00000000 </v>
   <v>       0.00000000      85.01030124       0.00000000 </v>
   <v>      -0.00000000      -0.00000000      85.01030124 </v>
  </varray>
  <energy>
   <i name="e_fr_energy">     -9.26550463 </i>
   <i name="e_wo_entrp">     -9.26550431 </i>
   <i name="e_0_energy">     -0.00000062 </i>
  </energy>
  <time name="totalsc">   28.80   36.33</time>
  <eigenvalues>
   <array>
    <dimension dim="1">band</dimension>
    <dimension dim="2">kpoint</dimension>
    <dimension dim="3">spin</dimension>
    <field>eigene</field>
    <field>occ</field>
    <set>
     <set comment="spin 1">
      <set comment="kpoint 1">
       <r>   -6.1447    1.0000 </r>
       <r>    5.7959    1.0000 </r>
       <r>    5.7959    1.0000 </r>
       <r>    5.7959    1.0000 </r>
       <r>    8.3823    0.0000 </r>
       <r>    8.3823    0.0000 </r>
       <r>    8.3823    0.0000 </r>
       <r>    9.1679    0.0000 </r>
      </set>
      <set comment="kpoint 2">
       <r>   -6.1428    1.0000 </r>
       <r>    5.7833    1.0000 </r>
       <r>    5.7880    1.0000 </r>
       <r>    5.7880    1.0000 </r>
       <r>    8.3777    0.0000 </r>
       <r>    8.3924    0.0000 </r>
       <r>    8.3924    0.0000 </r>
       <r>    9.1802    0.0000 </r>
      </set>
      <set comment="kpoint 3">
       <r>   -6.1374    1.0000 </r>
       <r>    5.7462    1.0000 </r>
       <r>    5.7647    1.0000 </r>
       <r>    5.7647    1.0000 </r>
       <r>    8.3640    0.0000 </r>
       <r>    8.4224    0.0000 </r>
       <r>    8.4224    0.0000 </r>
       <r>    9.2166    0.0000 </r>
      </set>
      <set comment="kpoint 4">
       <r>   -6.1283    1.0000 </r>
       <r>    5.6861    1.0000 </r>
       <r>    5.7272    1.0000 </r>
       <r>    5.7272    1.0000 </r>
       <r>    8.3415    0.0000 </r>
       <r>    8.4711    0.0000 </r>
       <r>    8.4711    0.0000 </r>
       <r>    9.2751    0.0000 </r>
      </set>
      <set comment="kpoint 5">
       <r>   -6.1155    1.0000 </r>
       <r>    5.6053    1.0000 </r>
       <r>    5.6769    1.0000 </r>
       <r>    5.6769    1.0000 </r>
       <r>    8.3107    0.0000 </r>
       <r>    8.5371    0.0000 </r>
       <r>    8.5371    0.0000 </r>
       <r>    9.3530    0.0000 </r>
      </set>
      <set comment="kpoint 6">
       <r>   -6.0991    1.0000 </r>
       <r>    5.5066    1.0000 </r>
       <r>    5.6156    1.0000 </r>
       <r>    5.6156    1.0000 </r>
       <r>    8.2720    0.0000 </r>
       <r>    8.6184    0.0000 </r>
       <r>    8.6184    0.0000 </r>
       <r>    9.4469    0.0000 </r>
      </set>
      <set comment="kpoint 7">
       <r>   -6.0791    1.0000 </r>
       <r>    5.3926    1.0000 </r>
       <r>    5.5454    1.0000 </r>
       <r>    5.5454    1.0000 </r>
       <r>    8.2263    0.0000 </r>
       <r>    8.7132    0.0000 </r>
       <r>    8.7132    0.0000 </r>
       <r>    9.5531    0.0000 </r>
      </set>
      <set comment="kpoint 8">
       <r>   -6.0554    1.0000 </r>
       <r>    5.2659    1.0000 </r>
       <r>    5.4678    1.0000 </r>
       <r>    5.4678    1.0000 </r>
       <r>    8.1743    0.0000 </r>
       <r>    8.8198    0.0000 </r>
       <r>    8.8198    0.0000 </r>
       <r>    9.6675    0.0000 </r>
      </set>
      <set comment="kpoint 9">
       <r>   -6.0281    1.0000 </r>
       <r>    5.1288    1.0000 </r>
       <r>    5.3846    1.0000 </r>
       <r>    5.3846    1.0000 </r>
       <r>    8.1167    0.0000 </r>
       <r>    8.9363    0.0000 </r>
       <r>    8.9363    0.0000 </r>
       <r>    9.7858    0.0000 </r>
      </set>
      <set comment="kpoint 10">
       <r>   -5.9972    1.0000 </r>
       <r>    4.9830    1.0000 </r>
       <r>    5.2971    1.0000 </r>
       <r>    5.2971    1.0000 </r>
       <r>    8.0544    0.0000 </r>
       <r>    9.0616    0.0000 </r>
       <r>    9.0616    0.0000 </r>
       <r>    9.9031    0.0000 </r>
      </set>
      <set comment="kpoint 11">
       <r>   -5.9627    1.0000 </r>
       <r>    4.8302    1.0000 </r>
       <r>    5.2065    1.0000 </r>
       <r>    5.2065    1.0000 </r>
       <r>    7.9880    0.0000 </r>
       <r>    9.1943    0.0000 </r>
       <r>    9.1943    0.0000 </r>
       <r>   10.0137    0.0000 </r>
      </set>
      <set comment="kpoint 12">
       <r>   -5.9246    1.0000 </r>
       <r>    4.6716    1.0000 </r>
       <r>    5.1138    1.0000 </r>
       <r>    5.1138    1.0000 </r>
       <r>    7.9185    0.0000 </r>
       <r>    9.3334    0.0000 </r>
       <r>    9.3334    0.0000 </r>
       <r>   10.1106    0.0000 </r>
      </set>
      <set comment="kpoint 13">
       <r>   -5.8829    1.0000 </r>
       <r>    4.5083    1.0000 </r>
       <r>    5.0198    1.0000 </r>
       <r>    5.0198    1.0000 </r>
       <r>    7.8465    0.0000 </r>
       <r>    9.4780    0.0000 </r>
       <r>    9.4780    0.0000 </r>
       <r>   10.1858    0.0000 </r>
      </set>
      <set comment="kpoint 14">
       <r>   -5.8376    1.0000 </r>
       <r>    4.3412    1.0000 </r>
       <r>    4.9252    1.0000 </r>
       <r>    4.9252    1.0000 </r>
       <r>    7.7726    0.0000 </r>
       <r>    9.6276    0.0000 </r>
       <r>    9.6276    0.0000 </r>
       <r>   10.2307    0.0000 </r>
      </set>
      <set comment="kpoint 15">
       <r>   -5.7887    1.0000 </r>
       <r>    4.1710    1.0000 </r>
       <r>    4.8305    1.0000 </r>
       <r>    4.8305    1.0000 </r>
       <r>    7.6974    0.0000 </r>
       <r>    9.7813    0.0000 </r>
       <r>    9.7813    0.0000 </r>
       <r>   10.2388    0.0000 </r>
      </set>
      <set comment="kpoint 16">
       <r>   -5.7363    1.0000 </r>
       <r>    3.9981    1.0000 </r>
       <r>    4.7363    1.0000 </r>
       <r>    4.7363    1.0000 </r>
       <r>    7.6215    0.0000 </r>
       <r>    9.9389    0.0000 </r>
       <r>    9.9389    0.0000 </r>
       <r>   10.2078    0.0000 </r>
      </set>
      <set comment="kpoint 17">
       <r>   -5.6803    1.0000 </r>
       <r>    3.8231    1.0000 </r>
       <r>    4.6429    1.0000 </r>
       <r>    4.6429    1.0000 </r>
       <r>    7.5455    0.0000 </r>
       <r>   10.0998    0.0000 </r>
       <r>   10.0998    0.0000 </r>
       <r>   10.1404    0.0000 </r>
      </set>
      <set comment="kpoint 18">
       <r>   -5.6208    1.0000 </r>
       <r>    3.6463    1.0000 </r>
       <r>    4.5506    1.0000 </r>
       <r>    4.5506    1.0000 </r>
       <r>    7.4697    0.0000 </r>
       <r>   10.0433    0.0000 </r>
       <r>   10.2636    0.0000 </r>
       <r>   10.2636    0.0000 </r>
      </set>
      <set comment="kpoint 19">
       <r>   -5.5578    1.0000 </r>
       <r>    3.4680    1.0000 </r>
       <r>    4.4598    1.0000 </r>
       <r>    4.4598    1.0000 </r>
       <r>    7.3945    0.0000 </r>
       <r>    9.9239    0.0000 </r>
       <r>   10.4301    0.0000 </r>
       <r>   10.4301    0.0000 </r>
      </set>
      <set comment="kpoint 20">
       <r>   -5.4912    1.0000 </r>
       <r>    3.2886    1.0000 </r>
       <r>    4.3706    1.0000 </r>
       <r>    4.3706    1.0000 </r>
       <r>    7.3204    0.0000 </r>
       <r>    9.7889    0.0000 </r>
       <r>   10.5990    0.0000 </r>
       <r>   10.5990    0.0000 </r>
      </set>
      <set comment="kpoint 21">
       <r>   -5.4212    1.0000 </r>
       <r>    3.1082    1.0000 </r>
       <r>    4.2833    1.0000 </r>
       <r>    4.2833    1.0000 </r>
       <r>    7.2476    0.0000 </r>
       <r>    9.6437    0.0000 </r>
       <r>   10.7701    0.0000 </r>
       <r>   10.7701    0.0000 </r>
      </set>
      <set comment="kpoint 22">
       <r>   -5.3477    1.0000 </r>
       <r>    2.9270    1.0000 </r>
       <r>    4.1981    1.0000 </r>
       <r>    4.1981    1.0000 </r>
       <r>    7.1765    0.0000 </r>
       <r>    9.4921    0.0000 </r>
       <r>   10.9431    0.0000 </r>
       <r>   10.9431    0.0000 </r>
      </set>
      <set comment="kpoint 23">
       <r>   -5.2708    1.0000 </r>
       <r>    2.7451    1.0000 </r>
       <r>    4.1150    1.0000 </r>
       <r>    4.1150    1.0000 </r>
       <r>    7.1073    0.0000 </r>
       <r>    9.3373    0.0000 </r>
       <r>   11.1180    0.0000 </r>
       <r>   11.1180    0.0000 </r>
      </set>
      <set comment="kpoint 24">
       <r>   -5.1904    1.0000 </r>
       <r>    2.5628    1.0000 </r>
       <r>    4.0343    1.0000 </r>
       <r>    4.0343    1.0000 </r>
       <r>    7.0402    0.0000 </r>
       <r>    9.1812    0.0000 </r>
       <r>   11.2944    0.0000 </r>
       <r>   11.2944    0.0000 </r>
      </set>
      <set comment="kpoint 25">
       <r>   -5.1066    1.0000 </r>
       <r>    2.3801    1.0000 </r>
       <r>    3.9560    1.0000 </r>
       <r>    3.9560    1.0000 </r>
       <r>    6.9756    0.0000 </r>
       <r>    9.0254    0.0000 </r>
       <r>   11.4724    0.0000 </r>
       <r>   11.4724    0.0000 </r>
      </set>
      <set comment="kpoint 26">
       <r>   -5.0195    1.0000 </r>
       <r>    2.1971    1.0000 </r>
       <r>    3.8802    1.0000 </r>
       <r>    3.8802    1.0000 </r>
       <r>    6.9135    0.0000 </r>
       <r>    8.8712    0.0000 </r>
       <r>   11.6518    0.0000 </r>
       <r>   11.6518    0.0000 </r>
      </set>
      <set comment="kpoint 27">
       <r>   -4.9289    1.0000 </r>
       <r>    2.0140    1.0000 </r>
       <r>    3.8071    1.0000 </r>
       <r>    3.8071    1.0000 </r>
       <r>    6.8542    0.0000 </r>
       <r>    8.7194    0.0000 </r>
       <r>   11.8325    0.0000 </r>
       <r>   11.8325    0.0000 </r>
      </set>
      <set comment="kpoint 28">
       <r>   -4.8351    1.0000 </r>
       <r>    1.8309    1.0000 </r>
       <r>    3.7367    1.0000 </r>
       <r>    3.7367    1.0000 </r>
       <r>    6.7978    0.0000 </r>
       <r>    8.5706    0.0000 </r>
       <r>   12.0145    0.0000 </r>
       <r>   12.0145    0.0000 </r>
      </set>
      <set comment="kpoint 29">
       <r>   -4.7380    1.0000 </r>
       <r>    1.6478    1.0000 </r>
       <r>    3.6690    1.0000 </r>
       <r>    3.6690    1.0000 </r>
       <r>    6.7445    0.0000 </r>
       <r>    8.4256    0.0000 </r>
       <r>   12.1976    0.0000 </r>
       <r>   12.1976    0.0000 </r>
      </set>
      <set comment="kpoint 30">
       <r>   -4.6376    1.0000 </r>
       <r>    1.4650    1.0000 </r>
       <r>    3.6042    1.0000 </r>
       <r>    3.6042    1.0000 </r>
       <r>    6.6944    0.0000 </r>
       <r>    8.2845    0.0000 </r>
       <r>   12.3818    0.0000 </r>
       <r>   12.3819    0.0000 </r>
      </set>
      <set comment="kpoint 31">
       <r>   -4.5339    1.0000 </r>
       <r>    1.2824    1.0000 </r>
       <r>    3.5423    1.0000 </r>
       <r>    3.5423    1.0000 </r>
       <r>    6.6477    0.0000 </r>
       <r>    8.1479    0.0000 </r>
       <r>   12.5671    0.0000 </r>
       <r>   12.5671    0.0000 </r>
      </set>
      <set comment="kpoint 32">
       <r>   -4.4270    1.0000 </r>
       <r>    1.1002    1.0000 </r>
       <r>    3.4833    1.0000 </r>
       <r>    3.4833    1.0000 </r>
       <r>    6.6045    0.0000 </r>
       <r>    8.0158    0.0000 </r>
       <r>   12.7534    0.0000 </r>
       <r>   12.7534    0.0000 </r>
      </set>
      <set comment="kpoint 33">
       <r>   -4.3170    1.0000 </r>
       <r>    0.9184    1.0000 </r>
       <r>    3.4273    1.0000 </r>
       <r>    3.4273    1.0000 </r>
       <r>    6.5648    0.0000 </r>
       <r>    7.8886    0.0000 </r>
       <r>   12.9406    0.0000 </r>
       <r>   12.9406    0.0000 </r>
      </set>
      <set comment="kpoint 34">
       <r>   -4.2038    1.0000 </r>
       <r>    0.7372    1.0000 </r>
       <r>    3.3744    1.0000 </r>
       <r>    3.3744    1.0000 </r>
       <r>    6.5288    0.0000 </r>
       <r>    7.7664    0.0000 </r>
       <r>   13.1288    0.0000 </r>
       <r>   13.1288    0.0000 </r>
      </set>
      <set comment="kpoint 35">
       <r>   -4.0875    1.0000 </r>
       <r>    0.5567    1.0000 </r>
       <r>    3.3245    1.0000 </r>
       <r>    3.3245    1.0000 </r>
       <r>    6.4966    0.0000 </r>
       <r>    7.6493    0.0000 </r>
       <r>   13.3178    0.0000 </r>
       <r>   13.3178    0.0000 </r>
      </set>
      <set comment="kpoint 36">
       <r>   -3.9682    1.0000 </r>
       <r>    0.3769    1.0000 </r>
       <r>    3.2777    1.0000 </r>
       <r>    3.2777    1.0000 </r>
       <r>    6.4683    0.0000 </r>
       <r>    7.5373    0.0000 </r>
       <r>   13.5077    0.0000 </r>
       <r>   13.5077    0.0000 </r>
      </set>
      <set comment="kpoint 37">
       <r>   -3.8458    1.0000 </r>
       <r>    0.1980    1.0000 </r>
       <r>    3.2340    1.0000 </r>
       <r>    3.2340    1.0000 </r>
       <r>    6.4440    0.0000 </r>
       <r>    7.4306    0.0000 </r>
       <r>   13.6984    0.0000 </r>
       <r>   13.6984    0.0000 </r>
      </set>
      <set comment="kpoint 38">
       <r>   -3.7205    1.0000 </r>
       <r>    0.0201    1.0000 </r>
       <r>    3.1934    1.0000 </r>
       <r>    3.1934    1.0000 </r>
       <r>    6.4237    0.0000 </r>
       <r>    7.3292    0.0000 </r>
       <r>   13.8898    0.0000 </r>
       <r>   13.8898    0.0000 </r>
      </set>
      <set comment="kpoint 39">
       <r>   -3.5922    1.0000 </r>
       <r>   -0.1568    1.0000 </r>
       <r>    3.1560    1.0000 </r>
       <r>    3.1560    1.0000 </r>
       <r>    6.4075    0.0000 </r>
       <r>    7.2331    0.0000 </r>
       <r>   14.0818    0.0000 </r>
       <r>   14.0818    0.0000 </r>
      </set>
      <set comment="kpoint 40">
       <r>   -3.4611    1.0000 </r>
       <r>   -0.3324    1.0000 </r>
       <r>    3.1218    1.0000 </r>
       <r>    3.1218    1.0000 </r>
       <r>    6.3956    0.0000 </r>
       <r>    7.1424    0.0000 </r>
       <r>   14.2743    0.0000 </r>
       <r>   14.2743    0.0000 </r>
      </set>
      <set comment="kpoint 41">
       <r>   -3.3271    1.0000 </r>
       <r>   -0.5069    1.0000 </r>
       <r>    3.0909    1.0000 </r>
       <r>    3.0909    1.0000 </r>
       <r>    6.3879    0.0000 </r>
       <r>    7.0570    0.0000 </r>
       <r>   14.4671    0.0000 </r>
       <r>   14.4671    0.0000 </r>
      </set>
      <set comment="kpoint 42">
       <r>   -3.1904    1.0000 </r>
       <r>   -0.6800    1.0000 </r>
       <r>    3.0631    1.0000 </r>
       <r>    3.0631    1.0000 </r>
       <r>    6.3846    0.0000 </r>
       <r>    6.9768    0.0000 </r>
       <r>   14.6599    0.0000 </r>
       <r>   14.6599    0.0000 </r>
      </set>
      <set comment="kpoint 43">
       <r>   -3.0510    1.0000 </r>
       <r>   -0.8516    1.0000 </r>
       <r>    3.0386    1.0000 </r>
       <r>    3.0386    1.0000 </r>
       <r>    6.3857    0.0000 </r>
       <r>    6.9020    0.0000 </r>
       <r>   14.8522    0.0000 </r>
       <r>   14.8522    0.0000 </r>
      </set>
      <set comment="kpoint 44">
       <r>   -2.9089    1.0000 </r>
       <r>   -1.0216    1.0000 </r>
       <r>    3.0173    1.0000 </r>
       <r>    3.0173    1.0000 </r>
       <r>    6.3914    0.0000 </r>
       <r>    6.8324    0.0000 </r>
       <r>   15.0433    0.0000 </r>
       <r>   15.0433    0.0000 </r>
      </set>
      <set comment="kpoint 45">
       <r>   -2.7642    1.0000 </r>
       <r>   -1.1900    1.0000 </r>
       <r>    2.9992    1.0000 </r>
       <r>    2.9992    1.0000 </r>
       <r>    6.4016    0.0000 </r>
       <r>    6.7681    0.0000 </r>
       <r>   15.2320    0.0000 </r>
       <r>   15.2322    0.0000 </r>
      </set>
      <set comment="kpoint 46">
       <r>   -2.6170    1.0000 </r>
       <r>   -1.3567    1.0000 </r>
       <r>    2.9845    1.0000 </r>
       <r>    2.9845    1.0000 </r>
       <r>    6.4164    0.0000 </r>
       <r>    6.7089    0.0000 </r>
       <r>   15.4160    0.0000 </r>
       <r>   15.4161    0.0000 </r>
      </set>
      <set comment="kpoint 47">
       <r>   -2.4673    1.0000 </r>
       <r>   -1.5215    1.0000 </r>
       <r>    2.9730    1.0000 </r>
       <r>    2.9730    1.0000 </r>
       <r>    6.4359    0.0000 </r>
       <r>    6.6549    0.0000 </r>
       <r>   15.5910    0.0000 </r>
       <r>   15.5919    0.0000 </r>
      </set>
      <set comment="kpoint 48">
       <r>   -2.3152    1.0000 </r>
       <r>   -1.6844    1.0000 </r>
       <r>    2.9648    1.0000 </r>
       <r>    2.9648    1.0000 </r>
       <r>    6.4602    0.0000 </r>
       <r>    6.6060    0.0000 </r>
       <r>   15.7480    0.0000 </r>
       <r>   15.7485    0.0000 </r>
      </set>
      <set comment="kpoint 49">
       <r>   -2.1608    1.0000 </r>
       <r>   -1.8453    1.0000 </r>
       <r>    2.9599    1.0000 </r>
       <r>    2.9599    1.0000 </r>
       <r>    6.4892    0.0000 </r>
       <r>    6.5621    0.0000 </r>
       <r>   15.8668    0.0000 </r>
       <r>   15.8756    0.0000 </r>
      </set>
      <set comment="kpoint 50">
       <r>   -2.0042    1.0000 </r>
       <r>   -2.0042    1.0000 </r>
       <r>    2.9582    1.0000 </r>
       <r>    2.9582    1.0000 </r>
       <r>    6.5232    0.0000 </r>
       <r>    6.5232    0.0000 </r>
       <r>   15.9141    0.0000 </r>
       <r>   15.9143    0.0000 </r>
      </set>
      <set comment="kpoint 51">
       <r>   -2.0042    1.0000 </r>
       <r>   -2.0042    1.0000 </r>
       <r>    2.9582    1.0000 </r>
       <r>    2.9582    1.0000 </r>
       <r>    6.5232    0.0000 </r>
       <r>    6.5232    0.0000 </r>
       <r>   15.9153    0.0000 </r>
       <r>   15.9281    0.0000 </r>
      </set>
      <set comment="kpoint 52">
       <r>   -2.0042    1.0000 </r>
       <r>   -2.0039    1.0000 </r>
       <r>    2.9566    1.0000 </r>
       <r>    2.9584    1.0000 </r>
       <r>    6.5234    0.0000 </r>
       <r>    6.5255    0.0000 </r>
       <r>   15.9128    0.0000 </r>
       <r>   15.9151    0.0000 </r>
      </set>
      <set comment="kpoint 53">
       <r>   -2.0045    1.0000 </r>
       <r>   -2.0032    1.0000 </r>
       <r>    2.9519    1.0000 </r>
       <r>    2.9590    1.0000 </r>
       <r>    6.5240    0.0000 </r>
       <r>    6.5325    0.0000 </r>
       <r>   15.9038    0.0000 </r>
       <r>   15.9099    0.0000 </r>
      </set>
      <set comment="kpoint 54">
       <r>   -2.0050    1.0000 </r>
       <r>   -2.0019    1.0000 </r>
       <r>    2.9441    1.0000 </r>
       <r>    2.9599    1.0000 </r>
       <r>    6.5251    0.0000 </r>
       <r>    6.5441    0.0000 </r>
       <r>   15.8913    0.0000 </r>
       <r>   15.9026    0.0000 </r>
      </set>
      <set comment="kpoint 55">
       <r>   -2.0057    1.0000 </r>
       <r>   -2.0002    1.0000 </r>
       <r>    2.9332    1.0000 </r>
       <r>    2.9611    1.0000 </r>
       <r>    6.5266    0.0000 </r>
       <r>    6.5602    0.0000 </r>
       <r>   15.8727    0.0000 </r>
       <r>   15.8928    0.0000 </r>
      </set>
      <set comment="kpoint 56">
       <r>   -2.0065    1.0000 </r>
       <r>   -1.9980    1.0000 </r>
       <r>    2.9194    1.0000 </r>
       <r>    2.9628    1.0000 </r>
       <r>    6.5285    0.0000 </r>
       <r>    6.5808    0.0000 </r>
       <r>   15.8513    0.0000 </r>
       <r>   15.8819    0.0000 </r>
      </set>
      <set comment="kpoint 57">
       <r>   -2.0076    1.0000 </r>
       <r>   -1.9953    1.0000 </r>
       <r>    2.9028    1.0000 </r>
       <r>    2.9648    1.0000 </r>
       <r>    6.5308    0.0000 </r>
       <r>    6.6057    0.0000 </r>
       <r>   15.8243    0.0000 </r>
       <r>   15.8664    0.0000 </r>
      </set>
      <set comment="kpoint 58">
       <r>   -2.0088    1.0000 </r>
       <r>   -1.9921    1.0000 </r>
       <r>    2.8835    1.0000 </r>
       <r>    2.9672    1.0000 </r>
       <r>    6.5335    0.0000 </r>
       <r>    6.6349    0.0000 </r>
       <r>   15.7923    0.0000 </r>
       <r>   15.8490    0.0000 </r>
      </set>
      <set comment="kpoint 59">
       <r>   -2.0103    1.0000 </r>
       <r>   -1.9884    1.0000 </r>
       <r>    2.8616    1.0000 </r>
       <r>    2.9699    1.0000 </r>
       <r>    6.5367    0.0000 </r>
       <r>    6.6681    0.0000 </r>
       <r>   15.7578    0.0000 </r>
       <r>   15.8287    0.0000 </r>
      </set>
      <set comment="kpoint 60">
       <r>   -2.0120    1.0000 </r>
       <r>   -1.9842    1.0000 </r>
       <r>    2.8373    1.0000 </r>
       <r>    2.9730    1.0000 </r>
       <r>    6.5403    0.0000 </r>
       <r>    6.7052    0.0000 </r>
       <r>   15.7241    0.0000 </r>
       <r>   15.8088    0.0000 </r>
      </set>
      <set comment="kpoint 61">
       <r>   -2.0139    1.0000 </r>
       <r>   -1.9795    1.0000 </r>
       <r>    2.8109    1.0000 </r>
       <r>    2.9765    1.0000 </r>
       <r>    6.5443    0.0000 </r>
       <r>    6.7460    0.0000 </r>
       <r>   15.6787    0.0000 </r>
       <r>   15.7854    0.0000 </r>
      </set>
      <set comment="kpoint 62">
       <r>   -2.0160    1.0000 </r>
       <r>   -1.9744    1.0000 </r>
       <r>    2.7824    1.0000 </r>
       <r>    2.9803    1.0000 </r>
       <r>    6.5487    0.0000 </r>
       <r>    6.7905    0.0000 </r>
       <r>   15.6339    0.0000 </r>
       <r>   15.7573    0.0000 </r>
      </set>
      <set comment="kpoint 63">
       <r>   -2.0184    1.0000 </r>
       <r>   -1.9687    1.0000 </r>
       <r>    2.7520    1.0000 </r>
       <r>    2.9845    1.0000 </r>
       <r>    6.5536    0.0000 </r>
       <r>    6.8383    0.0000 </r>
       <r>   15.5867    0.0000 </r>
       <r>   15.7297    0.0000 </r>
      </set>
      <set comment="kpoint 64">
       <r>   -2.0210    1.0000 </r>
       <r>   -1.9625    1.0000 </r>
       <r>    2.7200    1.0000 </r>
       <r>    2.9890    1.0000 </r>
       <r>    6.5588    0.0000 </r>
       <r>    6.8894    0.0000 </r>
       <r>   15.5364    0.0000 </r>
       <r>   15.7417    0.0000 </r>
      </set>
      <set comment="kpoint 65">
       <r>   -2.0239    1.0000 </r>
       <r>   -1.9559    1.0000 </r>
       <r>    2.6865    1.0000 </r>
       <r>    2.9939    1.0000 </r>
       <r>    6.5645    0.0000 </r>
       <r>    6.9436    0.0000 </r>
       <r>   15.4851    0.0000 </r>
       <r>   15.6707    0.0000 </r>
      </set>
      <set comment="kpoint 66">
       <r>   -2.0270    1.0000 </r>
       <r>   -1.9488    1.0000 </r>
       <r>    2.6516    1.0000 </r>
       <r>    2.9992    1.0000 </r>
       <r>    6.5706    0.0000 </r>
       <r>    7.0007    0.0000 </r>
       <r>   15.4320    0.0000 </r>
       <r>   15.6362    0.0000 </r>
      </set>
      <set comment="kpoint 67">
       <r>   -2.0305    1.0000 </r>
       <r>   -1.9411    1.0000 </r>
       <r>    2.6156    1.0000 </r>
       <r>    3.0048    1.0000 </r>
       <r>    6.5771    0.0000 </r>
       <r>    7.0605    0.0000 </r>
       <r>   15.3780    0.0000 </r>
       <r>   15.6057    0.0000 </r>
      </set>
      <set comment="kpoint 68">
       <r>   -2.0343    1.0000 </r>
       <r>   -1.9330    1.0000 </r>
       <r>    2.5785    1.0000 </r>
       <r>    3.0108    1.0000 </r>
       <r>    6.5841    0.0000 </r>
       <r>    7.1230    0.0000 </r>
       <r>   15.3199    0.0000 </r>
       <r>   15.5729    0.0000 </r>
      </set>
      <set comment="kpoint 69">
       <r>   -2.0383    1.0000 </r>
       <r>   -1.9244    1.0000 </r>
       <r>    2.5406    1.0000 </r>
       <r>    3.0171    1.0000 </r>
       <r>    6.5914    0.0000 </r>
       <r>    7.1879    0.0000 </r>
       <r>   15.2623    0.0000 </r>
       <r>   15.5232    0.0000 </r>
      </set>
      <set comment="kpoint 70">
       <r>   -2.0427    1.0000 </r>
       <r>   -1.9153    1.0000 </r>
       <r>    2.5020    1.0000 </r>
       <r>    3.0238    1.0000 </r>
       <r>    6.5992    0.0000 </r>
       <r>    7.2551    0.0000 </r>
       <r>   15.2033    0.0000 </r>
       <r>   15.4841    0.0000 </r>
      </set>
      <set comment="kpoint 71">
       <r>   -2.0475    1.0000 </r>
       <r>   -1.9057    1.0000 </r>
       <r>    2.4629    1.0000 </r>
       <r>    3.0309    1.0000 </r>
       <r>    6.6074    0.0000 </r>
       <r>    7.3246    0.0000 </r>
       <r>   15.1451    0.0000 </r>
       <r>   15.4468    0.0000 </r>
      </set>
      <set comment="kpoint 72">
       <r>   -2.0526    1.0000 </r>
       <r>   -1.8956    1.0000 </r>
       <r>    2.4233    1.0000 </r>
       <r>    3.0383    1.0000 </r>
       <r>    6.6160    0.0000 </r>
       <r>    7.3961    0.0000 </r>
       <r>   15.0827    0.0000 </r>
       <r>   15.4052    0.0000 </r>
      </set>
      <set comment="kpoint 73">
       <r>   -2.0581    1.0000 </r>
       <r>   -1.8850    1.0000 </r>
       <r>    2.3834    1.0000 </r>
       <r>    3.0461    1.0000 </r>
       <r>    6.6250    0.0000 </r>
       <r>    7.4697    0.0000 </r>
       <r>   15.0289    0.0000 </r>
       <r>   15.3916    0.0000 </r>
      </set>
      <set comment="kpoint 74">
       <r>   -2.0640    1.0000 </r>
       <r>   -1.8740    1.0000 </r>
       <r>    2.3434    1.0000 </r>
       <r>    3.0542    1.0000 </r>
       <r>    6.6344    0.0000 </r>
       <r>    7.5450    0.0000 </r>
       <r>   14.9600    0.0000 </r>
       <r>   15.3775    0.0000 </r>
      </set>
      <set comment="kpoint 75">
       <r>   -2.0703    1.0000 </r>
       <r>   -1.8624    1.0000 </r>
       <r>    2.3033    1.0000 </r>
       <r>    3.0627    1.0000 </r>
       <r>    6.6442    0.0000 </r>
       <r>    7.6222    0.0000 </r>
       <r>   14.8965    0.0000 </r>
       <r>   15.3038    0.0000 </r>
      </set>
      <set comment="kpoint 76">
       <r>   -2.0770    1.0000 </r>
       <r>   -1.8504    1.0000 </r>
       <r>    2.2632    1.0000 </r>
       <r>    3.0715    1.0000 </r>
       <r>    6.6544    0.0000 </r>
       <r>    7.7011    0.0000 </r>
       <r>   14.8348    0.0000 </r>
       <r>   15.2976    0.0000 </r>
      </set>
      <set comment="kpoint 77">
       <r>   -2.0842    1.0000 </r>
       <r>   -1.8378    1.0000 </r>
       <r>    2.2233    1.0000 </r>
       <r>    3.0807    1.0000 </r>
       <r>    6.6651    0.0000 </r>
       <r>    7.7815    0.0000 </r>
       <r>   14.7689    0.0000 </r>
       <r>   15.1960    0.0000 </r>
      </set>
      <set comment="kpoint 78">
       <r>   -2.0919    1.0000 </r>
       <r>   -1.8248    1.0000 </r>
       <r>    2.1836    1.0000 </r>
       <r>    3.0902    1.0000 </r>
       <r>    6.6761    0.0000 </r>
       <r>    7.8634    0.0000 </r>
       <r>   14.7057    0.0000 </r>
       <r>   15.1367    0.0000 </r>
      </set>
      <set comment="kpoint 79">
       <r>   -2.1000    1.0000 </r>
       <r>   -1.8113    1.0000 </r>
       <r>    2.1443    1.0000 </r>
       <r>    3.1000    1.0000 </r>
       <r>    6.6875    0.0000 </r>
       <r>    7.9468    0.0000 </r>
       <r>   14.6420    0.0000 </r>
       <r>   15.1122    0.0000 </r>
      </set>
      <set comment="kpoint 80">
       <r>   -2.1087    1.0000 </r>
       <r>   -1.7973    1.0000 </r>
       <r>    2.1054    1.0000 </r>
       <r>    3.1103    1.0000 </r>
       <r>    6.6994    0.0000 </r>
       <r>    8.0316    0.0000 </r>
       <r>   14.5759    0.0000 </r>
       <r>   15.1067    0.0000 </r>
      </set>
      <set comment="kpoint 81">
       <r>   -2.1179    1.0000 </r>
       <r>   -1.7828    1.0000 </r>
       <r>    2.0669    1.0000 </r>
       <r>    3.1208    1.0000 </r>
       <r>    6.7116    0.0000 </r>
       <r>    8.1176    0.0000 </r>
       <r>   14.5107    0.0000 </r>
       <r>   15.0330    0.0000 </r>
      </set>
      <set comment="kpoint 82">
       <r>   -2.1277    1.0000 </r>
       <r>   -1.7678    1.0000 </r>
       <r>    2.0291    1.0000 </r>
       <r>    3.1317    1.0000 </r>
       <r>    6.7243    0.0000 </r>
       <r>    8.2049    0.0000 </r>
       <r>   14.4506    0.0000 </r>
       <r>   15.0122    0.0000 </r>
      </set>
      <set comment="kpoint 83">
       <r>   -2.1380    1.0000 </r>
       <r>   -1.7523    1.0000 </r>
       <r>    1.9919    1.0000 </r>
       <r>    3.1429    1.0000 </r>
       <r>    6.7373    0.0000 </r>
       <r>    8.2934    0.0000 </r>
       <r>   14.3806    0.0000 </r>
       <r>   14.9348    0.0000 </r>
      </set>
      <set comment="kpoint 84">
       <r>   -2.1490    1.0000 </r>
       <r>   -1.7364    1.0000 </r>
       <r>    1.9555    1.0000 </r>
       <r>    3.1545    1.0000 </r>
       <r>    6.7507    0.0000 </r>
       <r>    8.3830    0.0000 </r>
       <r>   14.3158    0.0000 </r>
       <r>   14.8577    0.0000 </r>
      </set>
      <set comment="kpoint 85">
       <r>   -2.1605    1.0000 </r>
       <r>   -1.7199    1.0000 </r>
       <r>    1.9198    1.0000 </r>
       <r>    3.1664    1.0000 </r>
       <r>    6.7646    0.0000 </r>
       <r>    8.4737    0.0000 </r>
       <r>   14.2503    0.0000 </r>
       <r>   14.8088    0.0000 </r>
      </set>
      <set comment="kpoint 86">
       <r>   -2.1727    1.0000 </r>
       <r>   -1.7030    1.0000 </r>
       <r>    1.8850    1.0000 </r>
       <r>    3.1787    1.0000 </r>
       <r>    6.7788    0.0000 </r>
       <r>    8.5655    0.0000 </r>
       <r>   14.1855    0.0000 </r>
       <r>   14.7512    0.0000 </r>
      </set>
      <set comment="kpoint 87">
       <r>   -2.1855    1.0000 </r>
       <r>   -1.6856    1.0000 </r>
       <r>    1.8511    1.0000 </r>
       <r>    3.1912    1.0000 </r>
       <r>    6.7934    0.0000 </r>
       <r>    8.6582    0.0000 </r>
       <r>   14.1207    0.0000 </r>
       <r>   14.6898    0.0000 </r>
      </set>
      <set comment="kpoint 88">
       <r>   -2.1990    1.0000 </r>
       <r>   -1.6676    1.0000 </r>
       <r>    1.8181    1.0000 </r>
       <r>    3.2041    1.0000 </r>
       <r>    6.8084    0.0000 </r>
       <r>    8.7519    0.0000 </r>
       <r>   14.0561    0.0000 </r>
       <r>   14.6313    0.0000 </r>
      </set>
      <set comment="kpoint 89">
       <r>   -2.2132    1.0000 </r>
       <r>   -1.6492    1.0000 </r>
       <r>    1.7861    1.0000 </r>
       <r>    3.2174    1.0000 </r>
       <r>    6.8238    0.0000 </r>
       <r>    8.8464    0.0000 </r>
       <r>   13.9893    0.0000 </r>
       <r>   14.5730    0.0000 </r>
      </set>
      <set comment="kpoint 90">
       <r>   -2.2281    1.0000 </r>
       <r>   -1.6303    1.0000 </r>
       <r>    1.7552    1.0000 </r>
       <r>    3.2310    1.0000 </r>
       <r>    6.8395    0.0000 </r>
       <r>    8.9419    0.0000 </r>
       <r>   13.9244    0.0000 </r>
       <r>   14.4992    0.0000 </r>
      </set>
      <set comment="kpoint 91">
       <r>   -2.2437    1.0000 </r>
       <r>   -1.6110    1.0000 </r>
       <r>    1.7254    1.0000 </r>
       <r>    3.2448    1.0000 </r>
       <r>    6.8557    0.0000 </r>
       <r>    9.0381    0.0000 </r>
       <r>   13.8593    0.0000 </r>
       <r>   14.4618    0.0000 </r>
      </set>
      <set comment="kpoint 92">
       <r>   -2.2600    1.0000 </r>
       <r>   -1.5911    1.0000 </r>
       <r>    1.6968    1.0000 </r>
       <r>    3.2591    1.0000 </r>
       <r>    6.8722    0.0000 </r>
       <r>    9.1352    0.0000 </r>
       <r>   13.7947    0.0000 </r>
       <r>   14.3608    0.0000 </r>
      </set>
      <set comment="kpoint 93">
       <r>   -2.2771    1.0000 </r>
       <r>   -1.5708    1.0000 </r>
       <r>    1.6693    1.0000 </r>
       <r>    3.2736    1.0000 </r>
       <r>    6.8891    0.0000 </r>
       <r>    9.2330    0.0000 </r>
       <r>   13.7300    0.0000 </r>
       <r>   14.2752    0.0000 </r>
      </set>
      <set comment="kpoint 94">
       <r>   -2.2949    1.0000 </r>
       <r>   -1.5499    1.0000 </r>
       <r>    1.6430    1.0000 </r>
       <r>    3.2884    1.0000 </r>
       <r>    6.9064    0.0000 </r>
       <r>    9.3315    0.0000 </r>
       <r>   13.6658    0.0000 </r>
       <r>   14.2163    0.0000 </r>
      </set>
      <set comment="kpoint 95">
       <r>   -2.3135    1.0000 </r>
       <r>   -1.5286    1.0000 </r>
       <r>    1.6179    1.0000 </r>
       <r>    3.3036    1.0000 </r>
       <r>    6.9240    0.0000 </r>
       <r>    9.4307    0.0000 </r>
       <r>   13.6012    0.0000 </r>
       <r>   14.1393    0.0000 </r>
      </set>
      <set comment="kpoint 96">
       <r>   -2.3328    1.0000 </r>
       <r>   -1.5068    1.0000 </r>
       <r>    1.5942    1.0000 </r>
       <r>    3.3191    1.0000 </r>
[...]
        <r>  0.0002  0.1316  0.0000 </r>
       </set>
       <set comment="band 8">
        <r>  0.0002  0.1321  0.0000 </r>
        <r>  0.0309  0.1481  0.0000 </r>
       </set>
      </set>
      <set comment="kpoint 283">
       <set comment="band 1">
        <r>  0.1963  0.0449  0.0000 </r>
        <r>  0.1963  0.0449  0.0000 </r>
       </set>
       <set comment="band 2">
        <r>  0.1963  0.0449  0.0000 </r>
        <r>  0.1963  0.0449  0.0000 </r>
       </set>
       <set comment="band 3">
        <r>  0.0024  0.1814  0.0000 </r>
        <r>  0.0024  0.1814  0.0000 </r>
       </set>
       <set comment="band 4">
        <r>  0.0024  0.1814  0.0000 </r>
        <r>  0.0024  0.1814  0.0000 </r>
       </set>
       <set comment="band 5">
        <r>  0.0447  0.0546  0.0000 </r>
        <r>  0.0447  0.0546  0.0000 </r>
       </set>
       <set comment="band 6">
        <r>  0.0447  0.0546  0.0000 </r>
        <r>  0.0447  0.0546  0.0000 </r>
       </set>
       <set comment="band 7">
        <r>  0.0237  0.1494  0.0000 </r>
        <r>  0.0055  0.1373  0.0000 </r>
       </set>
       <set comment="band 8">
        <r>  0.0055  0.1373  0.0000 </r>
        <r>  0.0238  0.1492  0.0000 </r>
       </set>
      </set>
      <set comment="kpoint 284">
       <set comment="band 1">
        <r>  0.1960  0.0449  0.0000 </r>
        <r>  0.1960  0.0449  0.0000 </r>
       </set>
       <set comment="band 2">
        <r>  0.1960  0.0449  0.0000 </r>
        <r>  0.1960  0.0449  0.0000 </r>
       </set>
       <set comment="band 3">
        <r>  0.0023  0.1827  0.0000 </r>
        <r>  0.0023  0.1827  0.0000 </r>
       </set>
       <set comment="band 4">
        <r>  0.0023  0.1827  0.0000 </r>
        <r>  0.0023  0.1827  0.0000 </r>
       </set>
       <set comment="band 5">
        <r>  0.0454  0.0530  0.0000 </r>
        <r>  0.0454  0.0530  0.0000 </r>
       </set>
       <set comment="band 6">
        <r>  0.0454  0.0530  0.0000 </r>
        <r>  0.0454  0.0530  0.0000 </r>
       </set>
       <set comment="band 7">
        <r>  0.0182  0.1512  0.0000 </r>
        <r>  0.0091  0.1438  0.0000 </r>
       </set>
       <set comment="band 8">
        <r>  0.0092  0.1432  0.0000 </r>
        <r>  0.0182  0.1509  0.0000 </r>
       </set>
      </set>
      <set comment="kpoint 285">
       <set comment="band 1">
        <r>  0.1957  0.0450  0.0000 </r>
        <r>  0.1957  0.0450  0.0000 </r>
       </set>
       <set comment="band 2">
        <r>  0.1957  0.0450  0.0000 </r>
        <r>  0.1957  0.0450  0.0000 </r>
       </set>
       <set comment="band 3">
        <r>  0.0022  0.1841  0.0000 </r>
        <r>  0.0022  0.1841  0.0000 </r>
       </set>
       <set comment="band 4">
        <r>  0.0022  0.1841  0.0000 </r>
        <r>  0.0022  0.1841  0.0000 </r>
       </set>
       <set comment="band 5">
        <r>  0.0460  0.0513  0.0000 </r>
        <r>  0.0460  0.0513  0.0000 </r>
       </set>
       <set comment="band 6">
        <r>  0.0460  0.0513  0.0000 </r>
        <r>  0.0460  0.0513  0.0000 </r>
       </set>
       <set comment="band 7">
        <r>  0.0015  0.1410  0.0000 </r>
        <r>  0.0239  0.1635  0.0000 </r>
       </set>
       <set comment="band 8">
        <r>  0.0239  0.1634  0.0000 </r>
        <r>  0.0015  0.1409  0.0000 </r>
       </set>
      </set>
      <set comment="kpoint 286">
       <set comment="band 1">
        <r>  0.1955  0.0451  0.0000 </r>
        <r>  0.1955  0.0451  0.0000 </r>
       </set>
       <set comment="band 2">
        <r>  0.1955  0.0451  0.0000 </r>
        <r>  0.1955  0.0451  0.0000 </r>
       </set>
       <set comment="band 3">
        <r>  0.0020  0.1854  0.0000 </r>
        <r>  0.0020  0.1854  0.0000 </r>
       </set>
       <set comment="band 4">
        <r>  0.0020  0.1854  0.0000 </r>
        <r>  0.0020  0.1854  0.0000 </r>
       </set>
       <set comment="band 5">
        <r>  0.0466  0.0497  0.0000 </r>
        <r>  0.0466  0.0497  0.0000 </r>
       </set>
       <set comment="band 6">
        <r>  0.0466  0.0497  0.0000 </r>
        <r>  0.0466  0.0497  0.0000 </r>
       </set>
       <set comment="band 7">
        <r>  0.0206  0.1683  0.0000 </r>
        <r>  0.0028  0.1465  0.0000 </r>
       </set>
       <set comment="band 8">
        <r>  0.0028  0.1467  0.0000 </r>
        <r>  0.0205  0.1685  0.0000 </r>
       </set>
      </set>
      <set comment="kpoint 287">
       <set comment="band 1">
        <r>  0.1952  0.0451  0.0000 </r>
        <r>  0.1952  0.0451  0.0000 </r>
       </set>
       <set comment="band 2">
        <r>  0.1952  0.0451  0.0000 </r>
        <r>  0.1952  0.0451  0.0000 </r>
       </set>
       <set comment="band 3">
        <r>  0.0019  0.1868  0.0000 </r>
        <r>  0.0019  0.1868  0.0000 </r>
       </set>
       <set comment="band 4">
        <r>  0.0019  0.1868  0.0000 </r>
        <r>  0.0019  0.1868  0.0000 </r>
       </set>
       <set comment="band 5">
        <r>  0.0472  0.0481  0.0000 </r>
        <r>  0.0472  0.0481  0.0000 </r>
       </set>
       <set comment="band 6">
        <r>  0.0472  0.0481  0.0000 </r>
        <r>  0.0472  0.0481  0.0000 </r>
       </set>
       <set comment="band 7">
        <r>  0.0159  0.1714  0.0000 </r>
        <r>  0.0053  0.1556  0.0000 </r>
       </set>
       <set comment="band 8">
        <r>  0.0053  0.1544  0.0000 </r>
        <r>  0.0159  0.1705  0.0000 </r>
       </set>
      </set>
      <set comment="kpoint 288">
       <set comment="band 1">
        <r>  0.1950  0.0452  0.0000 </r>
        <r>  0.1950  0.0452  0.0000 </r>
       </set>
       <set comment="band 2">
        <r>  0.1950  0.0452  0.0000 </r>
        <r>  0.1950  0.0452  0.0000 </r>
       </set>
       <set comment="band 3">
        <r>  0.0017  0.1881  0.0000 </r>
        <r>  0.0017  0.1881  0.0000 </r>
       </set>
       <set comment="band 4">
        <r>  0.0017  0.1881  0.0000 </r>
        <r>  0.0017  0.1881  0.0000 </r>
       </set>
       <set comment="band 5">
        <r>  0.0478  0.0465  0.0000 </r>
        <r>  0.0478  0.0465  0.0000 </r>
       </set>
       <set comment="band 6">
        <r>  0.0478  0.0465  0.0000 </r>
        <r>  0.0478  0.0465  0.0000 </r>
       </set>
       <set comment="band 7">
        <r>  0.0128  0.1764  0.0000 </r>
        <r>  0.0062  0.1645  0.0000 </r>
       </set>
       <set comment="band 8">
        <r>  0.0063  0.1639  0.0000 </r>
        <r>  0.0130  0.1755  0.0000 </r>
       </set>
      </set>
      <set comment="kpoint 289">
       <set comment="band 1">
        <r>  0.1948  0.0453  0.0000 </r>
        <r>  0.1948  0.0453  0.0000 </r>
       </set>
       <set comment="band 2">
        <r>  0.1948  0.0453  0.0000 </r>
        <r>  0.1948  0.0453  0.0000 </r>
       </set>
       <set comment="band 3">
        <r>  0.0015  0.1894  0.0000 </r>
        <r>  0.0015  0.1894  0.0000 </r>
       </set>
       <set comment="band 4">
        <r>  0.0015  0.1894  0.0000 </r>
        <r>  0.0015  0.1894  0.0000 </r>
       </set>
       <set comment="band 5">
        <r>  0.0484  0.0450  0.0000 </r>
        <r>  0.0484  0.0450  0.0000 </r>
       </set>
       <set comment="band 6">
        <r>  0.0484  0.0450  0.0000 </r>
        <r>  0.0484  0.0450  0.0000 </r>
       </set>
       <set comment="band 7">
        <r>  0.0024  0.1657  0.0000 </r>
        <r>  0.0143  0.1912  0.0000 </r>
       </set>
       <set comment="band 8">
        <r>  0.0147  0.1894  0.0000 </r>
        <r>  0.0023  0.1650  0.0000 </r>
       </set>
      </set>
      <set comment="kpoint 290">
       <set comment="band 1">
        <r>  0.1946  0.0453  0.0000 </r>
        <r>  0.1946  0.0453  0.0000 </r>
       </set>
       <set comment="band 2">
        <r>  0.1946  0.0453  0.0000 </r>
        <r>  0.1946  0.0453  0.0000 </r>
       </set>
       <set comment="band 3">
        <r>  0.0013  0.1907  0.0000 </r>
        <r>  0.0013  0.1907  0.0000 </r>
       </set>
       <set comment="band 4">
        <r>  0.0013  0.1907  0.0000 </r>
        <r>  0.0013  0.1907  0.0000 </r>
       </set>
       <set comment="band 5">
        <r>  0.0489  0.0435  0.0000 </r>
        <r>  0.0489  0.0435  0.0000 </r>
       </set>
       <set comment="band 6">
        <r>  0.0489  0.0435  0.0000 </r>
        <r>  0.0489  0.0435  0.0000 </r>
       </set>
       <set comment="band 7">
        <r>  0.0026  0.1752  0.0000 </r>
        <r>  0.0116  0.1984  0.0000 </r>
       </set>
       <set comment="band 8">
        <r>  0.0120  0.1963  0.0000 </r>
        <r>  0.0025  0.1732  0.0000 </r>
       </set>
      </set>
      <set comment="kpoint 291">
       <set comment="band 1">
        <r>  0.1944  0.0454  0.0000 </r>
        <r>  0.1944  0.0454  0.0000 </r>
       </set>
       <set comment="band 2">
        <r>  0.1944  0.0454  0.0000 </r>
        <r>  0.1944  0.0454  0.0000 </r>
       </set>
       <set comment="band 3">
        <r>  0.0011  0.1920  0.0000 </r>
        <r>  0.0011  0.1920  0.0000 </r>
       </set>
       <set comment="band 4">
        <r>  0.0011  0.1920  0.0000 </r>
        <r>  0.0011  0.1920  0.0000 </r>
       </set>
       <set comment="band 5">
        <r>  0.0494  0.0421  0.0000 </r>
        <r>  0.0494  0.0421  0.0000 </r>
       </set>
       <set comment="band 6">
        <r>  0.0494  0.0421  0.0000 </r>
        <r>  0.0494  0.0421  0.0000 </r>
       </set>
       <set comment="band 7">
        <r>  0.0015  0.1826  0.0000 </r>
        <r>  0.0104  0.2094  0.0000 </r>
       </set>
       <set comment="band 8">
        <r>  0.0103  0.2082  0.0000 </r>
        <r>  0.0016  0.1809  0.0000 </r>
       </set>
      </set>
      <set comment="kpoint 292">
       <set comment="band 1">
        <r>  0.1943  0.0454  0.0000 </r>
        <r>  0.1943  0.0454  0.0000 </r>
       </set>
       <set comment="band 2">
        <r>  0.1943  0.0454  0.0000 </r>
        <r>  0.1943  0.0454  0.0000 </r>
       </set>
       <set comment="band 3">
        <r>  0.0009  0.1931  0.0000 </r>
        <r>  0.0009  0.1931  0.0000 </r>
       </set>
       <set comment="band 4">
        <r>  0.0009  0.1931  0.0000 </r>
        <r>  0.0009  0.1931  0.0000 </r>
       </set>
       <set comment="band 5">
        <r>  0.0499  0.0408  0.0000 </r>
        <r>  0.0499  0.0408  0.0000 </r>
       </set>
       <set comment="band 6">
        <r>  0.0499  0.0408  0.0000 </r>
        <r>  0.0499  0.0408  0.0000 </r>
       </set>
       <set comment="band 7">
        <r>  0.0061  0.2096  0.0000 </r>
        <r>  0.0036  0.2009  0.0000 </r>
       </set>
       <set comment="band 8">
        <r>  0.0036  0.2000  0.0000 </r>
        <r>  0.0058  0.2074  0.0000 </r>
       </set>
      </set>
      <set comment="kpoint 293">
       <set comment="band 1">
        <r>  0.1941  0.0454  0.0000 </r>
        <r>  0.1941  0.0454  0.0000 </r>
       </set>
       <set comment="band 2">
        <r>  0.1941  0.0454  0.0000 </r>
        <r>  0.1941  0.0454  0.0000 </r>
       </set>
       <set comment="band 3">
        <r>  0.0007  0.1942  0.0000 </r>
        <r>  0.0007  0.1942  0.0000 </r>
       </set>
       <set comment="band 4">
        <r>  0.0007  0.1942  0.0000 </r>
        <r>  0.0007  0.1942  0.0000 </r>
       </set>
       <set comment="band 5">
        <r>  0.0503  0.0395  0.0000 </r>
        <r>  0.0503  0.0395  0.0000 </r>
       </set>
       <set comment="band 6">
        <r>  0.0503  0.0395  0.0000 </r>
        <r>  0.0503  0.0395  0.0000 </r>
       </set>
       <set comment="band 7">
        <r>  0.0030  0.2122  0.0000 </r>
        <r>  0.0042  0.2171  0.0000 </r>
       </set>
       <set comment="band 8">
        <r>  0.0042  0.2167  0.0000 </r>
        <r>  0.0031  0.2121  0.0000 </r>
       </set>
      </set>
      <set comment="kpoint 294">
       <set comment="band 1">
        <r>  0.1940  0.0455  0.0000 </r>
        <r>  0.1940  0.0455  0.0000 </r>
       </set>
       <set comment="band 2">
        <r>  0.1940  0.0455  0.0000 </r>
        <r>  0.1940  0.0455  0.0000 </r>
       </set>
       <set comment="band 3">
        <r>  0.0005  0.1952  0.0000 </r>
        <r>  0.0005  0.1952  0.0000 </r>
       </set>
       <set comment="band 4">
        <r>  0.0005  0.1952  0.0000 </r>
        <r>  0.0005  0.1952  0.0000 </r>
       </set>
       <set comment="band 5">
        <r>  0.0507  0.0384  0.0000 </r>
        <r>  0.0507  0.0384  0.0000 </r>
       </set>
       <set comment="band 6">
        <r>  0.0507  0.0384  0.0000 </r>
        <r>  0.0507  0.0384  0.0000 </r>
       </set>
       <set comment="band 7">
        <r>  0.0044  0.2308  0.0000 </r>
        <r>  0.0009  0.2147  0.0000 </r>
       </set>
       <set comment="band 8">
        <r>  0.0010  0.2121  0.0000 </r>
        <r>  0.0046  0.2297  0.0000 </r>
       </set>
      </set>
      <set comment="kpoint 295">
       <set comment="band 1">
        <r>  0.1939  0.0455  0.0000 </r>
        <r>  0.1939  0.0455  0.0000 </r>
       </set>
       <set comment="band 2">
        <r>  0.1939  0.0455  0.0000 </r>
        <r>  0.1939  0.0455  0.0000 </r>
       </set>
       <set comment="band 3">
        <r>  0.0004  0.1961  0.0000 </r>
        <r>  0.0004  0.1961  0.0000 </r>
       </set>
       <set comment="band 4">
        <r>  0.0004  0.1961  0.0000 </r>
        <r>  0.0004  0.1961  0.0000 </r>
       </set>
       <set comment="band 5">
        <r>  0.0510  0.0375  0.0000 </r>
        <r>  0.0510  0.0375  0.0000 </r>
       </set>
       <set comment="band 6">
        <r>  0.0510  0.0375  0.0000 </r>
        <r>  0.0510  0.0375  0.0000 </r>
       </set>
       <set comment="band 7">
        <r>  0.0012  0.2278  0.0000 </r>
        <r>  0.0024  0.2314  0.0000 </r>
       </set>
       <set comment="band 8">
        <r>  0.0035  0.2321  0.0000 </r>
        <r>  0.0009  0.2161  0.0000 </r>
       </set>
      </set>
      <set comment="kpoint 296">
       <set comment="band 1">
        <r>  0.1938  0.0455  0.0000 </r>
        <r>  0.1938  0.0455  0.0000 </r>
       </set>
       <set comment="band 2">
        <r>  0.1938  0.0455  0.0000 </r>
        <r>  0.1938  0.0455  0.0000 </r>
       </set>
       <set comment="band 3">
        <r>  0.0003  0.1968  0.0000 </r>
        <r>  0.0003  0.1968  0.0000 </r>
       </set>
       <set comment="band 4">
        <r>  0.0003  0.1968  0.0000 </r>
        <r>  0.0003  0.1968  0.0000 </r>
       </set>
       <set comment="band 5">
        <r>  0.0513  0.0366  0.0000 </r>
        <r>  0.0513  0.0366  0.0000 </r>
       </set>
       <set comment="band 6">
        <r>  0.0513  0.0366  0.0000 </r>
        <r>  0.0513  0.0366  0.0000 </r>
       </set>
       <set comment="band 7">
        <r>  0.0015  0.2357  0.0000 </r>
        <r>  0.0006  0.2317  0.0000 </r>
       </set>
       <set comment="band 8">
        <r>  0.0007  0.2309  0.0000 </r>
        <r>  0.0013  0.2339  0.0000 </r>
       </set>
      </set>
      <set comment="kpoint 297">
       <set comment="band 1">
        <r>  0.1938  0.0455  0.0000 </r>
        <r>  0.1938  0.0455  0.0000 </r>
       </set>
       <set comment="band 2">
        <r>  0.1938  0.0455  0.0000 </r>
        <r>  0.1938  0.0455  0.0000 </r>
       </set>
       <set comment="band 3">
        <r>  0.0001  0.1974  0.0000 </r>
        <r>  0.0001  0.1974  0.0000 </r>
       </set>
       <set comment="band 4">
        <r>  0.0001  0.1974  0.0000 </r>
        <r>  0.0001  0.1974  0.0000 </r>
       </set>
       <set comment="band 5">
        <r>  0.0515  0.0360  0.0000 </r>
        <r>  0.0515  0.0360  0.0000 </r>
       </set>
       <set comment="band 6">
        <r>  0.0515  0.0360  0.0000 </r>
        <r>  0.0515  0.0360  0.0000 </r>
       </set>
       <set comment="band 7">
        <r>  0.0008  0.2392  0.0000 </r>
        <r>  0.0002  0.2347  0.0000 </r>
       </set>
       <set comment="band 8">
        <r>  0.0003  0.2327  0.0000 </r>
        <r>  0.0009  0.2397  0.0000 </r>
       </set>
      </set>
      <set comment="kpoint 298">
       <set comment="band 1">
        <r>  0.1937  0.0456  0.0000 </r>
        <r>  0.1937  0.0456  0.0000 </r>
       </set>
       <set comment="band 2">
        <r>  0.1937  0.0456  0.0000 </r>
        <r>  0.1937  0.0456  0.0000 </r>
       </set>
       <set comment="band 3">
        <r>  0.0001  0.1978  0.0000 </r>
        <r>  0.0001  0.1978  0.0000 </r>
       </set>
       <set comment="band 4">
        <r>  0.0001  0.1978  0.0000 </r>
        <r>  0.0001  0.1978  0.0000 </r>
       </set>
       <set comment="band 5">
        <r>  0.0517  0.0355  0.0000 </r>
        <r>  0.0517  0.0355  0.0000 </r>
       </set>
       <set comment="band 6">
        <r>  0.0517  0.0355  0.0000 </r>
        <r>  0.0517  0.0355  0.0000 </r>
       </set>
       <set comment="band 7">
        <r>  0.0000  0.2369  0.0000 </r>
        <r>  0.0005  0.2414  0.0000 </r>
       </set>
       <set comment="band 8">
        <r>  0.0005  0.2397  0.0000 </r>
        <r>  0.0000  0.2332  0.0000 </r>
       </set>
      </set>
      <set comment="kpoint 299">
       <set comment="band 1">
        <r>  0.1937  0.0456  0.0000 </r>
        <r>  0.1937  0.0456  0.0000 </r>
       </set>
       <set comment="band 2">
        <r>  0.1937  0.0456  0.0000 </r>
        <r>  0.1937  0.0456  0.0000 </r>
       </set>
       <set comment="band 3">
        <r>  0.0000  0.1981  0.0000 </r>
        <r>  0.0000  0.1981  0.0000 </r>
       </set>
       <set comment="band 4">
        <r>  0.0000  0.1981  0.0000 </r>
        <r>  0.0000  0.1981  0.0000 </r>
       </set>
       <set comment="band 5">
        <r>  0.0518  0.0352  0.0000 </r>
        <r>  0.0518  0.0352  0.0000 </r>
       </set>
       <set comment="band 6">
        <r>  0.0518  0.0352  0.0000 </r>
        <r>  0.0518  0.0352  0.0000 </r>
       </set>
       <set comment="band 7">
        <r>  0.0000  0.2408  0.0000 </r>
        <r>  0.0001  0.2400  0.0000 </r>
       </set>
       <set comment="band 8">
        <r>  0.0000  0.2388  0.0000 </r>
        <r>  0.0001  0.2394  0.0000 </r>
       </set>
      </set>
      <set comment="kpoint 300">
       <set comment="band 1">
        <r>  0.1937  0.0456  0.0000 </r>
        <r>  0.1937  0.0456  0.0000 </r>
       </set>
       <set comment="band 2">
        <r>  0.1937  0.0456  0.0000 </r>
        <r>  0.1937  0.0456  0.0000 </r>
       </set>
       <set comment="band 3">
        <r>  0.0000  0.1982  0.0000 </r>
        <r>  0.0000  0.1982  0.0000 </r>
       </set>
       <set comment="band 4">
        <r>  0.0000  0.1982  0.0000 </r>
        <r>  0.0000  0.1982  0.0000 </r>
       </set>
       <set comment="band 5">
        <r>  0.0518  0.0351  0.0000 </r>
        <r>  0.0518  0.0351  0.0000 </r>
       </set>
       <set comment="band 6">
        <r>  0.0518  0.0351  0.0000 </r>
        <r>  0.0518  0.0351  0.0000 </r>
       </set>
       <set comment="band 7">
        <r>  0.0000  0.2415  0.0000 </r>
        <r>  0.0000  0.2409  0.0000 </r>
       </set>
       <set comment="band 8">
        <r>  0.0000  0.2374  0.0000 </r>
        <r>  0.0000  0.2433  0.0000 </r>
       </set>
      </set>
     </set>
    </set>
   </array>
  </projected>
 </calculation>
 <structure name="finalpos" >
  <crystal>
   <varray name="basis" >
    <v>       0.00000000       2.71500000       2.71500000 </v>
    <v>       2.71500000       0.00000000       2.71500000 </v>
    <v>       2.71500000       2.71500000       0.00000000 </v>
   </varray>
   <i name="volume">     40.02575175 </i>
   <varray name="rec_basis" >
    <v>      -0.18416206       0.18416206       0.18416206 </v>
    <v>       0.18416206      -0.18416206       0.18416206 </v>
    <v>       0.18416206       0.18416206      -0.18416206 </v>
   </varray>
  </crystal>
  <varray name="positions" >
   <v>       0.00000000       0.00000000       0.00000000 </v>
   <v>       0.25000000       0.25000000       0.25000000 </v>
  </varray>
 </structure>
</modeling>
