 running on    1 total cores
 distrk:  each k-point on    1 cores,    1 groups
 distr:  one band on    1 cores,    1 groups
 using from now: INCAR     
 vasp.5.4.4.18Apr17-6-g9f103f2a35 (build May 20 2018 16:52:39) complex          
  
 POSCAR found type information on POSCAR  Si
 POSCAR found :  1 types and       2 ions
 scaLAPACK will be used
 LDA part: xc-table for Ceperly-Alder, standard interpolation
 WARNING: stress and forces are not correct
 POSCAR, INCAR and KPOINTS ok, starting setup
 FFT: planning ...
 WAVECAR not read
 reading imaginary part of occupancies ...
 charge-density read from file: diamond                                 
 entering main loop
       N       E                     dE             d eps       ncg     rms          rms(c)
DAV:   1     0.776910791836E+01    0.77691E+01   -0.32118E+03  4808   0.740E+02
DAV:   2    -0.900660780467E+01   -0.16776E+02   -0.16061E+02  7360   0.791E+01
DAV:   3    -0.926425213004E+01   -0.25764E+00   -0.25259E+00  6312   0.118E+01
DAV:   4    -0.926550246417E+01   -0.12503E-02   -0.12503E-02  8080   0.848E-01
DAV:   5    -0.926550459933E+01   -0.21352E-05   -0.21355E-05  6440   0.227E-02
DAV:   6    -0.926550462567E+01   -0.26343E-07   -0.26219E-07  8208   0.171E-03
   1 F= -.92655046E+01 E0= -.92655043E+01  d E =-.622660E-06
