   2   2   0   0
  0.2001288E+02  0.3839590E-09  0.3839590E-09  0.3839590E-09  0.5000000E-15
  1.000000000000000E-004
  CAR 
 Si gaussian                             
     17.96360456     -8.13056009  301      6.11930934      1.00000000
     -8.131  0.0000E+00  0.0000E+00
     -8.044  0.0000E+00  0.0000E+00
     -7.957  0.0000E+00  0.0000E+00
     -7.870  0.0000E+00  0.0000E+00
     -7.783  0.0000E+00  0.0000E+00
     -7.696  0.0000E+00  0.0000E+00
     -7.609  0.0000E+00  0.0000E+00
     -7.522  0.0000E+00  0.0000E+00
     -7.435  0.0000E+00  0.0000E+00
     -7.348  0.0000E+00  0.0000E+00
     -7.261  0.6232E-17  0.5421E-18
     -7.174  0.7454E-15  0.6538E-16
     -7.087  0.6890E-13  0.6058E-14
     -7.000  0.4469E-11  0.3948E-12
     -6.913  0.2032E-09  0.1807E-10
     -6.826  0.6488E-08  0.5824E-09
     -6.739  0.1458E-06  0.1327E-07
     -6.652  0.2313E-05  0.2145E-06
     -6.565  0.2602E-04  0.2477E-05
     -6.478  0.2088E-03  0.2064E-04
     -6.391  0.1207E-02  0.1256E-03
     -6.304  0.5096E-02  0.5689E-03
     -6.217  0.1599E-01  0.1960E-02
     -6.130  0.3828E-01  0.5289E-02
     -6.043  0.7224E-01  0.1157E-01
     -5.956  0.1124E+00  0.2135E-01
     -5.869  0.1517E+00  0.3455E-01
     -5.782  0.1859E+00  0.5071E-01
     -5.695  0.2147E+00  0.6938E-01
     -5.608  0.2410E+00  0.9035E-01
     -5.521  0.2654E+00  0.1134E+00
     -5.434  0.2856E+00  0.1383E+00
     -5.347  0.3049E+00  0.1648E+00
     -5.260  0.3288E+00  0.1934E+00
     -5.173  0.3508E+00  0.2239E+00
     -5.086  0.3641E+00  0.2556E+00
     -4.999  0.3784E+00  0.2885E+00
     -4.912  0.4039E+00  0.3236E+00
     -4.825  0.4315E+00  0.3611E+00
     -4.738  0.4463E+00  0.4000E+00
     -4.651  0.4519E+00  0.4393E+00
     -4.564  0.4697E+00  0.4801E+00
     -4.477  0.5068E+00  0.5242E+00
     -4.390  0.5420E+00  0.5714E+00
     -4.303  0.5547E+00  0.6196E+00
     -4.216  0.5573E+00  0.6681E+00
     -4.129  0.5846E+00  0.7189E+00
     -4.042  0.6475E+00  0.7752E+00
     -3.955  0.7134E+00  0.8373E+00
     -3.869  0.7490E+00  0.9024E+00
     -3.782  0.7654E+00  0.9690E+00
     -3.695  0.7958E+00  0.1038E+01
     -3.608  0.8371E+00  0.1111E+01
     -3.521  0.8458E+00  0.1185E+01
     -3.434  0.8031E+00  0.1254E+01
     -3.347  0.7482E+00  0.1320E+01
     -3.260  0.7216E+00  0.1382E+01
     -3.173  0.7134E+00  0.1444E+01
     -3.086  0.6915E+00  0.1505E+01
     -2.999  0.6485E+00  0.1561E+01
     -2.912  0.6060E+00  0.1614E+01
     -2.825  0.5824E+00  0.1664E+01
     -2.738  0.5642E+00  0.1713E+01
     -2.651  0.5273E+00  0.1759E+01
     -2.564  0.4766E+00  0.1801E+01
     -2.477  0.4391E+00  0.1839E+01
     -2.390  0.4194E+00  0.1875E+01
     -2.303  0.3893E+00  0.1909E+01
     -2.216  0.3283E+00  0.1938E+01
     -2.129  0.2526E+00  0.1960E+01
     -2.042  0.1955E+00  0.1977E+01
     -1.955  0.1717E+00  0.1992E+01
     -1.868  0.1648E+00  0.2006E+01
     -1.781  0.1551E+00  0.2020E+01
     -1.694  0.1530E+00  0.2033E+01
     -1.607  0.1917E+00  0.2049E+01
     -1.520  0.2799E+00  0.2074E+01
     -1.433  0.3719E+00  0.2106E+01
     -1.346  0.4221E+00  0.2143E+01
     -1.259  0.4689E+00  0.2184E+01
     -1.172  0.6059E+00  0.2236E+01
     -1.085  0.8497E+00  0.2310E+01
     -0.998  0.1090E+01  0.2405E+01
     -0.911  0.1201E+01  0.2510E+01
     -0.824  0.1162E+01  0.2611E+01
     -0.737  0.1045E+01  0.2701E+01
     -0.650  0.9217E+00  0.2782E+01
     -0.563  0.8192E+00  0.2853E+01
     -0.476  0.7348E+00  0.2917E+01
     -0.389  0.6695E+00  0.2975E+01
     -0.302  0.6217E+00  0.3029E+01
     -0.215  0.5756E+00  0.3079E+01
     -0.128  0.5295E+00  0.3125E+01
     -0.041  0.5007E+00  0.3169E+01
      0.046  0.4853E+00  0.3211E+01
      0.133  0.4649E+00  0.3251E+01
      0.220  0.4389E+00  0.3290E+01
      0.307  0.4128E+00  0.3326E+01
      0.394  0.3880E+00  0.3359E+01
      0.481  0.3673E+00  0.3391E+01
      0.567  0.3471E+00  0.3421E+01
      0.654  0.3268E+00  0.3450E+01
      0.741  0.3209E+00  0.3478E+01
      0.828  0.3278E+00  0.3506E+01
      0.915  0.3167E+00  0.3534E+01
      1.002  0.2785E+00  0.3558E+01
      1.089  0.2474E+00  0.3580E+01
      1.176  0.2482E+00  0.3601E+01
      1.263  0.2705E+00  0.3625E+01
      1.350  0.3166E+00  0.3652E+01
      1.437  0.4215E+00  0.3689E+01
      1.524  0.5950E+00  0.3741E+01
      1.611  0.7857E+00  0.3809E+01
      1.698  0.9341E+00  0.3890E+01
      1.785  0.1028E+01  0.3980E+01
      1.872  0.1080E+01  0.4074E+01
      1.959  0.1094E+01  0.4169E+01
      2.046  0.1070E+01  0.4262E+01
      2.133  0.1034E+01  0.4352E+01
      2.220  0.1024E+01  0.4441E+01
      2.307  0.1054E+01  0.4532E+01
      2.394  0.1093E+01  0.4628E+01
      2.481  0.1098E+01  0.4723E+01
      2.568  0.1070E+01  0.4816E+01
      2.655  0.1057E+01  0.4908E+01
      2.742  0.1106E+01  0.5004E+01
      2.829  0.1225E+01  0.5111E+01
      2.916  0.1367E+01  0.5230E+01
      3.003  0.1459E+01  0.5357E+01
      3.090  0.1481E+01  0.5485E+01
      3.177  0.1468E+01  0.5613E+01
      3.264  0.1451E+01  0.5739E+01
      3.351  0.1423E+01  0.5863E+01
      3.438  0.1371E+01  0.5982E+01
      3.525  0.1331E+01  0.6098E+01
      3.612  0.1354E+01  0.6216E+01
      3.699  0.1422E+01  0.6340E+01
      3.786  0.1439E+01  0.6465E+01
      3.873  0.1362E+01  0.6583E+01
      3.960  0.1252E+01  0.6692E+01
      4.047  0.1188E+01  0.6795E+01
      4.134  0.1188E+01  0.6899E+01
      4.221  0.1214E+01  0.7004E+01
      4.308  0.1218E+01  0.7110E+01
      4.395  0.1185E+01  0.7213E+01
      4.482  0.1134E+01  0.7312E+01
      4.569  0.1081E+01  0.7406E+01
      4.656  0.1011E+01  0.7494E+01
      4.743  0.9142E+00  0.7573E+01
      4.830  0.8005E+00  0.7643E+01
      4.917  0.6825E+00  0.7702E+01
      5.004  0.5751E+00  0.7752E+01
      5.090  0.4920E+00  0.7795E+01
      5.177  0.4359E+00  0.7833E+01
      5.264  0.4019E+00  0.7868E+01
      5.351  0.3720E+00  0.7900E+01
      5.438  0.3259E+00  0.7929E+01
      5.525  0.2638E+00  0.7952E+01
      5.612  0.2007E+00  0.7969E+01
      5.699  0.1459E+00  0.7982E+01
      5.786  0.9972E-01  0.7991E+01
      5.873  0.6081E-01  0.7996E+01
      5.960  0.3086E-01  0.7999E+01
      6.047  0.1244E-01  0.8000E+01
      6.134  0.4951E-02  0.8000E+01
      6.221  0.6307E-02  0.8001E+01
      6.308  0.1754E-01  0.8002E+01
      6.395  0.4309E-01  0.8006E+01
      6.482  0.8541E-01  0.8013E+01
      6.569  0.1400E+00  0.8025E+01
      6.656  0.1994E+00  0.8043E+01
      6.743  0.2630E+00  0.8066E+01
      6.830  0.3346E+00  0.8095E+01
      6.917  0.4096E+00  0.8130E+01
      7.004  0.4739E+00  0.8172E+01
      7.091  0.5205E+00  0.8217E+01
      7.178  0.5605E+00  0.8266E+01
      7.265  0.6033E+00  0.8318E+01
      7.352  0.6361E+00  0.8373E+01
      7.439  0.6491E+00  0.8430E+01
      7.526  0.6810E+00  0.8489E+01
      7.613  0.7906E+00  0.8558E+01
      7.700  0.9710E+00  0.8642E+01
      7.787  0.1140E+01  0.8742E+01
      7.874  0.1246E+01  0.8850E+01
      7.961  0.1321E+01  0.8965E+01
      8.048  0.1413E+01  0.9088E+01
      8.135  0.1508E+01  0.9219E+01
      8.222  0.1557E+01  0.9354E+01
      8.309  0.1525E+01  0.9487E+01
      8.396  0.1415E+01  0.9610E+01
      8.483  0.1275E+01  0.9721E+01
      8.570  0.1161E+01  0.9822E+01
      8.657  0.1110E+01  0.9918E+01
      8.744  0.1123E+01  0.1002E+02
      8.831  0.1180E+01  0.1012E+02
      8.918  0.1282E+01  0.1023E+02
      9.005  0.1472E+01  0.1036E+02
      9.092  0.1741E+01  0.1051E+02
      9.179  0.1952E+01  0.1068E+02
      9.266  0.1973E+01  0.1085E+02
      9.353  0.1839E+01  0.1101E+02
      9.440  0.1685E+01  0.1116E+02
      9.526  0.1582E+01  0.1130E+02
      9.613  0.1522E+01  0.1143E+02
      9.700  0.1474E+01  0.1156E+02
      9.787  0.1409E+01  0.1168E+02
      9.874  0.1337E+01  0.1179E+02
      9.961  0.1301E+01  0.1191E+02
     10.048  0.1318E+01  0.1202E+02
     10.135  0.1341E+01  0.1214E+02
     10.222  0.1327E+01  0.1225E+02
     10.309  0.1276E+01  0.1237E+02
     10.396  0.1219E+01  0.1247E+02
     10.483  0.1204E+01  0.1258E+02
     10.570  0.1247E+01  0.1268E+02
     10.657  0.1312E+01  0.1280E+02
     10.744  0.1356E+01  0.1292E+02
     10.831  0.1361E+01  0.1304E+02
     10.918  0.1320E+01  0.1315E+02
     11.005  0.1226E+01  0.1326E+02
     11.092  0.1096E+01  0.1335E+02
     11.179  0.9719E+00  0.1344E+02
     11.266  0.8877E+00  0.1351E+02
     11.353  0.8684E+00  0.1359E+02
     11.440  0.9412E+00  0.1367E+02
     11.527  0.1103E+01  0.1377E+02
     11.614  0.1280E+01  0.1388E+02
     11.701  0.1391E+01  0.1400E+02
     11.788  0.1412E+01  0.1412E+02
     11.875  0.1354E+01  0.1424E+02
     11.962  0.1217E+01  0.1435E+02
     12.049  0.1021E+01  0.1443E+02
     12.136  0.8265E+00  0.1451E+02
     12.223  0.6989E+00  0.1457E+02
     12.310  0.6487E+00  0.1462E+02
     12.397  0.6348E+00  0.1468E+02
     12.484  0.6273E+00  0.1473E+02
     12.571  0.6402E+00  0.1479E+02
     12.658  0.7045E+00  0.1485E+02
     12.745  0.8356E+00  0.1492E+02
     12.832  0.1006E+01  0.1501E+02
     12.919  0.1135E+01  0.1511E+02
     13.006  0.1133E+01  0.1521E+02
     13.093  0.9788E+00  0.1529E+02
     13.180  0.7468E+00  0.1536E+02
     13.267  0.5498E+00  0.1541E+02
     13.354  0.4489E+00  0.1544E+02
     13.441  0.4264E+00  0.1548E+02
     13.528  0.4319E+00  0.1552E+02
     13.615  0.4395E+00  0.1556E+02
     13.702  0.4557E+00  0.1560E+02
     13.789  0.4789E+00  0.1564E+02
     13.876  0.4864E+00  0.1568E+02
     13.962  0.4736E+00  0.1572E+02
     14.049  0.4681E+00  0.1576E+02
     14.136  0.4757E+00  0.1580E+02
     14.223  0.4444E+00  0.1584E+02
     14.310  0.3342E+00  0.1587E+02
     14.397  0.1876E+00  0.1589E+02
     14.484  0.7741E-01  0.1590E+02
     14.571  0.2907E-01  0.1590E+02
     14.658  0.2496E-01  0.1590E+02
     14.745  0.4380E-01  0.1590E+02
     14.832  0.7403E-01  0.1591E+02
     14.919  0.1089E+00  0.1592E+02
     15.006  0.1384E+00  0.1593E+02
     15.093  0.1511E+00  0.1594E+02
     15.180  0.1483E+00  0.1596E+02
     15.267  0.1402E+00  0.1597E+02
     15.354  0.1251E+00  0.1598E+02
     15.441  0.9476E-01  0.1599E+02
     15.528  0.5594E-01  0.1599E+02
     15.615  0.2481E-01  0.1600E+02
     15.702  0.8808E-02  0.1600E+02
     15.789  0.4501E-02  0.1600E+02
     15.876  0.5785E-02  0.1600E+02
     15.963  0.7849E-02  0.1600E+02
     16.050  0.7727E-02  0.1600E+02
     16.137  0.5293E-02  0.1600E+02
     16.224  0.2514E-02  0.1600E+02
     16.311  0.8275E-03  0.1600E+02
     16.398  0.1887E-03  0.1600E+02
     16.485  0.2977E-04  0.1600E+02
     16.572  0.3250E-05  0.1600E+02
     16.659  0.2453E-06  0.1600E+02
     16.746  0.1279E-07  0.1600E+02
     16.833  0.4604E-09  0.1600E+02
     16.920  0.1143E-10  0.1600E+02
     17.007  0.1958E-12  0.1600E+02
     17.094  0.2309E-14  0.1600E+02
     17.181  0.1870E-16  0.1600E+02
     17.268  0.0000E+00  0.1600E+02
     17.355  0.0000E+00  0.1600E+02
     17.442  0.0000E+00  0.1600E+02
     17.529  0.0000E+00  0.1600E+02
     17.616  0.0000E+00  0.1600E+02
     17.703  0.0000E+00  0.1600E+02
     17.790  0.0000E+00  0.1600E+02
     17.877  0.0000E+00  0.1600E+02
     17.964  0.0000E+00  0.1600E+02
