       N       E                     dE             d eps       ncg     rms          rms(c)
DAV:   1     0.137422443506E+01    0.13742E+01   -0.24422E+03  2328   0.496E+02
DAV:   2    -0.107016101310E+02   -0.12076E+02   -0.11539E+02  3648   0.643E+01
DAV:   3    -0.108378122405E+02   -0.13620E+00   -0.13620E+00  2856   0.862E+00
DAV:   4    -0.108382926478E+02   -0.48041E-03   -0.48041E-03  3840   0.553E-01
DAV:   5    -0.108382927862E+02   -0.13844E-06   -0.13916E-06  2872   0.875E-03
DAV:   6    -0.108382927866E+02   -0.33640E-09   -0.63730E-09  3856   0.496E-04
   1 F= -.10838293E+02 E0= -.10838252E+02  d E =-.825112E-04
