<?xml version="1.0" encoding="ISO-8859-1"?>
<modeling>
 <generator>
  <i name="program" type="string">vasp </i>
  <i name="version" type="string">5.4.4.18Apr17-6-g9f103f2a35  </i>
  <i name="subversion" type="string">(build May 20 2018 16:52:39) complex            parallel </i>
  <i name="platform" type="string">LinuxIFC </i>
  <i name="date" type="string">2022 11 04 </i>
  <i name="time" type="string">18:26:47 </i>
 </generator>
 <incar>
  <i type="string" name="SYSTEM"> Si gaussian</i>
  <i type="string" name="PREC">normal</i>
  <i type="int" name="ICHARG">    11</i>
  <i name="EDIFF">      0.00000010</i>
  <i name="ENCUT">    300.00000000</i>
  <i type="int" name="ISMEAR">     0</i>
  <i type="logical" name="LCHARG"> F  </i>
  <v type="int" name="KPOINT_BSE">    -1     0     0     0</v>
 </incar>
 <structure name="primitive_cell" >
  <crystal>
   <varray name="basis" >
    <v>       0.00000000       2.71500000       2.71500000 </v>
    <v>       2.71500000       0.00000000       2.71500000 </v>
    <v>       2.71500000       2.71500000       0.00000000 </v>
   </varray>
   <i name="volume">     40.02575175 </i>
   <varray name="rec_basis" >
    <v>      -0.18416206       0.18416206       0.18416206 </v>
    <v>       0.18416206      -0.18416206       0.18416206 </v>
    <v>       0.18416206       0.18416206      -0.18416206 </v>
   </varray>
  </crystal>
  <varray name="positions" >
   <v>       0.00000000       0.00000000       0.00000000 </v>
   <v>       0.25000000       0.25000000       0.25000000 </v>
  </varray>
 </structure>
 <varray name="primitive_index" >
  <v type="int" >        1 </v>
  <v type="int" >        2 </v>
 </varray>
 <kpoints>
  <generation param="Gamma">
   <v type="int" name="divisions">      16       16       16 </v>
   <v name="usershift">      0.00000000       0.00000000       0.00000000 </v>
   <v name="genvec1">      0.06250000       0.00000000       0.00000000 </v>
   <v name="genvec2">      0.00000000       0.06250000       0.00000000 </v>
   <v name="genvec3">      0.00000000       0.00000000       0.06250000 </v>
   <v name="shift">      0.00000000       0.00000000       0.00000000 </v>
  </generation>
  <varray name="kpointlist" >
   <v>       0.00000000       0.00000000       0.00000000 </v>
   <v>       0.06250000       0.00000000       0.00000000 </v>
   <v>       0.12500000       0.00000000       0.00000000 </v>
   <v>       0.18750000       0.00000000       0.00000000 </v>
   <v>       0.25000000       0.00000000       0.00000000 </v>
   <v>       0.31250000       0.00000000       0.00000000 </v>
   <v>       0.37500000       0.00000000       0.00000000 </v>
   <v>       0.43750000       0.00000000       0.00000000 </v>
   <v>       0.50000000       0.00000000       0.00000000 </v>
   <v>       0.06250000       0.06250000       0.00000000 </v>
   <v>       0.12500000       0.06250000       0.00000000 </v>
   <v>       0.18750000       0.06250000       0.00000000 </v>
   <v>       0.25000000       0.06250000       0.00000000 </v>
   <v>       0.31250000       0.06250000       0.00000000 </v>
   <v>       0.37500000       0.06250000       0.00000000 </v>
   <v>       0.43750000       0.06250000       0.00000000 </v>
   <v>       0.50000000       0.06250000       0.00000000 </v>
   <v>      -0.43750000       0.06250000       0.00000000 </v>
   <v>      -0.37500000       0.06250000       0.00000000 </v>
   <v>      -0.31250000       0.06250000       0.00000000 </v>
   <v>      -0.25000000       0.06250000       0.00000000 </v>
   <v>      -0.18750000       0.06250000       0.00000000 </v>
   <v>      -0.12500000       0.06250000       0.00000000 </v>
   <v>      -0.06250000       0.06250000       0.00000000 </v>
   <v>       0.12500000       0.12500000       0.00000000 </v>
   <v>       0.18750000       0.12500000       0.00000000 </v>
   <v>       0.25000000       0.12500000       0.00000000 </v>
   <v>       0.31250000       0.12500000       0.00000000 </v>
   <v>       0.37500000       0.12500000       0.00000000 </v>
   <v>       0.43750000       0.12500000       0.00000000 </v>
   <v>       0.50000000       0.12500000       0.00000000 </v>
   <v>      -0.43750000       0.12500000       0.00000000 </v>
   <v>      -0.37500000       0.12500000       0.00000000 </v>
   <v>      -0.31250000       0.12500000       0.00000000 </v>
   <v>      -0.25000000       0.12500000       0.00000000 </v>
   <v>      -0.18750000       0.12500000       0.00000000 </v>
   <v>      -0.12500000       0.12500000       0.00000000 </v>
   <v>       0.18750000       0.18750000       0.00000000 </v>
   <v>       0.25000000       0.18750000       0.00000000 </v>
   <v>       0.31250000       0.18750000       0.00000000 </v>
   <v>       0.37500000       0.18750000       0.00000000 </v>
   <v>       0.43750000       0.18750000       0.00000000 </v>
   <v>       0.50000000       0.18750000       0.00000000 </v>
   <v>      -0.43750000       0.18750000       0.00000000 </v>
   <v>      -0.37500000       0.18750000       0.00000000 </v>
   <v>      -0.31250000       0.18750000       0.00000000 </v>
   <v>      -0.25000000       0.18750000       0.00000000 </v>
   <v>      -0.18750000       0.18750000       0.00000000 </v>
   <v>       0.25000000       0.25000000       0.00000000 </v>
   <v>       0.31250000       0.25000000       0.00000000 </v>
   <v>       0.37500000       0.25000000       0.00000000 </v>
   <v>       0.43750000       0.25000000       0.00000000 </v>
   <v>       0.50000000       0.25000000       0.00000000 </v>
   <v>      -0.43750000       0.25000000       0.00000000 </v>
   <v>      -0.37500000       0.25000000       0.00000000 </v>
   <v>      -0.31250000       0.25000000       0.00000000 </v>
   <v>      -0.25000000       0.25000000       0.00000000 </v>
   <v>       0.31250000       0.31250000       0.00000000 </v>
   <v>       0.37500000       0.31250000       0.00000000 </v>
   <v>       0.43750000       0.31250000       0.00000000 </v>
   <v>       0.50000000       0.31250000       0.00000000 </v>
   <v>      -0.43750000       0.31250000       0.00000000 </v>
   <v>      -0.37500000       0.31250000       0.00000000 </v>
   <v>      -0.31250000       0.31250000       0.00000000 </v>
   <v>       0.37500000       0.37500000       0.00000000 </v>
   <v>       0.43750000       0.37500000       0.00000000 </v>
   <v>       0.50000000       0.37500000       0.00000000 </v>
   <v>      -0.43750000       0.37500000       0.00000000 </v>
   <v>      -0.37500000       0.37500000       0.00000000 </v>
   <v>       0.43750000       0.43750000       0.00000000 </v>
   <v>       0.50000000       0.43750000       0.00000000 </v>
   <v>      -0.43750000       0.43750000       0.00000000 </v>
   <v>       0.50000000       0.50000000       0.00000000 </v>
   <v>       0.18750000       0.12500000       0.06250000 </v>
   <v>       0.25000000       0.12500000       0.06250000 </v>
   <v>       0.31250000       0.12500000       0.06250000 </v>
   <v>       0.37500000       0.12500000       0.06250000 </v>
   <v>       0.43750000       0.12500000       0.06250000 </v>
   <v>       0.50000000       0.12500000       0.06250000 </v>
   <v>      -0.43750000       0.12500000       0.06250000 </v>
   <v>       0.25000000       0.18750000       0.06250000 </v>
   <v>       0.31250000       0.18750000       0.06250000 </v>
   <v>       0.37500000       0.18750000       0.06250000 </v>
   <v>       0.43750000       0.18750000       0.06250000 </v>
   <v>       0.50000000       0.18750000       0.06250000 </v>
   <v>      -0.43750000       0.18750000       0.06250000 </v>
   <v>      -0.37500000       0.18750000       0.06250000 </v>
   <v>      -0.31250000       0.18750000       0.06250000 </v>
   <v>      -0.25000000       0.18750000       0.06250000 </v>
   <v>      -0.18750000       0.18750000       0.06250000 </v>
   <v>      -0.12500000       0.18750000       0.06250000 </v>
   <v>       0.31250000       0.25000000       0.06250000 </v>
   <v>       0.37500000       0.25000000       0.06250000 </v>
   <v>       0.43750000       0.25000000       0.06250000 </v>
   <v>       0.50000000       0.25000000       0.06250000 </v>
   <v>      -0.43750000       0.25000000       0.06250000 </v>
   <v>      -0.37500000       0.25000000       0.06250000 </v>
   <v>      -0.31250000       0.25000000       0.06250000 </v>
   <v>      -0.25000000       0.25000000       0.06250000 </v>
   <v>      -0.18750000       0.25000000       0.06250000 </v>
   <v>       0.37500000       0.31250000       0.06250000 </v>
   <v>       0.43750000       0.31250000       0.06250000 </v>
   <v>       0.50000000       0.31250000       0.06250000 </v>
   <v>      -0.43750000       0.31250000       0.06250000 </v>
   <v>      -0.37500000       0.31250000       0.06250000 </v>
   <v>      -0.31250000       0.31250000       0.06250000 </v>
   <v>      -0.25000000       0.31250000       0.06250000 </v>
   <v>       0.43750000       0.37500000       0.06250000 </v>
   <v>       0.50000000       0.37500000       0.06250000 </v>
   <v>      -0.43750000       0.37500000       0.06250000 </v>
   <v>      -0.37500000       0.37500000       0.06250000 </v>
   <v>      -0.31250000       0.37500000       0.06250000 </v>
   <v>       0.50000000       0.43750000       0.06250000 </v>
   <v>      -0.43750000       0.43750000       0.06250000 </v>
   <v>      -0.37500000       0.43750000       0.06250000 </v>
   <v>      -0.43750000       0.50000000       0.06250000 </v>
   <v>       0.37500000       0.25000000       0.12500000 </v>
   <v>       0.43750000       0.25000000       0.12500000 </v>
   <v>       0.50000000       0.25000000       0.12500000 </v>
   <v>      -0.43750000       0.25000000       0.12500000 </v>
   <v>      -0.37500000       0.25000000       0.12500000 </v>
   <v>       0.43750000       0.31250000       0.12500000 </v>
   <v>       0.50000000       0.31250000       0.12500000 </v>
   <v>      -0.43750000       0.31250000       0.12500000 </v>
   <v>      -0.37500000       0.31250000       0.12500000 </v>
   <v>      -0.31250000       0.31250000       0.12500000 </v>
   <v>      -0.25000000       0.31250000       0.12500000 </v>
   <v>      -0.18750000       0.31250000       0.12500000 </v>
   <v>       0.50000000       0.37500000       0.12500000 </v>
   <v>      -0.43750000       0.37500000       0.12500000 </v>
   <v>      -0.37500000       0.37500000       0.12500000 </v>
   <v>      -0.31250000       0.37500000       0.12500000 </v>
   <v>      -0.25000000       0.37500000       0.12500000 </v>
   <v>      -0.43750000       0.43750000       0.12500000 </v>
   <v>      -0.37500000       0.43750000       0.12500000 </v>
   <v>      -0.31250000       0.43750000       0.12500000 </v>
   <v>      -0.37500000       0.50000000       0.12500000 </v>
   <v>      -0.43750000       0.37500000       0.18750000 </v>
   <v>      -0.37500000       0.37500000       0.18750000 </v>
   <v>      -0.31250000       0.37500000       0.18750000 </v>
   <v>      -0.37500000       0.43750000       0.18750000 </v>
   <v>      -0.31250000       0.43750000       0.18750000 </v>
   <v>      -0.25000000       0.43750000       0.18750000 </v>
   <v>      -0.31250000       0.50000000       0.18750000 </v>
   <v>      -0.25000000       0.50000000       0.25000000 </v>
  </varray>
  <varray name="weights" >
   <v>       0.00024414 </v>
   <v>       0.00195312 </v>
   <v>       0.00195312 </v>
   <v>       0.00195312 </v>
   <v>       0.00195312 </v>
   <v>       0.00195312 </v>
   <v>       0.00195312 </v>
   <v>       0.00195312 </v>
   <v>       0.00097656 </v>
   <v>       0.00146484 </v>
   <v>       0.00585938 </v>
   <v>       0.00585938 </v>
   <v>       0.00585938 </v>
   <v>       0.00585938 </v>
   <v>       0.00585938 </v>
   <v>       0.00585938 </v>
   <v>       0.00585938 </v>
   <v>       0.00585938 </v>
   <v>       0.00585938 </v>
   <v>       0.00585938 </v>
   <v>       0.00585938 </v>
   <v>       0.00585938 </v>
   <v>       0.00585938 </v>
   <v>       0.00292969 </v>
   <v>       0.00146484 </v>
   <v>       0.00585938 </v>
   <v>       0.00585938 </v>
   <v>       0.00585938 </v>
   <v>       0.00585938 </v>
   <v>       0.00585938 </v>
   <v>       0.00585938 </v>
   <v>       0.00585938 </v>
   <v>       0.00585938 </v>
   <v>       0.00585938 </v>
   <v>       0.00585938 </v>
   <v>       0.00585938 </v>
   <v>       0.00292969 </v>
   <v>       0.00146484 </v>
   <v>       0.00585938 </v>
   <v>       0.00585938 </v>
   <v>       0.00585938 </v>
   <v>       0.00585938 </v>
   <v>       0.00585938 </v>
   <v>       0.00585938 </v>
   <v>       0.00585938 </v>
   <v>       0.00585938 </v>
   <v>       0.00585938 </v>
   <v>       0.00292969 </v>
   <v>       0.00146484 </v>
   <v>       0.00585938 </v>
   <v>       0.00585938 </v>
   <v>       0.00585938 </v>
   <v>       0.00585938 </v>
   <v>       0.00585938 </v>
   <v>       0.00585938 </v>
   <v>       0.00585938 </v>
   <v>       0.00292969 </v>
   <v>       0.00146484 </v>
   <v>       0.00585938 </v>
   <v>       0.00585938 </v>
   <v>       0.00585938 </v>
   <v>       0.00585938 </v>
   <v>       0.00585938 </v>
   <v>       0.00292969 </v>
   <v>       0.00146484 </v>
   <v>       0.00585938 </v>
   <v>       0.00585938 </v>
   <v>       0.00585938 </v>
   <v>       0.00292969 </v>
   <v>       0.00146484 </v>
   <v>       0.00585938 </v>
   <v>       0.00292969 </v>
   <v>       0.00073242 </v>
   <v>       0.00585938 </v>
   <v>       0.01171875 </v>
   <v>       0.01171875 </v>
   <v>       0.01171875 </v>
   <v>       0.01171875 </v>
   <v>       0.01171875 </v>
   <v>       0.00585938 </v>
   <v>       0.00585938 </v>
   <v>       0.01171875 </v>
   <v>       0.01171875 </v>
   <v>       0.01171875 </v>
   <v>       0.01171875 </v>
   <v>       0.01171875 </v>
   <v>       0.01171875 </v>
   <v>       0.01171875 </v>
   <v>       0.01171875 </v>
   <v>       0.01171875 </v>
   <v>       0.00585938 </v>
   <v>       0.00585938 </v>
   <v>       0.01171875 </v>
   <v>       0.01171875 </v>
   <v>       0.01171875 </v>
   <v>       0.01171875 </v>
   <v>       0.01171875 </v>
   <v>       0.01171875 </v>
   <v>       0.01171875 </v>
   <v>       0.00585938 </v>
   <v>       0.00585938 </v>
   <v>       0.01171875 </v>
   <v>       0.01171875 </v>
   <v>       0.01171875 </v>
   <v>       0.01171875 </v>
   <v>       0.01171875 </v>
   <v>       0.00585938 </v>
   <v>       0.00585938 </v>
   <v>       0.01171875 </v>
   <v>       0.01171875 </v>
   <v>       0.01171875 </v>
   <v>       0.00585938 </v>
   <v>       0.00585938 </v>
   <v>       0.01171875 </v>
   <v>       0.00585938 </v>
   <v>       0.00292969 </v>
   <v>       0.00585938 </v>
   <v>       0.01171875 </v>
   <v>       0.01171875 </v>
   <v>       0.01171875 </v>
   <v>       0.00585938 </v>
   <v>       0.00585938 </v>
   <v>       0.01171875 </v>
   <v>       0.01171875 </v>
   <v>       0.01171875 </v>
   <v>       0.01171875 </v>
   <v>       0.01171875 </v>
   <v>       0.00585938 </v>
   <v>       0.00585938 </v>
   <v>       0.01171875 </v>
   <v>       0.01171875 </v>
   <v>       0.01171875 </v>
   <v>       0.00585938 </v>
   <v>       0.00585938 </v>
   <v>       0.01171875 </v>
   <v>       0.00585938 </v>
   <v>       0.00292969 </v>
   <v>       0.00585938 </v>
   <v>       0.01171875 </v>
   <v>       0.00585938 </v>
   <v>       0.00585938 </v>
   <v>       0.01171875 </v>
   <v>       0.00585938 </v>
   <v>       0.00292969 </v>
   <v>       0.00146484 </v>
  </varray>
 </kpoints>
 <parameters>
  <separator name="general" >
   <i type="string" name="SYSTEM">Si gaussian</i>
   <i type="logical" name="LCOMPAT"> F  </i>
  </separator>
  <separator name="electronic" >
   <i type="string" name="PREC">normal</i>
   <i name="ENMAX">    300.00000000</i>
   <i name="ENAUG">    322.06900000</i>
   <i name="EDIFF">      0.00000010</i>
   <i type="int" name="IALGO">    38</i>
   <i type="int" name="IWAVPR">    10</i>
   <i type="int" name="NBANDS">     8</i>
   <i name="NELECT">      8.00000000</i>
   <i type="int" name="TURBO">     0</i>
   <i type="int" name="IRESTART">     0</i>
   <i type="int" name="NREBOOT">     0</i>
   <i type="int" name="NMIN">     0</i>
   <i name="EREF">      0.00000000</i>
   <separator name="electronic smearing" >
    <i type="int" name="ISMEAR">     0</i>
    <i name="SIGMA">      0.20000000</i>
    <i name="KSPACING">      0.50000000</i>
    <i type="logical" name="KGAMMA"> T  </i>
   </separator>
   <separator name="electronic projectors" >
    <i type="logical" name="LREAL"> F  </i>
    <v name="ROPT">      0.00000000</v>
    <i type="int" name="LMAXPAW">  -100</i>
    <i type="int" name="LMAXMIX">     2</i>
    <i type="logical" name="NLSPLINE"> F  </i>
   </separator>
   <separator name="electronic startup" >
    <i type="int" name="ISTART">     0</i>
    <i type="int" name="ICHARG">    11</i>
    <i type="int" name="INIWAV">     1</i>
   </separator>
   <separator name="electronic spin" >
    <i type="int" name="ISPIN">     1</i>
    <i type="logical" name="LNONCOLLINEAR"> F  </i>
    <v name="MAGMOM">      1.00000000      1.00000000</v>
    <i name="NUPDOWN">     -1.00000000</i>
    <i type="logical" name="LSORBIT"> F  </i>
    <v name="SAXIS">      0.00000000      0.00000000      1.00000000</v>
    <i type="logical" name="LSPIRAL"> F  </i>
    <v name="QSPIRAL">      0.00000000      0.00000000      0.00000000</v>
    <i type="logical" name="LZEROZ"> F  </i>
   </separator>
   <separator name="electronic exchange-correlation" >
    <i type="logical" name="LASPH"> F  </i>
    <i type="logical" name="LMETAGGA"> F  </i>
   </separator>
   <separator name="electronic convergence" >
    <i type="int" name="NELM">    60</i>
    <i type="int" name="NELMDL">    -5</i>
    <i type="int" name="NELMIN">     2</i>
    <i name="ENINI">    300.00000000</i>
    <separator name="electronic convergence detail" >
     <i type="logical" name="LDIAG"> T  </i>
     <i type="logical" name="LSUBROT"> F  </i>
     <i name="WEIMIN">      0.00000000</i>
     <i name="EBREAK">      0.00000000</i>
     <i name="DEPER">      0.30000000</i>
     <i type="int" name="NRMM">     4</i>
     <i name="TIME">      0.40000000</i>
    </separator>
   </separator>
   <separator name="electronic mixer" >
    <i name="AMIX">      0.40000000</i>
    <i name="BMIX">      1.00000000</i>
    <i name="AMIN">      0.10000000</i>
    <i name="AMIX_MAG">      1.60000000</i>
    <i name="BMIX_MAG">      1.00000000</i>
    <separator name="electronic mixer details" >
     <i type="int" name="IMIX">     4</i>
     <i type="logical" name="MIXFIRST"> F  </i>
     <i type="int" name="MAXMIX">   -45</i>
     <i name="WC">    100.00000000</i>
     <i type="int" name="INIMIX">     1</i>
     <i type="int" name="MIXPRE">     1</i>
     <i type="int" name="MREMOVE">     5</i>
    </separator>
   </separator>
   <separator name="electronic dipolcorrection" >
    <i type="logical" name="LDIPOL"> F  </i>
    <i type="logical" name="LMONO"> F  </i>
    <i type="int" name="IDIPOL">     0</i>
    <i name="EPSILON">      1.00000000</i>
    <v name="DIPOL">   -100.00000000   -100.00000000   -100.00000000</v>
    <i name="EFIELD">      0.00000000</i>
   </separator>
  </separator>
  <separator name="grids" >
   <i type="int" name="NGX">    16</i>
   <i type="int" name="NGY">    16</i>
   <i type="int" name="NGZ">    16</i>
   <i type="int" name="NGXF">    32</i>
   <i type="int" name="NGYF">    32</i>
   <i type="int" name="NGZF">    32</i>
   <i type="logical" name="ADDGRID"> F  </i>
  </separator>
  <separator name="ionic" >
   <i type="int" name="NSW">     0</i>
   <i type="int" name="IBRION">    -1</i>
   <i type="int" name="MDALGO">     0</i>
   <i type="int" name="ISIF">     2</i>
   <i name="PSTRESS">      0.00000000</i>
   <i name="EDIFFG">      0.00000100</i>
   <i type="int" name="NFREE">     0</i>
   <i name="POTIM">      0.50000000</i>
   <i name="SMASS">     -3.00000000</i>
   <i name="SCALEE">      1.00000000</i>
  </separator>
  <separator name="ionic md" >
   <i name="TEBEG">      0.00010000</i>
   <i name="TEEND">      0.00010000</i>
   <i type="int" name="NBLOCK">     1</i>
   <i type="int" name="KBLOCK">     1</i>
   <i type="int" name="NPACO">   256</i>
   <i name="APACO">     16.00000000</i>
  </separator>
  <separator name="symmetry" >
   <i type="int" name="ISYM">     2</i>
   <i name="SYMPREC">      0.00001000</i>
  </separator>
  <separator name="dos" >
   <i type="int" name="LORBIT">     0</i>
   <v name="RWIGS">     -1.00000000</v>
   <i type="int" name="NEDOS">   301</i>
   <i name="EMIN">     10.00000000</i>
   <i name="EMAX">    -10.00000000</i>
   <i name="EFERMI">      0.00000000</i>
  </separator>
  <separator name="writing" >
   <i type="int" name="NWRITE">     2</i>
   <i type="logical" name="LWAVE"> T  </i>
   <i type="logical" name="LDOWNSAMPLE"> F  </i>
   <i type="logical" name="LCHARG"> F  </i>
   <i type="logical" name="LPARD"> F  </i>
   <i type="logical" name="LVTOT"> F  </i>
   <i type="logical" name="LVHAR"> F  </i>
   <i type="logical" name="LELF"> F  </i>
   <i type="logical" name="LOPTICS"> F  </i>
   <v name="STM">      0.00000000      0.00000000      0.00000000      0.00000000      0.00000000      0.00000000      0.00000000</v>
  </separator>
  <separator name="performance" >
   <i type="int" name="NPAR">     1</i>
   <i type="int" name="NSIM">     4</i>
   <i type="int" name="NBLK">    -1</i>
   <i type="logical" name="LPLANE"> T  </i>
   <i type="logical" name="LSCALAPACK"> T  </i>
   <i type="logical" name="LSCAAWARE"> F  </i>
   <i type="logical" name="LSCALU"> F  </i>
   <i type="logical" name="LASYNC"> F  </i>
   <i type="logical" name="LORBITALREAL"> F  </i>
  </separator>
  <separator name="miscellaneous" >
   <i type="int" name="IDIOT">     3</i>
   <i type="int" name="ISPECIAL">     0</i>
   <i type="logical" name="LMUSIC"> F  </i>
   <v name="POMASS">     28.08500000</v>
   <v name="DARWINR">      0.00000000</v>
   <v name="DARWINV">      1.00000000</v>
   <i type="logical" name="LCORR"> T  </i>
  </separator>
  <i type="logical" name="GGA_COMPAT"> T  </i>
  <i type="logical" name="LBERRY"> F  </i>
  <i type="int" name="ICORELEVEL">     0</i>
  <i type="logical" name="LDAU"> F  </i>
  <i type="int" name="I_CONSTRAINED_M">     0</i>
  <separator name="electronic exchange-correlation" >
   <i type="string" name="GGA">--</i>
   <i type="int" name="VOSKOWN">     0</i>
   <i type="logical" name="LHFCALC"> F  </i>
   <i type="string" name="PRECFOCK"></i>
   <i type="logical" name="LSYMGRAD"> F  </i>
   <i type="logical" name="LHFONE"> F  </i>
   <i type="logical" name="LRHFCALC"> F  </i>
   <i type="logical" name="LTHOMAS"> F  </i>
   <i type="logical" name="LMODELHF"> F  </i>
   <i name="ENCUT4O">     -1.00000000</i>
   <i type="int" name="EXXOEP">     0</i>
   <i type="int" name="FOURORBIT">     0</i>
   <i name="AEXX">      0.00000000</i>
   <i name="HFALPHA">      0.00000000</i>
   <i name="MCALPHA">      0.00000000</i>
   <i name="ALDAX">      1.00000000</i>
   <i name="AGGAX">      1.00000000</i>
   <i name="ALDAC">      1.00000000</i>
   <i name="AGGAC">      1.00000000</i>
   <i type="int" name="NKREDX">     1</i>
   <i type="int" name="NKREDY">     1</i>
   <i type="int" name="NKREDZ">     1</i>
   <i type="logical" name="SHIFTRED"> F  </i>
   <i type="logical" name="ODDONLY"> F  </i>
   <i type="logical" name="EVENONLY"> F  </i>
   <i type="int" name="LMAXFOCK">     0</i>
   <i type="int" name="NMAXFOCKAE">     0</i>
   <i type="logical" name="LFOCKAEDFT"> F  </i>
   <i name="HFSCREEN">      0.00000000</i>
   <i name="HFSCREENC">      0.00000000</i>
   <i type="int" name="NBANDSGWLOW">     0</i>
  </separator>
  <separator name="vdW DFT" >
   <i type="logical" name="LUSE_VDW"> F  </i>
   <i name="Zab_VDW">     -0.84910000</i>
   <i name="PARAM1">      0.12340000</i>
   <i name="PARAM2">      1.00000000</i>
   <i name="PARAM3">      0.00000000</i>
  </separator>
  <separator name="model GW" >
   <i type="int" name="MODEL_GW">     0</i>
   <i name="MODEL_EPS0">     12.00772552</i>
   <i name="MODEL_ALPHA">      1.00000000</i>
  </separator>
  <separator name="linear response parameters" >
   <i type="logical" name="LEPSILON"> F  </i>
   <i type="logical" name="LRPA"> F  </i>
   <i type="logical" name="LNABLA"> F  </i>
   <i type="logical" name="LVEL"> F  </i>
   <i type="int" name="KINTER">     0</i>
   <i name="CSHIFT">      0.10000000</i>
   <i name="OMEGAMAX">     -1.00000000</i>
   <i name="DEG_THRESHOLD">      0.00200000</i>
   <i name="RTIME">     -0.10000000</i>
   <i name="WPLASMAI">      0.00000000</i>
   <v name="DFIELD">      0.00000000      0.00000000      0.00000000</v>
   <v name="WPLASMA">      0.00000000      0.00000000      0.00000000      0.00000000      0.00000000      0.00000000      0.00000000      0.00000000      0.00000000</v>
  </separator>
  <separator name="orbital magnetization" >
   <i type="logical" name="NUCIND"> F  </i>
   <v name="MAGPOS">      0.00000000      0.00000000      0.00000000</v>
   <i type="logical" name="LNICSALL"> T  </i>
   <i type="logical" name="ORBITALMAG"> F  </i>
   <i type="logical" name="LMAGBLOCH"> F  </i>
   <i type="logical" name="LCHIMAG"> F  </i>
   <i type="logical" name="LGAUGE"> T  </i>
   <i type="int" name="MAGATOM">     0</i>
   <v name="MAGDIPOL">      0.00000000      0.00000000      0.00000000</v>
   <v name="AVECCONST">      0.00000000      0.00000000      0.00000000</v>
  </separator>
  <separator name="response functions" >
   <i type="logical" name="LADDER"> F  </i>
   <i type="logical" name="LRPAFORCE"> F  </i>
   <i type="logical" name="LFXC"> F  </i>
   <i type="logical" name="LHARTREE"> T  </i>
   <i type="int" name="IBSE">     0</i>
   <v type="int" name="KPOINT">    -1     0     0     0</v>
   <i type="logical" name="LTCTE"> F  </i>
   <i type="logical" name="LTETE"> F  </i>
   <i type="logical" name="LTRIPLET"> F  </i>
   <i type="logical" name="LFXCEPS"> F  </i>
   <i type="logical" name="LFXHEG"> F  </i>
   <i type="int" name="NATURALO">     2</i>
   <i type="logical" name="L2ORDER"> F  </i>
   <i type="logical" name="LMP2LT"> F  </i>
   <i type="logical" name="LUSEW"> F  </i>
   <i name="ENCUTGW">     -2.00000000</i>
   <i name="ENCUTGWSOFT">     -2.00000000</i>
   <i name="ENCUTLF">     -1.00000000</i>
   <i type="int" name="LMAXMP2">    -1</i>
   <i name="SCISSOR">      0.00000000</i>
   <i type="int" name="NOMEGA">     0</i>
   <i type="int" name="NOMEGAR">     0</i>
   <i type="int" name="NBANDSGW">    -1</i>
   <i type="int" name="NBANDSO">    -1</i>
   <i type="int" name="NBANDSV">    -1</i>
   <i type="int" name="NELM">     1</i>
   <i type="int" name="NELMHF">     1</i>
   <i type="int" name="DIM">     3</i>
   <i type="int" name="ANTIRES">     0</i>
   <i name="OMEGAMAX">    -30.00000000</i>
   <i name="OMEGAMIN">    -30.00000000</i>
   <i name="OMEGATL">   -200.00000000</i>
   <i type="int" name="OMEGAGRID">   140</i>
   <i name="CSHIFT">     -0.10000000</i>
   <i type="logical" name="SELFENERGY"> F  </i>
   <i type="logical" name="LSPECTRAL"> F  </i>
   <i type="logical" name="LSPECTRALGW"> F  </i>
   <i type="logical" name="LSINGLES"> F  </i>
   <i type="logical" name="LFERMIGW"> F  </i>
   <i type="logical" name="ODDONLYGW"> F  </i>
   <i type="logical" name="EVENONLYGW"> F  </i>
   <i type="int" name="NKREDLFX">     1</i>
   <i type="int" name="NKREDLFY">     1</i>
   <i type="int" name="NKREDLFZ">     1</i>
   <i type="int" name="MAXMEM">  2800</i>
   <i type="int" name="TELESCOPE">     0</i>
   <i type="int" name="TAUPAR">     1</i>
   <i type="int" name="OMEGAPAR">    -1</i>
   <i name="LAMBDA">      1.00000000</i>
  </separator>
  <separator name="External order field" >
   <i name="OFIELD_KAPPA">      0.00000000</i>
   <v name="OFIELD_K">      0.00000000      0.00000000      0.00000000</v>
   <i name="OFIELD_Q6_NEAR">      0.00000000</i>
   <i name="OFIELD_Q6_FAR">      0.00000000</i>
   <i name="OFIELD_A">      0.00000000</i>
  </separator>
 </parameters>
 <atominfo>
  <atoms>       2 </atoms>
  <types>       1 </types>
  <array name="atoms" >
   <dimension dim="1">ion</dimension>
   <field type="string">element</field>
   <field type="int">atomtype</field>
   <set>
    <rc><c>Si</c><c>   1</c></rc>
    <rc><c>Si</c><c>   1</c></rc>
   </set>
  </array>
  <array name="atomtypes" >
   <dimension dim="1">type</dimension>
   <field type="int">atomspertype</field>
   <field type="string">element</field>
   <field>mass</field>
   <field>valence</field>
   <field type="string">pseudopotential</field>
   <set>
    <rc><c>   2</c><c>Si</c><c>     28.08500000</c><c>      4.00000000</c><c> PAW_PBE Si 05Jan2001                   </c></rc>
   </set>
  </array>
 </atominfo>
 <structure name="initialpos" >
  <crystal>
   <varray name="basis" >
    <v>       0.00000000       2.71500000       2.71500000 </v>
    <v>       2.71500000       0.00000000       2.71500000 </v>
    <v>       2.71500000       2.71500000       0.00000000 </v>
   </varray>
   <i name="volume">     40.02575175 </i>
   <varray name="rec_basis" >
    <v>      -0.18416206       0.18416206       0.18416206 </v>
    <v>       0.18416206      -0.18416206       0.18416206 </v>
    <v>       0.18416206       0.18416206      -0.18416206 </v>
   </varray>
  </crystal>
  <varray name="positions" >
   <v>       0.00000000       0.00000000       0.00000000 </v>
   <v>       0.25000000       0.25000000       0.25000000 </v>
  </varray>
 </structure>
 <calculation>
  <scstep>
   <time name="dav">    0.30    0.30</time>
   <time name="total">    0.32    0.33</time>
   <energy>
    <i name="alphaZ">      3.36414203 </i>
    <i name="ewald">   -228.56352493 </i>
    <i name="hartreedc">    -14.91334938 </i>
    <i name="XCdc">    -17.96005859 </i>
    <i name="pawpsdc">     74.49605614 </i>
    <i name="pawaedc">    -39.53572067 </i>
    <i name="eentropy">     -0.01005739 </i>
    <i name="bandstr">     18.36705136 </i>
    <i name="atom">    206.12968587 </i>
    <i name="e_fr_energy">      1.37422444 </i>
    <i name="e_wo_entrp">      1.38428183 </i>
    <i name="e_0_energy">      1.37925313 </i>
   </energy>
  </scstep>
  <scstep>
   <time name="dav">    0.41    0.41</time>
   <time name="total">    0.42    0.42</time>
   <energy>
    <i name="e_fr_energy">    -10.70161013 </i>
    <i name="e_wo_entrp">    -10.70149721 </i>
    <i name="e_0_energy">    -10.70155367 </i>
   </energy>
  </scstep>
  <scstep>
   <time name="dav">    0.33    0.33</time>
   <time name="total">    0.34    0.34</time>
   <energy>
    <i name="e_fr_energy">    -10.83781224 </i>
    <i name="e_wo_entrp">    -10.83772955 </i>
    <i name="e_0_energy">    -10.83777090 </i>
   </energy>
  </scstep>
  <scstep>
   <time name="dav">    0.44    0.44</time>
   <time name="total">    0.44    0.44</time>
   <energy>
    <i name="e_fr_energy">    -10.83829265 </i>
    <i name="e_wo_entrp">    -10.83821014 </i>
    <i name="e_0_energy">    -10.83825139 </i>
   </energy>
  </scstep>
  <scstep>
   <time name="dav">    0.34    0.34</time>
   <time name="total">    0.35    0.35</time>
   <energy>
    <i name="e_fr_energy">    -10.83829279 </i>
    <i name="e_wo_entrp">    -10.83821028 </i>
    <i name="e_0_energy">    -10.83825153 </i>
   </energy>
  </scstep>
  <scstep>
   <time name="dav">    0.44    0.44</time>
   <time name="total">    0.44    0.44</time>
   <energy>
    <i name="alphaZ">      3.36414203 </i>
    <i name="ewald">   -228.56352493 </i>
    <i name="hartreedc">    -14.91334938 </i>
    <i name="XCdc">    -17.96005859 </i>
    <i name="pawpsdc">     74.49605614 </i>
    <i name="pawaedc">    -39.53572067 </i>
    <i name="eentropy">     -0.00008251 </i>
    <i name="bandstr">      6.14455926 </i>
    <i name="atom">    206.12968587 </i>
    <i name="e_fr_energy">    -10.83829279 </i>
    <i name="e_wo_entrp">    -10.83821028 </i>
    <i name="e_0_energy">    -10.83825153 </i>
   </energy>
  </scstep>
  <structure>
   <crystal>
    <varray name="basis" >
     <v>       0.00000000       2.71500000       2.71500000 </v>
     <v>       2.71500000       0.00000000       2.71500000 </v>
     <v>       2.71500000       2.71500000       0.00000000 </v>
    </varray>
    <i name="volume">     40.02575175 </i>
    <varray name="rec_basis" >
     <v>      -0.18416206       0.18416206       0.18416206 </v>
     <v>       0.18416206      -0.18416206       0.18416206 </v>
     <v>       0.18416206       0.18416206      -0.18416206 </v>
    </varray>
   </crystal>
   <varray name="positions" >
    <v>       0.00000000       0.00000000       0.00000000 </v>
    <v>       0.25000000       0.25000000       0.25000000 </v>
   </varray>
  </structure>
  <varray name="forces" >
   <v>       0.00000000       0.00000000       0.00000000 </v>
   <v>      -0.00000000      -0.00000000      -0.00000000 </v>
  </varray>
  <varray name="stress" >
   <v>      18.66090764       0.00000000      -0.00000000 </v>
   <v>       0.00000000      18.66090764      -0.00000000 </v>
   <v>      -0.00000000       0.00000000      18.66090764 </v>
  </varray>
  <energy>
   <i name="e_fr_energy">    -10.83829279 </i>
   <i name="e_wo_entrp">    -10.83825153 </i>
   <i name="e_0_energy">     -0.00008251 </i>
  </energy>
  <time name="totalsc">    2.71    2.72</time>
  <eigenvalues>
   <array>
    <dimension dim="1">band</dimension>
    <dimension dim="2">kpoint</dimension>
    <dimension dim="3">spin</dimension>
    <field>eigene</field>
    <field>occ</field>
    <set>
     <set comment="spin 1">
      <set comment="kpoint 1">
       <r>   -6.1306    1.0000 </r>
       <r>    5.8331    0.9785 </r>
       <r>    5.8331    0.9785 </r>
       <r>    5.8331    0.9785 </r>
       <r>    8.4012    0.0000 </r>
       <r>    8.4012    0.0000 </r>
       <r>    8.4012    0.0000 </r>
       <r>    9.2080    0.0000 </r>
      </set>
      <set comment="kpoint 2">
       <r>   -6.0794    1.0000 </r>
       <r>    5.3016    1.0000 </r>
       <r>    5.7471    0.9958 </r>
       <r>    5.7472    0.9957 </r>
       <r>    8.4637    0.0000 </r>
       <r>    8.5238    0.0000 </r>
       <r>    8.5238    0.0000 </r>
       <r>    9.5861    0.0000 </r>
      </set>
      <set comment="kpoint 3">
       <r>   -5.9264    1.0000 </r>
       <r>    4.2342    1.0000 </r>
       <r>    5.5429    1.0000 </r>
       <r>    5.5429    1.0000 </r>
       <r>    8.3399    0.0000 </r>
       <r>    8.8243    0.0000 </r>
       <r>    8.8243    0.0000 </r>
       <r>   10.5524    0.0000 </r>
      </set>
      <set comment="kpoint 4">
       <r>   -5.6746    1.0000 </r>
       <r>    3.0589    1.0000 </r>
       <r>    5.3007    1.0000 </r>
       <r>    5.3008    1.0000 </r>
       <r>    8.1076    0.0000 </r>
       <r>    9.1479    0.0000 </r>
       <r>    9.1479    0.0000 </r>
       <r>   11.6689    0.0000 </r>
      </set>
      <set comment="kpoint 5">
       <r>   -5.3305    1.0000 </r>
       <r>    1.9057    1.0000 </r>
       <r>    5.0725    1.0000 </r>
       <r>    5.0725    1.0000 </r>
       <r>    7.8669    0.0000 </r>
       <r>    9.3435    0.0000 </r>
       <r>    9.3436    0.0000 </r>
       <r>   12.7617    0.0000 </r>
      </set>
      <set comment="kpoint 6">
       <r>   -4.9074    1.0000 </r>
       <r>    0.8310    1.0000 </r>
       <r>    4.8837    1.0000 </r>
       <r>    4.8838    1.0000 </r>
       <r>    7.6594    0.0000 </r>
       <r>    9.3647    0.0000 </r>
       <r>    9.3647    0.0000 </r>
       <r>   13.5860    0.0000 </r>
      </set>
      <set comment="kpoint 7">
       <r>   -4.4364    1.0000 </r>
       <r>   -0.1148    1.0000 </r>
       <r>    4.7456    1.0000 </r>
       <r>    4.7456    1.0000 </r>
       <r>    7.5034    0.0000 </r>
       <r>    9.2893    0.0000 </r>
       <r>    9.2893    0.0000 </r>
       <r>   13.7186    0.0000 </r>
      </set>
      <set comment="kpoint 8">
       <r>   -4.0001    1.0000 </r>
       <r>   -0.8389    1.0000 </r>
       <r>    4.6618    1.0000 </r>
       <r>    4.6618    1.0000 </r>
       <r>    7.4077    0.0000 </r>
       <r>    9.2099    0.0000 </r>
       <r>    9.2100    0.0000 </r>
       <r>   13.6121    0.0000 </r>
      </set>
      <set comment="kpoint 9">
       <r>   -3.7981    1.0000 </r>
       <r>   -1.1376    1.0000 </r>
       <r>    4.6336    1.0000 </r>
       <r>    4.6336    1.0000 </r>
       <r>    7.3754    0.0000 </r>
       <r>    9.1773    0.0000 </r>
       <r>    9.1774    0.0000 </r>
       <r>   13.5636    0.0000 </r>
      </set>
      <set comment="kpoint 10">
       <r>   -6.0622    1.0000 </r>
       <r>    5.4120    1.0000 </r>
       <r>    5.5688    1.0000 </r>
       <r>    5.5688    1.0000 </r>
       <r>    8.2381    0.0000 </r>
       <r>    8.7469    0.0000 </r>
       <r>    8.7469    0.0000 </r>
       <r>    9.6079    0.0000 </r>
      </set>
      <set comment="kpoint 11">
       <r>   -5.9430    1.0000 </r>
       <r>    4.5527    1.0000 </r>
       <r>    5.3126    1.0000 </r>
       <r>    5.4808    1.0000 </r>
       <r>    8.2356    0.0000 </r>
       <r>    8.8534    0.0000 </r>
       <r>    9.1141    0.0000 </r>
       <r>   10.2947    0.0000 </r>
      </set>
      <set comment="kpoint 12">
       <r>   -5.7238    1.0000 </r>
       <r>    3.4301    1.0000 </r>
       <r>    5.0518    1.0000 </r>
       <r>    5.2870    1.0000 </r>
       <r>    8.3325    0.0000 </r>
       <r>    8.8429    0.0000 </r>
       <r>    9.4891    0.0000 </r>
       <r>   11.1417    0.0000 </r>
      </set>
      <set comment="kpoint 13">
       <r>   -5.4097    1.0000 </r>
       <r>    2.2829    1.0000 </r>
       <r>    4.8263    1.0000 </r>
       <r>    5.0346    1.0000 </r>
       <r>    8.2243    0.0000 </r>
       <r>    9.0119    0.0000 </r>
       <r>    9.7277    0.0000 </r>
       <r>   11.6210    0.0000 </r>
      </set>
      <set comment="kpoint 14">
       <r>   -5.0108    1.0000 </r>
       <r>    1.1891    1.0000 </r>
       <r>    4.6560    1.0000 </r>
       <r>    4.7845    1.0000 </r>
       <r>    8.0404    0.0000 </r>
       <r>    9.1261    0.0000 </r>
       <r>    9.7609    0.0000 </r>
       <r>   12.0889    0.0000 </r>
      </set>
      <set comment="kpoint 15">
       <r>   -4.5504    1.0000 </r>
       <r>    0.2005    1.0000 </r>
       <r>    4.5491    1.0000 </r>
       <r>    4.5662    1.0000 </r>
       <r>    7.8788    0.0000 </r>
       <r>    9.1233    0.0000 </r>
       <r>    9.6512    0.0000 </r>
       <r>   12.7948    0.0000 </r>
      </set>
      <set comment="kpoint 16">
       <r>   -4.0873    1.0000 </r>
       <r>   -0.6097    1.0000 </r>
       <r>    4.3939    1.0000 </r>
       <r>    4.5076    1.0000 </r>
       <r>    7.7674    0.0000 </r>
       <r>    9.0944    0.0000 </r>
       <r>    9.5023    0.0000 </r>
       <r>   13.5023    0.0000 </r>
      </set>
      <set comment="kpoint 17">
       <r>   -3.7772    1.0000 </r>
       <r>   -1.0785    1.0000 </r>
       <r>    4.2757    1.0000 </r>
       <r>    4.5304    1.0000 </r>
       <r>    7.7148    0.0000 </r>
       <r>    9.1068    0.0000 </r>
       <r>    9.3814    0.0000 </r>
       <r>   13.7339    0.0000 </r>
      </set>
      <set comment="kpoint 18">
       <r>   -3.8482    1.0000 </r>
       <r>   -0.9755    1.0000 </r>
       <r>    4.2174    1.0000 </r>
       <r>    4.6136    1.0000 </r>
       <r>    7.7244    0.0000 </r>
       <r>    9.1847    0.0000 </r>
       <r>    9.3168    0.0000 </r>
       <r>   13.7666    0.0000 </r>
      </set>
      <set comment="kpoint 19">
       <r>   -4.2358    1.0000 </r>
       <r>   -0.3654    1.0000 </r>
       <r>    4.2231    1.0000 </r>
       <r>    4.7521    1.0000 </r>
       <r>    7.7961    0.0000 </r>
       <r>    9.3064    0.0000 </r>
       <r>    9.3201    0.0000 </r>
       <r>   13.6833    0.0000 </r>
      </set>
      <set comment="kpoint 20">
       <r>   -4.7088    1.0000 </r>
       <r>    0.5163    1.0000 </r>
       <r>    4.2965    1.0000 </r>
       <r>    4.9391    1.0000 </r>
       <r>    7.9276    0.0000 </r>
       <r>    9.3137    0.0000 </r>
       <r>    9.4728    0.0000 </r>
       <r>   13.2032    0.0000 </r>
      </set>
      <set comment="kpoint 21">
       <r>   -5.1526    1.0000 </r>
       <r>    1.5452    1.0000 </r>
       <r>    4.4386    1.0000 </r>
       <r>    5.1637    1.0000 </r>
       <r>    8.1104    0.0000 </r>
       <r>    9.2593    0.0000 </r>
       <r>    9.5501    0.0000 </r>
       <r>   12.4905    0.0000 </r>
      </set>
      <set comment="kpoint 22">
       <r>   -5.5248    1.0000 </r>
       <r>    2.6592    1.0000 </r>
       <r>    4.6494    1.0000 </r>
       <r>    5.4066    1.0000 </r>
       <r>    8.3295    0.0000 </r>
       <r>    9.0643    0.0000 </r>
       <r>    9.4261    0.0000 </r>
       <r>   11.8067    0.0000 </r>
      </set>
      <set comment="kpoint 23">
       <r>   -5.8080    1.0000 </r>
       <r>    3.7935    1.0000 </r>
       <r>    4.9279    1.0000 </r>
       <r>    5.6305    0.9997 </r>
       <r>    8.5481    0.0000 </r>
       <r>    8.7706    0.0000 </r>
       <r>    9.0782    0.0000 </r>
       <r>   11.0105    0.0000 </r>
      </set>
      <set comment="kpoint 24">
       <r>   -5.9941    1.0000 </r>
       <r>    4.7856    1.0000 </r>
       <r>    5.3054    1.0000 </r>
       <r>    5.7682    0.9935 </r>
       <r>    8.5404    0.0000 </r>
       <r>    8.6457    0.0000 </r>
       <r>    8.6953    0.0000 </r>
       <r>   10.1324    0.0000 </r>
      </set>
      <set comment="kpoint 25">
       <r>   -5.8575    1.0000 </r>
       <r>    4.4994    1.0000 </r>
       <r>    5.0254    1.0000 </r>
       <r>    5.0254    1.0000 </r>
       <r>    7.8474    0.0000 </r>
       <r>    9.5416    0.0000 </r>
       <r>    9.5416    0.0000 </r>
       <r>   10.2386    0.0000 </r>
      </set>
      <set comment="kpoint 26">
       <r>   -5.6715    1.0000 </r>
       <r>    3.6623    1.0000 </r>
       <r>    4.7470    1.0000 </r>
       <r>    4.8394    1.0000 </r>
       <r>    7.8068    0.0000 </r>
       <r>    9.6337    0.0000 </r>
       <r>    9.9857    0.0000 </r>
       <r>   10.5308    0.0000 </r>
      </set>
      <set comment="kpoint 27">
       <r>   -5.3886    1.0000 </r>
       <r>    2.6091    1.0000 </r>
       <r>    4.5138    1.0000 </r>
       <r>    4.5906    1.0000 </r>
       <r>    7.9845    0.0000 </r>
       <r>    9.5477    0.0000 </r>
       <r>   10.3075    0.0000 </r>
       <r>   10.5906    0.0000 </r>
      </set>
      <set comment="kpoint 28">
       <r>   -5.0169    1.0000 </r>
       <r>    1.5456    1.0000 </r>
       <r>    4.2901    1.0000 </r>
       <r>    4.3441    1.0000 </r>
       <r>    8.1005    0.0000 </r>
       <r>    9.5339    0.0000 </r>
       <r>   10.4034    0.0000 </r>
       <r>   10.7406    0.0000 </r>
      </set>
      <set comment="kpoint 29">
       <r>   -4.5733    1.0000 </r>
       <r>    0.5480    1.0000 </r>
       <r>    3.9993    1.0000 </r>
       <r>    4.2458    1.0000 </r>
       <r>    8.0846    0.0000 </r>
       <r>    9.4806    0.0000 </r>
       <r>   10.3043    0.0000 </r>
       <r>   11.3090    0.0000 </r>
      </set>
      <set comment="kpoint 30">
       <r>   -4.1000    1.0000 </r>
       <r>   -0.3153    1.0000 </r>
       <r>    3.7481    1.0000 </r>
       <r>    4.2217    1.0000 </r>
       <r>    8.0385    0.0000 </r>
       <r>    9.3987    0.0000 </r>
       <r>   10.1220    0.0000 </r>
       <r>   12.1929    0.0000 </r>
      </set>
      <set comment="kpoint 31">
       <r>   -3.7114    1.0000 </r>
       <r>   -0.9160    1.0000 </r>
       <r>    3.5533    1.0000 </r>
       <r>    4.2704    1.0000 </r>
       <r>    8.0315    0.0000 </r>
       <r>    9.3535    0.0000 </r>
       <r>    9.9403    0.0000 </r>
       <r>   13.2138    0.0000 </r>
      </set>
      <set comment="kpoint 32">
       <r>   -3.6423    1.0000 </r>
       <r>   -1.0139    1.0000 </r>
       <r>    3.4251    1.0000 </r>
       <r>    4.3877    1.0000 </r>
       <r>    8.0849    0.0000 </r>
       <r>    9.3728    0.0000 </r>
       <r>    9.7992    0.0000 </r>
       <r>   14.0521    0.0000 </r>
      </set>
      <set comment="kpoint 33">
       <r>   -3.9561    1.0000 </r>
       <r>   -0.5452    1.0000 </r>
       <r>    3.3715    1.0000 </r>
       <r>    4.5669    1.0000 </r>
       <r>    8.1984    0.0000 </r>
       <r>    9.4618    0.0000 </r>
       <r>    9.7073    0.0000 </r>
       <r>   13.7590    0.0000 </r>
      </set>
      <set comment="kpoint 34">
       <r>   -4.4202    1.0000 </r>
       <r>    0.2520    1.0000 </r>
       <r>    3.4000    1.0000 </r>
       <r>    4.7965    1.0000 </r>
       <r>    8.3610    0.0000 </r>
       <r>    9.5964    0.0000 </r>
       <r>    9.6365    0.0000 </r>
       <r>   12.9367    0.0000 </r>
      </set>
      <set comment="kpoint 35">
       <r>   -4.8798    1.0000 </r>
       <r>    1.2074    1.0000 </r>
       <r>    3.5218    1.0000 </r>
       <r>    5.0588    1.0000 </r>
       <r>    8.5578    0.0000 </r>
       <r>    9.5156    0.0000 </r>
       <r>    9.6948    0.0000 </r>
       <r>   12.1462    0.0000 </r>
      </set>
      <set comment="kpoint 36">
       <r>   -5.2772    1.0000 </r>
       <r>    2.2216    1.0000 </r>
       <r>    3.7622    1.0000 </r>
       <r>    5.3236    1.0000 </r>
       <r>    8.7619    0.0000 </r>
       <r>    9.2695    0.0000 </r>
       <r>    9.5720    0.0000 </r>
       <r>   11.6349    0.0000 </r>
      </set>
      <set comment="kpoint 37">
       <r>   -5.5900    1.0000 </r>
       <r>    3.1494    1.0000 </r>
       <r>    4.2038    1.0000 </r>
       <r>    5.5393    1.0000 </r>
       <r>    8.8813    0.0000 </r>
       <r>    8.9612    0.0000 </r>
       <r>    9.1968    0.0000 </r>
       <r>   11.3902    0.0000 </r>
      </set>
      <set comment="kpoint 38">
       <r>   -5.5184    1.0000 </r>
       <r>    3.4313    1.0000 </r>
       <r>    4.4527    1.0000 </r>
       <r>    4.4527    1.0000 </r>
       <r>    7.3868    0.0000 </r>
       <r>    9.9011    0.0000 </r>
       <r>   10.5251    0.0000 </r>
       <r>   10.5251    0.0000 </r>
      </set>
      <set comment="kpoint 39">
       <r>   -5.2675    1.0000 </r>
       <r>    2.6889    1.0000 </r>
       <r>    4.1773    1.0000 </r>
       <r>    4.2058    1.0000 </r>
       <r>    7.3612    0.0000 </r>
       <r>    9.5453    0.0000 </r>
       <r>   10.8076    0.0000 </r>
       <r>   10.9724    0.0000 </r>
      </set>
      <set comment="kpoint 40">
       <r>   -4.9246    1.0000 </r>
       <r>    1.7730    1.0000 </r>
       <r>    3.8234    1.0000 </r>
       <r>    4.0251    1.0000 </r>
       <r>    7.5594    0.0000 </r>
       <r>    9.4913    0.0000 </r>
       <r>   10.7493    0.0000 </r>
       <r>   11.1879    0.0000 </r>
      </set>
      <set comment="kpoint 41">
       <r>   -4.5026    1.0000 </r>
       <r>    0.8398    1.0000 </r>
       <r>    3.4463    1.0000 </r>
       <r>    3.9198    1.0000 </r>
       <r>    7.6853    0.0000 </r>
       <r>    9.9075    0.0000 </r>
       <r>   10.5949    0.0000 </r>
       <r>   11.1509    0.0000 </r>
      </set>
      <set comment="kpoint 42">
       <r>   -4.0315    1.0000 </r>
       <r>   -0.0219    1.0000 </r>
       <r>    3.1046    1.0000 </r>
       <r>    3.8934    1.0000 </r>
       <r>    7.7140    0.0000 </r>
       <r>   10.4366    0.0000 </r>
       <r>   10.7260    0.0000 </r>
       <r>   10.9715    0.0000 </r>
      </set>
      <set comment="kpoint 43">
       <r>   -3.5925    1.0000 </r>
       <r>   -0.7012    1.0000 </r>
       <r>    2.8267    1.0000 </r>
       <r>    3.9461    1.0000 </r>
       <r>    7.7561    0.0000 </r>
       <r>   10.3179    0.0000 </r>
       <r>   10.7583    0.0000 </r>
       <r>   11.7762    0.0000 </r>
      </set>
      <set comment="kpoint 44">
       <r>   -3.3925    1.0000 </r>
       <r>   -0.9778    1.0000 </r>
       <r>    2.6273    1.0000 </r>
       <r>    4.0739    1.0000 </r>
       <r>    7.8635    0.0000 </r>
       <r>   10.2501    0.0000 </r>
       <r>   10.5672    0.0000 </r>
       <r>   12.9586    0.0000 </r>
      </set>
      <set comment="kpoint 45">
       <r>   -3.6080    1.0000 </r>
       <r>   -0.6729    1.0000 </r>
       <r>    2.5196    1.0000 </r>
       <r>    4.2702    1.0000 </r>
       <r>    8.0478    0.0000 </r>
       <r>   10.2377    0.0000 </r>
       <r>   10.4106    0.0000 </r>
       <r>   13.7803    0.0000 </r>
      </set>
      <set comment="kpoint 46">
       <r>   -4.0501    1.0000 </r>
       <r>    0.0137    1.0000 </r>
       <r>    2.5200    1.0000 </r>
       <r>    4.5226    1.0000 </r>
       <r>    8.2955    0.0000 </r>
       <r>   10.2608    0.0000 </r>
       <r>   10.2649    0.0000 </r>
       <r>   12.7746    0.0000 </r>
      </set>
      <set comment="kpoint 47">
       <r>   -4.5192    1.0000 </r>
       <r>    0.8438    1.0000 </r>
       <r>    2.6648    1.0000 </r>
       <r>    4.8107    1.0000 </r>
       <r>    8.5733    0.0000 </r>
       <r>   10.0322    0.0000 </r>
       <r>   10.2512    0.0000 </r>
       <r>   11.9202    0.0000 </r>
      </set>
      <set comment="kpoint 48">
       <r>   -4.9379    1.0000 </r>
       <r>    1.6342    1.0000 </r>
       <r>    3.0460    1.0000 </r>
       <r>    5.0979    1.0000 </r>
       <r>    8.8042    0.0000 </r>
       <r>    9.6595    0.0000 </r>
       <r>    9.9678    0.0000 </r>
       <r>   11.5384    0.0000 </r>
      </set>
      <set comment="kpoint 49">
       <r>   -5.0481    1.0000 </r>
       <r>    2.3167    1.0000 </r>
       <r>    3.9424    1.0000 </r>
       <r>    3.9424    1.0000 </r>
       <r>    6.9650    0.0000 </r>
       <r>    8.9704    0.0000 </r>
       <r>   11.5979    0.0000 </r>
       <r>   11.5980    0.0000 </r>
      </set>
      <set comment="kpoint 50">
       <r>   -4.7350    1.0000 </r>
       <r>    1.6549    1.0000 </r>
       <r>    3.6216    1.0000 </r>
       <r>    3.7450    1.0000 </r>
       <r>    6.9816    0.0000 </r>
       <r>    8.6445    0.0000 </r>
       <r>   11.8809    0.0000 </r>
       <r>   12.0144    0.0000 </r>
      </set>
      <set comment="kpoint 51">
       <r>   -4.3378    1.0000 </r>
       <r>    0.8926    1.0000 </r>
       <r>    3.1620    1.0000 </r>
       <r>    3.6243    1.0000 </r>
       <r>    7.1867    0.0000 </r>
       <r>    8.7319    0.0000 </r>
       <r>   11.8410    0.0000 </r>
       <r>   12.1116    0.0000 </r>
      </set>
      <set comment="kpoint 52">
       <r>   -3.8776    1.0000 </r>
       <r>    0.1255    1.0000 </r>
       <r>    2.6946    1.0000 </r>
       <r>    3.5848    1.0000 </r>
       <r>    7.2910    0.0000 </r>
       <r>    9.3401    0.0000 </r>
       <r>   11.7086    0.0000 </r>
       <r>   11.9801    0.0000 </r>
      </set>
      <set comment="kpoint 53">
       <r>   -3.4114    1.0000 </r>
       <r>   -0.5501    1.0000 </r>
       <r>    2.2983    1.0000 </r>
       <r>    3.6274    1.0000 </r>
       <r>    7.3558    0.0000 </r>
       <r>   10.2859    0.0000 </r>
       <r>   11.5865    0.0000 </r>
       <r>   11.7621    0.0000 </r>
      </set>
      <set comment="kpoint 54">
       <r>   -3.1040    1.0000 </r>
       <r>   -0.9466    1.0000 </r>
       <r>    2.0060    1.0000 </r>
       <r>    3.7498    1.0000 </r>
       <r>    7.4772    0.0000 </r>
       <r>   11.2131    0.0000 </r>
       <r>   11.5367    0.0000 </r>
       <r>   11.7091    0.0000 </r>
      </set>
      <set comment="kpoint 55">
       <r>   -3.2070    1.0000 </r>
       <r>   -0.8086    1.0000 </r>
       <r>    1.8396    1.0000 </r>
       <r>    3.9461    1.0000 </r>
       <r>    7.6811    0.0000 </r>
       <r>   11.3053    0.0000 </r>
       <r>   11.3220    0.0000 </r>
       <r>   12.8033    0.0000 </r>
      </set>
      <set comment="kpoint 56">
       <r>   -3.6151    1.0000 </r>
       <r>   -0.2673    1.0000 </r>
       <r>    1.8366    1.0000 </r>
       <r>    4.2046    1.0000 </r>
       <r>    7.9617    0.0000 </r>
       <r>   11.0659    0.0000 </r>
       <r>   11.2556    0.0000 </r>
       <r>   12.7059    0.0000 </r>
      </set>
      <set comment="kpoint 57">
       <r>   -4.0859    1.0000 </r>
       <r>    0.3526    1.0000 </r>
       <r>    2.0796    1.0000 </r>
       <r>    4.5047    1.0000 </r>
       <r>    8.2874    0.0000 </r>
       <r>   10.6289    0.0000 </r>
       <r>   10.9710    0.0000 </r>
       <r>   11.9886    0.0000 </r>
      </set>
      <set comment="kpoint 58">
       <r>   -4.4513    1.0000 </r>
       <r>    1.1941    1.0000 </r>
       <r>    3.5284    1.0000 </r>
       <r>    3.5284    1.0000 </r>
       <r>    6.6416    0.0001 </r>
       <r>    8.0854    0.0000 </r>
       <r>   12.7238    0.0000 </r>
       <r>   12.7239    0.0000 </r>
      </set>
      <set comment="kpoint 59">
       <r>   -4.0803    1.0000 </r>
       <r>    0.5914    1.0000 </r>
       <r>    3.2019    1.0000 </r>
       <r>    3.3878    1.0000 </r>
       <r>    6.7122    0.0000 </r>
       <r>    7.8642    0.0000 </r>
       <r>   13.0281    0.0000 </r>
       <r>   13.0921    0.0000 </r>
      </set>
      <set comment="kpoint 60">
       <r>   -3.6372    1.0000 </r>
       <r>   -0.0411    1.0000 </r>
       <r>    2.6809    1.0000 </r>
       <r>    3.3295    1.0000 </r>
       <r>    6.9044    0.0000 </r>
       <r>    8.1537    0.0000 </r>
       <r>   13.0042    0.0000 </r>
       <r>   13.0865    0.0000 </r>
      </set>
      <set comment="kpoint 61">
       <r>   -3.1608    1.0000 </r>
       <r>   -0.6370    1.0000 </r>
       <r>    2.1536    1.0000 </r>
       <r>    3.3549    1.0000 </r>
       <r>    6.9992    0.0000 </r>
       <r>    8.9628    0.0000 </r>
       <r>   12.8833    0.0000 </r>
       <r>   12.8963    0.0000 </r>
      </set>
      <set comment="kpoint 62">
       <r>   -2.7764    1.0000 </r>
       <r>   -1.0673    1.0000 </r>
       <r>    1.7333    1.0000 </r>
       <r>    3.4629    1.0000 </r>
       <r>    7.1205    0.0000 </r>
       <r>   10.0449    0.0000 </r>
       <r>   12.6478    0.0000 </r>
       <r>   12.7601    0.0000 </r>
      </set>
      <set comment="kpoint 63">
       <r>   -2.7786    1.0000 </r>
       <r>   -1.0528    1.0000 </r>
       <r>    1.4870    1.0000 </r>
       <r>    3.6485    1.0000 </r>
       <r>    7.3243    0.0000 </r>
       <r>   11.2528    0.0000 </r>
       <r>   12.3547    0.0000 </r>
       <r>   12.6824    0.0000 </r>
      </set>
      <set comment="kpoint 64">
       <r>   -3.1531    1.0000 </r>
       <r>   -0.6619    1.0000 </r>
       <r>    1.4902    1.0000 </r>
       <r>    3.9018    1.0000 </r>
       <r>    7.6126    0.0000 </r>
       <r>   11.8578    0.0000 </r>
       <r>   12.0389    0.0000 </r>
       <r>   12.9043    0.0000 </r>
      </set>
      <set comment="kpoint 65">
       <r>   -3.7350    1.0000 </r>
       <r>    0.0879    1.0000 </r>
       <r>    3.2257    1.0000 </r>
       <r>    3.2257    1.0000 </r>
       <r>    6.4501    0.0097 </r>
       <r>    7.3747    0.0000 </r>
       <r>   13.8885    0.0000 </r>
       <r>   13.8885    0.0000 </r>
      </set>
      <set comment="kpoint 66">
       <r>   -3.3121    1.0000 </r>
       <r>   -0.4659    1.0000 </r>
       <r>    2.9224    1.0000 </r>
       <r>    3.1453    1.0000 </r>
       <r>    6.5752    0.0006 </r>
       <r>    7.2828    0.0000 </r>
       <r>   14.2027    0.0000 </r>
       <r>   14.2098    0.0000 </r>
      </set>
      <set comment="kpoint 67">
       <r>   -2.8374    1.0000 </r>
       <r>   -0.9976    1.0000 </r>
       <r>    2.3966    1.0000 </r>
       <r>    3.1497    1.0000 </r>
       <r>    6.7300    0.0000 </r>
       <r>    7.8030    0.0000 </r>
       <r>   14.1129    0.0000 </r>
       <r>   14.2016    0.0000 </r>
      </set>
      <set comment="kpoint 68">
       <r>   -2.4069    1.0000 </r>
       <r>   -1.4174    1.0000 </r>
       <r>    1.8792    1.0000 </r>
       <r>    3.2382    1.0000 </r>
       <r>    6.8461    0.0000 </r>
       <r>    8.7779    0.0000 </r>
       <r>   13.8423    0.0000 </r>
       <r>   14.0887    0.0000 </r>
      </set>
      <set comment="kpoint 69">
       <r>   -2.3984    1.0000 </r>
       <r>   -1.3944    1.0000 </r>
       <r>    1.5303    1.0000 </r>
       <r>    3.4072    1.0000 </r>
       <r>    7.0397    0.0000 </r>
       <r>    9.9654    0.0000 </r>
       <r>   13.3134    0.0000 </r>
       <r>   13.8701    0.0000 </r>
      </set>
      <set comment="kpoint 70">
       <r>   -2.9086    1.0000 </r>
       <r>   -0.9792    1.0000 </r>
       <r>    3.0417    1.0000 </r>
       <r>    3.0417    1.0000 </r>
       <r>    6.4116    0.0194 </r>
       <r>    6.8616    0.0000 </r>
       <r>   15.0688    0.0000 </r>
       <r>   15.0688    0.0000 </r>
      </set>
      <set comment="kpoint 71">
       <r>   -2.4425    1.0000 </r>
       <r>   -1.4854    1.0000 </r>
       <r>    2.7828    1.0000 </r>
       <r>    3.0228    1.0000 </r>
       <r>    6.5654    0.0008 </r>
       <r>    6.9296    0.0000 </r>
       <r>   15.2985    0.0000 </r>
       <r>   15.3844    0.0000 </r>
      </set>
      <set comment="kpoint 72">
       <r>   -2.0539    1.0000 </r>
       <r>   -1.8366    1.0000 </r>
       <r>    2.3031    1.0000 </r>
       <r>    3.0893    1.0000 </r>
       <r>    6.6712    0.0000 </r>
       <r>    7.6858    0.0000 </r>
       <r>   14.9025    0.0000 </r>
       <r>   15.2955    0.0000 </r>
      </set>
      <set comment="kpoint 73">
       <r>   -1.9846    1.0000 </r>
       <r>   -1.9846    1.0000 </r>
       <r>    2.9800    1.0000 </r>
       <r>    2.9801    1.0000 </r>
       <r>    6.5442    0.0013 </r>
       <r>    6.5442    0.0013 </r>
       <r>   15.9570    0.0000 </r>
       <r>   15.9636    0.0000 </r>
      </set>
      <set comment="kpoint 74">
       <r>   -5.7905    1.0000 </r>
       <r>    3.9417    1.0000 </r>
       <r>    4.7584    1.0000 </r>
       <r>    5.4092    1.0000 </r>
       <r>    8.2140    0.0000 </r>
       <r>    9.1177    0.0000 </r>
       <r>    9.4141    0.0000 </r>
       <r>   10.7747    0.0000 </r>
      </set>
      <set comment="kpoint 75">
       <r>   -5.5394    1.0000 </r>
       <r>    2.9750    1.0000 </r>
       <r>    4.3430    1.0000 </r>
       <r>    5.2487    1.0000 </r>
       <r>    8.3863    0.0000 </r>
       <r>    9.1081    0.0000 </r>
       <r>    9.7933    0.0000 </r>
       <r>   11.0432    0.0000 </r>
      </set>
      <set comment="kpoint 76">
       <r>   -5.1962    1.0000 </r>
       <r>    1.9031    1.0000 </r>
       <r>    4.0730    1.0000 </r>
       <r>    5.0120    1.0000 </r>
       <r>    8.4484    0.0000 </r>
       <r>    9.1400    0.0000 </r>
       <r>   10.0205    0.0000 </r>
       <r>   11.2224    0.0000 </r>
      </set>
      <set comment="kpoint 77">
       <r>   -4.7738    1.0000 </r>
       <r>    0.8677    1.0000 </r>
       <r>    3.8903    1.0000 </r>
       <r>    4.7698    1.0000 </r>
       <r>    8.3532    0.0000 </r>
       <r>    9.1664    0.0000 </r>
       <r>   10.0262    0.0000 </r>
       <r>   11.7168    0.0000 </r>
      </set>
      <set comment="kpoint 78">
       <r>   -4.3030    1.0000 </r>
       <r>   -0.0577    1.0000 </r>
       <r>    3.7769    1.0000 </r>
       <r>    4.5652    1.0000 </r>
       <r>    8.2388    0.0000 </r>
       <r>    9.1078    0.0000 </r>
       <r>    9.9300    0.0000 </r>
       <r>   12.5162    0.0000 </r>
      </set>
      <set comment="kpoint 79">
       <r>   -3.8654    1.0000 </r>
       <r>   -0.7731    1.0000 </r>
       <r>    3.7188    1.0000 </r>
       <r>    4.4275    1.0000 </r>
       <r>    8.1611    0.0000 </r>
       <r>    9.0386    0.0000 </r>
       <r>    9.8367    0.0000 </r>
       <r>   13.4325    0.0000 </r>
      </set>
      <set comment="kpoint 80">
       <r>   -3.6616    1.0000 </r>
       <r>   -1.0703    1.0000 </r>
       <r>    3.7018    1.0000 </r>
       <r>    4.3784    1.0000 </r>
       <r>    8.1341    0.0000 </r>
       <r>    9.0105    0.0000 </r>
       <r>    9.8001    0.0000 </r>
       <r>   13.9589    0.0000 </r>
      </set>
      <set comment="kpoint 81">
       <r>   -5.4532    1.0000 </r>
       <r>    3.0333    1.0000 </r>
       <r>    4.1829    1.0000 </r>
       <r>    4.7587    1.0000 </r>
       <r>    7.7703    0.0000 </r>
       <r>    9.7828    0.0000 </r>
       <r>   10.4144    0.0000 </r>
       <r>   10.4246    0.0000 </r>
      </set>
      <set comment="kpoint 82">
       <r>   -5.1404    1.0000 </r>
       <r>    2.1492    1.0000 </r>
       <r>    3.7652    1.0000 </r>
       <r>    4.5766    1.0000 </r>
       <r>    7.9784    0.0000 </r>
       <r>    9.7525    0.0000 </r>
       <r>   10.2772    0.0000 </r>
       <r>   10.7889    0.0000 </r>
      </set>
      <set comment="kpoint 83">
       <r>   -4.7429    1.0000 </r>
       <r>    1.1842    1.0000 </r>
       <r>    3.4825    1.0000 </r>
       <r>    4.3470    1.0000 </r>
       <r>    8.1423    0.0000 </r>
       <r>    9.7932    0.0000 </r>
       <r>   10.3418    0.0000 </r>
       <r>   10.9211    0.0000 </r>
      </set>
      <set comment="kpoint 84">
       <r>   -4.2832    1.0000 </r>
       <r>    0.2635    1.0000 </r>
       <r>    3.2730    1.0000 </r>
       <r>    4.1575    1.0000 </r>
       <r>    8.1803    0.0000 </r>
       <r>    9.6366    0.0000 </r>
       <r>   10.8184    0.0000 </r>
       <r>   11.0537    0.0000 </r>
      </set>
      <set comment="kpoint 85">
       <r>   -3.8186    1.0000 </r>
       <r>   -0.5122    1.0000 </r>
       <r>    3.1082    1.0000 </r>
       <r>    4.0569    1.0000 </r>
       <r>    8.1975    0.0000 </r>
       <r>    9.4495    0.0000 </r>
       <r>   10.7385    0.0000 </r>
       <r>   12.0000    0.0000 </r>
      </set>
      <set comment="kpoint 86">
       <r>   -3.5058    1.0000 </r>
       <r>   -0.9678    1.0000 </r>
       <r>    2.9834    1.0000 </r>
       <r>    4.0621    1.0000 </r>
       <r>    8.2612    0.0000 </r>
       <r>    9.3048    0.0000 </r>
       <r>   10.6500    0.0000 </r>
       <r>   13.1183    0.0000 </r>
      </set>
      <set comment="kpoint 87">
       <r>   -3.5811    1.0000 </r>
       <r>   -0.8609    1.0000 </r>
       <r>    2.9096    1.0000 </r>
       <r>    4.1663    1.0000 </r>
       <r>    8.3872    0.0000 </r>
       <r>    9.2211    0.0000 </r>
       <r>   10.6063    0.0000 </r>
       <r>   13.4067    0.0000 </r>
      </set>
      <set comment="kpoint 88">
       <r>   -3.9739    1.0000 </r>
       <r>   -0.2645    1.0000 </r>
       <r>    2.9048    1.0000 </r>
       <r>    4.3526    1.0000 </r>
       <r>    8.5639    0.0000 </r>
       <r>    9.1999    0.0000 </r>
       <r>   10.5997    0.0000 </r>
       <r>   12.3525    0.0000 </r>
      </set>
      <set comment="kpoint 89">
       <r>   -4.4471    1.0000 </r>
       <r>    0.5702    1.0000 </r>
       <r>    2.9903    1.0000 </r>
       <r>    4.5981    1.0000 </r>
       <r>    8.7574    0.0000 </r>
       <r>    9.2085    0.0000 </r>
       <r>   10.5862    0.0000 </r>
       <r>   11.4777    0.0000 </r>
      </set>
      <set comment="kpoint 90">
       <r>   -4.8889    1.0000 </r>
       <r>    1.4902    1.0000 </r>
       <r>    3.2013    1.0000 </r>
       <r>    4.8696    1.0000 </r>
       <r>    8.8721    0.0000 </r>
       <r>    9.1707    0.0000 </r>
       <r>   10.4813    0.0000 </r>
       <r>   10.9321    0.0000 </r>
      </set>
      <set comment="kpoint 91">
       <r>   -5.2586    1.0000 </r>
       <r>    2.3459    1.0000 </r>
       <r>    3.6242    1.0000 </r>
       <r>    5.1139    1.0000 </r>
       <r>    8.6630    0.0000 </r>
       <r>    9.1973    0.0000 </r>
       <r>   10.1669    0.0000 </r>
       <r>   10.8485    0.0000 </r>
      </set>
      <set comment="kpoint 92">
       <r>   -4.9858    1.0000 </r>
       <r>    2.0724    1.0000 </r>
       <r>    3.6739    1.0000 </r>
       <r>    4.1077    1.0000 </r>
       <r>    7.3586    0.0000 </r>
       <r>    9.1978    0.0000 </r>
       <r>   10.9994    0.0000 </r>
       <r>   11.5289    0.0000 </r>
      </set>
      <set comment="kpoint 93">
       <r>   -4.6158    1.0000 </r>
       <r>    1.2999    1.0000 </r>
       <r>    3.2492    1.0000 </r>
       <r>    3.9116    1.0000 </r>
       <r>    7.5962    0.0000 </r>
       <r>    9.1726    0.0000 </r>
       <r>   10.8841    0.0000 </r>
       <r>   11.8738    0.0000 </r>
      </set>
      <set comment="kpoint 94">
       <r>   -4.1735    1.0000 </r>
       <r>    0.4784    1.0000 </r>
       <r>    2.8912    1.0000 </r>
       <r>    3.7405    1.0000 </r>
       <r>    7.7522    0.0000 </r>
       <r>    9.6444    0.0000 </r>
       <r>   10.6764    0.0000 </r>
       <r>   11.9288    0.0000 </r>
      </set>
      <set comment="kpoint 95">
       <r>   -3.6992    1.0000 </r>
       <r>   -0.2843    1.0000 </r>
       <r>    2.5859    1.0000 </r>
       <r>    3.6656    1.0000 </r>
       <r>    7.8162    0.0000 </r>
       <r>   10.3458    0.0000 </r>
       <r>   10.6272    0.0000 </r>
       <r>   11.8416    0.0000 </r>
      </set>
      <set comment="kpoint 96">
       <r>   -3.3074    1.0000 </r>
       <r>   -0.8359    1.0000 </r>
       <r>    2.3437    1.0000 </r>
       <r>    3.6975    1.0000 </r>
       <r>    7.9068    0.0000 </r>
       <r>   10.2151    0.0000 </r>
       <r>   11.6275    0.0000 </r>
       <r>   11.7613    0.0000 </r>
      </set>
      <set comment="kpoint 97">
       <r>   -3.2470    1.0000 </r>
       <r>   -0.9117    1.0000 </r>
       <r>    2.1842    1.0000 </r>
       <r>    3.8263    1.0000 </r>
       <r>    8.0694    0.0000 </r>
       <r>   10.0632    0.0000 </r>
       <r>   11.6264    0.0000 </r>
       <r>   12.8695    0.0000 </r>
      </set>
      <set comment="kpoint 98">
       <r>   -3.5756    1.0000 </r>
       <r>   -0.4584    1.0000 </r>
       <r>    2.1309    1.0000 </r>
       <r>    4.0365    1.0000 </r>
       <r>    8.3067    0.0000 </r>
       <r>    9.9467    0.0000 </r>
       <r>   11.5381    0.0000 </r>
       <r>   12.2885    0.0000 </r>
      </set>
      <set comment="kpoint 99">
       <r>   -4.0421    1.0000 </r>
       <r>    0.2399    1.0000 </r>
       <r>    2.2248    1.0000 </r>
       <r>    4.3069    1.0000 </r>
       <r>    8.5997    0.0000 </r>
       <r>    9.8053    0.0000 </r>
       <r>   11.2695    0.0000 </r>
       <r>   11.5156    0.0000 </r>
      </set>
      <set comment="kpoint 100">
       <r>   -4.4973    1.0000 </r>
       <r>    0.9438    1.0000 </r>
       <r>    2.5518    1.0000 </r>
       <r>    4.6042    1.0000 </r>
       <r>    8.8983    0.0000 </r>
       <r>    9.4599    0.0000 </r>
       <r>   10.8718    0.0000 </r>
       <r>   11.0914    0.0000 </r>
      </set>
      <set comment="kpoint 101">
       <r>   -4.3936    1.0000 </r>
       <r>    1.0649    1.0000 </r>
       <r>    3.2671    1.0000 </r>
       <r>    3.5648    1.0000 </r>
       <r>    7.0380    0.0000 </r>
       <r>    8.3546    0.0000 </r>
       <r>   11.9947    0.0000 </r>
       <r>   12.6861    0.0000 </r>
      </set>
      <set comment="kpoint 102">
       <r>   -3.9733    1.0000 </r>
       <r>    0.4046    1.0000 </r>
       <r>    2.8213    1.0000 </r>
       <r>    3.3921    1.0000 </r>
       <r>    7.2970    0.0000 </r>
       <r>    8.4811    0.0000 </r>
       <r>   11.8385    0.0000 </r>
       <r>   13.0213    0.0000 </r>
      </set>
      <set comment="kpoint 103">
       <r>   -3.5019    1.0000 </r>
       <r>   -0.2567    1.0000 </r>
       <r>    2.3581    1.0000 </r>
       <r>    3.3226    1.0000 </r>
       <r>    7.4295    0.0000 </r>
       <r>    9.1609    0.0000 </r>
       <r>   11.6153    0.0000 </r>
       <r>   13.0375    0.0000 </r>
      </set>
      <set comment="kpoint 104">
       <r>   -3.0597    1.0000 </r>
       <r>   -0.8128    1.0000 </r>
       <r>    1.9684    1.0000 </r>
       <r>    3.3607    1.0000 </r>
       <r>    7.5308    0.0000 </r>
       <r>   10.1627    0.0000 </r>
       <r>   11.4074    0.0000 </r>
       <r>   12.9348    0.0000 </r>
      </set>
      <set comment="kpoint 105">
       <r>   -2.8759    1.0000 </r>
       <r>   -1.0222    1.0000 </r>
       <r>    1.7038    1.0000 </r>
       <r>    3.4944    1.0000 </r>
       <r>    7.6962    0.0000 </r>
       <r>   11.0098    0.0000 </r>
       <r>   11.5530    0.0000 </r>
       <r>   12.7972    0.0000 </r>
      </set>
      <set comment="kpoint 106">
       <r>   -3.1308    1.0000 </r>
       <r>   -0.7186    1.0000 </r>
       <r>    1.6074    1.0000 </r>
       <r>    3.7110    1.0000 </r>
       <r>    7.9433    0.0000 </r>
       <r>   10.9202    0.0000 </r>
       <r>   12.2570    0.0000 </r>
       <r>   12.5043    0.0000 </r>
      </set>
      <set comment="kpoint 107">
       <r>   -3.5823    1.0000 </r>
       <r>   -0.2055    1.0000 </r>
       <r>    1.7524    1.0000 </r>
       <r>    3.9921    1.0000 </r>
       <r>    8.2592    0.0000 </r>
       <r>   10.5445    0.0000 </r>
       <r>   11.5155    0.0000 </r>
       <r>   12.2198    0.0000 </r>
      </set>
      <set comment="kpoint 108">
       <r>   -3.6843    1.0000 </r>
       <r>    0.0343    1.0000 </r>
       <r>    2.9790    1.0000 </r>
       <r>    3.1627    1.0000 </r>
       <r>    6.8415    0.0000 </r>
       <r>    7.6779    0.0000 </r>
       <r>   13.0462    0.0000 </r>
       <r>   13.8749    0.0000 </r>
      </set>
      <set comment="kpoint 109">
       <r>   -3.2245    1.0000 </r>
       <r>   -0.5300    1.0000 </r>
       <r>    2.5126    1.0000 </r>
       <r>    3.0570    1.0000 </r>
       <r>    7.1010    0.0000 </r>
       <r>    7.9979    0.0000 </r>
       <r>   12.8592    0.0000 </r>
       <r>   14.2032    0.0000 </r>
      </set>
      <set comment="kpoint 110">
       <r>   -2.7551    1.0000 </r>
       <r>   -1.0382    1.0000 </r>
       <r>    1.9979    1.0000 </r>
       <r>    3.0875    1.0000 </r>
       <r>    7.2218    0.0000 </r>
       <r>    8.8768    0.0000 </r>
       <r>   12.6260    0.0000 </r>
       <r>   14.1680    0.0000 </r>
      </set>
      <set comment="kpoint 111">
       <r>   -2.4815    1.0000 </r>
       <r>   -1.3028    1.0000 </r>
       <r>    1.6069    1.0000 </r>
       <r>    3.2154    1.0000 </r>
       <r>    7.3799    0.0000 </r>
       <r>   10.0088    0.0000 </r>
       <r>   12.3937    0.0000 </r>
       <r>   13.5660    0.0000 </r>
      </set>
      <set comment="kpoint 112">
       <r>   -2.6965    1.0000 </r>
       <r>   -1.0795    1.0000 </r>
       <r>    1.4430    1.0000 </r>
       <r>    3.4284    1.0000 </r>
       <r>    7.6225    0.0000 </r>
       <r>   11.2074    0.0000 </r>
       <r>   12.0700    0.0000 </r>
       <r>   12.5804    0.0000 </r>
      </set>
      <set comment="kpoint 113">
       <r>   -2.8689    1.0000 </r>
       <r>   -0.9856    1.0000 </r>
       <r>    2.8190    1.0000 </r>
       <r>    2.9063    1.0000 </r>
       <r>    6.7911    0.0000 </r>
       <r>    7.1958    0.0000 </r>
       <r>   14.1468    0.0000 </r>
       <r>   15.0633    0.0000 </r>
      </set>
      <set comment="kpoint 114">
       <r>   -2.3890    1.0000 </r>
       <r>   -1.4666    1.0000 </r>
       <r>    2.3517    1.0000 </r>
       <r>    2.8956    1.0000 </r>
       <r>    7.0085    0.0000 </r>
       <r>    7.7479    0.0000 </r>
       <r>   13.9410    0.0000 </r>
       <r>   15.0023    0.0000 </r>
      </set>
      <set comment="kpoint 115">
       <r>   -2.1393    1.0000 </r>
       <r>   -1.6672    1.0000 </r>
       <r>    1.8737    1.0000 </r>
       <r>    3.0116    1.0000 </r>
       <r>    7.1506    0.0000 </r>
       <r>    8.7837    0.0000 </r>
       <r>   13.5628    0.0000 </r>
       <r>   13.8981    0.0000 </r>
      </set>
      <set comment="kpoint 116">
       <r>   -1.9624    1.0000 </r>
       <r>   -1.9624    1.0000 </r>
       <r>    2.7931    1.0000 </r>
       <r>    2.7931    1.0000 </r>
       <r>    6.9043    0.0000 </r>
       <r>    6.9044    0.0000 </r>
       <r>   15.2501    0.0000 </r>
       <r>   15.2502    0.0000 </r>
      </set>
      <set comment="kpoint 117">
       <r>   -4.8005    1.0000 </r>
       <r>    1.5439    1.0000 </r>
       <r>    3.1194    1.0000 </r>
       <r>    4.4054    1.0000 </r>
       <r>    8.2845    0.0000 </r>
       <r>    9.7431    0.0000 </r>
       <r>   10.0330    0.0000 </r>
       <r>   11.3429    0.0000 </r>
      </set>
      <set comment="kpoint 118">
       <r>   -4.3815    1.0000 </r>
       <r>    0.7827    1.0000 </r>
       <r>    2.7223    1.0000 </r>
       <r>    4.1472    1.0000 </r>
       <r>    8.5867    0.0000 </r>
       <r>    9.6701    0.0000 </r>
       <r>   10.1145    0.0000 </r>
       <r>   11.6877    0.0000 </r>
      </set>
      <set comment="kpoint 119">
       <r>   -3.9119    1.0000 </r>
       <r>   -0.0087    1.0000 </r>
       <r>    2.5116    1.0000 </r>
       <r>    3.9033    1.0000 </r>
       <r>    8.7144    0.0000 </r>
       <r>    9.3920    0.0000 </r>
       <r>   10.8587    0.0000 </r>
       <r>   11.7788    0.0000 </r>
      </set>
      <set comment="kpoint 120">
       <r>   -3.4695    1.0000 </r>
       <r>   -0.6682    1.0000 </r>
       <r>    2.4117    1.0000 </r>
       <r>    3.7339    1.0000 </r>
       <r>    8.8008    0.0000 </r>
       <r>    9.1379    0.0000 </r>
       <r>   11.7471    0.0000 </r>
       <r>   11.9201    0.0000 </r>
      </set>
      <set comment="kpoint 121">
       <r>   -3.2592    1.0000 </r>
       <r>   -0.9541    1.0000 </r>
       <r>    2.3829    1.0000 </r>
       <r>    3.6735    1.0000 </r>
       <r>    8.9054    0.0000 </r>
       <r>    8.9691    0.0000 </r>
       <r>   11.7537    0.0000 </r>
       <r>   12.9678    0.0000 </r>
      </set>
      <set comment="kpoint 122">
       <r>   -4.2229    1.0000 </r>
       <r>    0.7246    1.0000 </r>
       <r>    2.7279    1.0000 </r>
       <r>    3.6785    1.0000 </r>
       <r>    7.9791    0.0000 </r>
       <r>    9.0930    0.0000 </r>
       <r>   10.6910    0.0000 </r>
       <r>   12.5760    0.0000 </r>
      </set>
      <set comment="kpoint 123">
       <r>   -3.7663    1.0000 </r>
       <r>    0.0722    1.0000 </r>
       <r>    2.3512    1.0000 </r>
       <r>    3.4293    1.0000 </r>
       <r>    8.2900    0.0000 </r>
       <r>    9.5005    0.0000 </r>
       <r>   10.4344    0.0000 </r>
       <r>   12.9305    0.0000 </r>
      </set>
      <set comment="kpoint 124">
       <r>   -3.2985    1.0000 </r>
       <r>   -0.5559    1.0000 </r>
       <r>    2.0931    1.0000 </r>
       <r>    3.2712    1.0000 </r>
       <r>    8.4193    0.0000 </r>
       <r>   10.0362    0.0000 </r>
       <r>   10.5427    0.0000 </r>
       <r>   12.9990    0.0000 </r>
      </set>
      <set comment="kpoint 125">
       <r>   -2.9777    1.0000 </r>
       <r>   -0.9546    1.0000 </r>
       <r>    1.9259    1.0000 </r>
       <r>    3.2459    1.0000 </r>
       <r>    8.5595    0.0000 </r>
       <r>    9.8687    0.0000 </r>
       <r>   11.6212    0.0000 </r>
       <r>   12.9631    0.0000 </r>
      </set>
      <set comment="kpoint 126">
       <r>   -3.0683    1.0000 </r>
       <r>   -0.8412    1.0000 </r>
       <r>    1.8548    1.0000 </r>
       <r>    3.3519    1.0000 </r>
       <r>    8.7663    0.0000 </r>
       <r>    9.6970    0.0000 </r>
       <r>   11.8753    0.0000 </r>
       <r>   12.8571    0.0000 </r>
      </set>
      <set comment="kpoint 127">
       <r>   -3.4757    1.0000 </r>
       <r>   -0.3274    1.0000 </r>
       <r>    1.9175    1.0000 </r>
       <r>    3.5658    1.0000 </r>
       <r>    9.0417    0.0000 </r>
       <r>    9.5351    0.0000 </r>
       <r>   10.8332    0.0000 </r>
       <r>   12.7915    0.0000 </r>
      </set>
      <set comment="kpoint 128">
       <r>   -3.9474    1.0000 </r>
       <r>    0.2728    1.0000 </r>
       <r>    2.1844    1.0000 </r>
       <r>    3.8511    1.0000 </r>
       <r>    9.1890    0.0000 </r>
       <r>    9.3637    0.0000 </r>
       <r>   10.1910    0.0000 </r>
       <r>   12.4109    0.0000 </r>
      </set>
      <set comment="kpoint 129">
       <r>   -3.5364    1.0000 </r>
       <r>   -0.1313    1.0000 </r>
       <r>    2.4702    1.0000 </r>
       <r>    3.0731    1.0000 </r>
       <r>    7.7833    0.0000 </r>
       <r>    8.4824    0.0000 </r>
       <r>   11.5954    0.0000 </r>
       <r>   13.8354    0.0000 </r>
      </set>
      <set comment="kpoint 130">
       <r>   -3.0615    1.0000 </r>
       <r>   -0.6724    1.0000 </r>
       <r>    2.1004    1.0000 </r>
       <r>    2.8812    1.0000 </r>
       <r>    8.0778    0.0000 </r>
       <r>    9.0957    0.0000 </r>
       <r>   11.3279    0.0000 </r>
       <r>   14.1869    0.0000 </r>
      </set>
      <set comment="kpoint 131">
       <r>   -2.6612    1.0000 </r>
       <r>   -1.0996    1.0000 </r>
       <r>    1.7718    1.0000 </r>
       <r>    2.8723    1.0000 </r>
       <r>    8.2243    0.0000 </r>
       <r>   10.1187    0.0000 </r>
       <r>   11.1181    0.0000 </r>
       <r>   13.2835    0.0000 </r>
      </set>
      <set comment="kpoint 132">
       <r>   -2.6390    1.0000 </r>
       <r>   -1.1146    1.0000 </r>
       <r>    1.5801    1.0000 </r>
       <r>    3.0061    1.0000 </r>
       <r>    8.4271    0.0000 </r>
       <r>   10.6955    0.0000 </r>
       <r>   11.5190    0.0000 </r>
       <r>   12.0654    0.0000 </r>
      </set>
      <set comment="kpoint 133">
       <r>   -3.0119    1.0000 </r>
       <r>   -0.7361    1.0000 </r>
       <r>    1.6049    1.0000 </r>
       <r>    3.2486    1.0000 </r>
       <r>    8.7053    0.0000 </r>
       <r>   10.3842    0.0000 </r>
       <r>   11.0558    0.0000 </r>
       <r>   12.8737    0.0000 </r>
      </set>
      <set comment="kpoint 134">
       <r>   -2.7565    1.0000 </r>
       <r>   -1.0186    1.0000 </r>
       <r>    2.3613    1.0000 </r>
       <r>    2.6490    1.0000 </r>
       <r>    7.7203    0.0000 </r>
       <r>    8.0560    0.0000 </r>
       <r>   12.5981    0.0000 </r>
       <r>   14.7831    0.0000 </r>
      </set>
      <set comment="kpoint 135">
       <r>   -2.3053    1.0000 </r>
       <r>   -1.4447    1.0000 </r>
       <r>    1.9748    1.0000 </r>
       <r>    2.5908    1.0000 </r>
       <r>    7.9684    0.0000 </r>
       <r>    8.8942    0.0000 </r>
       <r>   12.3368    0.0000 </r>
       <r>   13.4627    0.0000 </r>
      </set>
      <set comment="kpoint 136">
       <r>   -2.2534    1.0000 </r>
       <r>   -1.4657    1.0000 </r>
       <r>    1.6456    1.0000 </r>
       <r>    2.7429    1.0000 </r>
       <r>    8.1577    0.0000 </r>
       <r>   10.0567    0.0000 </r>
       <r>   12.0084    0.0000 </r>
       <r>   12.2677    0.0000 </r>
      </set>
      <set comment="kpoint 137">
       <r>   -1.9064    1.0000 </r>
       <r>   -1.9064    1.0000 </r>
       <r>    2.4156    1.0000 </r>
       <r>    2.4156    1.0000 </r>
       <r>    7.8064    0.0000 </r>
       <r>    7.8064    0.0000 </r>
       <r>   13.6917    0.0000 </r>
       <r>   13.6918    0.0000 </r>
      </set>
      <set comment="kpoint 138">
       <r>   -3.3041    1.0000 </r>
       <r>   -0.4021    1.0000 </r>
       <r>    1.9704    1.0000 </r>
       <r>    3.0953    1.0000 </r>
       <r>    9.0074    0.0000 </r>
       <r>    9.5552    0.0000 </r>
       <r>   10.1882    0.0000 </r>
       <r>   13.7685    0.0000 </r>
      </set>
      <set comment="kpoint 139">
       <r>   -2.8510    1.0000 </r>
       <r>   -0.8842    1.0000 </r>
       <r>    1.7677    1.0000 </r>
       <r>    2.8536    1.0000 </r>
       <r>    9.3038    0.0000 </r>
       <r>    9.7456    0.0000 </r>
       <r>   10.5452    0.0000 </r>
       <r>   13.0528    0.0000 </r>
      </set>
      <set comment="kpoint 140">
       <r>   -2.6177    1.0000 </r>
       <r>   -1.1326    1.0000 </r>
       <r>    1.7077    1.0000 </r>
       <r>    2.7659    1.0000 </r>
       <r>    9.3763    0.0000 </r>
       <r>    9.6633    0.0000 </r>
       <r>   11.4901    0.0000 </r>
       <r>   11.9327    0.0000 </r>
      </set>
      <set comment="kpoint 141">
       <r>   -2.5922    1.0000 </r>
       <r>   -1.1075    1.0000 </r>
       <r>    1.9335    1.0000 </r>
       <r>    2.4890    1.0000 </r>
       <r>    8.9419    0.0000 </r>
       <r>    9.2179    0.0000 </r>
       <r>   11.0496    0.0000 </r>
       <r>   13.2254    0.0000 </r>
      </set>
      <set comment="kpoint 142">
       <r>   -2.2388    1.0000 </r>
       <r>   -1.4346    1.0000 </r>
       <r>    1.7716    1.0000 </r>
       <r>    2.3685    1.0000 </r>
       <r>    9.2085    0.0000 </r>
       <r>   10.1329    0.0000 </r>
       <r>   10.8850    0.0000 </r>
       <r>   11.8847    0.0000 </r>
      </set>
      <set comment="kpoint 143">
       <r>   -2.4112    1.0000 </r>
       <r>   -1.2649    1.0000 </r>
       <r>    1.6713    1.0000 </r>
       <r>    2.5268    1.0000 </r>
       <r>    9.4178    0.0000 </r>
       <r>   10.2874    0.0000 </r>
       <r>   10.7677    0.0000 </r>
       <r>   11.7101    0.0000 </r>
      </set>
      <set comment="kpoint 144">
       <r>   -1.8467    1.0000 </r>
       <r>   -1.8467    1.0000 </r>
       <r>    2.0993    1.0000 </r>
       <r>    2.0993    1.0000 </r>
       <r>    9.0082    0.0000 </r>
       <r>    9.0082    0.0000 </r>
       <r>   12.0775    0.0000 </r>
       <r>   12.0776    0.0000 </r>
      </set>
      <set comment="kpoint 145">
       <r>   -1.8205    1.0000 </r>
       <r>   -1.8205    1.0000 </r>
       <r>    1.9795    1.0000 </r>
       <r>    1.9795    1.0000 </r>
       <r>   10.1069    0.0000 </r>
       <r>   10.1070    0.0000 </r>
       <r>   10.8447    0.0000 </r>
       <r>   10.8447    0.0000 </r>
      </set>
     </set>
    </set>
   </array>
  </eigenvalues>
  <separator name="orbital magnetization" >
   <v name="MAGDIPOLOUT">      0.00000000      0.00000000      0.00000000</v>
  </separator>
  <dos>
   <i name="efermi">      6.11930934 </i>
   <total>
    <array>
     <dimension dim="1">gridpoints</dimension>
     <dimension dim="2">spin</dimension>
     <field>energy</field>
     <field>total</field>
     <field>integrated</field>
     <set>
      <set comment="spin 1">
       <r>    -8.1306     0.0000     0.0000 </r>
       <r>    -8.0436     0.0000     0.0000 </r>
       <r>    -7.9566     0.0000     0.0000 </r>
       <r>    -7.8696     0.0000     0.0000 </r>
       <r>    -7.7826     0.0000     0.0000 </r>
       <r>    -7.6957     0.0000     0.0000 </r>
       <r>    -7.6087     0.0000     0.0000 </r>
       <r>    -7.5217     0.0000     0.0000 </r>
       <r>    -7.4347     0.0000     0.0000 </r>
       <r>    -7.3477     0.0000     0.0000 </r>
       <r>    -7.2608     0.0000     0.0000 </r>
       <r>    -7.1738     0.0000     0.0000 </r>
       <r>    -7.0868     0.0000     0.0000 </r>
       <r>    -6.9998     0.0000     0.0000 </r>
       <r>    -6.9128     0.0000     0.0000 </r>
       <r>    -6.8259     0.0000     0.0000 </r>
       <r>    -6.7389     0.0000     0.0000 </r>
       <r>    -6.6519     0.0000     0.0000 </r>
       <r>    -6.5649     0.0000     0.0000 </r>
       <r>    -6.4779     0.0002     0.0000 </r>
       <r>    -6.3909     0.0012     0.0001 </r>
       <r>    -6.3040     0.0051     0.0006 </r>
       <r>    -6.2170     0.0160     0.0020 </r>
       <r>    -6.1300     0.0383     0.0053 </r>
       <r>    -6.0430     0.0722     0.0116 </r>
       <r>    -5.9560     0.1124     0.0214 </r>
       <r>    -5.8691     0.1517     0.0345 </r>
       <r>    -5.7821     0.1859     0.0507 </r>
       <r>    -5.6951     0.2147     0.0694 </r>
       <r>    -5.6081     0.2410     0.0903 </r>
       <r>    -5.5211     0.2654     0.1134 </r>
       <r>    -5.4342     0.2856     0.1383 </r>
       <r>    -5.3472     0.3049     0.1648 </r>
       <r>    -5.2602     0.3288     0.1934 </r>
       <r>    -5.1732     0.3508     0.2239 </r>
       <r>    -5.0862     0.3641     0.2556 </r>
       <r>    -4.9993     0.3784     0.2885 </r>
       <r>    -4.9123     0.4039     0.3236 </r>
       <r>    -4.8253     0.4315     0.3611 </r>
       <r>    -4.7383     0.4463     0.4000 </r>
       <r>    -4.6513     0.4519     0.4393 </r>
       <r>    -4.5644     0.4697     0.4801 </r>
       <r>    -4.4774     0.5068     0.5242 </r>
       <r>    -4.3904     0.5420     0.5714 </r>
       <r>    -4.3034     0.5547     0.6196 </r>
       <r>    -4.2164     0.5573     0.6681 </r>
       <r>    -4.1295     0.5846     0.7189 </r>
       <r>    -4.0425     0.6475     0.7752 </r>
       <r>    -3.9555     0.7134     0.8373 </r>
       <r>    -3.8685     0.7490     0.9024 </r>
       <r>    -3.7815     0.7654     0.9690 </r>
       <r>    -3.6946     0.7958     1.0382 </r>
       <r>    -3.6076     0.8371     1.1111 </r>
       <r>    -3.5206     0.8458     1.1846 </r>
       <r>    -3.4336     0.8031     1.2545 </r>
       <r>    -3.3466     0.7482     1.3196 </r>
       <r>    -3.2596     0.7216     1.3823 </r>
       <r>    -3.1727     0.7134     1.4444 </r>
       <r>    -3.0857     0.6915     1.5045 </r>
       <r>    -2.9987     0.6485     1.5609 </r>
       <r>    -2.9117     0.6060     1.6136 </r>
       <r>    -2.8247     0.5824     1.6643 </r>
       <r>    -2.7378     0.5642     1.7134 </r>
       <r>    -2.6508     0.5273     1.7592 </r>
       <r>    -2.5638     0.4766     1.8007 </r>
       <r>    -2.4768     0.4391     1.8389 </r>
       <r>    -2.3898     0.4194     1.8754 </r>
       <r>    -2.3029     0.3893     1.9092 </r>
       <r>    -2.2159     0.3283     1.9378 </r>
       <r>    -2.1289     0.2526     1.9598 </r>
       <r>    -2.0419     0.1955     1.9768 </r>
       <r>    -1.9549     0.1717     1.9917 </r>
       <r>    -1.8680     0.1648     2.0060 </r>
       <r>    -1.7810     0.1551     2.0195 </r>
       <r>    -1.6940     0.1530     2.0328 </r>
       <r>    -1.6070     0.1917     2.0495 </r>
       <r>    -1.5200     0.2799     2.0738 </r>
       <r>    -1.4331     0.3719     2.1062 </r>
       <r>    -1.3461     0.4221     2.1429 </r>
       <r>    -1.2591     0.4689     2.1837 </r>
       <r>    -1.1721     0.6059     2.2364 </r>
       <r>    -1.0851     0.8497     2.3103 </r>
       <r>    -0.9982     1.0900     2.4051 </r>
       <r>    -0.9112     1.2009     2.5096 </r>
       <r>    -0.8242     1.1619     2.6106 </r>
       <r>    -0.7372     1.0445     2.7015 </r>
       <r>    -0.6502     0.9217     2.7816 </r>
       <r>    -0.5633     0.8192     2.8529 </r>
       <r>    -0.4763     0.7348     2.9168 </r>
       <r>    -0.3893     0.6695     2.9751 </r>
       <r>    -0.3023     0.6217     3.0291 </r>
       <r>    -0.2153     0.5756     3.0792 </r>
       <r>    -0.1283     0.5295     3.1253 </r>
       <r>    -0.0414     0.5007     3.1688 </r>
       <r>     0.0456     0.4853     3.2110 </r>
       <r>     0.1326     0.4649     3.2515 </r>
       <r>     0.2196     0.4389     3.2896 </r>
       <r>     0.3066     0.4128     3.3255 </r>
       <r>     0.3935     0.3880     3.3593 </r>
       <r>     0.4805     0.3673     3.3912 </r>
       <r>     0.5675     0.3471     3.4214 </r>
       <r>     0.6545     0.3268     3.4498 </r>
       <r>     0.7415     0.3209     3.4778 </r>
       <r>     0.8284     0.3278     3.5063 </r>
       <r>     0.9154     0.3167     3.5338 </r>
       <r>     1.0024     0.2785     3.5580 </r>
       <r>     1.0894     0.2474     3.5796 </r>
       <r>     1.1764     0.2482     3.6012 </r>
       <r>     1.2633     0.2705     3.6247 </r>
       <r>     1.3503     0.3166     3.6522 </r>
       <r>     1.4373     0.4215     3.6889 </r>
       <r>     1.5243     0.5950     3.7406 </r>
       <r>     1.6113     0.7857     3.8090 </r>
       <r>     1.6982     0.9341     3.8902 </r>
       <r>     1.7852     1.0277     3.9796 </r>
       <r>     1.8722     1.0802     4.0736 </r>
       <r>     1.9592     1.0940     4.1687 </r>
       <r>     2.0462     1.0702     4.2618 </r>
       <r>     2.1331     1.0341     4.3518 </r>
       <r>     2.2201     1.0237     4.4408 </r>
       <r>     2.3071     1.0539     4.5325 </r>
       <r>     2.3941     1.0933     4.6276 </r>
       <r>     2.4811     1.0979     4.7231 </r>
       <r>     2.5680     1.0700     4.8161 </r>
       <r>     2.6550     1.0568     4.9081 </r>
       <r>     2.7420     1.1056     5.0042 </r>
       <r>     2.8290     1.2253     5.1108 </r>
       <r>     2.9160     1.3667     5.2297 </r>
       <r>     3.0030     1.4590     5.3566 </r>
       <r>     3.0899     1.4808     5.4854 </r>
       <r>     3.1769     1.4679     5.6131 </r>
       <r>     3.2639     1.4512     5.7393 </r>
       <r>     3.3509     1.4228     5.8630 </r>
       <r>     3.4379     1.3714     5.9823 </r>
       <r>     3.5248     1.3308     6.0981 </r>
       <r>     3.6118     1.3541     6.2159 </r>
       <r>     3.6988     1.4219     6.3395 </r>
       <r>     3.7858     1.4394     6.4647 </r>
       <r>     3.8728     1.3621     6.5832 </r>
       <r>     3.9597     1.2518     6.6921 </r>
       <r>     4.0467     1.1879     6.7954 </r>
       <r>     4.1337     1.1876     6.8987 </r>
       <r>     4.2207     1.2135     7.0043 </r>
       <r>     4.3077     1.2183     7.1102 </r>
       <r>     4.3946     1.1849     7.2133 </r>
       <r>     4.4816     1.1340     7.3119 </r>
       <r>     4.5686     1.0810     7.4060 </r>
       <r>     4.6556     1.0111     7.4939 </r>
       <r>     4.7426     0.9142     7.5734 </r>
       <r>     4.8295     0.8005     7.6431 </r>
       <r>     4.9165     0.6825     7.7024 </r>
       <r>     5.0035     0.5751     7.7524 </r>
       <r>     5.0905     0.4920     7.7952 </r>
       <r>     5.1775     0.4359     7.8332 </r>
       <r>     5.2644     0.4019     7.8681 </r>
       <r>     5.3514     0.3720     7.9005 </r>
       <r>     5.4384     0.3259     7.9288 </r>
       <r>     5.5254     0.2638     7.9518 </r>
       <r>     5.6124     0.2007     7.9692 </r>
       <r>     5.6993     0.1459     7.9819 </r>
       <r>     5.7863     0.0997     7.9906 </r>
       <r>     5.8733     0.0608     7.9959 </r>
       <r>     5.9603     0.0309     7.9985 </r>
       <r>     6.0473     0.0124     7.9996 </r>
       <r>     6.1342     0.0050     8.0001 </r>
       <r>     6.2212     0.0063     8.0006 </r>
       <r>     6.3082     0.0175     8.0021 </r>
       <r>     6.3952     0.0431     8.0059 </r>
       <r>     6.4822     0.0854     8.0133 </r>
       <r>     6.5692     0.1400     8.0255 </r>
       <r>     6.6561     0.1994     8.0428 </r>
       <r>     6.7431     0.2630     8.0657 </r>
       <r>     6.8301     0.3346     8.0948 </r>
       <r>     6.9171     0.4096     8.1304 </r>
       <r>     7.0041     0.4739     8.1717 </r>
       <r>     7.0910     0.5205     8.2169 </r>
       <r>     7.1780     0.5605     8.2657 </r>
       <r>     7.2650     0.6033     8.3182 </r>
       <r>     7.3520     0.6361     8.3735 </r>
       <r>     7.4390     0.6491     8.4300 </r>
       <r>     7.5259     0.6810     8.4892 </r>
       <r>     7.6129     0.7906     8.5580 </r>
       <r>     7.6999     0.9710     8.6424 </r>
       <r>     7.7869     1.1405     8.7416 </r>
       <r>     7.8739     1.2458     8.8500 </r>
       <r>     7.9608     1.3211     8.9649 </r>
       <r>     8.0478     1.4128     9.0878 </r>
       <r>     8.1348     1.5081     9.2189 </r>
       <r>     8.2218     1.5574     9.3544 </r>
       <r>     8.3088     1.5246     9.4870 </r>
       <r>     8.3957     1.4148     9.6101 </r>
       <r>     8.4827     1.2746     9.7210 </r>
       <r>     8.5697     1.1611     9.8219 </r>
       <r>     8.6567     1.1098     9.9185 </r>
       <r>     8.7437     1.1229    10.0161 </r>
       <r>     8.8306     1.1797    10.1188 </r>
       <r>     8.9176     1.2817    10.2302 </r>
       <r>     9.0046     1.4720    10.3583 </r>
       <r>     9.0916     1.7410    10.5097 </r>
       <r>     9.1786     1.9520    10.6795 </r>
       <r>     9.2655     1.9729    10.8511 </r>
       <r>     9.3525     1.8391    11.0111 </r>
       <r>     9.4395     1.6845    11.1576 </r>
       <r>     9.5265     1.5818    11.2952 </r>
       <r>     9.6135     1.5224    11.4276 </r>
       <r>     9.7005     1.4738    11.5558 </r>
       <r>     9.7874     1.4093    11.6784 </r>
       <r>     9.8744     1.3367    11.7946 </r>
       <r>     9.9614     1.3012    11.9078 </r>
       <r>    10.0484     1.3178    12.0225 </r>
       <r>    10.1354     1.3408    12.1391 </r>
       <r>    10.2223     1.3267    12.2545 </r>
       <r>    10.3093     1.2758    12.3654 </r>
       <r>    10.3963     1.2195    12.4715 </r>
       <r>    10.4833     1.2036    12.5762 </r>
       <r>    10.5703     1.2466    12.6846 </r>
       <r>    10.6572     1.3125    12.7988 </r>
       <r>    10.7442     1.3561    12.9167 </r>
       <r>    10.8312     1.3614    13.0352 </r>
       <r>    10.9182     1.3203    13.1500 </r>
       <r>    11.0052     1.2260    13.2566 </r>
       <r>    11.0921     1.0963    13.3520 </r>
       <r>    11.1791     0.9719    13.4365 </r>
       <r>    11.2661     0.8877    13.5137 </r>
       <r>    11.3531     0.8684    13.5893 </r>
       <r>    11.4401     0.9412    13.6711 </r>
       <r>    11.5270     1.1025    13.7670 </r>
       <r>    11.6140     1.2801    13.8784 </r>
       <r>    11.7010     1.3911    13.9994 </r>
       <r>    11.7880     1.4124    14.1222 </r>
       <r>    11.8750     1.3537    14.2400 </r>
       <r>    11.9619     1.2166    14.3458 </r>
       <r>    12.0489     1.0206    14.4346 </r>
       <r>    12.1359     0.8265    14.5065 </r>
       <r>    12.2229     0.6989    14.5673 </r>
       <r>    12.3099     0.6487    14.6237 </r>
       <r>    12.3968     0.6348    14.6789 </r>
       <r>    12.4838     0.6273    14.7335 </r>
       <r>    12.5708     0.6402    14.7891 </r>
       <r>    12.6578     0.7045    14.8504 </r>
       <r>    12.7448     0.8356    14.9231 </r>
       <r>    12.8318     1.0059    15.0106 </r>
       <r>    12.9187     1.1348    15.1093 </r>
       <r>    13.0057     1.1331    15.2079 </r>
       <r>    13.0927     0.9788    15.2930 </r>
       <r>    13.1797     0.7468    15.3580 </r>
       <r>    13.2667     0.5498    15.4058 </r>
       <r>    13.3536     0.4489    15.4448 </r>
       <r>    13.4406     0.4264    15.4819 </r>
       <r>    13.5276     0.4319    15.5195 </r>
       <r>    13.6146     0.4395    15.5577 </r>
       <r>    13.7016     0.4557    15.5974 </r>
       <r>    13.7885     0.4789    15.6390 </r>
       <r>    13.8755     0.4864    15.6813 </r>
       <r>    13.9625     0.4736    15.7225 </r>
       <r>    14.0495     0.4681    15.7632 </r>
       <r>    14.1365     0.4757    15.8046 </r>
       <r>    14.2234     0.4444    15.8433 </r>
       <r>    14.3104     0.3342    15.8723 </r>
       <r>    14.3974     0.1876    15.8886 </r>
       <r>    14.4844     0.0774    15.8954 </r>
       <r>    14.5714     0.0291    15.8979 </r>
       <r>    14.6583     0.0250    15.9001 </r>
       <r>    14.7453     0.0438    15.9039 </r>
       <r>    14.8323     0.0740    15.9103 </r>
       <r>    14.9193     0.1089    15.9198 </r>
       <r>    15.0063     0.1384    15.9318 </r>
       <r>    15.0932     0.1511    15.9450 </r>
       <r>    15.1802     0.1483    15.9579 </r>
       <r>    15.2672     0.1402    15.9701 </r>
       <r>    15.3542     0.1251    15.9809 </r>
       <r>    15.4412     0.0948    15.9892 </r>
       <r>    15.5281     0.0559    15.9941 </r>
       <r>    15.6151     0.0248    15.9962 </r>
       <r>    15.7021     0.0088    15.9970 </r>
       <r>    15.7891     0.0045    15.9974 </r>
       <r>    15.8761     0.0058    15.9979 </r>
       <r>    15.9631     0.0078    15.9986 </r>
       <r>    16.0500     0.0077    15.9992 </r>
       <r>    16.1370     0.0053    15.9997 </r>
       <r>    16.2240     0.0025    15.9999 </r>
       <r>    16.3110     0.0008    16.0000 </r>
       <r>    16.3980     0.0002    16.0000 </r>
       <r>    16.4849     0.0000    16.0000 </r>
       <r>    16.5719     0.0000    16.0000 </r>
       <r>    16.6589     0.0000    16.0000 </r>
       <r>    16.7459     0.0000    16.0000 </r>
       <r>    16.8329     0.0000    16.0000 </r>
       <r>    16.9198     0.0000    16.0000 </r>
       <r>    17.0068     0.0000    16.0000 </r>
       <r>    17.0938     0.0000    16.0000 </r>
       <r>    17.1808     0.0000    16.0000 </r>
       <r>    17.2678     0.0000    16.0000 </r>
       <r>    17.3547     0.0000    16.0000 </r>
       <r>    17.4417     0.0000    16.0000 </r>
       <r>    17.5287     0.0000    16.0000 </r>
       <r>    17.6157     0.0000    16.0000 </r>
       <r>    17.7027     0.0000    16.0000 </r>
       <r>    17.7896     0.0000    16.0000 </r>
       <r>    17.8766     0.0000    16.0000 </r>
       <r>    17.9636     0.0000    16.0000 </r>
      </set>
     </set>
    </array>
   </total>
  </dos>
 </calculation>
 <structure name="finalpos" >
  <crystal>
   <varray name="basis" >
    <v>       0.00000000       2.71500000       2.71500000 </v>
    <v>       2.71500000       0.00000000       2.71500000 </v>
    <v>       2.71500000       2.71500000       0.00000000 </v>
   </varray>
   <i name="volume">     40.02575175 </i>
   <varray name="rec_basis" >
    <v>      -0.18416206       0.18416206       0.18416206 </v>
    <v>       0.18416206      -0.18416206       0.18416206 </v>
    <v>       0.18416206       0.18416206      -0.18416206 </v>
   </varray>
  </crystal>
  <varray name="positions" >
   <v>       0.00000000       0.00000000       0.00000000 </v>
   <v>       0.25000000       0.25000000       0.25000000 </v>
  </varray>
 </structure>
</modeling>
