fcc Au                                  
   4.08000000000000     
     0.000000    0.500000    0.500000
     0.500000    0.000000    0.500000
     0.500000    0.500000    0.000000
   Au
     1
Direct
  0.000000  0.000000  0.000000
 
   24   24   24
  82.229      79.098      71.013      60.735      50.323      40.255      30.399      21.244      13.903      9.0991    
  6.4990      5.1670      4.7468      5.1670      6.4990      9.0991      13.903      21.244      30.399      40.255    
  50.323      60.735      71.013      79.098      79.098      73.515      64.464      54.382      44.421      34.614    
  25.133      16.904      10.955      7.4620      5.6347      4.7953      4.7956      5.6351      7.4616      10.954    
  16.905      25.135      34.617      44.422      54.378      64.457      73.507      79.095      71.013      64.464    
  55.851      46.660      37.330      28.025      19.471      12.763      8.4676      6.1405      4.9258      4.5452    
  4.9258      6.1403      8.4671      12.763      19.472      28.028      37.334      46.660      55.845      64.455    
  71.005      73.507      60.735      54.382      46.660      38.268      29.558      21.189      14.203      9.3769    
  6.6083      5.0965      4.4058      4.4057      5.0963      6.6082      9.3766      14.203      21.189      29.559    
  38.270      46.661      54.380      60.731      64.455      64.457      50.323      44.421      37.330      29.558    
  21.791      15.000      10.016      6.9753      5.2578      4.3434      4.0614      4.3435      5.2581      6.9757    
  10.016      14.999      21.789      29.557      37.330      44.422      50.325      54.380      55.845      54.378    
  40.255      34.614      28.025      21.189      15.000      10.247      7.1798      5.3703      4.3224      3.8546    
  3.8546      4.3225      5.3708      7.1809      10.248      15.000      21.188      28.022      34.612      40.254    
  44.422      46.661      46.660      44.422      30.399      25.133      19.471      14.203      10.016      7.1798    
  5.4102      4.3177      3.7476      3.5732      3.7472      4.3172      5.4102      7.1810      10.019      14.206    
  19.472      25.131      30.394      34.612      37.330      38.270      37.334      34.617      21.244      16.904    
  12.763      9.3769      6.9753      5.3703      4.3177      3.7148      3.4473      3.4471      3.7142      4.3164    
  5.3689      6.9754      9.3794      12.767      16.907      21.244      25.131      28.022      29.557      29.559    
  28.028      25.135      13.903      10.955      8.4676      6.6083      5.2578      4.3224      3.7476      3.4473    
  3.3552      3.4477      3.7476      4.3211      5.2552      6.6061      8.4676      10.957      13.907      16.907    
  19.472      21.188      21.789      21.189      19.472      16.905      9.0991      7.4620      6.1405      5.0965    
  4.3434      3.8546      3.5732      3.4471      3.4477      3.5746      3.8560      4.3433      5.0940      6.1366    
  7.4591      9.0994      10.957      12.767      14.206      15.000      14.999      14.203      12.763      10.954    
  6.4990      5.6347      4.9258      4.4058      4.0614      3.8546      3.7472      3.7142      3.7476      3.8560    
  4.0638      4.4080      4.9258      5.6320      6.4951      7.4591      8.4676      9.3794      10.019      10.248    
  10.016      9.3766      8.4671      7.4616      5.1670      4.7953      4.5452      4.4057      4.3435      4.3225    
  4.3172      4.3164      4.3211      4.3433      4.4080      4.5491      4.7983      5.1669      5.6320      6.1366    
  6.6061      6.9754      7.1810      7.1809      6.9757      6.6082      6.1403      5.6351      4.7468      4.7956    
  4.9258      5.0963      5.2581      5.3708      5.4102      5.3689      5.2552      5.0940      4.9258      4.7983    
  4.7507      4.7983      4.9258      5.0940      5.2552      5.3689      5.4102      5.3708      5.2581      5.0963    
  4.9258      4.7956      5.1670      5.6351      6.1403      6.6082      6.9757      7.1809      7.1810      6.9754    
  6.6061      6.1366      5.6320      5.1669      4.7983      4.5491      4.4080      4.3433      4.3211      4.3164    
  4.3172      4.3225      4.3435      4.4057      4.5452      4.7953      6.4990      7.4616      8.4671      9.3766    
  10.016      10.248      10.019      9.3794      8.4676      7.4591      6.4951      5.6320      4.9258      4.4080    
  4.0638      3.8560      3.7476      3.7142      3.7472      3.8546      4.0614      4.4058      4.9258      5.6347    
  9.0991      10.954      12.763      14.203      14.999      15.000      14.206      12.767      10.957      9.0994    
  7.4591      6.1366      5.0940      4.3433      3.8560      3.5746      3.4477      3.4471      3.5732      3.8546    
  4.3434      5.0965      6.1405      7.4620      13.903      16.905      19.472      21.189      21.789      21.188    
  19.472      16.907      13.907      10.957      8.4676      6.6061      5.2552      4.3211      3.7476      3.4477    
  3.3552      3.4473      3.7476      4.3224      5.2578      6.6083      8.4676      10.955      21.244      25.135    
  28.028      29.559      29.557      28.022      25.131      21.244      16.907      12.767      9.3794      6.9754    
  5.3689      4.3164      3.7142      3.4471      3.4473      3.7148      4.3177      5.3703      6.9753      9.3769    
  12.763      16.904      30.399      34.617      37.334      38.270      37.330      34.612      30.394      25.131    
  19.472      14.206      10.019      7.1810      5.4102      4.3172      3.7472      3.5732      3.7476      4.3177    
  5.4102      7.1798      10.016      14.203      19.471      25.133      40.255      44.422      46.660      46.661    
  44.422      40.254      34.612      28.022      21.188      15.000      10.248      7.1809      5.3708      4.3225    
  3.8546      3.8546      4.3224      5.3703      7.1798      10.247      15.000      21.189      28.025      34.614    
  50.323      54.378      55.845      54.380      50.325      44.422      37.330      29.557      21.789      14.999    
  10.016      6.9757      5.2581      4.3435      4.0614      4.3434      5.2578      6.9753      10.016      15.000    
  21.791      29.558      37.330      44.421      60.735      64.457      64.455      60.731      54.380      46.661    
  38.270      29.559      21.189      14.203      9.3766      6.6082      5.0963      4.4057      4.4058      5.0965    
  6.6083      9.3769      14.203      21.189      29.558      38.268      46.660      54.382      71.013      73.507    
  71.005      64.455      55.845      46.660      37.334      28.028      19.472      12.763      8.4671      6.1403    
  4.9258      4.5452      4.9258      6.1405      8.4676      12.763      19.471      28.025      37.330      46.660    
  55.851      64.464      79.098      79.095      73.507      64.457      54.378      44.422      34.617      25.135    
  16.905      10.954      7.4616      5.6351      4.7956      4.7953      5.6347      7.4620      10.955      16.904    
  25.133      34.614      44.421      54.382      64.464      73.515      79.098      73.515      64.464      54.382    
  44.421      34.614      25.133      16.904      10.955      7.4620      5.6347      4.7953      4.7956      5.6351    
  7.4616      10.954      16.905      25.135      34.617      44.422      54.378      64.457      73.507      79.095    
  73.515      66.470      57.323      47.749      38.201      28.741      20.017      13.121      8.6707      6.2607    
  5.0091      4.6161      5.0092      6.2605      8.6700      13.121      20.019      28.746      38.205      47.748    
  57.315      66.458      73.505      76.213      64.464      57.323      48.918      40.081      31.062      22.371    
  15.018      9.8581      6.8778      5.2734      4.5377      4.5376      5.2732      6.8774      9.8575      15.018    
  22.373      31.066      40.084      48.917      57.316      64.456      68.728      68.732      54.382      47.749    
  40.081      31.860      23.630      16.309      10.817      7.4182      5.5331      4.5305      4.2199      4.5307    
  5.5333      7.4179      10.816      16.308      23.629      31.861      40.083      47.750      54.382      59.106    
  60.850      59.107      44.421      38.201      31.062      23.630      16.765      11.353      7.7947      5.7369    
  4.5563      4.0262      4.0264      4.5567      5.7374      7.7950      11.353      16.764      23.628      31.061    
  38.202      44.424      49.165      51.782      51.780      49.161      34.614      28.741      22.371      16.309    
  11.353      7.9300      5.8475      4.5837      3.9205      3.7174      3.9203      4.5838      5.8483      7.9314    
  11.354      16.309      22.370      28.739      34.613      39.349      42.446      43.527      42.445      39.349    
  25.133      20.017      15.018      10.817      7.7947      5.8475      4.5945      3.8746      3.5553      3.5551    
  3.8739      4.5939      5.8476      7.7960      10.819      15.020      20.017      25.131      29.648      32.992    
  34.768      34.769      32.996      29.652      16.904      13.121      9.8581      7.4182      5.7369      4.5837    
  3.8746      3.5053      3.3923      3.5052      3.8738      4.5821      5.7353      7.4181      9.8604      13.124    
  16.907      20.668      23.829      25.922      26.653      25.924      23.832      20.668      10.955      8.6707    
  6.8778      5.5331      4.5563      3.9205      3.5553      3.3923      3.3926      3.5561      3.9205      4.5548    
  5.5303      6.8753      8.6704      10.957      13.523      15.979      17.902      18.954      18.954      17.900    
  15.976      13.519      7.4620      6.2607      5.2734      4.5305      4.0262      3.7174      3.5551      3.5052    
  3.5561      3.7192      4.0279      4.5304      5.2708      6.2566      7.4590      8.8792      10.393      11.758    
  12.709      13.049      12.706      11.754      10.390      8.8789      5.6347      5.0091      4.5377      4.2199    
  4.0264      3.9203      3.8739      3.8738      3.9205      4.0279      4.2226      4.5400      5.0092      5.6320    
  6.3668      7.1451      7.8998      8.5132      8.8587      8.8576      8.5112      7.8994      7.1474      6.3706    
  4.7953      4.6161      4.5376      4.5307      4.5567      4.5838      4.5939      4.5821      4.5548      4.5304    
  4.5400      4.6201      4.7983      5.0773      5.4279      5.7949      6.1137      6.3293      6.4061      6.3301    
  6.1159      5.7984      5.4308      5.0774      4.7956      5.0092      5.2732      5.5333      5.7374      5.8483    
  5.8476      5.7353      5.5303      5.2708      5.0092      4.7983      4.6743      4.6449      4.6890      4.7688    
  4.8457      4.8916      4.8926      4.8480      4.7709      4.6891      4.6424      4.6705      5.6351      6.2605    
  6.8774      7.4179      7.7950      7.9314      7.7960      7.4181      6.8753      6.2566      5.6320      5.0773    
  4.6449      4.3471      4.1644      4.0639      4.0160      4.0025      4.0168      4.0639      4.1624      4.3436    
  4.6421      5.0774      7.4616      8.6700      9.8575      10.816      11.353      11.354      10.819      9.8604    
  8.6704      7.4590      6.3668      5.4279      4.6890      4.1644      3.8254      3.6293      3.5406      3.5402    
  3.6281      3.8234      4.1625      4.6890      5.4305      6.3706      10.954      13.121      15.018      16.308    
  16.764      16.309      15.020      13.124      10.957      8.8792      7.1451      5.7949      4.7688      4.0639    
  3.6293      3.3999      3.3286      3.3990      3.6282      4.0640      4.7709      5.7984      7.1476      8.8789    
  16.905      20.019      22.373      23.629      23.628      22.370      20.017      16.907      13.523      10.393    
  7.8998      6.1137      4.8457      4.0160      3.5406      3.3286      3.3284      3.5406      4.0170      4.8477    
  6.1156      7.8997      10.391      13.519      25.135      28.746      31.066      31.861      31.061      28.739    
  25.131      20.668      15.979      11.758      8.5132      6.3293      4.8916      4.0025      3.5402      3.3990    
  3.5406      4.0034      4.8926      6.3293      8.5110      11.755      15.976      20.668      34.617      38.205    
  40.084      40.083      38.202      34.613      29.648      23.829      17.902      12.709      8.8587      6.4061    
  4.8926      4.0168      3.6281      3.6282      4.0170      4.8926      6.4052      8.8566      12.707      17.901    
  23.831      29.652      44.422      47.748      48.917      47.750      44.424      39.349      32.992      25.922    
  18.954      13.049      8.8576      6.3301      4.8480      4.0639      3.8234      4.0640      4.8477      6.3293    
  8.8566      13.049      18.956      25.924      32.994      39.349      54.378      57.315      57.316      54.382    
  49.165      42.446      34.768      26.653      18.954      12.706      8.5112      6.1159      4.7709      4.1624    
  4.1625      4.7709      6.1156      8.5110      12.707      18.956      26.655      34.768      42.444      49.161    
  64.457      66.458      64.456      59.106      51.782      43.527      34.769      25.924      17.900      11.754    
  7.8994      5.7984      4.6891      4.3436      4.6890      5.7984      7.8997      11.755      17.901      25.924    
  34.768      43.526      51.781      59.107      73.507      73.505      68.728      60.850      51.780      42.445    
  32.996      23.832      15.976      10.390      7.1474      5.4308      4.6424      4.6421      5.4305      7.1476    
  10.391      15.976      23.831      32.994      42.444      51.781      60.853      68.732      79.095      76.213    
  68.732      59.107      49.161      39.349      29.652      20.668      13.519      8.8789      6.3706      5.0774    
  4.6705      5.0774      6.3706      8.8789      13.519      20.668      29.652      39.349      49.161      59.107    
  68.732      76.213      71.013      64.464      55.851      46.660      37.330      28.025      19.471      12.763    
  8.4676      6.1405      4.9258      4.5452      4.9258      6.1403      8.4671      12.763      19.472      28.028    
  37.334      46.660      55.845      64.455      71.005      73.507      64.464      57.323      48.918      40.081    
  31.062      22.371      15.018      9.8581      6.8778      5.2734      4.5377      4.5376      5.2732      6.8774    
  9.8575      15.018      22.373      31.066      40.084      48.917      57.316      64.456      68.728      68.732    
  55.851      48.918      41.024      32.644      24.263      16.768      11.103      7.5764      5.6302      4.5964    
  4.2757      4.5966      5.6302      7.5757      11.101      16.767      24.263      32.646      41.027      48.920    
  55.851      60.853      62.711      60.853      46.660      40.081      32.644      24.917      17.719      11.965    
  8.1376      5.9363      4.6837      4.1191      4.1193      4.6841      5.9365      8.1369      11.963      17.716    
  24.915      32.644      40.085      46.667      51.787      54.661      54.659      51.781      37.330      31.062    
  24.263      17.719      12.273      8.4520      6.1406      4.7627      4.0358      3.8130      4.0359      4.7630    
  6.1414      8.4525      12.272      17.716      24.260      31.061      37.334      42.451      45.849      47.048    
  45.844      42.444      28.025      22.371      16.768      11.965      8.4520      6.2122      4.8076      3.9969    
  3.6372      3.6370      3.9965      4.8078      6.2133      8.4535      11.965      16.767      22.369      28.023    
  32.995      36.686      38.656      38.655      36.684      32.994      19.471      15.018      11.103      8.1376    
  6.1406      4.8076      3.9855      3.5581      3.4273      3.5578      3.9848      4.8069      6.1406      8.1389    
  11.105      15.020      19.471      23.829      27.457      29.848      30.682      29.850      27.460      23.831    
  12.763      9.8581      7.5764      5.9363      4.7627      3.9969      3.5581      3.3626      3.3628      3.5581    
  3.9960      4.7608      5.9346      7.5763      9.8601      12.766      15.978      19.006      21.349      22.624    
  22.625      21.351      19.006      15.976      8.4676      6.8778      5.6302      4.6837      4.0358      3.6372    
  3.4273      3.3628      3.4281      3.6382      4.0358      4.6821      5.6274      6.8753      8.4671      10.393    
  12.437      14.261      15.521      15.970      15.519      14.258      12.434      10.391      6.1405      5.2734    
  4.5964      4.1191      3.8130      3.6370      3.5578      3.5581      3.6382      3.8150      4.1209      4.5964    
  5.2709      6.1365      7.1449      8.2630      9.3735      10.280      10.790      10.789      10.276      9.3704    
  8.2628      7.1476      4.9258      4.5377      4.2757      4.1193      4.0359      3.9965      3.9848      3.9960    
  4.0358      4.1209      4.2785      4.5400      4.9258      5.4279      6.0017      6.5744      7.0764      7.4273    
  7.5535      7.4265      7.0764      6.5764      6.0051      5.4305      4.5452      4.5376      4.5966      4.6841    
  4.7630      4.8078      4.8069      4.7608      4.6821      4.5964      4.5400      4.5490      4.6448      4.8228    
  5.0518      5.2839      5.4698      5.5726      5.5732      5.4718      5.2868      5.0543      4.8230      4.6421    
  4.9258      5.2732      5.6302      5.9365      6.1414      6.2133      6.1406      5.9346      5.6274      5.2709    
  4.9258      4.6448      4.4570      4.3617      4.3350      4.3442      4.3614      4.3696      4.3629      4.3458    
  4.3350      4.3595      4.4536      4.6424      6.1403      6.8774      7.5757      8.1369      8.4525      8.4535    
  8.1389      7.5763      6.8753      6.1365      5.4279      4.8228      4.3617      4.0440      3.8440      3.7304    
  3.6798      3.6800      3.7303      3.8424      4.0411      4.3593      4.8230      5.4308      8.4671      9.8575    
  11.101      11.963      12.272      11.965      11.105      9.8601      8.4671      7.1449      6.0017      5.0518    
  4.3350      3.8440      3.5387      3.3753      3.3240      3.3745      3.5372      3.8426      4.3350      5.0540    
  6.0051      7.1474      12.763      15.018      16.767      17.716      17.716      16.767      15.020      12.766    
  10.393      8.2630      6.5744      5.2839      4.3442      3.7304      3.3753      3.2151      3.2147      3.3746    
  3.7305      4.3459      5.2867      6.5766      8.2628      10.390      19.472      22.373      24.263      24.915    
  24.260      22.369      19.471      15.978      12.437      9.3735      7.0764      5.4698      4.3614      3.6798    
  3.3240      3.2147      3.3241      3.6804      4.3629      5.4713      7.0764      9.3712      12.434      15.976    
  28.028      31.066      32.646      32.644      31.061      28.023      23.829      19.006      14.261      10.280    
  7.4273      5.5726      4.3696      3.6800      3.3745      3.3746      3.6804      4.3702      5.5725      7.4256    
  10.277      14.259      19.006      23.832      37.334      40.084      41.027      40.085      37.334      32.995    
  27.457      21.349      15.521      10.790      7.5535      5.5732      4.3629      3.7303      3.5372      3.7305    
  4.3629      5.5725      7.5520      10.789      15.521      21.351      27.460      32.996      46.660      48.917    
  48.920      46.667      42.451      36.686      29.848      22.624      15.970      10.789      7.4265      5.4718    
  4.3458      3.8424      3.8426      4.3459      5.4713      7.4256      10.789      15.972      22.628      29.850    
  36.684      42.445      55.845      57.316      55.851      51.787      45.849      38.656      30.682      22.625    
  15.519      10.276      7.0764      5.2868      4.3350      4.0411      4.3350      5.2867      7.0764      10.277    
  15.521      22.628      30.684      38.655      45.844      51.780      64.455      64.456      60.853      54.661    
  47.048      38.655      29.850      21.351      14.258      9.3704      6.5764      5.0543      4.3595      4.3593    
  5.0540      6.5766      9.3712      14.259      21.351      29.850      38.655      47.046      54.659      60.850    
  71.005      68.728      62.711      54.659      45.844      36.684      27.460      19.006      12.434      8.2628    
  6.0051      4.8230      4.4536      4.8230      6.0051      8.2628      12.434      19.006      27.460      36.684    
  45.844      54.659      62.711      68.728      73.507      68.732      60.853      51.781      42.444      32.994    
  23.831      15.976      10.391      7.1476      5.4305      4.6421      4.6424      5.4308      7.1474      10.390    
  15.976      23.832      32.996      42.445      51.780      60.850      68.728      73.505      60.735      54.382    
  46.660      38.268      29.558      21.189      14.203      9.3769      6.6083      5.0965      4.4058      4.4057    
  5.0963      6.6082      9.3766      14.203      21.189      29.559      38.270      46.661      54.380      60.731    
  64.455      64.457      54.382      47.749      40.081      31.860      23.630      16.309      10.817      7.4182    
  5.5331      4.5305      4.2199      4.5307      5.5333      7.4179      10.816      16.308      23.629      31.861    
  40.083      47.750      54.382      59.106      60.850      59.107      46.660      40.081      32.644      24.917    
  17.719      11.965      8.1376      5.9363      4.6837      4.1191      4.1193      4.6841      5.9365      8.1369    
  11.963      17.716      24.915      32.644      40.085      46.667      51.787      54.661      54.659      51.781    
  38.268      31.860      24.917      18.213      12.600      8.6396      6.2440      4.8258      4.0764      3.8465    
  4.0765      4.8263      6.2447      8.6395      12.598      18.209      24.914      31.860      38.274      43.535    
  47.053      48.299      47.046      43.526      29.558      23.630      17.719      12.600      8.8202      6.4111    
  4.9237      4.0633      3.6813      3.6812      4.0632      4.9244      6.4126      8.8211      12.599      17.715    
  23.626      29.558      34.772      38.660      40.745      40.742      38.655      34.768      21.189      16.309    
  11.965      8.6396      6.4111      4.9582      4.0606      3.5942      3.4515      3.5938      4.0603      4.9587    
  6.4126      8.6414      11.966      16.307      21.186      25.922      29.850      32.437      33.340      32.437    
  29.850      25.924      14.203      10.817      8.1376      6.2440      4.9237      4.0606      3.5670      3.3474    
  3.3473      3.5666      4.0598      4.9230      6.2443      8.1392      10.819      14.204      17.900      21.349    
  24.001      25.438      25.439      24.003      21.351      17.901      9.3769      7.4182      5.9363      4.8258    
  4.0633      3.5942      3.3474      3.2714      3.3477      3.5941      4.0622      4.8240      5.9349      7.4184    
  9.3787      11.757      14.260      16.472      17.990      18.529      17.990      16.472      14.259      11.755    
  6.6083      5.5331      4.6837      4.0764      3.6813      3.4515      3.3473      3.3477      3.4525      3.6823    
  4.0764      4.6822      5.5306      6.6062      7.8993      9.3728      10.840      12.034      12.704      12.703    
  12.031      10.838      9.3712      7.8997      5.0965      4.5305      4.1191      3.8465      3.6812      3.5938    
  3.5666      3.5941      3.6823      3.8486      4.1210      4.5305      5.0942      5.7950      6.5743      7.3702    
  8.0910      8.6013      8.7855      8.5994      8.0889      7.3700      6.5766      5.7984      4.4058      4.2199    
  4.1193      4.0765      4.0632      4.0603      4.0598      4.0622      4.0764      4.1210      4.2227      4.4080    
  4.6890      5.0518      5.4545      5.8359      6.1328      6.2961      6.2961      6.1333      5.8377      5.4573    
  5.0540      4.6890      4.4057      4.5307      4.6841      4.8263      4.9244      4.9587      4.9230      4.8240    
  4.6822      4.5305      4.4080      4.3470      4.3616      4.4422      4.5598      4.6773      4.7621      4.7931    
  4.7635      4.6796      4.5618      4.4423      4.3593      4.3436      5.0963      5.5333      5.9365      6.2447    
  6.4126      6.4126      6.2443      5.9349      5.5306      5.0942      4.6890      4.3616      4.1310      3.9892    
  3.9129      3.8769      3.8635      3.8641      3.8779      3.9129      3.9875      4.1282      4.3595      4.6891    
  6.6082      7.4179      8.1369      8.6395      8.8211      8.6414      8.1392      7.4184      6.6062      5.7950    
  5.0518      4.4422      3.9892      3.6802      3.4866      3.3816      3.3485      3.3814      3.4854      3.6781    
  3.9874      4.4423      5.0543      5.7984      9.3766      10.816      11.963      12.598      12.599      11.966    
  10.819      9.3787      7.8993      6.5743      5.4545      4.5598      3.9129      3.4866      3.2350      3.1194    
  3.1190      3.2340      3.4856      3.9130      4.5615      5.4573      6.5764      7.8994      14.203      16.308    
  17.716      18.209      17.715      16.307      14.204      11.757      9.3728      7.3702      5.8359      4.6773    
  3.8769      3.3816      3.1194      3.0379      3.1190      3.3816      3.8781      4.6794      5.8376      7.3700    
  9.3704      11.754      21.189      23.629      24.915      24.914      23.626      21.186      17.900      14.260    
  10.840      8.0910      6.1328      4.7621      3.8635      3.3485      3.1190      3.1190      3.3489      3.8644    
  4.7630      6.1328      8.0893      10.838      14.258      17.900      29.559      31.861      32.644      31.860    
  29.558      25.922      21.349      16.472      12.034      8.6013      6.2961      4.7931      3.8641      3.3814    
  3.2340      3.3816      3.8644      4.7930      6.2949      8.5994      12.032      16.472      21.351      25.924    
  38.270      40.083      40.085      38.274      34.772      29.850      24.001      17.990      12.704      8.7855    
  6.2961      4.7635      3.8779      3.4854      3.4856      3.8781      4.7630      6.2949      8.7845      12.704    
  17.992      24.003      29.850      34.769      46.661      47.750      46.667      43.535      38.660      32.437    
  25.438      18.529      12.703      8.5994      6.1333      4.6796      3.9129      3.6781      3.9130      4.6794    
  6.1328      8.5994      12.704      18.533      25.441      32.437      38.655      43.527      54.380      54.382    
  51.787      47.053      40.745      33.340      25.439      17.990      12.031      8.0889      5.8377      4.5618    
  3.9875      3.9874      4.5615      5.8376      8.0893      12.032      17.992      25.441      33.340      40.742    
  47.048      51.782      60.731      59.106      54.661      48.299      40.742      32.437      24.003      16.472    
  10.838      7.3700      5.4573      4.4423      4.1282      4.4423      5.4573      7.3700      10.838      16.472    
  24.003      32.437      40.742      48.299      54.661      59.106      64.455      60.850      54.659      47.046    
  38.655      29.850      21.351      14.259      9.3712      6.5766      5.0540      4.3593      4.3595      5.0543    
  6.5764      9.3704      14.258      21.351      29.850      38.655      47.048      54.661      60.853      64.456    
  64.457      59.107      51.781      43.526      34.768      25.924      17.901      11.755      7.8997      5.7984    
  4.6890      4.3436      4.6891      5.7984      7.8994      11.754      17.900      25.924      34.769      43.527    
  51.782      59.106      64.456      66.458      50.323      44.421      37.330      29.558      21.791      15.000    
  10.016      6.9753      5.2578      4.3434      4.0614      4.3435      5.2581      6.9757      10.016      14.999    
  21.789      29.557      37.330      44.422      50.325      54.380      55.845      54.378      44.421      38.201    
  31.062      23.630      16.765      11.353      7.7947      5.7369      4.5563      4.0262      4.0264      4.5567    
  5.7374      7.7950      11.353      16.764      23.628      31.061      38.202      44.424      49.165      51.782    
  51.780      49.161      37.330      31.062      24.263      17.719      12.273      8.4520      6.1406      4.7627    
  4.0358      3.8130      4.0359      4.7630      6.1414      8.4525      12.272      17.716      24.260      31.061    
  37.334      42.451      45.849      47.048      45.844      42.444      29.558      23.630      17.719      12.600    
  8.8202      6.4111      4.9237      4.0633      3.6813      3.6812      4.0632      4.9244      6.4126      8.8211    
  12.599      17.715      23.626      29.558      34.772      38.660      40.745      40.742      38.655      34.768    
  21.791      16.765      12.273      8.8202      6.5071      5.0113      4.0870      3.6068      3.4600      3.6066    
  4.0870      5.0123      6.5090      8.8221      12.273      16.762      21.787      26.652      30.684      33.341    
  34.268      33.340      30.684      26.655      15.000      11.353      8.4520      6.4111      5.0113      4.0961    
  3.5731      3.3407      3.3406      3.5727      4.0957      5.0118      6.4131      8.4548      11.355      14.999    
  18.952      22.623      25.437      26.961      26.962      25.441      22.628      18.956      10.016      7.7947    