   1   1   1   0
  0.1697933E+02  0.2884996E-09  0.2884996E-09  0.2884996E-09  0.5000000E-15
  1.000000000000000E-004
  CAR 
 fcc Au                                  
     27.75743051     -6.28435604  301      5.55415746      1.00000000
     -6.284  0.0000E+00  0.0000E+00
     -6.171  0.0000E+00  0.0000E+00
     -6.057  0.0000E+00  0.0000E+00
     -5.944 -0.1030E-30 -0.1169E-31
     -5.830 -0.8545E-27 -0.9697E-28
     -5.717 -0.3702E-23 -0.4201E-24
     -5.604 -0.8370E-20 -0.9502E-21
     -5.490 -0.9866E-17 -0.1120E-17
     -5.377 -0.5853E-14 -0.6653E-15
     -5.263 -0.1849E-11 -0.2105E-12
     -5.150 -0.3012E-09 -0.3439E-10
     -5.036 -0.2512E-07 -0.2885E-08
     -4.923 -0.1059E-05 -0.1230E-06
     -4.809 -0.2199E-04 -0.2619E-05
     -4.696 -0.2132E-03 -0.2681E-04
     -4.582 -0.8166E-03 -0.1195E-03
     -4.469 -0.1278E-03 -0.1340E-03
     -4.355  0.5994E-02  0.5461E-03
     -4.242  0.1635E-01  0.2402E-02
     -4.128  0.3208E-01  0.6042E-02
     -4.015  0.4996E-01  0.1171E-01
     -3.901  0.5428E-01  0.1787E-01
     -3.788  0.5431E-01  0.2403E-01
     -3.674  0.5969E-01  0.3081E-01
     -3.561  0.7451E-01  0.3926E-01
     -3.448  0.9713E-01  0.5028E-01
     -3.334  0.1097E+00  0.6273E-01
     -3.221  0.8581E-01  0.7246E-01
     -3.107  0.6463E-01  0.7980E-01
     -2.994  0.9554E-01  0.9064E-01
     -2.880  0.1535E+00  0.1081E+00
     -2.767  0.1751E+00  0.1279E+00
     -2.653  0.1355E+00  0.1433E+00
     -2.540  0.1036E+00  0.1551E+00
     -2.426  0.1493E+00  0.1720E+00
     -2.313  0.2019E+00  0.1949E+00
     -2.199  0.1906E+00  0.2165E+00
     -2.086  0.1933E+00  0.2385E+00
     -1.972  0.2560E+00  0.2675E+00
     -1.859  0.3598E+00  0.3083E+00
     -1.745  0.5077E+00  0.3659E+00
     -1.632  0.5860E+00  0.4324E+00
     -1.519  0.6341E+00  0.5044E+00
     -1.405  0.8539E+00  0.6013E+00
     -1.292  0.1118E+01  0.7282E+00
     -1.178  0.1292E+01  0.8748E+00
     -1.065  0.1565E+01  0.1052E+01
     -0.951  0.1784E+01  0.1255E+01
     -0.838  0.1806E+01  0.1460E+01
     -0.724  0.1819E+01  0.1666E+01
     -0.611  0.1712E+01  0.1860E+01
     -0.497  0.1528E+01  0.2034E+01
     -0.384  0.1552E+01  0.2210E+01
     -0.270  0.1473E+01  0.2377E+01
     -0.157  0.1161E+01  0.2509E+01
     -0.043  0.1194E+01  0.2644E+01
      0.070  0.1580E+01  0.2824E+01
      0.184  0.1795E+01  0.3027E+01
      0.297  0.1885E+01  0.3241E+01
      0.411  0.1877E+01  0.3454E+01
      0.524  0.1805E+01  0.3659E+01
      0.637  0.2002E+01  0.3886E+01
      0.751  0.2222E+01  0.4138E+01
      0.864  0.2194E+01  0.4387E+01
      0.978  0.2257E+01  0.4643E+01
      1.091  0.2677E+01  0.4947E+01
      1.205  0.3209E+01  0.5311E+01
      1.318  0.3019E+01  0.5654E+01
      1.432  0.2265E+01  0.5911E+01
      1.545  0.1700E+01  0.6104E+01
      1.659  0.1426E+01  0.6266E+01
      1.772  0.1515E+01  0.6437E+01
      1.886  0.1650E+01  0.6625E+01
      1.999  0.1695E+01  0.6817E+01
      2.113  0.1988E+01  0.7043E+01
      2.226  0.2242E+01  0.7297E+01
      2.340  0.2055E+01  0.7530E+01
      2.453  0.1700E+01  0.7723E+01
      2.567  0.1812E+01  0.7929E+01
      2.680  0.2029E+01  0.8159E+01
      2.793  0.1636E+01  0.8345E+01
      2.907  0.1321E+01  0.8495E+01
      3.020  0.1615E+01  0.8678E+01
      3.134  0.1743E+01  0.8876E+01
      3.247  0.1630E+01  0.9061E+01
      3.361  0.1969E+01  0.9284E+01
      3.474  0.2510E+01  0.9569E+01
      3.588  0.2667E+01  0.9871E+01
      3.701  0.2383E+01  0.1014E+02
      3.815  0.1764E+01  0.1034E+02
      3.928  0.1232E+01  0.1048E+02
      4.042  0.8522E+00  0.1058E+02
      4.155  0.3970E+00  0.1062E+02
      4.269  0.8990E-01  0.1063E+02
      4.382  0.2867E-01  0.1064E+02
      4.496  0.1642E+00  0.1066E+02
      4.609  0.4033E+00  0.1070E+02
      4.722  0.4796E+00  0.1076E+02
      4.836  0.3518E+00  0.1080E+02
      4.949  0.2112E+00  0.1082E+02
      5.063  0.1394E+00  0.1084E+02
      5.176  0.2215E+00  0.1086E+02
      5.290  0.4034E+00  0.1091E+02
      5.403  0.4456E+00  0.1096E+02
      5.517  0.3094E+00  0.1099E+02
      5.630  0.1926E+00  0.1101E+02
      5.744  0.1955E+00  0.1104E+02
      5.857  0.2056E+00  0.1106E+02
      5.971  0.1815E+00  0.1108E+02
      6.084  0.3085E+00  0.1111E+02
      6.198  0.4421E+00  0.1117E+02
      6.311  0.3590E+00  0.1121E+02
      6.425  0.2748E+00  0.1124E+02
      6.538  0.3094E+00  0.1127E+02
      6.652  0.2965E+00  0.1131E+02
      6.765  0.2102E+00  0.1133E+02
      6.878  0.1740E+00  0.1135E+02
      6.992  0.1944E+00  0.1137E+02
      7.105  0.2415E+00  0.1140E+02
      7.219  0.3176E+00  0.1143E+02
      7.332  0.3788E+00  0.1148E+02
      7.446  0.3488E+00  0.1152E+02
      7.559  0.2647E+00  0.1155E+02
      7.673  0.1858E+00  0.1157E+02
      7.786  0.1290E+00  0.1158E+02
      7.900  0.1890E+00  0.1160E+02
      8.013  0.3466E+00  0.1164E+02
      8.127  0.3458E+00  0.1168E+02
      8.240  0.2329E+00  0.1171E+02
      8.354  0.2150E+00  0.1173E+02
      8.467  0.1870E+00  0.1176E+02
      8.581  0.1733E+00  0.1177E+02
      8.694  0.3648E+00  0.1182E+02
      8.808  0.6056E+00  0.1189E+02
      8.921  0.6020E+00  0.1195E+02
      9.034  0.3590E+00  0.1199E+02
      9.148  0.1291E+00  0.1201E+02
      9.261  0.1210E+00  0.1202E+02
      9.375  0.2873E+00  0.1206E+02
      9.488  0.4355E+00  0.1210E+02
      9.602  0.4162E+00  0.1215E+02
      9.715  0.3575E+00  0.1219E+02
      9.829  0.3199E+00  0.1223E+02
      9.942  0.2451E+00  0.1226E+02
     10.056  0.1773E+00  0.1228E+02
     10.169  0.1479E+00  0.1229E+02
     10.283  0.1616E+00  0.1231E+02
     10.396  0.3105E+00  0.1235E+02
     10.510  0.4706E+00  0.1240E+02
     10.623  0.4413E+00  0.1245E+02
     10.737  0.3450E+00  0.1249E+02
     10.850  0.2944E+00  0.1252E+02
     10.963  0.2917E+00  0.1256E+02
     11.077  0.2966E+00  0.1259E+02
     11.190  0.3287E+00  0.1263E+02
     11.304  0.4372E+00  0.1268E+02
     11.417  0.4690E+00  0.1273E+02
     11.531  0.3756E+00  0.1277E+02
     11.644  0.3495E+00  0.1281E+02
     11.758  0.3412E+00  0.1285E+02
     11.871  0.2338E+00  0.1288E+02
     11.985  0.1532E+00  0.1289E+02
     12.098  0.2053E+00  0.1292E+02
     12.212  0.3959E+00  0.1296E+02
     12.325  0.5159E+00  0.1302E+02
     12.439  0.3508E+00  0.1306E+02
     12.552  0.1023E+00  0.1307E+02
     12.666  0.3590E-01  0.1308E+02
     12.779  0.1788E+00  0.1310E+02
     12.893  0.3911E+00  0.1314E+02
     13.006  0.4140E+00  0.1319E+02
     13.119  0.2816E+00  0.1322E+02
     13.233  0.3375E+00  0.1326E+02
     13.346  0.4777E+00  0.1331E+02
     13.460  0.4469E+00  0.1336E+02
     13.573  0.4511E+00  0.1342E+02
     13.687  0.5910E+00  0.1348E+02
     13.800  0.5302E+00  0.1354E+02
     13.914  0.2273E+00  0.1357E+02
     14.027  0.3951E-02  0.1357E+02
     14.141  0.7878E-02  0.1357E+02
     14.254  0.2223E+00  0.1359E+02
     14.368  0.4906E+00  0.1365E+02
     14.481  0.5059E+00  0.1371E+02
     14.595  0.3299E+00  0.1375E+02
     14.708  0.2482E+00  0.1377E+02
     14.822  0.3166E+00  0.1381E+02
     14.935  0.4849E+00  0.1386E+02
     15.048  0.5617E+00  0.1393E+02
     15.162  0.4373E+00  0.1398E+02
     15.275  0.3797E+00  0.1402E+02
     15.389  0.4415E+00  0.1407E+02
     15.502  0.4206E+00  0.1412E+02
     15.616  0.3884E+00  0.1416E+02
     15.729  0.4255E+00  0.1421E+02
     15.843  0.4695E+00  0.1426E+02
     15.956  0.4460E+00  0.1431E+02
     16.070  0.4206E+00  0.1436E+02
     16.183  0.4890E+00  0.1442E+02
     16.297  0.6871E+00  0.1450E+02
     16.410  0.7450E+00  0.1458E+02
     16.524  0.4331E+00  0.1463E+02
     16.637  0.1780E+00  0.1465E+02
     16.751  0.2636E+00  0.1468E+02
     16.864  0.3836E+00  0.1472E+02
     16.978  0.4390E+00  0.1477E+02
     17.091  0.5768E+00  0.1484E+02
     17.204  0.7182E+00  0.1492E+02
     17.318  0.7632E+00  0.1501E+02
     17.431  0.7919E+00  0.1510E+02
     17.545  0.6722E+00  0.1517E+02
     17.658  0.3498E+00  0.1521E+02
     17.772  0.1719E+00  0.1523E+02
     17.885  0.1817E+00  0.1525E+02
     17.999  0.3213E+00  0.1529E+02
     18.112  0.5468E+00  0.1535E+02
     18.226  0.5711E+00  0.1542E+02
     18.339  0.4632E+00  0.1547E+02
     18.453  0.4818E+00  0.1552E+02
     18.566  0.5378E+00  0.1558E+02
     18.680  0.5260E+00  0.1564E+02
     18.793  0.4464E+00  0.1569E+02
     18.907  0.4160E+00  0.1574E+02
     19.020  0.5959E+00  0.1581E+02
     19.134  0.6434E+00  0.1588E+02
     19.247  0.4290E+00  0.1593E+02
     19.360  0.3545E+00  0.1597E+02
     19.474  0.4666E+00  0.1602E+02
     19.587  0.5860E+00  0.1609E+02
     19.701  0.5727E+00  0.1616E+02
     19.814  0.4277E+00  0.1620E+02
     19.928  0.3959E+00  0.1625E+02
     20.041  0.6164E+00  0.1632E+02
     20.155  0.6661E+00  0.1639E+02
     20.268  0.4199E+00  0.1644E+02
     20.382  0.3097E+00  0.1648E+02
     20.495  0.4162E+00  0.1652E+02
     20.609  0.6339E+00  0.1660E+02
     20.722  0.7257E+00  0.1668E+02
     20.836  0.5860E+00  0.1675E+02
     20.949  0.4944E+00  0.1680E+02
     21.063  0.5365E+00  0.1686E+02
     21.176  0.6517E+00  0.1694E+02
     21.289  0.7591E+00  0.1702E+02
     21.403  0.6776E+00  0.1710E+02
     21.516  0.5041E+00  0.1716E+02
     21.630  0.4886E+00  0.1721E+02
     21.743  0.4884E+00  0.1727E+02
     21.857  0.4350E+00  0.1732E+02
     21.970  0.4205E+00  0.1736E+02
     22.084  0.3673E+00  0.1741E+02
     22.197  0.3110E+00  0.1744E+02
     22.311  0.2901E+00  0.1747E+02
     22.424  0.3550E+00  0.1751E+02
     22.538  0.4239E+00  0.1756E+02
     22.651  0.3172E+00  0.1760E+02
     22.765  0.2601E+00  0.1763E+02
     22.878  0.3632E+00  0.1767E+02
     22.992  0.3397E+00  0.1771E+02
     23.105  0.1819E+00  0.1773E+02
     23.219  0.1385E+00  0.1774E+02
     23.332  0.1553E+00  0.1776E+02
     23.445  0.1157E+00  0.1778E+02
     23.559  0.1293E+00  0.1779E+02
     23.672  0.1990E+00  0.1781E+02
     23.786  0.1879E+00  0.1783E+02
     23.899  0.1352E+00  0.1785E+02
     24.013  0.1694E+00  0.1787E+02
     24.126  0.2623E+00  0.1790E+02
     24.240  0.2419E+00  0.1793E+02
     24.353  0.1039E+00  0.1794E+02
     24.467  0.6033E-01  0.1794E+02
     24.580  0.1351E+00  0.1796E+02
     24.694  0.1667E+00  0.1798E+02
     24.807  0.9529E-01  0.1799E+02
     24.921  0.2446E-01  0.1799E+02
     25.034  0.2860E-02  0.1799E+02
     25.148 -0.1637E-02  0.1799E+02
     25.261 -0.1528E-02  0.1799E+02
     25.375  0.4862E-02  0.1799E+02
     25.488  0.1410E-01  0.1799E+02
     25.601  0.1518E-01  0.1800E+02
     25.715  0.1457E-01  0.1800E+02
     25.828  0.1539E-01  0.1800E+02
     25.942  0.7795E-02  0.1800E+02
     26.055  0.3811E-03  0.1800E+02
     26.169 -0.7633E-03  0.1800E+02
     26.282 -0.2106E-03  0.1800E+02
     26.396 -0.2193E-04  0.1800E+02
     26.509 -0.1058E-05  0.1800E+02
     26.623 -0.2512E-07  0.1800E+02
     26.736 -0.3012E-09  0.1800E+02
     26.850 -0.1849E-11  0.1800E+02
     26.963 -0.5855E-14  0.1800E+02
     27.077 -0.7827E-17  0.1800E+02
     27.190  0.0000E+00  0.1800E+02
     27.304  0.0000E+00  0.1800E+02
     27.417  0.0000E+00  0.1800E+02
     27.530  0.0000E+00  0.1800E+02
     27.644  0.0000E+00  0.1800E+02
     27.757  0.0000E+00  0.1800E+02
     27.75743051     -6.28435604  301      5.55415746      1.00000000
     -6.284  0.0000E+00  0.0000E+00  0.0000E+00
     -6.171  0.0000E+00  0.0000E+00  0.0000E+00
     -6.057  0.0000E+00  0.0000E+00  0.0000E+00
     -5.944 -0.6991E-31 -0.4895E-33 -0.1060E-34
     -5.830 -0.5797E-27 -0.4059E-29 -0.8786E-31
     -5.717 -0.2511E-23 -0.1758E-25 -0.3806E-27
     -5.604 -0.5678E-20 -0.3976E-22 -0.8606E-24
     -5.490 -0.6693E-17 -0.4687E-19 -0.1014E-20
     -5.377 -0.3971E-14 -0.2780E-16 -0.6018E-18
     -5.263 -0.1254E-11 -0.8784E-14 -0.1901E-15
     -5.150 -0.2044E-09 -0.1431E-11 -0.3099E-13
     -5.036 -0.1704E-07 -0.1194E-09 -0.2587E-11
     -4.923 -0.7182E-06 -0.5038E-08 -0.1096E-09
     -4.809 -0.1492E-04 -0.1053E-06 -0.2321E-08
     -4.696 -0.1446E-03 -0.1047E-05 -0.2452E-07
     -4.582 -0.5533E-03 -0.4608E-05 -0.1396E-06
     -4.469 -0.7920E-04 -0.7898E-05 -0.5748E-06
     -4.355  0.4096E-02 -0.3778E-06 -0.1713E-05
     -4.242  0.1110E-01  0.7416E-04  0.1181E-06
     -4.128  0.2153E-01  0.3861E-03  0.1601E-04
     -4.015  0.3329E-01  0.8259E-03  0.4852E-04
     -3.901  0.3590E-01  0.1136E-02  0.1081E-03
     -3.788  0.3553E-01  0.1471E-02  0.1934E-03
     -3.674  0.3860E-01  0.2004E-02  0.3037E-03
     -3.561  0.4760E-01  0.2982E-02  0.5216E-03
     -3.448  0.6129E-01  0.4448E-02  0.9664E-03
     -3.334  0.6855E-01  0.5419E-02  0.1457E-02
     -3.221  0.5316E-01  0.4429E-02  0.1557E-02
     -3.107  0.3930E-01  0.3768E-02  0.1587E-02
     -2.994  0.5690E-01  0.6429E-02  0.2762E-02
     -2.880  0.9015E-01  0.1088E-01  0.5389E-02
     -2.767  0.1016E+00  0.1285E-01  0.7160E-02
     -2.653  0.7765E-01  0.1024E-01  0.6506E-02
     -2.540  0.5756E-01  0.8230E-02  0.6846E-02
     -2.426  0.8043E-01  0.1253E-01  0.1242E-01
     -2.313  0.1065E+00  0.1706E-01  0.1960E-01
     -2.199  0.9764E-01  0.1642E-01  0.2165E-01
     -2.086  0.9593E-01  0.1772E-01  0.2445E-01
     -1.972  0.1215E+00  0.2299E-01  0.4074E-01
     -1.859  0.1522E+00  0.2731E-01  0.8935E-01
     -1.745  0.1840E+00  0.3015E-01  0.1787E+00
     -1.632  0.1848E+00  0.2794E-01  0.2520E+00
     -1.519  0.1744E+00  0.2853E-01  0.3058E+00
     -1.405  0.2103E+00  0.4130E-01  0.4342E+00
     -1.292  0.2428E+00  0.5212E-01  0.6091E+00
     -1.178  0.2316E+00  0.5471E-01  0.7733E+00
     -1.065  0.2183E+00  0.5703E-01  0.1033E+01
     -0.951  0.2035E+00  0.5804E-01  0.1251E+01
     -0.838  0.1803E+00  0.6025E-01  0.1302E+01
     -0.724  0.1500E+00  0.6007E-01  0.1357E+01
     -0.611  0.1142E+00  0.5604E-01  0.1313E+01
     -0.497  0.8928E-01  0.5769E-01  0.1178E+01
     -0.384  0.7070E-01  0.6307E-01  0.1216E+01
     -0.270  0.4563E-01  0.6175E-01  0.1179E+01
     -0.157  0.2284E-01  0.5503E-01  0.9372E+00
     -0.043  0.1545E-01  0.6372E-01  0.9661E+00
      0.070  0.1803E-01  0.8809E-01  0.1278E+01
      0.184  0.1862E-01  0.9619E-01  0.1462E+01
      0.297  0.1836E-01  0.8981E-01  0.1557E+01
      0.411  0.2087E-01  0.7960E-01  0.1569E+01
      0.524  0.2509E-01  0.6850E-01  0.1523E+01
      0.637  0.3295E-01  0.8327E-01  0.1681E+01
      0.751  0.4111E-01  0.1072E+00  0.1846E+01
      0.864  0.4589E-01  0.1029E+00  0.1827E+01
      0.978  0.4652E-01  0.9232E-01  0.1907E+01
      1.091  0.4395E-01  0.1079E+00  0.2286E+01
      1.205  0.4636E-01  0.1396E+00  0.2742E+01
      1.318  0.5009E-01  0.1430E+00  0.2558E+01
      1.432  0.4694E-01  0.1116E+00  0.1903E+01
      1.545  0.3474E-01  0.7617E-01  0.1442E+01
      1.659  0.2060E-01  0.6516E-01  0.1220E+01
      1.772  0.1871E-01  0.8041E-01  0.1284E+01
      1.886  0.2362E-01  0.8487E-01  0.1400E+01
      1.999  0.2457E-01  0.7440E-01  0.1461E+01
      2.113  0.2820E-01  0.7988E-01  0.1729E+01
      2.226  0.2960E-01  0.7910E-01  0.1973E+01
      2.340  0.2226E-01  0.5219E-01  0.1847E+01
      2.453  0.1414E-01  0.3627E-01  0.1547E+01
      2.567  0.1531E-01  0.5120E-01  0.1635E+01
      2.680  0.2199E-01  0.6545E-01  0.1816E+01
      2.793  0.2015E-01  0.5249E-01  0.1465E+01
      2.907  0.1204E-01  0.3162E-01  0.1208E+01
      3.020  0.1013E-01  0.2985E-01  0.1500E+01
      3.134  0.1493E-01  0.3740E-01  0.1608E+01
      3.247  0.1775E-01  0.3502E-01  0.1501E+01
      3.361  0.1744E-01  0.2814E-01  0.1846E+01
      3.474  0.1713E-01  0.2438E-01  0.2381E+01
      3.588  0.1281E-01  0.1898E-01  0.2552E+01
      3.701  0.6979E-02  0.1306E-01  0.2296E+01
      3.815  0.1187E-01  0.1470E-01  0.1686E+01
      3.928  0.3271E-01  0.3116E-01  0.1117E+01
      4.042  0.4724E-01  0.4843E-01  0.7011E+00
      4.155  0.3499E-01  0.4150E-01  0.2808E+00
      4.269  0.1331E-01  0.1851E-01  0.4251E-01
      4.382  0.4277E-02  0.5797E-02  0.1368E-01
      4.496  0.1763E-01  0.1553E-01  0.1154E+00
      4.609  0.4585E-01  0.3812E-01  0.2808E+00
      4.722  0.5794E-01  0.4867E-01  0.3251E+00
      4.836  0.4692E-01  0.4462E-01  0.2197E+00
      4.949  0.2813E-01  0.4149E-01  0.1087E+00
      5.063  0.1188E-01  0.4351E-01  0.5318E-01
      5.176  0.2171E-01  0.5694E-01  0.1004E+00
      5.290  0.5560E-01  0.7437E-01  0.2122E+00
      5.403  0.7123E-01  0.7172E-01  0.2408E+00
      5.517  0.5422E-01  0.4646E-01  0.1675E+00
      5.630  0.3521E-01  0.2790E-01  0.1043E+00
      5.744  0.3219E-01  0.3666E-01  0.9695E-01
      5.857  0.2856E-01  0.4759E-01  0.9361E-01
      5.971  0.2555E-01  0.4380E-01  0.7915E-01
      6.084  0.5537E-01  0.6534E-01  0.1352E+00
      6.198  0.8466E-01  0.9012E-01  0.1931E+00
      6.311  0.6816E-01  0.7380E-01  0.1558E+00
      6.425  0.4046E-01  0.6983E-01  0.1114E+00
      6.538  0.3933E-01  0.9174E-01  0.1139E+00
      6.652  0.4421E-01  0.8757E-01  0.1044E+00
      6.765  0.3859E-01  0.5634E-01  0.7534E-01
      6.878  0.4298E-01  0.3344E-01  0.6798E-01
      6.992  0.5478E-01  0.3159E-01  0.7499E-01
      7.105  0.6136E-01  0.4837E-01  0.8732E-01
      7.219  0.6628E-01  0.7760E-01  0.1111E+00
      7.332  0.6839E-01  0.1060E+00  0.1260E+00
      7.446  0.5966E-01  0.1071E+00  0.1080E+00
      7.559  0.5068E-01  0.7764E-01  0.8221E-01
      7.673  0.4203E-01  0.4593E-01  0.6131E-01
      7.786  0.3128E-01  0.3008E-01  0.4080E-01
      7.900  0.4746E-01  0.4637E-01  0.5512E-01
      8.013  0.8687E-01  0.8724E-01  0.9944E-01
      8.127  0.8886E-01  0.8574E-01  0.9886E-01
      8.240  0.6717E-01  0.5125E-01  0.6820E-01
      8.354  0.6315E-01  0.4772E-01  0.6162E-01
      8.467  0.3996E-01  0.5733E-01  0.4871E-01
      8.581  0.4488E-01  0.4856E-01  0.4218E-01
      8.694  0.1604E+00  0.4100E-01  0.9803E-01
      8.808  0.2767E+00  0.5546E-01  0.1696E+00
      8.921  0.2500E+00  0.7696E-01  0.1678E+00
      9.034  0.1300E+00  0.6449E-01  0.9595E-01
      9.148  0.4970E-01  0.2479E-01  0.2743E-01
      9.261  0.5163E-01  0.2154E-01  0.1972E-01
      9.375  0.9557E-01  0.6527E-01  0.6200E-01
      9.488  0.1444E+00  0.9637E-01  0.1015E+00
      9.602  0.1416E+00  0.8697E-01  0.1013E+00
      9.715  0.1092E+00  0.8073E-01  0.9223E-01
      9.829  0.1006E+00  0.7253E-01  0.7657E-01
      9.942  0.9386E-01  0.4883E-01  0.4705E-01
     10.056  0.5423E-01  0.4799E-01  0.3186E-01
     10.169  0.1527E-01  0.6193E-01  0.3040E-01
     10.283  0.2175E-01  0.6272E-01  0.3387E-01
     10.396  0.7417E-01  0.9475E-01  0.6551E-01
     10.510  0.1280E+00  0.1341E+00  0.9461E-01
     10.623  0.1305E+00  0.1200E+00  0.8251E-01
     10.737  0.9586E-01  0.9691E-01  0.6636E-01
     10.850  0.7253E-01  0.9030E-01  0.5934E-01
     10.963  0.9812E-01  0.7689E-01  0.4805E-01
     11.077  0.1231E+00  0.6354E-01  0.4161E-01
     11.190  0.1044E+00  0.8758E-01  0.5807E-01
     11.304  0.1145E+00  0.1331E+00  0.8097E-01
     11.417  0.1369E+00  0.1386E+00  0.7596E-01
     11.531  0.1116E+00  0.1084E+00  0.6367E-01
     11.644  0.8778E-01  0.1037E+00  0.7506E-01
     11.758  0.7753E-01  0.1043E+00  0.7615E-01
     11.871  0.5747E-01  0.7003E-01  0.4671E-01
     11.985  0.4629E-01  0.4443E-01  0.2115E-01
     12.098  0.5894E-01  0.6144E-01  0.2900E-01
     12.212  0.1028E+00  0.1212E+00  0.6502E-01
     12.325  0.1400E+00  0.1584E+00  0.7684E-01
     12.439  0.1073E+00  0.1061E+00  0.4032E-01
     12.552  0.3533E-01  0.3143E-01  0.6681E-02
     12.666 -0.5294E-03  0.2036E-01  0.6126E-02
     12.779  0.3376E-01  0.6841E-01  0.2823E-01
     12.893  0.1066E+00  0.1220E+00  0.5625E-01
     13.006  0.1185E+00  0.1204E+00  0.6187E-01
     13.119  0.7250E-01  0.8425E-01  0.4891E-01
     13.233  0.7114E-01  0.1077E+00  0.7030E-01
     13.346  0.9123E-01  0.1548E+00  0.1046E+00
     13.460  0.7675E-01  0.1544E+00  0.9234E-01
     13.573  0.6490E-01  0.1771E+00  0.7911E-01
     13.687  0.8657E-01  0.2313E+00  0.1007E+00
     13.800  0.9279E-01  0.1922E+00  0.8847E-01
     13.914  0.4980E-01  0.7472E-01  0.3407E-01
     14.027  0.6418E-02 -0.2536E-02 -0.1753E-02
     14.141  0.6006E-03  0.1370E-02  0.2952E-02
     14.254  0.1925E-01  0.8914E-01  0.4596E-01
     14.368  0.4006E-01  0.2046E+00  0.9736E-01
     14.481  0.5070E-01  0.2077E+00  0.9472E-01
     14.595  0.5824E-01  0.1226E+00  0.4953E-01
     14.708  0.6619E-01  0.8089E-01  0.2458E-01
     14.822  0.7361E-01  0.1076E+00  0.3523E-01
     14.935  0.7464E-01  0.1851E+00  0.7340E-01
     15.048  0.5334E-01  0.2309E+00  0.1022E+00
     15.162  0.2575E-01  0.1855E+00  0.9047E-01
     15.275  0.2223E-01  0.1593E+00  0.8630E-01
     15.389  0.3292E-01  0.1765E+00  0.1014E+00
     15.502  0.2849E-01  0.1624E+00  0.9259E-01
     15.616  0.2063E-01  0.1524E+00  0.7648E-01
     15.729  0.3091E-01  0.1670E+00  0.7804E-01
     15.843  0.4377E-01  0.1838E+00  0.7774E-01
     15.956  0.4364E-01  0.1830E+00  0.5414E-01
     16.070  0.4473E-01  0.1801E+00  0.3807E-01
     16.183  0.4697E-01  0.2065E+00  0.6580E-01
     16.297  0.3867E-01  0.2872E+00  0.1318E+00
     16.410  0.2465E-01  0.3147E+00  0.1520E+00
     16.524  0.9574E-02  0.1860E+00  0.8382E-01
     16.637  0.3085E-02  0.7647E-01  0.3309E-01
     16.751  0.1118E-01  0.1125E+00  0.4898E-01
     16.864  0.2331E-01  0.1588E+00  0.7064E-01
     16.978  0.3050E-01  0.1685E+00  0.8398E-01
     17.091  0.3479E-01  0.2216E+00  0.1049E+00
     17.204  0.3971E-01  0.2903E+00  0.1182E+00
     17.318  0.3883E-01  0.3193E+00  0.1239E+00
     17.431  0.3622E-01  0.3320E+00  0.1398E+00
     17.545  0.3351E-01  0.2754E+00  0.1236E+00
     17.658  0.1961E-01  0.1357E+00  0.6770E-01
     17.772  0.1012E-01  0.6053E-01  0.3915E-01
     17.885  0.1051E-01  0.7070E-01  0.3663E-01
     17.999  0.1207E-01  0.1345E+00  0.5764E-01
     18.112  0.1431E-01  0.2237E+00  0.1025E+00
     18.226  0.1522E-01  0.2231E+00  0.1078E+00
     18.339  0.1984E-01  0.1700E+00  0.8078E-01
     18.453  0.2417E-01  0.1806E+00  0.8155E-01
     18.566  0.1986E-01  0.2124E+00  0.1010E+00
     18.680  0.1897E-01  0.2112E+00  0.9920E-01
     18.793  0.2032E-01  0.1830E+00  0.7436E-01
     18.907  0.1703E-01  0.1691E+00  0.6847E-01
     19.020  0.1921E-01  0.2299E+00  0.1075E+00
     19.134  0.1958E-01  0.2471E+00  0.1168E+00
     19.247  0.1275E-01  0.1616E+00  0.7905E-01
     19.360  0.9568E-02  0.1259E+00  0.6791E-01
     19.474  0.1390E-01  0.1646E+00  0.8580E-01
     19.587  0.2085E-01  0.1936E+00  0.1123E+00
     19.701  0.2103E-01  0.1759E+00  0.1153E+00
     19.814  0.1555E-01  0.1324E+00  0.7830E-01
     19.928  0.1046E-01  0.1314E+00  0.6441E-01
     20.041  0.1032E-01  0.2000E+00  0.1061E+00
     20.155  0.1079E-01  0.2012E+00  0.1115E+00
     20.268  0.6540E-02  0.1047E+00  0.5476E-01
     20.382  0.2036E-02  0.5833E-01  0.2305E-01
     20.495  0.1070E-02  0.9384E-01  0.4098E-01
     20.609  0.4859E-02  0.1712E+00  0.8977E-01
     20.722  0.9917E-02  0.2079E+00  0.1134E+00
     20.836  0.1112E-01  0.1656E+00  0.8352E-01
     20.949  0.1031E-01  0.1231E+00  0.6500E-01
     21.063  0.1381E-01  0.1145E+00  0.8563E-01
     21.176  0.1914E-01  0.1387E+00  0.1073E+00
     21.289  0.1805E-01  0.1702E+00  0.1033E+00
     21.403  0.1129E-01  0.1557E+00  0.8078E-01
     21.516  0.6020E-02  0.1032E+00  0.6375E-01
     21.630  0.5167E-02  0.7274E-01  0.6415E-01
     21.743  0.5648E-02  0.7176E-01  0.5808E-01
     21.857  0.5868E-02  0.8943E-01  0.4569E-01
     21.970  0.6193E-02  0.1043E+00  0.3922E-01
     22.084  0.5428E-02  0.7853E-01  0.3116E-01
     22.197  0.4572E-02  0.4830E-01  0.2650E-01
     22.311  0.5007E-02  0.4158E-01  0.2424E-01
     22.424  0.6431E-02  0.6293E-01  0.3081E-01
     22.538  0.6513E-02  0.9608E-01  0.4035E-01
     22.651  0.3688E-02  0.9398E-01  0.3121E-01
     22.765  0.2272E-02  0.9033E-01  0.2480E-01
     22.878  0.4484E-02  0.9485E-01  0.3775E-01
     22.992  0.5601E-02  0.6390E-01  0.3840E-01
     23.105  0.3720E-02  0.3212E-01  0.1820E-01
     23.219  0.2369E-02  0.4526E-01  0.6630E-02
     23.332  0.1641E-02  0.6156E-01  0.8376E-02
     23.445  0.4426E-03  0.4454E-01  0.9775E-02
     23.559  0.1325E-03  0.4010E-01  0.1264E-01
     23.672  0.9239E-03  0.6523E-01  0.1816E-01
     23.786  0.1535E-02  0.6509E-01  0.1595E-01
     23.899  0.1291E-02  0.4162E-01  0.9671E-02
     24.013  0.8260E-03  0.4768E-01  0.1087E-01
     24.126  0.8763E-03  0.7432E-01  0.1628E-01
     24.240  0.8662E-03  0.6799E-01  0.1458E-01
     24.353  0.3373E-03  0.2998E-01  0.5912E-02
     24.467  0.7353E-05  0.2091E-01  0.3480E-02
     24.580  0.6558E-04  0.4656E-01  0.1021E-01
     24.694  0.1564E-03  0.5733E-01  0.1469E-01
     24.807  0.1021E-03  0.3254E-01  0.8760E-02
     24.921  0.1428E-04  0.6912E-02  0.1270E-02
     25.034 -0.8083E-05 -0.2481E-03 -0.6213E-03
     25.148 -0.3030E-05 -0.7338E-03 -0.2916E-03
     25.261 -0.3813E-06 -0.4192E-03 -0.7210E-04
     25.375 -0.2172E-07  0.1328E-02  0.3517E-03
     25.488 -0.6039E-09  0.3832E-02  0.9757E-03
     25.601 -0.8268E-11  0.4581E-02  0.1229E-02
     25.715  0.1367E-12  0.6029E-02  0.1827E-02
     25.828  0.2193E-12  0.7169E-02  0.2247E-02
     25.942  0.1115E-12  0.3655E-02  0.1148E-02
     26.055  0.5595E-14  0.1886E-03  0.6003E-04
     26.169 -0.1079E-13 -0.3487E-03 -0.1087E-03
     26.282 -0.2981E-14 -0.9647E-04 -0.3010E-04
     26.396 -0.3105E-15 -0.1005E-04 -0.3135E-05
     26.509 -0.1498E-16 -0.4847E-06 -0.1512E-06
     26.623 -0.3556E-18 -0.1151E-07 -0.3591E-08
     26.736 -0.4264E-20 -0.1380E-09 -0.4306E-10
     26.850 -0.2617E-22 -0.8471E-12 -0.2643E-12
     26.963 -0.8288E-25 -0.2682E-14 -0.8370E-15
     27.077 -0.1108E-27 -0.3586E-17 -0.1119E-17
     27.190  0.0000E+00  0.0000E+00  0.0000E+00
     27.304  0.0000E+00  0.0000E+00  0.0000E+00
     27.417  0.0000E+00  0.0000E+00  0.0000E+00
     27.530  0.0000E+00  0.0000E+00  0.0000E+00
     27.644  0.0000E+00  0.0000E+00  0.0000E+00
     27.757  0.0000E+00  0.0000E+00  0.0000E+00
