    1    1    1    1
  0.1697933E+02  0.2884996E-09  0.2884996E-09  0.2884996E-09  0.5000000E-15
  1.000000000000000E-004
  CAR 
 fcc Au                                  
     11    110      9
 
  0.5000000E-01  0.5000000E-01  0.5000000E-01  0.2000000E-02
    1       -4.284356   1.000000
    2        0.840186   1.000000
    3        0.900609   1.000000
    4        0.900609   1.000000
    5        2.406715   1.000000
    6        2.406715   1.000000
    7       21.020392   0.000000
    8       24.104632   0.000000
    9       24.874272   0.000000
 
  0.1500000E+00  0.5000000E-01  0.5000000E-01  0.6000000E-02
    1       -3.828944   1.000000
    2        0.687154   1.000000
    3        1.039745   1.000000
    4        1.071222   1.000000
    5        2.257730   1.000000
    6        2.456838   1.000000
    7       21.323400   0.000000
    8       22.153067   0.000000
    9       24.491831   0.000000
 
  0.2500000E+00  0.5000000E-01  0.5000000E-01  0.6000000E-02
    1       -2.842921   1.000000
    2        0.569674   1.000000
    3        1.191401   1.000000
    4        1.213598   1.000000
    5        2.267403   1.000000
    6        2.672011   1.000000
    7       18.241170   0.000000
    8       21.933195   0.000000
    9       24.648605   0.000000
 
  0.3500000E+00  0.5000000E-01  0.5000000E-01  0.6000000E-02
    1       -1.959425   1.000000
    2        1.011841   1.000000
    3        1.097908   1.000000
    4        1.242549   1.000000
    5        2.757567   1.000000
    6        3.243154   1.000000
    7       14.208752   0.000000
    8       21.256868   0.000000
    9       23.682967   0.000000
 
  0.4500000E+00  0.5000000E-01  0.5000000E-01  0.6000000E-02
    1       -1.737756   1.000000
    2        0.859969   1.000000
    3        0.930451   1.000000
    4        2.751135   1.000000
    5        3.355463   1.000000
    6        4.126827   1.000000
    7       10.419952  -0.000000
    8       20.498704   0.000000
    9       22.755994   0.000000
 
 -0.4500000E+00  0.5000000E-01  0.5000000E-01  0.6000000E-02
    1       -1.732786   1.000000
    2        0.793465   1.000000
    3        0.890942   1.000000
    4        3.160973   1.000000
    5        3.638865   1.000000
    6        5.009265   1.000401
    7        8.746725  -0.000000
    8       20.291982   0.000000
    9       22.811504   0.000000
 
 -0.3500000E+00  0.5000000E-01  0.5000000E-01  0.6000000E-02
    1       -1.764409   1.000000
    2        0.890569   1.000000
    3        1.001241   1.000000
    4        2.184481   1.000000
    5        3.436460   1.000000
    6        3.568276   1.000000
    7       11.597907   0.000000
    8       20.736020   0.000000
    9       23.222811   0.000000
 
 -0.2500000E+00  0.5000000E-01  0.5000000E-01  0.6000000E-02
    1       -2.182787   1.000000
    2        0.821615   1.000000
    3        1.113971   1.000000
    4        1.173827   1.000000
    5        2.667984   1.000000
    6        2.933388   1.000000
    7       15.560419   0.000000
    8       21.636248   0.000000
    9       24.169649   0.000000
 
 -0.1500000E+00  0.5000000E-01  0.5000000E-01  0.6000000E-02
    1       -3.205436   1.000000
    2        0.558472   1.000000
    3        1.183483   1.000000
    4        1.195982   1.000000
    5        2.223699   1.000000
    6        2.547057   1.000000
    7       19.528791   0.000000
    8       22.040340   0.000000
    9       24.656280   0.000000
 
 -0.5000000E-01  0.5000000E-01  0.5000000E-01  0.6000000E-02
    1       -4.052754   1.000000
    2        0.732399   1.000000
    3        0.995896   1.000000
    4        1.001512   1.000000
    5        2.281756   1.000000
    6        2.464308   1.000000
    7       21.255412   0.000000
    8       23.186801   0.000000
    9       24.610586   0.000000
 
  0.1500000E+00  0.1500000E+00  0.5000000E-01  0.6000000E-02
    1       -3.602866   1.000000
    2        0.516863   1.000000
    3        1.195783   1.000000
    4        1.199612   1.000000
    5        2.063195   1.000000
    6        2.574468   1.000000
    7       21.621154   0.000000
    8       22.322295   0.000000
    9       23.927580   0.000000
 
  0.2500000E+00  0.1500000E+00  0.5000000E-01  0.1200000E-01
    1       -2.783601   1.000000
    2        0.269549   1.000000
    3        1.294092   1.000000
    4        1.477815   1.000000
    5        2.012184   1.000000
    6        2.795931   1.000000
    7       19.782468   0.000000
    8       21.589233   0.000000
    9       23.569161   0.000000
 
  0.3500000E+00  0.1500000E+00  0.5000000E-01  0.1200000E-01
    1       -1.776161   1.000000
    2        0.355509   1.000000
    3        0.993422   1.000000
    4        1.487686   1.000000
    5        2.672997   1.000000
    6        3.377737   1.000000
    7       15.790051   0.000000
    8       21.041648   0.000000
    9       22.510342   0.000000
 
  0.4500000E+00  0.1500000E+00  0.5000000E-01  0.1200000E-01
    1       -1.389120   1.000000
    2        0.692008   1.000000
    3        1.228937   1.000000
    4        1.387737   1.000000
    5        3.419908   1.000000
    6        4.559657   1.000000
    7       11.795875   0.000000
    8       20.564497   0.000000
    9       21.232687   0.000000
 
 -0.4500000E+00  0.1500000E+00  0.5000000E-01  0.1200000E-01
    1       -1.366659   1.000000
    2        0.563758   1.000000
    3        1.189328   1.000000
    4        2.123785   1.000000
    5        3.592130   1.000000
    6        6.441164  -0.000000
    7        8.734454  -0.000000
    8       20.104384   0.000000
    9       20.876350   0.000000
 
 -0.3500000E+00  0.1500000E+00  0.5000000E-01  0.1200000E-01
    1       -1.350538   1.000000
    2        0.644219   1.000000
    3        1.214523   1.000000
    4        1.796276   1.000000
    5        3.274904   1.000000
    6        5.263899   1.029758
    7       10.652132  -0.000000
    8       19.768937   0.000000
    9       21.350633   0.000000
 
 -0.2500000E+00  0.1500000E+00  0.5000000E-01  0.1200000E-01
    1       -1.534391   1.000000
    2        0.636609   1.000000
    3        0.945565   1.000000
    4        1.402912   1.000000
    5        2.583623   1.000000
    6        3.918143   1.000000
    7       14.453181   0.000000
    8       20.018620   0.000000
    9       22.457979   0.000000
 
 -0.1500000E+00  0.1500000E+00  0.5000000E-01  0.1200000E-01
    1       -2.428397   1.000000
    2        0.312646   1.000000
    3        1.188832   1.000000
    4        1.501026   1.000000
    5        2.006083   1.000000
    6        3.058326   1.000000
    7       18.380494   0.000000
    8       20.651600   0.000000
    9       24.149080   0.000000
 
 -0.5000000E-01  0.1500000E+00  0.5000000E-01  0.1200000E-01
    1       -3.394625   1.000000
    2        0.520803   1.000000
    3        1.198595   1.000000
    4        1.208909   1.000000
    5        2.103532   1.000000
    6        2.584140   1.000000
    7       20.779245   0.000000
    8       21.776329   0.000000
    9       24.053851   0.000000
 
  0.2500000E+00  0.2500000E+00  0.5000000E-01  0.6000000E-02
    1       -2.236720   1.000000
    2       -0.086257   1.000000
    3        1.447734   1.000000
    4        1.858909   1.000000
    5        2.052344   1.000000
    6        2.916726   1.000000
    7       20.236558   0.000000
    8       21.357475   0.000000
    9       22.487577   0.000000
 
  0.3500000E+00  0.2500000E+00  0.5000000E-01  0.1200000E-01
    1       -1.439706   1.000000
    2       -0.311169   1.000000
    3        1.189614   1.000000
    4        2.207710   1.000000
    5        2.711083   1.000000
    6        3.398810   1.000000
    7       17.508631   0.000000
    8       19.459900   0.000000
    9       21.096660   0.000000
 
  0.4500000E+00  0.2500000E+00  0.5000000E-01  0.1200000E-01
    1       -0.973066   1.000000
    2       -0.051151   1.000000
    3        0.943927   1.000000
    4        2.075539   1.000000
    5        3.507362   1.000000
    6        4.831634   1.000002
    7       13.438359   0.000000
    8       18.773171   0.000000
    9       19.362389   0.000000
 
 -0.4500000E+00  0.2500000E+00  0.5000000E-01  0.1200000E-01
    1       -0.854452   1.000000
    2        0.212231   1.000000
    3        1.147458   1.000000
    4        1.876569   1.000000
    5        3.627514   1.000000
    6        7.281992  -0.000000
    7        9.856823  -0.000000
    8       17.481539   0.000000
    9       19.431651   0.000000
 
 -0.3500000E+00  0.2500000E+00  0.5000000E-01  0.1200000E-01
    1       -0.683866   1.000000
    2        0.277130   1.000000
    3        1.169854   1.000000
    4        1.772120   1.000000
    5        3.229013   1.000000
    6        7.121034  -0.000000
    7       10.383887  -0.000000
    8       16.398081   0.000000
    9       20.630211   0.000000
 
 -0.2500000E+00  0.2500000E+00  0.5000000E-01  0.1200000E-01
    1       -0.604583   1.000000
    2        0.351225   1.000000
    3        0.610379   1.000000
    4        1.852912   1.000000
    5        2.542310   1.000000
    6        5.325652   1.034296
    7       13.771107   0.000000
    8       16.315731   0.000000
    9       21.893775   0.000000
 
 -0.1500000E+00  0.2500000E+00  0.5000000E-01  0.1200000E-01
    1       -1.381629   1.000000
    2        0.234744   1.000000
    3        0.917382   1.000000
    4        1.729970   1.000000
    5        2.144898   1.000000
    6        4.007613   1.000000
    7       15.906074   0.000000
    8       18.556056   0.000000
    9       22.925086   0.000000
 
 -0.5000000E-01  0.2500000E+00  0.5000000E-01  0.1200000E-01
    1       -2.343606   1.000000
    2        0.493389   1.000000
    3        1.161945   1.000000
    4        1.309880   1.000000
    5        2.331210   1.000000
    6        2.985575   1.000000
    7       16.999478   0.000000
    8       21.633212   0.000000
    9       23.689507   0.000000
 
  0.3500000E+00  0.3500000E+00  0.5000000E-01  0.6000000E-02
    1       -1.295918   1.000000
    2       -0.689204   1.000000
    3        2.071705   1.000000
    4        2.737520   1.000000
    5        3.168761   1.000000
    6        3.330933   1.000000
    7       17.438382   0.000000
    8       18.459189   0.000000
    9       18.694020   0.000000
 
  0.4500000E+00  0.3500000E+00  0.5000000E-01  0.1200000E-01
    1       -1.147885   1.000000
    2       -0.798291   1.000000
    3        2.119831   1.000000
    4        3.037271   1.000000
    5        3.521342   1.000000
    6        4.884999   1.000012
    7       14.622912   0.000000
    8       16.758734   0.000000
    9       17.383080   0.000000
 
 -0.4500000E+00  0.3500000E+00  0.5000000E-01  0.1200000E-01
    1       -0.979694   1.000000
    2       -0.484106   1.000000
    3        1.763051   1.000000
    4        2.733845   1.000000
    5        3.725526   1.000000
    6        7.507267  -0.000000
    7       11.417876   0.000000
    8       15.010374   0.000000
    9       17.502751   0.000000
 
 -0.3500000E+00  0.3500000E+00  0.5000000E-01  0.1200000E-01
    1       -0.687508   1.000000
    2        0.024556   1.000000
    3        1.217942   1.000000
    4        2.403661   1.000000
    5        3.401987   1.000000
    6        8.720930  -0.000000
    7       10.848011  -0.000000
    8       13.341332   0.000000
    9       18.831598   0.000000
 
 -0.2500000E+00  0.3500000E+00  0.5000000E-01  0.1200000E-01
    1       -0.406173   1.000000
    2        0.320093   1.000000
    3        0.723636   1.000000
    4        2.045190   1.000000
    5        2.990283   1.000000
    6        6.944834  -0.000000
    7       12.239797   0.000000
    8       14.341556   0.000000
    9       20.623823   0.000000
 
 -0.1500000E+00  0.3500000E+00  0.5000000E-01  0.1200000E-01
    1       -0.992427   1.000000
    2        0.544377   1.000000
    3        1.041519   1.000000
    4        1.547553   1.000000
    5        2.904564   1.000000
    6        5.310454   1.035452
    7       12.178871   0.000000
    8       18.056895   0.000000
    9       21.640083   0.000000
 
 -0.5000000E-01  0.3500000E+00  0.5000000E-01  0.1200000E-01
    1       -1.688258   1.000000
    2        0.893677   1.000000
    3        1.141449   1.000000
    4        1.394510   1.000000
    5        3.037421   1.000000
    6        3.743835   1.000000
    7       12.954915   0.000000
    8       20.932498   0.000000
    9       22.499553   0.000000
 
  0.4500000E+00  0.4500000E+00  0.5000000E-01  0.6000000E-02
    1       -1.408415   1.000000
    2       -1.087251   1.000000
    3        3.420039   1.000000
    4        3.425093   1.000000
    5        3.756894   1.000000
    6        5.382720   1.003265
    7       13.221107   0.000000
    8       16.050265   0.000000
    9       16.387216   0.000000
 
 -0.4500000E+00  0.4500000E+00  0.5000000E-01  0.1200000E-01
    1       -1.335118   1.000000
    2       -1.037260   1.000000
    3        3.041222   1.000000
    4        3.372747   1.000000
    5        3.904106   1.000000
    6        7.404349  -0.000000
    7       11.350860   0.000000
    8       15.012827   0.000000
    9       15.981035   0.000000
 
 -0.3500000E+00  0.4500000E+00  0.5000000E-01  0.1200000E-01
    1       -1.033207   1.000000
    2       -0.575291   1.000000
    3        2.052917   1.000000
    4        2.903357   1.000000
    5        3.722339   1.000000
    6        8.946972  -0.000000
    7       10.520796  -0.000000
    8       13.702145   0.000000
    9       17.155788   0.000000
 
 -0.2500000E+00  0.4500000E+00  0.5000000E-01  0.1200000E-01
    1       -0.722243   1.000000
    2        0.072074   1.000000
    3        1.174805   1.000000
    4        2.181706   1.000000
    5        3.525861   1.000000
    6        8.795077  -0.000000
    7        9.374239  -0.000000
    8       15.341879   0.000000
    9       19.031228   0.000000
 
 -0.1500000E+00  0.4500000E+00  0.5000000E-01  0.1200000E-01
    1       -1.045938   1.000000
    2        0.391781   1.000000
    3        1.454791   1.000000
    4        1.655842   1.000000
    5        3.465996   1.000000
    6        7.263208  -0.000000
    7        8.893504  -0.000000
    8       18.438361   0.000000
    9       20.656528   0.000000
 
 -0.5000000E-01  0.4500000E+00  0.5000000E-01  0.1200000E-01
    1       -1.603193   1.000000
    2        0.734046   1.000000
    3        1.007139   1.000000
    4        2.545094   1.000000
    5        3.547821   1.000000
    6        5.157040   1.008373
    7        9.440160  -0.000000
    8       20.411590   0.000000
    9       21.941266   0.000000
 
 -0.4500000E+00 -0.4500000E+00  0.5000000E-01  0.6000000E-02
    1       -1.483734   1.000000
    2       -1.172327   1.000000
    3        3.536354   1.000000
    4        3.710614   1.000000
    5        3.916924   1.000000
    6        6.606282  -0.000000
    7       11.574806   0.000000
    8       15.547748   0.000000
    9       15.916709   0.000000
 
 -0.3500000E+00 -0.4500000E+00  0.5000000E-01  0.1200000E-01
    1       -1.257231   1.000000
    2       -0.955793   1.000000
    3        2.679003   1.000000
    4        3.307869   1.000000
    5        3.749459   1.000000
    6        6.164175  -0.000070
    7       12.874862   0.000000
    8       15.602611   0.000000
    9       16.443399   0.000000
 
 -0.2500000E+00 -0.4500000E+00  0.5000000E-01  0.1200000E-01
    1       -0.923657   1.000000
    2       -0.300877   1.000000
    3        1.329861   1.000000
    4        2.428008   1.000000
    5        3.675815   1.000000
    6        6.065496  -0.000896
    7       12.365695   0.000000
    8       16.913300   0.000000
    9       18.192169   0.000000
 
 -0.1500000E+00 -0.4500000E+00  0.5000000E-01  0.1200000E-01
    1       -1.093995   1.000000
    2        0.441840   1.000000
    3        1.178637   1.000000
    4        1.583232   1.000000
    5        3.611275   1.000000
    6        5.782254  -0.034234
    7       10.746642  -0.000000
    8       19.542272   0.000000
    9       19.998327   0.000000
 
 -0.3500000E+00 -0.3500000E+00  0.5000000E-01  0.6000000E-02
    1       -1.304253   1.000000
    2       -0.922818   1.000000
    3        2.852407   1.000000
    4        3.146017   1.000000
    5        3.539912   1.000000
    6        4.084880   1.000000
    7       15.400136   0.000000
    8       17.036623   0.000000
    9       17.266158   0.000000
 
 -0.2500000E+00 -0.3500000E+00  0.5000000E-01  0.1200000E-01
    1       -1.135219   1.000000
    2       -0.577469   1.000000
    3        1.522428   1.000000
    4        2.634015   1.000000
    5        3.196414   1.000000
    6        3.938033   1.000000
    7       16.161247   0.000000
    8       18.125526   0.000000
    9       19.019047   0.000000
 
 -0.1500000E+00 -0.3500000E+00  0.5000000E-01  0.1200000E-01
    1       -1.264634   1.000000
    2        0.183925   1.000000
    3        0.830572   1.000000
    4        1.748602   1.000000
    5        3.160561   1.000000
    6        3.927485   1.000000
    7       14.596670   0.000000
    8       20.034924   0.000000
    9       21.131706   0.000000
 
 -0.2500000E+00 -0.2500000E+00  0.5000000E-01  0.6000000E-02
    1       -1.596023   1.000000
    2       -0.402887   1.000000
    3        1.531962   1.000000
    4        2.287257   1.000000
    5        2.535096   1.000000
    6        3.121940   1.000000
    7       18.968195   0.000000
    8       19.862244   0.000000
    9       21.031960   0.000000
 
 -0.1500000E+00 -0.2500000E+00  0.5000000E-01  0.1200000E-01
    1       -2.073262   1.000000
    2       -0.019734   1.000000
    3        1.212459   1.000000
    4        1.815265   1.000000
    5        2.243892   1.000000
    6        3.063486   1.000000
    7       18.709984   0.000000
    8       20.724216   0.000000
    9       22.873655   0.000000
 
 -0.1500000E+00 -0.1500000E+00  0.5000000E-01  0.6000000E-02
    1       -2.969621   1.000000
    2        0.231763   1.000000
    3        1.436840   1.000000
    4        1.489680   1.000000
    5        1.862139   1.000000
    6        2.729509   1.000000
    7       21.224718   0.000000
    8       22.361070   0.000000
    9       22.785852   0.000000
 
  0.1500000E+00  0.1500000E+00  0.1500000E+00  0.2000000E-02
    1       -3.616434   1.000000
    2        0.670664   1.000000
    3        1.088818   1.000000
    4        1.088818   1.000000
    5        2.359423   1.000000
    6        2.359423   1.000000
    7       20.628738   0.000000
    8       21.926807   0.000000
    9       25.476332   0.000000
 
  0.2500000E+00  0.1500000E+00  0.1500000E+00  0.6000000E-02
    1       -2.992138   1.000000
    2        0.465182   1.000000
    3        1.217007   1.000000
    4        1.296576   1.000000
    5        2.048343   1.000000
    6        2.745308   1.000000
    7       19.558171   0.000000
    8       21.353777   0.000000
    9       24.196433   0.000000
 
  0.3500000E+00  0.1500000E+00  0.1500000E+00  0.6000000E-02
    1       -1.940572   1.000000
    2        0.308414   1.000000
    3        1.109823   1.000000
    4        1.579891   1.000000
    5        1.958440   1.000000
    6        3.485790   1.000000
    7       17.091481   0.000000
    8       19.642065   0.000000
    9       23.855828   0.000000
 
  0.4500000E+00  0.1500000E+00  0.1500000E+00  0.6000000E-02
    1       -1.269027   1.000000
    2        0.691482   1.000000
    3        1.064371   1.000000
    4        1.375886   1.000000
    5        2.632515   1.000000
    6        4.545808   1.000000
    7       13.250840   0.000000
    8       19.010042   0.000000
    9       22.285183   0.000000
 
 -0.4500000E+00  0.1500000E+00  0.1500000E+00  0.6000000E-02
    1       -1.236703   1.000000
    2        0.549590   1.000000
    3        1.265210   1.000000
    4        1.900338   1.000000
    5        3.320133   1.000000
    6        6.145069  -0.000120
    7        9.682530  -0.000000
    8       19.033645   0.000000
    9       21.627719   0.000000
 
 -0.3500000E+00  0.1500000E+00  0.1500000E+00  0.6000000E-02
    1       -1.275676   1.000000
    2        0.522939   1.000000
    3        1.314164   1.000000
    4        1.728547   1.000000
    5        3.670334   1.000000
    6        6.117636  -0.000250
    7        9.514183  -0.000000
    8       19.785330   0.000000
    9       21.418053   0.000000
 
 -0.2500000E+00  0.1500000E+00  0.1500000E+00  0.6000000E-02
    1       -1.356300   1.000000
    2        0.623244   1.000000
    3        0.851287   1.000000
    4        1.476704   1.000000
    5        3.521166   1.000000
    6        4.017648   1.000000
    7       13.119255   0.000000
    8       20.971559   0.000000
    9       21.255985   0.000000
 
 -0.1500000E+00  0.1500000E+00  0.1500000E+00  0.6000000E-02
    1       -1.966867   1.000000
    2        0.109962   1.000000
    3        1.116444   1.000000
    4        1.611075   1.000000
    5        2.598349   1.000000
    6        3.067412   1.000000
    7       17.248075   0.000000
    8       21.862611   0.000000
    9       22.160971   0.000000
 
  0.2500000E+00  0.2500000E+00  0.1500000E+00  0.6000000E-02
    1       -2.630586   1.000000
    2        0.354725   1.000000
    3        1.236207   1.000000
    4        1.368877   1.000000
    5        2.235311   1.000000
    6        2.793240   1.000000
    7       18.400091   0.000000
    8       22.184289   0.000000
    9       23.360609   0.000000
 
  0.3500000E+00  0.2500000E+00  0.1500000E+00  0.1200000E-01
    1       -1.770990   1.000000
    2        0.099435   1.000000
    3        1.017092   1.000000
    4        1.785862   1.000000
    5        2.217576   1.000000
    6        3.464446   1.000000
    7       17.229354   0.000000
    8       19.670538   0.000000
    9       22.955389   0.000000
 
  0.4500000E+00  0.2500000E+00  0.1500000E+00  0.1200000E-01
    1       -0.845338   1.000000
    2        0.122568   1.000000
    3        0.625179   1.000000
    4        2.013794   1.000000
    5        2.526325   1.000000
    6        4.639965   1.000000
    7       14.808435   0.000000
    8       17.433352   0.000000
    9       21.454908   0.000000
 
 -0.4500000E+00  0.2500000E+00  0.1500000E+00  0.1200000E-01
    1       -0.709843   1.000000
    2        0.298842   1.000000
    3        0.934342   1.000000
    4        1.816991   1.000000
    5        3.220392   1.000000
    6        6.315039  -0.000001
    7       11.241126   0.000000
    8       17.185445   0.000000
    9       20.054002   0.000000
 
 -0.3500000E+00  0.2500000E+00  0.1500000E+00  0.1200000E-01
    1       -0.778917   1.000000
    2        0.208477   1.000000
    3        1.269475   1.000000
    4        1.749146   1.000000
    5        3.512534   1.000000
    6        7.988883  -0.000000
    7        8.921195  -0.000000
    8       17.795835   0.000000
    9       19.021777   0.000000
 
 -0.2500000E+00  0.2500000E+00  0.1500000E+00  0.1200000E-01
    1       -0.827967   1.000000
    2        0.300546   1.000000
    3        0.696407   1.000000
    4        1.944020   1.000000
    5        3.345168   1.000000
    6        5.565051   0.453979
    7       12.247463   0.000000
    8       18.055191   0.000000
    9       19.615237   0.000000
 
 -0.1500000E+00  0.2500000E+00  0.1500000E+00  0.1200000E-01
    1       -1.161970   1.000000
    2       -0.130193   1.000000
    3        0.845130   1.000000
    4        2.139040   1.000000
    5        2.627974   1.000000
    6        3.980498   1.000000
    7       16.065254   0.000000
    8       18.522361   0.000000
    9       21.211738   0.000000
 
  0.3500000E+00  0.3500000E+00  0.1500000E+00  0.6000000E-02
    1       -1.375379   1.000000
    2       -0.141438   1.000000
    3        1.043500   1.000000
    4        1.915381   1.000000
    5        3.261723   1.000000
    6        3.336217   1.000000
    7       16.042466   0.000000
    8       20.384613   0.000000
    9       21.095245   0.000000
 
  0.4500000E+00  0.3500000E+00  0.1500000E+00  0.1200000E-01
    1       -0.845373   1.000000
    2       -0.349882   1.000000
    3        0.952349   1.000000
    4        2.536298   1.000000
    5        3.064384   1.000000
    6        4.709228   1.000000
    7       14.884474   0.000000
    8       17.335709   0.000000
    9       19.271324   0.000000
 
 -0.4500000E+00  0.3500000E+00  0.1500000E+00  0.1200000E-01
    1       -0.490068   1.000000
    2       -0.194729   1.000000
    3        0.734439   1.000000
    4        2.616846   1.000000
    5        3.353776   1.000000
    6        6.581401  -0.000000
    7       12.878467   0.000000
    8       15.317861   0.000000
    9       17.726135   0.000000
 
 -0.3500000E+00  0.3500000E+00  0.1500000E+00  0.1200000E-01
    1       -0.321233   1.000000
    2       -0.028996   1.000000
    3        0.761864   1.000000
    4        2.252594   1.000000
    5        3.586080   1.000000
    6        8.903069  -0.000000
    7       10.116483  -0.000000
    8       14.963034   0.000000
    9       17.100627   0.000000
 
 -0.2500000E+00  0.3500000E+00  0.1500000E+00  0.1200000E-01
    1       -0.099858   1.000000
    2        0.010081   1.000000
    3        0.393492   1.000000
    4        2.333279   1.000000
    5        3.328424   1.000000
    6        7.327084  -0.000000
    7       12.244916   0.000000
    8       14.397508   0.000000
    9       18.102256   0.000000
 
 -0.1500000E+00  0.3500000E+00  0.1500000E+00  0.1200000E-01
    1       -0.501624   1.000000
    2       -0.008507   1.000000
    3        0.480233   1.000000
    4        2.357704   1.000000
    5        2.956433   1.000000
    6        5.470078   0.823303
    7       13.798627   0.000000
    8       16.339022   0.000000
    9       19.598893   0.000000
 
  0.4500000E+00  0.4500000E+00  0.1500000E+00  0.6000000E-02
    1       -1.079312   1.000000
    2       -0.613936   1.000000
    3        1.838978   1.000000
    4        2.628773   1.000000
    5        3.725845   1.000000
    6        5.346888   1.028500
    7       13.540123   0.000000
    8       16.886457   0.000000
    9       17.972518   0.000000
 
 -0.4500000E+00  0.4500000E+00  0.1500000E+00  0.1200000E-01
    1       -0.978157   1.000000
    2       -0.695124   1.000000
    3        1.867082   1.000000
    4        3.049487   1.000000
    5        3.713035   1.000000
    6        7.092613  -0.000000
    7       12.390708   0.000000
    8       15.067236   0.000000
    9       16.312298   0.000000
 
 -0.3500000E+00  0.4500000E+00  0.1500000E+00  0.1200000E-01
    1       -0.715196   1.000000
    2       -0.388500   1.000000
    3        1.411138   1.000000
    4        2.636867   1.000000
    5        3.898824   1.000000
    6        9.460122  -0.000000
    7       10.927588  -0.000000
    8       13.598340   0.000000
    9       15.551411   0.000000
 
 -0.2500000E+00  0.4500000E+00  0.1500000E+00  0.1200000E-01
    1       -0.374994   1.000000
    2        0.067987   1.000000
    3        0.719462   1.000000
    4        2.314752   1.000000
    5        3.679624   1.000000
    6        9.190942  -0.000000
    7       11.198165   0.000000
    8       13.193974   0.000000
    9       16.686572   0.000000
 
 -0.1500000E+00  0.4500000E+00  0.1500000E+00  0.1200000E-01
    1       -0.444902   1.000000
    2        0.053523   1.000000
    3        0.836210   1.000000
    4        2.079269   1.000000
    5        3.440599   1.000000
    6        7.588707  -0.000000
    7       10.475517  -0.000000
    8       16.299264   0.000000
    9       18.273054   0.000000
 
 -0.4500000E+00 -0.4500000E+00  0.1500000E+00  0.6000000E-02
    1       -1.237993   1.000000
    2       -0.870253   1.000000
    3        2.692218   1.000000
    4        3.180611   1.000000
    5        3.794948   1.000000
    6        8.034314  -0.000000
    7       11.010635  -0.000000
    8       14.247721   0.000000
    9       16.796816   0.000000
 
 -0.3500000E+00 -0.4500000E+00  0.1500000E+00  0.1200000E-01
    1       -1.061194   1.000000
    2       -0.770462   1.000000
    3        2.213363   1.000000
    4        3.041181   1.000000
    5        3.900247   1.000000
    6        8.466798  -0.000000
    7       11.048199   0.000000
    8       14.380731   0.000000
    9       15.789217   0.000000
 
 -0.2500000E+00 -0.4500000E+00  0.1500000E+00  0.1200000E-01
    1       -0.619435   1.000000
    2       -0.327853   1.000000
    3        1.123856   1.000000
    4        2.688469   1.000000
    5        3.691512   1.000000
    6        7.955496  -0.000000
    7       11.993377   0.000000
    8       14.345819   0.000000
    9       16.261135   0.000000
 
 -0.3500000E+00 -0.3500000E+00  0.1500000E+00  0.6000000E-02
    1       -1.169627   1.000000
    2       -0.783004   1.000000
    3        2.372775   1.000000
    4        2.959859   1.000000
    5        3.796351   1.000000
    6        6.718815  -0.000000
    7       12.253912   0.000000
    8       15.181540   0.000000
    9       17.199774   0.000000
 
 -0.2500000E+00 -0.3500000E+00  0.1500000E+00  0.1200000E-01
    1       -0.860814   1.000000
    2       -0.548021   1.000000
    3        1.379568   1.000000
    4        2.883639   1.000000
    5        3.421935   1.000000
    6        5.757105  -0.026590
    7       13.684244   0.000000
    8       16.172655   0.000000
    9       17.491602   0.000000
 
 -0.2500000E+00 -0.2500000E+00  0.1500000E+00  0.6000000E-02
    1       -1.082543   1.000000
    2       -0.387336   1.000000
    3        1.299288   1.000000
    4        2.264752   1.000000
    5        3.566143   1.000000
    6        4.178936   1.000000
    7       14.795967   0.000000
    8       18.991776   0.000000
    9       19.058110   0.000000
 
  0.2500000E+00  0.2500000E+00  0.2500000E+00  0.2000000E-02
    1       -2.561727   1.000000
    2        0.730034   1.000000
    3        1.156209   1.000000
    4        1.156209   1.000000
    5        2.586647   1.000000
    6        2.586647   1.000000