 vasp.5.4.4.18Apr17-6-g9f103f2a35 (build May 20 2018 16:52:39) complex          
  
 executed on             LinuxIFC date 2022.09.19  16:54:30
 running on    1 total cores
 distrk:  each k-point on    1 cores,    1 groups
 distr:  one band on NCORES_PER_BAND=   1 cores,    1 groups


--------------------------------------------------------------------------------------------------------


 INCAR:
 POTCAR:   PAW Au 04Feb1998                       
 POTCAR:   PAW Au 04Feb1998                       
   VRHFIN =Au: s1d10                                                            
   LEXCH  = CA                                                                  
   EATOM  =   929.4667 eV,   68.3139 Ry                                         
                                                                                
   TITEL  = PAW Au 04Feb1998                                                    
   LULTRA =        F    use ultrasoft PP ?                                      
   IUNSCR =        1    unscreen: 0-lin 1-nonlin 2-no                           
   RPACOR =    2.330    partial core radius                                     
   POMASS =  196.966; ZVAL   =   11.000    mass and valenz                      
   RCORE  =    2.500    outmost cutoff radius                                   
   RWIGS  =    2.840; RWIGS  =    1.503    wigner-seitz radius (au A)           
   ENMAX  =  229.869; ENMIN  =  172.402 eV                                      
   RCLOC  =    1.964    cutoff for local pot                                    
   LCOR   =        T    correct aug charges                                     
   LPAW   =        T    paw PP                                                  
   EAUG   =  356.670                                                            
   DEXC   =    -.020                                                            
   RMAX   =    3.041    core radius for proj-oper                               
   RDEP   =    2.598    core radius for depl-charge                             
   QCUT   =   -4.110; QGAM   =    8.221    optimization parameters              
                                                                                
   Description                                                                  
     l     E      TYP  RCUT    TYP  RCUT                                        
     2   .000     23  2.500                                                     
     2   .000     23  2.500                                                     
     0   .000     23  2.500                                                     
     0   .000     23  2.500                                                     
     1  -.200     23  2.500                                                     
     1   .000     23  2.500                                                     
     3   .000      7   .000                                                     
  local pseudopotential read in
  partial core-charges read in
  atomic valenz-charges read in
  non local Contribution for L=           2  read in
    real space projection operators read in
  non local Contribution for L=           2  read in
    real space projection operators read in
  non local Contribution for L=           0  read in
    real space projection operators read in
  non local Contribution for L=           0  read in
    real space projection operators read in
  non local Contribution for L=           1  read in
    real space projection operators read in
  non local Contribution for L=           1  read in
    real space projection operators read in
    PAW grid and wavefunctions read in
 
   number of l-projection  operators is LMAX  =           6
   number of lm-projection operators is LMMAX =          18
 
 PAW Au 04Feb1998                       :
 energy of atom  1       EATOM= -929.4667
 kinetic energy error for atom=    0.0453 (will be added to EATOM!!)
 
 
 POSCAR: Au bulk FCC                             
  positions in direct lattice
  No initial velocities read in
 exchange correlation table for  LEXCH =        2
   RHO(1)=    0.500       N(1)  =     2000
   RHO(2)=  100.500       N(2)  =     4000
 


--------------------------------------------------------------------------------------------------------


 ion  position               nearest neighbor table
   1  0.000  0.000  0.000-
 
  LATTYP: Found a face centered cubic cell.
 ALAT       =     4.0800000000
  
  Lattice vectors:
  
 A1 = (   0.0000000000,   2.0400000000,   2.0400000000)
 A2 = (   2.0400000000,   0.0000000000,   2.0400000000)
 A3 = (   2.0400000000,   2.0400000000,   0.0000000000)


Analysis of symmetry for initial positions (statically):
=====================================================================
 Subroutine PRICEL returns:
 Original cell was already a primitive cell.
 

 Routine SETGRP: Setting up the symmetry group for a 
 face centered cubic supercell.


 Subroutine GETGRP returns: Found 48 space group operations
 (whereof 48 operations were pure point group operations)
 out of a pool of 48 trial point group operations.


The static configuration has the point symmetry O_h .


Analysis of symmetry for dynamics (positions and initial velocities):
=====================================================================
 Subroutine PRICEL returns:
 Original cell was already a primitive cell.
 

 Routine SETGRP: Setting up the symmetry group for a 
 face centered cubic supercell.


 Subroutine GETGRP returns: Found 48 space group operations
 (whereof 48 operations were pure point group operations)
 out of a pool of 48 trial point group operations.


The dynamic configuration has the point symmetry O_h .


 Subroutine INISYM returns: Found 48 space group operations
 (whereof 48 operations are pure point group operations),
 and found     1 'primitive' translations

 
 
 KPOINTS: 10x10x10                                

Automatic generation of k-mesh.
Space group operators:
 irot       det(A)        alpha          n_x          n_y          n_z        tau_x        tau_y        tau_z
    1     1.000000     0.000001     1.000000     0.000000     0.000000     0.000000     0.000000     0.000000
    2    -1.000000     0.000001     1.000000     0.000000     0.000000     0.000000     0.000000     0.000000
    3     1.000000   120.000000    -0.577350    -0.577350    -0.577350     0.000000     0.000000     0.000000
    4    -1.000000   120.000000    -0.577350    -0.577350    -0.577350     0.000000     0.000000     0.000000
    5     1.000000   120.000000     0.577350     0.577350     0.577350     0.000000     0.000000     0.000000
    6    -1.000000   120.000000     0.577350     0.577350     0.577350     0.000000     0.000000     0.000000
    7     1.000000    90.000000     0.000000     0.000000    -1.000000     0.000000     0.000000     0.000000
    8    -1.000000    90.000000     0.000000     0.000000    -1.000000     0.000000     0.000000     0.000000
    9     1.000000   180.000000     0.000000     0.707107     0.707107     0.000000     0.000000     0.000000
   10    -1.000000   180.000000     0.000000     0.707107     0.707107     0.000000     0.000000     0.000000
   11     1.000000    90.000000     0.000000     1.000000     0.000000     0.000000     0.000000     0.000000
   12    -1.000000    90.000000     0.000000     1.000000     0.000000     0.000000     0.000000     0.000000
   13     1.000000   180.000000     0.000000     0.000000     1.000000     0.000000     0.000000     0.000000
   14    -1.000000   180.000000     0.000000     0.000000     1.000000     0.000000     0.000000     0.000000
   15     1.000000   120.000000    -0.577350     0.577350     0.577350     0.000000     0.000000     0.000000
   16    -1.000000   120.000000    -0.577350     0.577350     0.577350     0.000000     0.000000     0.000000
   17     1.000000   120.000000    -0.577350     0.577350    -0.577350     0.000000     0.000000     0.000000
   18    -1.000000   120.000000    -0.577350     0.577350    -0.577350     0.000000     0.000000     0.000000
   19     1.000000    90.000000     0.000000     0.000000     1.000000     0.000000     0.000000     0.000000
   20    -1.000000    90.000000     0.000000     0.000000     1.000000     0.000000     0.000000     0.000000
   21     1.000000    90.000000    -1.000000     0.000000     0.000000     0.000000     0.000000     0.000000
   22    -1.000000    90.000000    -1.000000     0.000000     0.000000     0.000000     0.000000     0.000000
   23     1.000000   180.000000     0.707107     0.000000     0.707107     0.000000     0.000000     0.000000
   24    -1.000000   180.000000     0.707107     0.000000     0.707107     0.000000     0.000000     0.000000
   25     1.000000   120.000000     0.577350    -0.577350     0.577350     0.000000     0.000000     0.000000
   26    -1.000000   120.000000     0.577350    -0.577350     0.577350     0.000000     0.000000     0.000000
   27     1.000000   120.000000    -0.577350    -0.577350     0.577350     0.000000     0.000000     0.000000
   28    -1.000000   120.000000    -0.577350    -0.577350     0.577350     0.000000     0.000000     0.000000
   29     1.000000   180.000000     1.000000     0.000000     0.000000     0.000000     0.000000     0.000000
   30    -1.000000   180.000000     1.000000     0.000000     0.000000     0.000000     0.000000     0.000000
   31     1.000000    90.000000     0.000000    -1.000000     0.000000     0.000000     0.000000     0.000000
   32    -1.000000    90.000000     0.000000    -1.000000     0.000000     0.000000     0.000000     0.000000
   33     1.000000   180.000000     0.707107     0.707107     0.000000     0.000000     0.000000     0.000000
   34    -1.000000   180.000000     0.707107     0.707107     0.000000     0.000000     0.000000     0.000000
   35     1.000000    90.000000     1.000000     0.000000     0.000000     0.000000     0.000000     0.000000
   36    -1.000000    90.000000     1.000000     0.000000     0.000000     0.000000     0.000000     0.000000
   37     1.000000   120.000000     0.577350    -0.577350    -0.577350     0.000000     0.000000     0.000000
   38    -1.000000   120.000000     0.577350    -0.577350    -0.577350     0.000000     0.000000     0.000000
   39     1.000000   180.000000     0.000000     1.000000     0.000000     0.000000     0.000000     0.000000
   40    -1.000000   180.000000     0.000000     1.000000     0.000000     0.000000     0.000000     0.000000
   41     1.000000   120.000000     0.577350     0.577350    -0.577350     0.000000     0.000000     0.000000
   42    -1.000000   120.000000     0.577350     0.577350    -0.577350     0.000000     0.000000     0.000000
   43     1.000000   180.000000     0.000000    -0.707107     0.707107     0.000000     0.000000     0.000000
   44    -1.000000   180.000000     0.000000    -0.707107     0.707107     0.000000     0.000000     0.000000
   45     1.000000   180.000000     0.707107    -0.707107     0.000000     0.000000     0.000000     0.000000
   46    -1.000000   180.000000     0.707107    -0.707107     0.000000     0.000000     0.000000     0.000000
   47     1.000000   180.000000     0.707107     0.000000    -0.707107     0.000000     0.000000     0.000000
   48    -1.000000   180.000000     0.707107     0.000000    -0.707107     0.000000     0.000000     0.000000
 
 Subroutine IBZKPT returns following result:
 ===========================================
 
 Found    110 irreducible k-points:
 
 Following reciprocal coordinates:
            Coordinates               Weight
  0.050000  0.050000  0.050000     96.000000
  0.150000  0.050000  0.050000    288.000000
  0.250000  0.050000  0.050000    288.000000
  0.350000  0.050000  0.050000    288.000000
  0.450000  0.050000  0.050000    288.000000
 -0.450000  0.050000  0.050000    288.000000
 -0.350000  0.050000  0.050000    288.000000
 -0.250000  0.050000  0.050000    288.000000
 -0.150000  0.050000  0.050000    288.000000
 -0.050000  0.050000  0.050000    288.000000
  0.150000  0.150000  0.050000    288.000000
  0.250000  0.150000  0.050000    576.000000
  0.350000  0.150000  0.050000    576.000000
  0.450000  0.150000  0.050000    576.000000
 -0.450000  0.150000  0.050000    576.000000
 -0.350000  0.150000  0.050000    576.000000
 -0.250000  0.150000  0.050000    576.000000
 -0.150000  0.150000  0.050000    576.000000
 -0.050000  0.150000  0.050000    576.000000
  0.250000  0.250000  0.050000    288.000000
  0.350000  0.250000  0.050000    576.000000
  0.450000  0.250000  0.050000    576.000000
 -0.450000  0.250000  0.050000    576.000000
 -0.350000  0.250000  0.050000    576.000000
 -0.250000  0.250000  0.050000    576.000000
 -0.150000  0.250000  0.050000    576.000000
 -0.050000  0.250000  0.050000    576.000000
  0.350000  0.350000  0.050000    288.000000
  0.450000  0.350000  0.050000    576.000000
 -0.450000  0.350000  0.050000    576.000000
 -0.350000  0.350000  0.050000    576.000000
 -0.250000  0.350000  0.050000    576.000000
 -0.150000  0.350000  0.050000    576.000000
 -0.050000  0.350000  0.050000    576.000000
  0.450000  0.450000  0.050000    288.000000
 -0.450000  0.450000  0.050000    576.000000
 -0.350000  0.450000  0.050000    576.000000
 -0.250000  0.450000  0.050000    576.000000
 -0.150000  0.450000  0.050000    576.000000
 -0.050000  0.450000  0.050000    576.000000
 -0.450000 -0.450000  0.050000    288.000000
 -0.350000 -0.450000  0.050000    576.000000
 -0.250000 -0.450000  0.050000    576.000000
 -0.150000 -0.450000  0.050000    576.000000
 -0.350000 -0.350000  0.050000    288.000000
 -0.250000 -0.350000  0.050000    576.000000
 -0.150000 -0.350000  0.050000    576.000000
 -0.250000 -0.250000  0.050000    288.000000
 -0.150000 -0.250000  0.050000    576.000000
 -0.150000 -0.150000  0.050000    288.000000
  0.150000  0.150000  0.150000     96.000000
  0.250000  0.150000  0.150000    288.000000
  0.350000  0.150000  0.150000    288.000000
  0.450000  0.150000  0.150000    288.000000
 -0.450000  0.150000  0.150000    288.000000
 -0.350000  0.150000  0.150000    288.000000
 -0.250000  0.150000  0.150000    288.000000
 -0.150000  0.150000  0.150000    288.000000
  0.250000  0.250000  0.150000    288.000000
  0.350000  0.250000  0.150000    576.000000
  0.450000  0.250000  0.150000    576.000000
 -0.450000  0.250000  0.150000    576.000000
 -0.350000  0.250000  0.150000    576.000000
 -0.250000  0.250000  0.150000    576.000000
 -0.150000  0.250000  0.150000    576.000000
  0.350000  0.350000  0.150000    288.000000
  0.450000  0.350000  0.150000    576.000000
 -0.450000  0.350000  0.150000    576.000000
 -0.350000  0.350000  0.150000    576.000000
 -0.250000  0.350000  0.150000    576.000000
 -0.150000  0.350000  0.150000    576.000000
  0.450000  0.450000  0.150000    288.000000
 -0.450000  0.450000  0.150000    576.000000
 -0.350000  0.450000  0.150000    576.000000
 -0.250000  0.450000  0.150000    576.000000
 -0.150000  0.450000  0.150000    576.000000
 -0.450000 -0.450000  0.150000    288.000000
 -0.350000 -0.450000  0.150000    576.000000
 -0.250000 -0.450000  0.150000    576.000000
 -0.350000 -0.350000  0.150000    288.000000
 -0.250000 -0.350000  0.150000    576.000000
 -0.250000 -0.250000  0.150000    288.000000
  0.250000  0.250000  0.250000     96.000000
  0.350000  0.250000  0.250000    288.000000
  0.450000  0.250000  0.250000    288.000000
 -0.450000  0.250000  0.250000    288.000000
 -0.350000  0.250000  0.250000    288.000000
 -0.250000  0.250000  0.250000    288.000000
  0.350000  0.350000  0.250000    288.000000
  0.450000  0.350000  0.250000    576.000000
 -0.450000  0.350000  0.250000    576.000000
 -0.350000  0.350000  0.250000    576.000000
 -0.250000  0.350000  0.250000    576.000000
  0.450000  0.450000  0.250000    288.000000
 -0.450000  0.450000  0.250000    576.000000
 -0.350000  0.450000  0.250000    576.000000
 -0.250000  0.450000  0.250000    576.000000
 -0.450000 -0.450000  0.250000    288.000000
 -0.350000 -0.450000  0.250000    576.000000
 -0.350000 -0.350000  0.250000    288.000000
  0.350000  0.350000  0.350000     96.000000
  0.450000  0.350000  0.350000    288.000000
 -0.450000  0.350000  0.350000    288.000000
 -0.350000  0.350000  0.350000    288.000000
  0.450000  0.450000  0.350000    288.000000
 -0.450000  0.450000  0.350000    576.000000
 -0.350000  0.450000  0.350000    576.000000
 -0.450000 -0.450000  0.350000    288.000000
  0.450000  0.450000  0.450000     96.000000
 -0.450000  0.450000  0.450000    288.000000
 
 Following cartesian coordinates:
            Coordinates               Weight
  0.050000  0.050000  0.050000     96.000000
 -0.050000  0.150000  0.150000    288.000000
 -0.150000  0.250000  0.250000    288.000000
 -0.250000  0.350000  0.350000    288.000000
 -0.350000  0.450000  0.450000    288.000000
  0.550000 -0.450000 -0.450000    288.000000
  0.450000 -0.350000 -0.350000    288.000000
  0.350000 -0.250000 -0.250000    288.000000
  0.250000 -0.150000 -0.150000    288.000000
  0.150000 -0.050000 -0.050000    288.000000
  0.050000  0.050000  0.250000    288.000000
 -0.050000  0.150000  0.350000    576.000000
 -0.150000  0.250000  0.450000    576.000000
 -0.250000  0.350000  0.550000    576.000000
  0.650000 -0.550000 -0.350000    576.000000
  0.550000 -0.450000 -0.250000    576.000000
  0.450000 -0.350000 -0.150000    576.000000
  0.350000 -0.250000 -0.050000    576.000000
  0.250000 -0.150000  0.050000    576.000000
  0.050000  0.050000  0.450000    288.000000
 -0.050000  0.150000  0.550000    576.000000
 -0.150000  0.250000  0.650000    576.000000
  0.750000 -0.650000 -0.250000    576.000000
  0.650000 -0.550000 -0.150000    576.000000
  0.550000 -0.450000 -0.050000    576.000000
  0.450000 -0.350000  0.050000    576.000000
  0.350000 -0.250000  0.150000    576.000000
  0.050000  0.050000  0.650000    288.000000
 -0.050000  0.150000  0.750000    576.000000
  0.850000 -0.750000 -0.150000    576.000000
  0.750000 -0.650000 -0.050000    576.000000
  0.650000 -0.550000  0.050000    576.000000
  0.550000 -0.450000  0.150000    576.000000
  0.450000 -0.350000  0.250000    576.000000
  0.050000  0.050000  0.850000    288.000000
  0.950000 -0.850000 -0.050000    576.000000
  0.850000 -0.750000  0.050000    576.000000
  0.750000 -0.650000  0.150000    576.000000
  0.650000 -0.550000  0.250000    576.000000
  0.550000 -0.450000  0.350000    576.000000
  0.050000  0.050000 -0.950000    288.000000
 -0.050000  0.150000 -0.850000    576.000000
 -0.150000  0.250000 -0.750000    576.000000
 -0.250000  0.350000 -0.650000    576.000000
  0.050000  0.050000 -0.750000    288.000000
 -0.050000  0.150000 -0.650000    576.000000
 -0.150000  0.250000 -0.550000    576.000000
  0.050000  0.050000 -0.550000    288.000000
 -0.050000  0.150000 -0.450000    576.000000
  0.050000  0.050000 -0.350000    288.000000
  0.150000  0.150000  0.150000     96.000000
  0.050000  0.250000  0.250000    288.000000
 -0.050000  0.350000  0.350000    288.000000
 -0.150000  0.450000  0.450000    288.000000
  0.750000 -0.450000 -0.450000    288.000000
  0.650000 -0.350000 -0.350000    288.000000
  0.550000 -0.250000 -0.250000    288.000000
  0.450000 -0.150000 -0.150000    288.000000
  0.150000  0.150000  0.350000    288.000000
  0.050000  0.250000  0.450000    576.000000
 -0.050000  0.350000  0.550000    576.000000
  0.850000 -0.550000 -0.350000    576.000000
  0.750000 -0.450000 -0.250000    576.000000
  0.650000 -0.350000 -0.150000    576.000000
  0.550000 -0.250000 -0.050000    576.000000
  0.150000  0.150000  0.550000    288.000000
  0.050000  0.250000  0.650000    576.000000
  0.950000 -0.650000 -0.250000    576.000000
  0.850000 -0.550000 -0.150000    576.000000
  0.750000 -0.450000 -0.050000    576.000000
  0.650000 -0.350000  0.050000    576.000000
  0.150000  0.150000  0.750000    288.000000
  1.050000 -0.750000 -0.150000    576.000000
  0.950000 -0.650000 -0.050000    576.000000
  0.850000 -0.550000  0.050000    576.000000
  0.750000 -0.450000  0.150000    576.000000
  0.150000  0.150000 -1.050000    288.000000
  0.050000  0.250000 -0.950000    576.000000
 -0.050000  0.350000 -0.850000    576.000000
  0.150000  0.150000 -0.850000    288.000000
  0.050000  0.250000 -0.750000    576.000000
  0.150000  0.150000 -0.650000    288.000000
  0.250000  0.250000  0.250000     96.000000
  0.150000  0.350000  0.350000    288.000000
  0.050000  0.450000  0.450000    288.000000
  0.950000 -0.450000 -0.450000    288.000000
  0.850000 -0.350000 -0.350000    288.000000
  0.750000 -0.250000 -0.250000    288.000000
  0.250000  0.250000  0.450000    288.000000
  0.150000  0.350000  0.550000    576.000000
  1.050000 -0.550000 -0.350000    576.000000
  0.950000 -0.450000 -0.250000    576.000000
  0.850000 -0.350000 -0.150000    576.000000
  0.250000  0.250000  0.650000    288.000000
  1.150000 -0.650000 -0.250000    576.000000
  1.050000 -0.550000 -0.150000    576.000000
  0.950000 -0.450000 -0.050000    576.000000
  0.250000  0.250000 -1.150000    288.000000
  0.150000  0.350000 -1.050000    576.000000
  0.250000  0.250000 -0.950000    288.000000
  0.350000  0.350000  0.350000     96.000000
  0.250000  0.450000  0.450000    288.000000
  1.150000 -0.450000 -0.450000    288.000000
  1.050000 -0.350000 -0.350000    288.000000
  0.350000  0.350000  0.550000    288.000000
  1.250000 -0.550000 -0.350000    576.000000
  1.150000 -0.450000 -0.250000    576.000000
  0.350000  0.350000 -1.250000    288.000000
  0.450000  0.450000  0.450000     96.000000
  1.350000 -0.450000 -0.450000    288.000000
 


--------------------------------------------------------------------------------------------------------




 Dimension of arrays:
   k-points           NKPTS =    110   k-points in BZ     NKDIM =    110   number of bands    NBANDS=      9
   number of dos      NEDOS =    301   number of ions     NIONS =      1
   non local maximal  LDIM  =      6   non local SUM 2l+1 LMDIM =     18
   total plane-waves  NPLWV =   1728
   max r-space proj   IRMAX =      1   max aug-charges    IRDMAX=   6422
   dimension x,y,z NGX =    12 NGY =   12 NGZ =   12
   dimension x,y,z NGXF=    24 NGYF=   24 NGZF=   24
   support grid    NGXF=    24 NGYF=   24 NGZF=   24
   ions per type =               1
   NGX,Y,Z   is equivalent  to a cutoff of   6.91,  6.91,  6.91 a.u.
   NGXF,Y,Z  is equivalent  to a cutoff of  13.83, 13.83, 13.83 a.u.

 SYSTEM =  fcc Au                                  
 POSCAR =  Au bulk FCC                             

 Startparameter for this run:
   NWRITE =      2    write-flag & timer
   PREC   = normal    normal or accurate (medium, high low for compatibility)
   ISTART =      0    job   : 0-new  1-cont  2-samecut
   ICHARG =      2    charge: 1-file 2-atom 10-const
   ISPIN  =      1    spin polarized calculation?
   LNONCOLLINEAR =      F non collinear calculations
   LSORBIT =      F    spin-orbit coupling
   INIWAV =      1    electr: 0-lowe 1-rand  2-diag
   LASPH  =      F    aspherical Exc in radial PAW
   METAGGA=      F    non-selfconsistent MetaGGA calc.

 Electronic Relaxation 1
   ENCUT  =  300.0 eV  22.05 Ry    4.70 a.u.   4.07  4.07  4.07*2*pi/ulx,y,z
   ENINI  =  300.0     initial cutoff
   ENAUG  =  356.7 eV  augmentation charge cutoff
   NELM   =     60;   NELMIN=  2; NELMDL= -5     # of ELM steps 
   EDIFF  = 0.1E-05   stopping-criterion for ELM
   LREAL  =      F    real-space projection
   NLSPLINE    = F    spline interpolate recip. space projectors
   LCOMPAT=      F    compatible to vasp.4.4
   GGA_COMPAT  = T    GGA compatible to vasp.4.4-vasp.4.6
   LMAXPAW     = -100 max onsite density
   LMAXMIX     =    2 max onsite mixed and CHGCAR
   VOSKOWN=      0    Vosko Wilk Nusair interpolation
   ROPT   =    0.00000
 Ionic relaxation
   EDIFFG = 0.1E-04   stopping-criterion for IOM
   NSW    =      0    number of steps for IOM
   NBLOCK =      1;   KBLOCK =      1    inner block; outer block 
   IBRION =     -1    ionic relax: 0-MD 1-quasi-New 2-CG
   NFREE  =      0    steps in history (QN), initial steepest desc. (CG)
   ISIF   =      2    stress and relaxation
   IWAVPR =     10    prediction:  0-non 1-charg 2-wave 3-comb
   ISYM   =      2    0-nonsym 1-usesym 2-fastsym
   LCORR  =      T    Harris-Foulkes like correction to forces

   POTIM  = 0.5000    time-step for ionic-motion
   TEIN   =    0.0    initial temperature
   TEBEG  =    0.0;   TEEND  =   0.0 temperature during run
   SMASS  =  -3.00    Nose mass-parameter (am)
   estimated Nose-frequenzy (Omega)   =  0.10E-29 period in steps =****** mass=  -0.190E-27a.u.
   SCALEE = 1.0000    scale energy and forces
   NPACO  =    256;   APACO  = 16.0  distance and # of slots for P.C.
   PSTRESS=    0.0 pullay stress

  Mass of Ions in am
   POMASS = 196.97
  Ionic Valenz
   ZVAL   =  11.00
  Atomic Wigner-Seitz radii
   RWIGS  =   1.50
  virtual crystal weights 
   VCA    =   1.00
   NELECT =      11.0000    total number of electrons
   NUPDOWN=      -1.0000    fix difference up-down

 DOS related values:
   EMIN   =  10.00;   EMAX   =-10.00  energy-range for DOS
   EFERMI =   0.00
   ISMEAR =     1;   SIGMA  =   0.20  broadening in eV -4-tet -1-fermi 0-gaus

 Electronic relaxation 2 (details)
   IALGO  =     38    algorithm
   LDIAG  =      T    sub-space diagonalisation (order eigenvalues)
   LSUBROT=      F    optimize rotation matrix (better conditioning)
   TURBO    =      0    0=normal 1=particle mesh
   IRESTART =      0    0=no restart 2=restart with 2 vectors
   NREBOOT  =      0    no. of reboots
   NMIN     =      0    reboot dimension
   EREF     =   0.00    reference energy to select bands
   IMIX   =      4    mixing-type and parameters
     AMIX     =   0.40;   BMIX     =  1.00
     AMIX_MAG =   1.60;   BMIX_MAG =  1.00
     AMIN     =   0.10
     WC   =   100.;   INIMIX=   1;  MIXPRE=   1;  MAXMIX= -45

 Intra band minimization:
   WEIMIN = 0.0000     energy-eigenvalue tresh-hold
   EBREAK =  0.28E-07  absolut break condition
   DEPER  =   0.30     relativ break condition  

   TIME   =   0.40     timestep for ELM

  volume/ion in A,a.u.               =      16.98       114.58
  Fermi-wavevector in a.u.,A,eV,Ry     =   1.416551  2.676893 27.301680  2.006617
  Thomas-Fermi vector in A             =   2.537874
 
 Write flags
   LWAVE        =      F    write WAVECAR
   LDOWNSAMPLE  =      F    k-point downsampling of WAVECAR
   LCHARG       =      T    write CHGCAR
   LVTOT        =      F    write LOCPOT, total local potential
   LVHAR        =      F    write LOCPOT, Hartree potential only
   LELF         =      F    write electronic localiz. function (ELF)
   LORBIT       =      0    0 simple, 1 ext, 2 COOP (PROOUT), +10 PAW based schemes


 Dipole corrections
   LMONO  =      F    monopole corrections only (constant potential shift)
   LDIPOL =      F    correct potential (dipole corrections)
   IDIPOL =      0    1-x, 2-y, 3-z, 4-all directions 
   EPSILON=  1.0000000 bulk dielectric constant

 Exchange correlation treatment:
   GGA     =    --    GGA type
   LEXCH   =     2    internal setting for exchange type
   VOSKOWN=      0    Vosko Wilk Nusair interpolation
   LHFCALC =     F    Hartree Fock is set to
   LHFONE  =     F    Hartree Fock one center treatment
   AEXX    =    0.0000 exact exchange contribution

 Linear response parameters
   LEPSILON=     F    determine dielectric tensor
   LRPA    =     F    only Hartree local field effects (RPA)
   LNABLA  =     F    use nabla operator in PAW spheres
   LVEL    =     F    velocity operator in full k-point grid
   LINTERFAST=   F  fast interpolation
   KINTER  =     0    interpolate to denser k-point grid
   CSHIFT  =0.1000    complex shift for real part using Kramers Kronig
   OMEGAMAX=  -1.0    maximum frequency
   DEG_THRESHOLD= 0.2000000E-02 threshold for treating states as degnerate
   RTIME   =   -0.100 relaxation time in fs
  (WPLASMAI=    0.000 imaginary part of plasma frequency in eV, 0.658/RTIME)
   DFIELD  = 0.0000000 0.0000000 0.0000000 field for delta impulse in time
 
 Orbital magnetization related:
   ORBITALMAG=     F  switch on orbital magnetization
   LCHIMAG   =     F  perturbation theory with respect to B field
   DQ        =  0.001000  dq finite difference perturbation B field
   LLRAUG    =     F  two centre corrections for induced B field



--------------------------------------------------------------------------------------------------------


 Static calculation
 charge density and potential will be updated during run
 non-spin polarized calculation
 Variant of blocked Davidson
 Davidson routine will perform the subspace rotation
 perform sub-space diagonalisation
    after iterative eigenvector-optimisation
 modified Broyden-mixing scheme, WC =      100.0
 initial mixing is a Kerker type mixing with AMIX =  0.4000 and BMIX =      1.0000
 Hartree-type preconditioning will be used
 using additional bands            3
 reciprocal scheme for non local part
 use partial core corrections
 calculate Harris-corrections to forces 
   (improved forces if not selfconsistent)
 use of overlap-Matrix (Vanderbilt PP)
 Methfessel and Paxton  Order N= 1 SIGMA  =   0.20


--------------------------------------------------------------------------------------------------------


  energy-cutoff  :      300.00
  volume of cell :       16.98
      direct lattice vectors                 reciprocal lattice vectors
     0.000000000  2.040000000  2.040000000    -0.245098039  0.245098039  0.245098039
     2.040000000  0.000000000  2.040000000     0.245098039 -0.245098039  0.245098039
     2.040000000  2.040000000  0.000000000     0.245098039  0.245098039 -0.245098039

  length of vectors
     2.884995667  2.884995667  2.884995667     0.424522257  0.424522257  0.424522257


 
 k-points in units of 2pi/SCALE and weight: 10x10x10                                
   0.05000000  0.05000000  0.05000000       0.002
  -0.05000000  0.15000000  0.15000000       0.006
  -0.15000000  0.25000000  0.25000000       0.006
  -0.25000000  0.35000000  0.35000000       0.006
  -0.35000000  0.45000000  0.45000000       0.006
   0.55000000 -0.45000000 -0.45000000       0.006
   0.45000000 -0.35000000 -0.35000000       0.006
   0.35000000 -0.25000000 -0.25000000       0.006
   0.25000000 -0.15000000 -0.15000000       0.006
   0.15000000 -0.05000000 -0.05000000       0.006
   0.05000000  0.05000000  0.25000000       0.006
  -0.05000000  0.15000000  0.35000000       0.012
  -0.15000000  0.25000000  0.45000000       0.012
  -0.25000000  0.35000000  0.55000000       0.012
   0.65000000 -0.55000000 -0.35000000       0.012
   0.55000000 -0.45000000 -0.25000000       0.012
   0.45000000 -0.35000000 -0.15000000       0.012
   0.35000000 -0.25000000 -0.05000000       0.012
   0.25000000 -0.15000000  0.05000000       0.012
   0.05000000  0.05000000  0.45000000       0.006
  -0.05000000  0.15000000  0.55000000       0.012
  -0.15000000  0.25000000  0.65000000       0.012
   0.75000000 -0.65000000 -0.25000000       0.012
   0.65000000 -0.55000000 -0.15000000       0.012
   0.55000000 -0.45000000 -0.05000000       0.012
   0.45000000 -0.35000000  0.05000000       0.012
   0.35000000 -0.25000000  0.15000000       0.012
   0.05000000  0.05000000  0.65000000       0.006
  -0.05000000  0.15000000  0.75000000       0.012
   0.85000000 -0.75000000 -0.15000000       0.012
   0.75000000 -0.65000000 -0.05000000       0.012
   0.65000000 -0.55000000  0.05000000       0.012
   0.55000000 -0.45000000  0.15000000       0.012
   0.45000000 -0.35000000  0.25000000       0.012
   0.05000000  0.05000000  0.85000000       0.006
   0.95000000 -0.85000000 -0.05000000       0.012
   0.85000000 -0.75000000  0.05000000       0.012
   0.75000000 -0.65000000  0.15000000       0.012
   0.65000000 -0.55000000  0.25000000       0.012
   0.55000000 -0.45000000  0.35000000       0.012
   0.05000000  0.05000000 -0.95000000       0.006
  -0.05000000  0.15000000 -0.85000000       0.012
  -0.15000000  0.25000000 -0.75000000       0.012
  -0.25000000  0.35000000 -0.65000000       0.012
   0.05000000  0.05000000 -0.75000000       0.006
  -0.05000000  0.15000000 -0.65000000       0.012
  -0.15000000  0.25000000 -0.55000000       0.012
   0.05000000  0.05000000 -0.55000000       0.006
  -0.05000000  0.15000000 -0.45000000       0.012
   0.05000000  0.05000000 -0.35000000       0.006
   0.15000000  0.15000000  0.15000000       0.002
   0.05000000  0.25000000  0.25000000       0.006
  -0.05000000  0.35000000  0.35000000       0.006
  -0.15000000  0.45000000  0.45000000       0.006
   0.75000000 -0.45000000 -0.45000000       0.006
   0.65000000 -0.35000000 -0.35000000       0.006
   0.55000000 -0.25000000 -0.25000000       0.006
   0.45000000 -0.15000000 -0.15000000       0.006
   0.15000000  0.15000000  0.35000000       0.006
   0.05000000  0.25000000  0.45000000       0.012
  -0.05000000  0.35000000  0.55000000       0.012
   0.85000000 -0.55000000 -0.35000000       0.012
   0.75000000 -0.45000000 -0.25000000       0.012
   0.65000000 -0.35000000 -0.15000000       0.012
   0.55000000 -0.25000000 -0.05000000       0.012
   0.15000000  0.15000000  0.55000000       0.006
   0.05000000  0.25000000  0.65000000       0.012
   0.95000000 -0.65000000 -0.25000000       0.012
   0.85000000 -0.55000000 -0.15000000       0.012
   0.75000000 -0.45000000 -0.05000000       0.012
   0.65000000 -0.35000000  0.05000000       0.012
   0.15000000  0.15000000  0.75000000       0.006
   1.05000000 -0.75000000 -0.15000000       0.012
   0.95000000 -0.65000000 -0.05000000       0.012
   0.85000000 -0.55000000  0.05000000       0.012
   0.75000000 -0.45000000  0.15000000       0.012
   0.15000000  0.15000000 -1.05000000       0.006
   0.05000000  0.25000000 -0.95000000       0.012
  -0.05000000  0.35000000 -0.85000000       0.012
   0.15000000  0.15000000 -0.85000000       0.006
   0.05000000  0.25000000 -0.75000000       0.012
   0.15000000  0.15000000 -0.65000000       0.006
   0.25000000  0.25000000  0.25000000       0.002
   0.15000000  0.35000000  0.35000000       0.006
   0.05000000  0.45000000  0.45000000       0.006
   0.95000000 -0.45000000 -0.45000000       0.006
   0.85000000 -0.35000000 -0.35000000       0.006
   0.75000000 -0.25000000 -0.25000000       0.006
   0.25000000  0.25000000  0.45000000       0.006
   0.15000000  0.35000000  0.55000000       0.012
   1.05000000 -0.55000000 -0.35000000       0.012
   0.95000000 -0.45000000 -0.25000000       0.012
   0.85000000 -0.35000000 -0.15000000       0.012
   0.25000000  0.25000000  0.65000000       0.006
   1.15000000 -0.65000000 -0.25000000       0.012
   1.05000000 -0.55000000 -0.15000000       0.012
   0.95000000 -0.45000000 -0.05000000       0.012
   0.25000000  0.25000000 -1.15000000       0.006
   0.15000000  0.35000000 -1.05000000       0.012
   0.25000000  0.25000000 -0.95000000       0.006
   0.35000000  0.35000000  0.35000000       0.002
   0.25000000  0.45000000  0.45000000       0.006
   1.15000000 -0.45000000 -0.45000000       0.006
   1.05000000 -0.35000000 -0.35000000       0.006
   0.35000000  0.35000000  0.55000000       0.006
   1.25000000 -0.55000000 -0.35000000       0.012
   1.15000000 -0.45000000 -0.25000000       0.012
   0.35000000  0.35000000 -1.25000000       0.006
   0.45000000  0.45000000  0.45000000       0.002
   1.35000000 -0.45000000 -0.45000000       0.006
 
 k-points in reciprocal lattice and weights: 10x10x10                                
   0.05000000  0.05000000  0.05000000       0.002
   0.15000000  0.05000000  0.05000000       0.006
   0.25000000  0.05000000  0.05000000       0.006
   0.35000000  0.05000000  0.05000000       0.006
   0.45000000  0.05000000  0.05000000       0.006
  -0.45000000  0.05000000  0.05000000       0.006
  -0.35000000  0.05000000  0.05000000       0.006
  -0.25000000  0.05000000  0.05000000       0.006
  -0.15000000  0.05000000  0.05000000       0.006
  -0.05000000  0.05000000  0.05000000       0.006
   0.15000000  0.15000000  0.05000000       0.006
   0.25000000  0.15000000  0.05000000       0.012
   0.35000000  0.15000000  0.05000000       0.012
   0.45000000  0.15000000  0.05000000       0.012
  -0.45000000  0.15000000  0.05000000       0.012
  -0.35000000  0.15000000  0.05000000       0.012
  -0.25000000  0.15000000  0.05000000       0.012
  -0.15000000  0.15000000  0.05000000       0.012
  -0.05000000  0.15000000  0.05000000       0.012
   0.25000000  0.25000000  0.05000000       0.006
   0.35000000  0.25000000  0.05000000       0.012
   0.45000000  0.25000000  0.05000000       0.012
  -0.45000000  0.25000000  0.05000000       0.012
  -0.35000000  0.25000000  0.05000000       0.012
  -0.25000000  0.25000000  0.05000000       0.012
  -0.15000000  0.25000000  0.05000000       0.012
  -0.05000000  0.25000000  0.05000000       0.012
   0.35000000  0.35000000  0.05000000       0.006
   0.45000000  0.35000000  0.05000000       0.012
  -0.45000000  0.35000000  0.05000000       0.012
  -0.35000000  0.35000000  0.05000000       0.012
  -0.25000000  0.35000000  0.05000000       0.012
  -0.15000000  0.35000000  0.05000000       0.012
  -0.05000000  0.35000000  0.05000000       0.012
   0.45000000  0.45000000  0.05000000       0.006
  -0.45000000  0.45000000  0.05000000       0.012
  -0.35000000  0.45000000  0.05000000       0.012
  -0.25000000  0.45000000  0.05000000       0.012
  -0.15000000  0.45000000  0.05000000       0.012
  -0.05000000  0.45000000  0.05000000       0.012
  -0.45000000 -0.45000000  0.05000000       0.006
  -0.35000000 -0.45000000  0.05000000       0.012
  -0.25000000 -0.45000000  0.05000000       0.012
  -0.15000000 -0.45000000  0.05000000       0.012
  -0.35000000 -0.35000000  0.05000000       0.006
  -0.25000000 -0.35000000  0.05000000       0.012
  -0.15000000 -0.35000000  0.05000000       0.012
  -0.25000000 -0.25000000  0.05000000       0.006
  -0.15000000 -0.25000000  0.05000000       0.012
  -0.15000000 -0.15000000  0.05000000       0.006
   0.15000000  0.15000000  0.15000000       0.002
   0.25000000  0.15000000  0.15000000       0.006
   0.35000000  0.15000000  0.15000000       0.006
   0.45000000  0.15000000  0.15000000       0.006
  -0.45000000  0.15000000  0.15000000       0.006
  -0.35000000  0.15000000  0.15000000       0.006
  -0.25000000  0.15000000  0.15000000       0.006
  -0.15000000  0.15000000  0.15000000       0.006
   0.25000000  0.25000000  0.15000000       0.006
   0.35000000  0.25000000  0.15000000       0.012
   0.45000000  0.25000000  0.15000000       0.012
  -0.45000000  0.25000000  0.15000000       0.012
  -0.35000000  0.25000000  0.15000000       0.012
  -0.25000000  0.25000000  0.15000000       0.012
  -0.15000000  0.25000000  0.15000000       0.012
   0.35000000  0.35000000  0.15000000       0.006
   0.45000000  0.35000000  0.15000000       0.012
  -0.45000000  0.35000000  0.15000000       0.012
  -0.35000000  0.35000000  0.15000000       0.012
  -0.25000000  0.35000000  0.15000000       0.012
  -0.15000000  0.35000000  0.15000000       0.012
   0.45000000  0.45000000  0.15000000       0.006
  -0.45000000  0.45000000  0.15000000       0.012
  -0.35000000  0.45000000  0.15000000       0.012
  -0.25000000  0.45000000  0.15000000       0.012
  -0.15000000  0.45000000  0.15000000       0.012
  -0.45000000 -0.45000000  0.15000000       0.006
  -0.35000000 -0.45000000  0.15000000       0.012
  -0.25000000 -0.45000000  0.15000000       0.012
  -0.35000000 -0.35000000  0.15000000       0.006
  -0.25000000 -0.35000000  0.15000000       0.012
  -0.25000000 -0.25000000  0.15000000       0.006
   0.25000000  0.25000000  0.25000000       0.002
   0.35000000  0.25000000  0.25000000       0.006
   0.45000000  0.25000000  0.25000000       0.006
  -0.45000000  0.25000000  0.25000000       0.006
  -0.35000000  0.25000000  0.25000000       0.006
  -0.25000000  0.25000000  0.25000000       0.006
   0.35000000  0.35000000  0.25000000       0.006
   0.45000000  0.35000000  0.25000000       0.012
  -0.45000000  0.35000000  0.25000000       0.012
  -0.35000000  0.35000000  0.25000000       0.012
  -0.25000000  0.35000000  0.25000000       0.012
   0.45000000  0.45000000  0.25000000       0.006
  -0.45000000  0.45000000  0.25000000       0.012
  -0.35000000  0.45000000  0.25000000       0.012
  -0.25000000  0.45000000  0.25000000       0.012
  -0.45000000 -0.45000000  0.25000000       0.006
  -0.35000000 -0.45000000  0.25000000       0.012
  -0.35000000 -0.35000000  0.25000000       0.006
   0.35000000  0.35000000  0.35000000       0.002
   0.45000000  0.35000000  0.35000000       0.006
  -0.45000000  0.35000000  0.35000000       0.006
  -0.35000000  0.35000000  0.35000000       0.006
   0.45000000  0.45000000  0.35000000       0.006
  -0.45000000  0.45000000  0.35000000       0.012
  -0.35000000  0.45000000  0.35000000       0.012
  -0.45000000 -0.45000000  0.35000000       0.006
   0.45000000  0.45000000  0.45000000       0.002
  -0.45000000  0.45000000  0.45000000       0.006
 
 position of ions in fractional coordinates (direct lattice) 
   0.00000000  0.00000000  0.00000000
 
 position of ions in cartesian coordinates  (Angst):
   0.00000000  0.00000000  0.00000000
 


--------------------------------------------------------------------------------------------------------


 k-point  1 :   0.0500 0.0500 0.0500  plane waves:     181
 k-point  2 :   0.1500 0.0500 0.0500  plane waves:     184
 k-point  3 :   0.2500 0.0500 0.0500  plane waves:     198
 k-point  4 :   0.3500 0.0500 0.0500  plane waves:     200
 k-point  5 :   0.4500 0.0500 0.0500  plane waves:     198
 k-point  6 :  -0.4500 0.0500 0.0500  plane waves:     200
 k-point  7 :  -0.3500 0.0500 0.0500  plane waves:     199
 k-point  8 :  -0.2500 0.0500 0.0500  plane waves:     198
 k-point  9 :  -0.1500 0.0500 0.0500  plane waves:     192
 k-point 10 :  -0.0500 0.0500 0.0500  plane waves:     181
 k-point 11 :   0.1500 0.1500 0.0500  plane waves:     190
 k-point 12 :   0.2500 0.1500 0.0500  plane waves:     196
 k-point 13 :   0.3500 0.1500 0.0500  plane waves:     200
 k-point 14 :   0.4500 0.1500 0.0500  plane waves:     200
 k-point 15 :  -0.4500 0.1500 0.0500  plane waves:     200
 k-point 16 :  -0.3500 0.1500 0.0500  plane waves:     200
 k-point 17 :  -0.2500 0.1500 0.0500  plane waves:     201
 k-point 18 :  -0.1500 0.1500 0.0500  plane waves:     200
 k-point 19 :  -0.0500 0.1500 0.0500  plane waves:     192
 k-point 20 :   0.2500 0.2500 0.0500  plane waves:     200
 k-point 21 :   0.3500 0.2500 0.0500  plane waves:     202
 k-point 22 :   0.4500 0.2500 0.0500  plane waves:     197
 k-point 23 :  -0.4500 0.2500 0.0500  plane waves:     202
 k-point 24 :  -0.3500 0.2500 0.0500  plane waves:     201
 k-point 25 :  -0.2500 0.2500 0.0500  plane waves:     199
 k-point 26 :  -0.1500 0.2500 0.0500  plane waves:     203
 k-point 27 :  -0.0500 0.2500 0.0500  plane waves:     198
 k-point 28 :   0.3500 0.3500 0.0500  plane waves:     202
 k-point 29 :   0.4500 0.3500 0.0500  plane waves:     204
 k-point 30 :  -0.4500 0.3500 0.0500  plane waves:     203
 k-point 31 :  -0.3500 0.3500 0.0500  plane waves:     202
 k-point 32 :  -0.2500 0.3500 0.0500  plane waves:     199
 k-point 33 :  -0.1500 0.3500 0.0500  plane waves:     201
 k-point 34 :  -0.0500 0.3500 0.0500  plane waves:     199
 k-point 35 :   0.4500 0.4500 0.0500  plane waves:     201
 k-point 36 :  -0.4500 0.4500 0.0500  plane waves:     204
 k-point 37 :  -0.3500 0.4500 0.0500  plane waves:     205
 k-point 38 :  -0.2500 0.4500 0.0500  plane waves:     201
 k-point 39 :  -0.1500 0.4500 0.0500  plane waves:     202
 k-point 40 :  -0.0500 0.4500 0.0500  plane waves:     199
 k-point 41 :  -0.4500-0.4500 0.0500  plane waves:     202
 k-point 42 :  -0.3500-0.4500 0.0500  plane waves:     203
 k-point 43 :  -0.2500-0.4500 0.0500  plane waves:     201
 k-point 44 :  -0.1500-0.4500 0.0500  plane waves:     198
 k-point 45 :  -0.3500-0.3500 0.0500  plane waves:     202
 k-point 46 :  -0.2500-0.3500 0.0500  plane waves:     204
 k-point 47 :  -0.1500-0.3500 0.0500  plane waves:     201
 k-point 48 :  -0.2500-0.2500 0.0500  plane waves:     202
 k-point 49 :  -0.1500-0.2500 0.0500  plane waves:     199
 k-point 50 :  -0.1500-0.1500 0.0500  plane waves:     194
 k-point 51 :   0.1500 0.1500 0.1500  plane waves:     193
 k-point 52 :   0.2500 0.1500 0.1500  plane waves:     194
 k-point 53 :   0.3500 0.1500 0.1500  plane waves:     200
 k-point 54 :   0.4500 0.1500 0.1500  plane waves:     199
 k-point 55 :  -0.4500 0.1500 0.1500  plane waves:     203
 k-point 56 :  -0.3500 0.1500 0.1500  plane waves:     203
 k-point 57 :  -0.2500 0.1500 0.1500  plane waves:     200
 k-point 58 :  -0.1500 0.1500 0.1500  plane waves:     196
 k-point 59 :   0.2500 0.2500 0.1500  plane waves:     196
 k-point 60 :   0.3500 0.2500 0.1500  plane waves:     198
 k-point 61 :   0.4500 0.2500 0.1500  plane waves:     201
 k-point 62 :  -0.4500 0.2500 0.1500  plane waves:     200
 k-point 63 :  -0.3500 0.2500 0.1500  plane waves:     199
 k-point 64 :  -0.2500 0.2500 0.1500  plane waves:     199
 k-point 65 :  -0.1500 0.2500 0.1500  plane waves:     199
 k-point 66 :   0.3500 0.3500 0.1500  plane waves:     199
 k-point 67 :   0.4500 0.3500 0.1500  plane waves:     202
 k-point 68 :  -0.4500 0.3500 0.1500  plane waves:     201
 k-point 69 :  -0.3500 0.3500 0.1500  plane waves:     202
 k-point 70 :  -0.2500 0.3500 0.1500  plane waves:     201
 k-point 71 :  -0.1500 0.3500 0.1500  plane waves:     201
 k-point 72 :   0.4500 0.4500 0.1500  plane waves:     203
 k-point 73 :  -0.4500 0.4500 0.1500  plane waves:     203
 k-point 74 :  -0.3500 0.4500 0.1500  plane waves:     204
 k-point 75 :  -0.2500 0.4500 0.1500  plane waves:     205
 k-point 76 :  -0.1500 0.4500 0.1500  plane waves:     200
 k-point 77 :  -0.4500-0.4500 0.1500  plane waves:     204
 k-point 78 :  -0.3500-0.4500 0.1500  plane waves:     205
 k-point 79 :  -0.2500-0.4500 0.1500  plane waves:     204
 k-point 80 :  -0.3500-0.3500 0.1500  plane waves:     203
 k-point 81 :  -0.2500-0.3500 0.1500  plane waves:     202
 k-point 82 :  -0.2500-0.2500 0.1500  plane waves:     200
 k-point 83 :   0.2500 0.2500 0.2500  plane waves:     199
 k-point 84 :   0.3500 0.2500 0.2500  plane waves:     196
 k-point 85 :   0.4500 0.2500 0.2500  plane waves:     202
 k-point 86 :  -0.4500 0.2500 0.2500  plane waves:     198
 k-point 87 :  -0.3500 0.2500 0.2500  plane waves:     202
 k-point 88 :  -0.2500 0.2500 0.2500  plane waves:     204
 k-point 89 :   0.3500 0.3500 0.2500  plane waves:     198
 k-point 90 :   0.4500 0.3500 0.2500  plane waves:     200
 k-point 91 :  -0.4500 0.3500 0.2500  plane waves:     201
 k-point 92 :  -0.3500 0.3500 0.2500  plane waves:     200
 k-point 93 :  -0.2500 0.3500 0.2500  plane waves:     202
 k-point 94 :   0.4500 0.4500 0.2500  plane waves:     198
 k-point 95 :  -0.4500 0.4500 0.2500  plane waves:     200
 k-point 96 :  -0.3500 0.4500 0.2500  plane waves:     203
 k-point 97 :  -0.2500 0.4500 0.2500  plane waves:     203
 k-point 98 :  -0.4500-0.4500 0.2500  plane waves:     204
 k-point 99 :  -0.3500-0.4500 0.2500  plane waves:     203
 k-point ** :  -0.3500-0.3500 0.2500  plane waves:     202
 k-point ** :   0.3500 0.3500 0.3500  plane waves:     198
 k-point ** :   0.4500 0.3500 0.3500  plane waves:     199
 k-point ** :  -0.4500 0.3500 0.3500  plane waves:     200
 k-point ** :  -0.3500 0.3500 0.3500  plane waves:     204
 k-point ** :   0.4500 0.4500 0.3500  plane waves:     203
 k-point ** :  -0.4500 0.4500 0.3500  plane waves:     200
 k-point ** :  -0.3500 0.4500 0.3500  plane waves:     202
 k-point ** :  -0.4500-0.4500 0.3500  plane waves:     200
 k-point ** :   0.4500 0.4500 0.4500  plane waves:     201
 k-point ** :  -0.4500 0.4500 0.4500  plane waves:     203

 maximum and minimum number of plane-waves per node :       205      181

 maximum number of plane-waves:       205
 maximum index in each direction: 
   IXMAX=    4   IYMAX=    4   IZMAX=    4
   IXMIN=   -4   IYMIN=   -4   IZMIN=   -4


 serial   3D FFT for wavefunctions
 parallel 3D FFT for charge:
    minimum data exchange during FFTs selected (reduces bandwidth)


 total amount of memory used by VASP MPI-rank0    38890. kBytes
=======================================================================

   base      :      30000. kBytes
   nonl-proj :       3250. kBytes
   fftplans  :        932. kBytes
   grid      :       1161. kBytes
   one-center:         15. kBytes
   wavefun   :       3532. kBytes
 
     INWAV:  cpu time    0.0001: real time    0.0104
 Broyden mixing: mesh for mixing (old mesh)
   NGX =  9   NGY =  9   NGZ =  9
  (NGX  = 24   NGY  = 24   NGZ  = 24)
  gives a total of    729 points

 initial charge density was supplied:
 charge density of overlapping atoms calculated
 number of electron      11.0000000 magnetization 
 keeping initial charge density in first step


--------------------------------------------------------------------------------------------------------


 Maximum index for augmentation-charges         6051 (set IRDMAX)


--------------------------------------------------------------------------------------------------------


 First call to EWALD:  gamma=   0.690
 Maximum number of real-space cells 3x 3x 3
 Maximum number of reciprocal cells 3x 3x 3

    FEWALD:  cpu time    0.0014: real time    0.0014


--------------------------------------- Iteration      1(   1)  ---------------------------------------


    POTLOK:  cpu time    0.0030: real time    0.0045
    SETDIJ:  cpu time    0.0024: real time    0.0024
     EDDAV:  cpu time    0.2093: real time    0.4088
       DOS:  cpu time    0.0034: real time    0.0165
    --------------------------------------------
      LOOP:  cpu time    0.2182: real time    0.4322

 eigenvalue-minimisations  :  2501
 total energy-change (2. order) : 0.3384381E+02  (-0.4420843E+03)
 number of electron      11.0000000 magnetization 
 augmentation part       11.0000000 magnetization 

 Free energy of the ion-electron system (eV)
  ---------------------------------------------------
  alpha Z        PSCENC =       108.24217189
  Ewald energy   TEWEN  =      -978.98843183
  -Hartree energ DENC   =      -122.41063523
  -exchange      EXHF   =         0.00000000
  -V(xc)+E(xc)   XCENC  =        16.31854387
  PAW double counting   =       746.10209728     -725.46159323
  entropy T*S    EENTRO =        -0.00097231
  eigenvalues    EBANDS =        60.62121530
  atomic energy  EATOM  =       929.42141189
  Solvation  Ediel_sol  =         0.00000000
  ---------------------------------------------------
  free energy    TOTEN  =        33.84380764 eV

  energy without entropy =       33.84477995  energy(sigma->0) =       33.84413174


--------------------------------------------------------------------------------------------------------




--------------------------------------- Iteration      1(   2)  ---------------------------------------


     EDDAV:  cpu time    0.1681: real time    0.3370
       DOS:  cpu time    0.0038: real time    0.0168
    --------------------------------------------
      LOOP:  cpu time    0.1719: real time    0.3538

 eigenvalue-minimisations  :  2021
 total energy-change (2. order) :-0.3812675E+02  (-0.3494706E+02)
 number of electron      11.0000000 magnetization 
 augmentation part       11.0000000 magnetization 

 Free energy of the ion-electron system (eV)
  ---------------------------------------------------
  alpha Z        PSCENC =       108.24217189
  Ewald energy   TEWEN  =      -978.98843183
  -Hartree energ DENC   =      -122.41063523
  -exchange      EXHF   =         0.00000000
  -V(xc)+E(xc)   XCENC  =        16.31854387
  PAW double counting   =       746.10209728     -725.46159323
  entropy T*S    EENTRO =        -0.00079602
  eigenvalues    EBANDS =        22.49428964
  atomic energy  EATOM  =       929.42141189
  Solvation  Ediel_sol  =         0.00000000
  ---------------------------------------------------
  free energy    TOTEN  =        -4.28294174 eV

  energy without entropy =       -4.28214572  energy(sigma->0) =       -4.28267640


--------------------------------------------------------------------------------------------------------




--------------------------------------- Iteration      1(   3)  ---------------------------------------


     EDDAV:  cpu time    0.1979: real time    0.3805
       DOS:  cpu time    0.0039: real time    0.0039
    --------------------------------------------
      LOOP:  cpu time    0.2027: real time    0.3844

 eigenvalue-minimisations  :  2407
 total energy-change (2. order) :-0.4350767E+00  (-0.4348364E+00)
 number of electron      11.0000000 magnetization 
 augmentation part       11.0000000 magnetization 

 Free energy of the ion-electron system (eV)
  ---------------------------------------------------
  alpha Z        PSCENC =       108.24217189
  Ewald energy   TEWEN  =      -978.98843183
  -Hartree energ DENC   =      -122.41063523
  -exchange      EXHF   =         0.00000000
  -V(xc)+E(xc)   XCENC  =        16.31854387
  PAW double counting   =       746.10209728     -725.46159323
  entropy T*S    EENTRO =        -0.00053348
  eigenvalues    EBANDS =        22.05895037
  atomic energy  EATOM  =       929.42141189
  Solvation  Ediel_sol  =         0.00000000
  ---------------------------------------------------
  free energy    TOTEN  =        -4.71801846 eV

  energy without entropy =       -4.71748498  energy(sigma->0) =       -4.71784064


--------------------------------------------------------------------------------------------------------




--------------------------------------- Iteration      1(   4)  ---------------------------------------


     EDDAV:  cpu time    0.1828: real time    0.3816
       DOS:  cpu time    0.0040: real time    0.0040
    --------------------------------------------
      LOOP:  cpu time    0.1859: real time    0.3856

 eigenvalue-minimisations  :  2232
 total energy-change (2. order) :-0.1211979E-02  (-0.1211949E-02)
 number of electron      11.0000000 magnetization 
 augmentation part       11.0000000 magnetization 

 Free energy of the ion-electron system (eV)
  ---------------------------------------------------
  alpha Z        PSCENC =       108.24217189
  Ewald energy   TEWEN  =      -978.98843183
  -Hartree energ DENC   =      -122.41063523
  -exchange      EXHF   =         0.00000000
  -V(xc)+E(xc)   XCENC  =        16.31854387
  PAW double counting   =       746.10209728     -725.46159323
  entropy T*S    EENTRO =        -0.00053364
  eigenvalues    EBANDS =        22.05773855
  atomic energy  EATOM  =       929.42141189
  Solvation  Ediel_sol  =         0.00000000
  ---------------------------------------------------
  free energy    TOTEN  =        -4.71923044 eV

  energy without entropy =       -4.71869680  energy(sigma->0) =       -4.71905256


--------------------------------------------------------------------------------------------------------




--------------------------------------- Iteration      1(   5)  ---------------------------------------


     EDDAV:  cpu time    0.1890: real time    0.3869
       DOS:  cpu time    0.0040: real time    0.0170
    CHARGE:  cpu time    0.0125: real time    0.0256
    MIXING:  cpu time    0.0005: real time    0.0005
    --------------------------------------------
      LOOP:  cpu time    0.2061: real time    0.4300

 eigenvalue-minimisations  :  2301
 total energy-change (2. order) :-0.1013793E-04  (-0.1013871E-04)
 number of electron      11.0000052 magnetization 
 augmentation part        3.8237937 magnetization 

 Broyden mixing:
  rms(total) = 0.31594E+00    rms(broyden)= 0.31592E+00
  rms(prec ) = 0.13103E+01
  weight for this iteration     100.00

 Free energy of the ion-electron system (eV)
  ---------------------------------------------------
  alpha Z        PSCENC =       108.24217189
  Ewald energy   TEWEN  =      -978.98843183
  -Hartree energ DENC   =      -122.41063523
  -exchange      EXHF   =         0.00000000
  -V(xc)+E(xc)   XCENC  =        16.31854387
  PAW double counting   =       746.10209728     -725.46159323
  entropy T*S    EENTRO =        -0.00053364
  eigenvalues    EBANDS =        22.05772841
  atomic energy  EATOM  =       929.42141189
  Solvation  Ediel_sol  =         0.00000000
  ---------------------------------------------------
  free energy    TOTEN  =        -4.71924058 eV

  energy without entropy =       -4.71870694  energy(sigma->0) =       -4.71906270


--------------------------------------------------------------------------------------------------------




--------------------------------------- Iteration      1(   6)  ---------------------------------------


    POTLOK:  cpu time    0.0029: real time    0.0030
    SETDIJ:  cpu time    0.0021: real time    0.0021
     EDDAV:  cpu time    0.1744: real time    0.3558
       DOS:  cpu time    0.0040: real time    0.0040
    CHARGE:  cpu time    0.0115: real time    0.0245
    MIXING:  cpu time    0.0006: real time    0.0007
    --------------------------------------------
      LOOP:  cpu time    0.1955: real time    0.3901

 eigenvalue-minimisations  :  2132
 total energy-change (2. order) : 0.2912570E+00  (-0.9859607E-01)
 number of electron      11.0000054 magnetization 
 augmentation part        3.9690776 magnetization 

 Broyden mixing:
  rms(total) = 0.81709E-01    rms(broyden)= 0.81697E-01
  rms(prec ) = 0.32006E+00
  weight for this iteration     100.00

 eigenvalues of (default mixing * dielectric matrix)
  average eigenvalue GAMMA=   1.2301
  1.2301

 Free energy of the ion-electron system (eV)
  ---------------------------------------------------
  alpha Z        PSCENC =       108.24217189
  Ewald energy   TEWEN  =      -978.98843183
  -Hartree energ DENC   =      -114.41874787
  -exchange      EXHF   =         0.00000000
  -V(xc)+E(xc)   XCENC  =        15.91307169
  PAW double counting   =       740.35937591     -720.99923247
  entropy T*S    EENTRO =         0.00082326
  eigenvalues    EBANDS =        16.04157396
  atomic energy  EATOM  =       929.42141189
  Solvation  Ediel_sol  =         0.00000000
  ---------------------------------------------------
  free energy    TOTEN  =        -4.42798357 eV

  energy without entropy =       -4.42880683  energy(sigma->0) =       -4.42825799


--------------------------------------------------------------------------------------------------------




--------------------------------------- Iteration      1(   7)  ---------------------------------------


    POTLOK:  cpu time    0.0030: real time    0.0156
    SETDIJ:  cpu time    0.0020: real time    0.0020
     EDDAV:  cpu time    0.1864: real time    0.3687
       DOS:  cpu time    0.0039: real time    0.0039
    CHARGE:  cpu time    0.0109: real time    0.0240
    MIXING:  cpu time    0.0010: real time    0.0007
    --------------------------------------------
      LOOP:  cpu time    0.2071: real time    0.4149

 eigenvalue-minimisations  :  2314
 total energy-change (2. order) : 0.2356242E-01  (-0.5491197E-02)
 number of electron      11.0000055 magnetization 
 augmentation part        4.0008098 magnetization 

 Broyden mixing:
  rms(total) = 0.30223E-01    rms(broyden)= 0.30218E-01
  rms(prec ) = 0.71487E-01
  weight for this iteration     100.00

 eigenvalues of (default mixing * dielectric matrix)
  average eigenvalue GAMMA=   1.7787
  1.1915  2.3660

 Free energy of the ion-electron system (eV)
  ---------------------------------------------------
  alpha Z        PSCENC =       108.24217189
  Ewald energy   TEWEN  =      -978.98843183
  -Hartree energ DENC   =      -112.01937152
  -exchange      EXHF   =         0.00000000
  -V(xc)+E(xc)   XCENC  =        15.78692258
  PAW double counting   =       744.02664102     -725.49552119
  entropy T*S    EENTRO =         0.00090099
  eigenvalues    EBANDS =        14.62085502
  atomic energy  EATOM  =       929.42141189
  Solvation  Ediel_sol  =         0.00000000
  ---------------------------------------------------
  free energy    TOTEN  =        -4.40442114 eV

  energy without entropy =       -4.40532214  energy(sigma->0) =       -4.40472148


--------------------------------------------------------------------------------------------------------




--------------------------------------- Iteration      1(   8)  ---------------------------------------


    POTLOK:  cpu time    0.0027: real time    0.0157
    SETDIJ:  cpu time    0.0021: real time    0.0021
     EDDAV:  cpu time    0.1675: real time    0.3368
       DOS:  cpu time    0.0040: real time    0.0040
    CHARGE:  cpu time    0.0114: real time    0.0245
    MIXING:  cpu time    0.0008: real time    0.0007
    --------------------------------------------
      LOOP:  cpu time    0.1885: real time    0.3838

 eigenvalue-minimisations  :  2016
 total energy-change (2. order) : 0.5074657E-02  (-0.1860354E-03)
 number of electron      11.0000055 magnetization 
 augmentation part        4.0000149 magnetization 

 Broyden mixing:
  rms(total) = 0.11434E-02    rms(broyden)= 0.11417E-02
  rms(prec ) = 0.20547E-02
  weight for this iteration     100.00

 eigenvalues of (default mixing * dielectric matrix)
  average eigenvalue GAMMA=   1.6419
  1.1980  1.3126  2.4150

 Free energy of the ion-electron system (eV)
  ---------------------------------------------------
  alpha Z        PSCENC =       108.24217189
  Ewald energy   TEWEN  =      -978.98843183
  -Hartree energ DENC   =      -111.24265194
  -exchange      EXHF   =         0.00000000
  -V(xc)+E(xc)   XCENC  =        15.74157855
  PAW double counting   =       751.11320105     -733.26155032
  entropy T*S    EENTRO =         0.00089761
  eigenvalues    EBANDS =        14.57402662
  atomic energy  EATOM  =       929.42141189
  Solvation  Ediel_sol  =         0.00000000
  ---------------------------------------------------
  free energy    TOTEN  =        -4.39934649 eV

  energy without entropy =       -4.40024409  energy(sigma->0) =       -4.39964569


--------------------------------------------------------------------------------------------------------




--------------------------------------- Iteration      1(   9)  ---------------------------------------


    POTLOK:  cpu time    0.0033: real time    0.0161
    SETDIJ:  cpu time    0.0021: real time    0.0021
     EDDAV:  cpu time    0.1920: real time    0.3744
       DOS:  cpu time    0.0039: real time    0.0169
    CHARGE:  cpu time    0.0105: real time    0.0105
    MIXING:  cpu time    0.0010: real time    0.0138
    --------------------------------------------
      LOOP:  cpu time    0.2127: real time    0.4339

 eigenvalue-minimisations  :  2366
 total energy-change (2. order) :-0.2495398E-05  (-0.9905576E-06)
 number of electron      11.0000055 magnetization 
 augmentation part        4.0001431 magnetization 

 Broyden mixing:
  rms(total) = 0.74637E-03    rms(broyden)= 0.74626E-03
  rms(prec ) = 0.11671E-02
  weight for this iteration     100.00

 eigenvalues of (default mixing * dielectric matrix)
  average eigenvalue GAMMA=   1.8023
  0.9899  1.1916  2.4294  2.5984

 Free energy of the ion-electron system (eV)
  ---------------------------------------------------
  alpha Z        PSCENC =       108.24217189
  Ewald energy   TEWEN  =      -978.98843183
  -Hartree energ DENC   =      -111.23687397
  -exchange      EXHF   =         0.00000000
  -V(xc)+E(xc)   XCENC  =        15.74117636
  PAW double counting   =       751.75470979     -733.90480511
  entropy T*S    EENTRO =         0.00089723
  eigenvalues    EBANDS =        14.57039477
  atomic energy  EATOM  =       929.42141189
  Solvation  Ediel_sol  =         0.00000000
  ---------------------------------------------------
  free energy    TOTEN  =        -4.39934898 eV

  energy without entropy =       -4.40024621  energy(sigma->0) =       -4.39964806


--------------------------------------------------------------------------------------------------------




--------------------------------------- Iteration      1(  10)  ---------------------------------------


    POTLOK:  cpu time    0.0028: real time    0.0030
    SETDIJ:  cpu time    0.0020: real time    0.0021
     EDDAV:  cpu time    0.1735: real time    0.3429
       DOS:  cpu time    0.0041: real time    0.0171
    CHARGE:  cpu time    0.0105: real time    0.0106
    MIXING:  cpu time    0.0010: real time    0.0008
    --------------------------------------------
      LOOP:  cpu time    0.1939: real time    0.3764

 eigenvalue-minimisations  :  2123
 total energy-change (2. order) :-0.2311364E-05  (-0.9516866E-07)
 number of electron      11.0000055 magnetization 
 augmentation part        4.0002040 magnetization 

 Broyden mixing:
  rms(total) = 0.52433E-04    rms(broyden)= 0.52355E-04
  rms(prec ) = 0.16719E-03
  weight for this iteration     100.00

 eigenvalues of (default mixing * dielectric matrix)
  average eigenvalue GAMMA=   1.6753
  2.6072  2.4546  1.0106  1.1803  1.1239

 Free energy of the ion-electron system (eV)
  ---------------------------------------------------
  alpha Z        PSCENC =       108.24217189
  Ewald energy   TEWEN  =      -978.98843183
  -Hartree energ DENC   =      -111.24375895
  -exchange      EXHF   =         0.00000000
  -V(xc)+E(xc)   XCENC  =        15.74146592
  PAW double counting   =       752.44236907     -734.58330965
  entropy T*S    EENTRO =         0.00089689
  eigenvalues    EBANDS =        14.56783347
  atomic energy  EATOM  =       929.42141189
  Solvation  Ediel_sol  =         0.00000000
  ---------------------------------------------------
  free energy    TOTEN  =        -4.39935129 eV

  energy without entropy =       -4.40024819  energy(sigma->0) =       -4.39965026


--------------------------------------------------------------------------------------------------------




--------------------------------------- Iteration      1(  11)  ---------------------------------------


    POTLOK:  cpu time    0.0030: real time    0.0162
    SETDIJ:  cpu time    0.0021: real time    0.0021
     EDDAV:  cpu time    0.1064: real time    0.2076
       DOS:  cpu time    0.0038: real time    0.0038
    --------------------------------------------
      LOOP:  cpu time    0.1153: real time    0.2297

 eigenvalue-minimisations  :  1017
 total energy-change (2. order) : 0.1336389E-07  (-0.2477492E-08)
 number of electron      11.0000055 magnetization 
 augmentation part        4.0002040 magnetization 

 Free energy of the ion-electron system (eV)
  ---------------------------------------------------
  alpha Z        PSCENC =       108.24217189
  Ewald energy   TEWEN  =      -978.98843183
  -Hartree energ DENC   =      -111.24558043
  -exchange      EXHF   =         0.00000000
  -V(xc)+E(xc)   XCENC  =        15.74155890
  PAW double counting   =       752.44691659     -734.58671730
  entropy T*S    EENTRO =         0.00089692
  eigenvalues    EBANDS =        14.56842209
  atomic energy  EATOM  =       929.42141189
  Solvation  Ediel_sol  =         0.00000000
  ---------------------------------------------------
  free energy    TOTEN  =        -4.39935128 eV

  energy without entropy =       -4.40024820  energy(sigma->0) =       -4.39965025


--------------------------------------------------------------------------------------------------------




 average (electrostatic) potential at core
  the test charge radii are     1.2098
  (the norm of the test charge is              1.0000)
       1 -45.7805
 
 
 
 E-fermi :   5.5542     XC(G=0): -13.0052     alpha+bet :-10.3291


 k-point     1 :       0.0500    0.0500    0.0500
  band No.  band energies     occupation 
      1      -4.2844      2.00000
      2       0.8402      2.00000
      3       0.9006      2.00000
      4       0.9006      2.00000
      5       2.4067      2.00000
      6       2.4067      2.00000
      7      21.0204      0.00000
      8      24.1046      0.00000
      9      24.8743      0.00000

 k-point     2 :       0.1500    0.0500    0.0500
  band No.  band energies     occupation 
      1      -3.8289      2.00000
      2       0.6872      2.00000
      3       1.0397      2.00000
      4       1.0712      2.00000
      5       2.2577      2.00000
      6       2.4568      2.00000
      7      21.3234      0.00000
      8      22.1531      0.00000
      9      24.4918      0.00000

 k-point     3 :       0.2500    0.0500    0.0500
  band No.  band energies     occupation 
      1      -2.8429      2.00000
      2       0.5697      2.00000
      3       1.1914      2.00000
      4       1.2136      2.00000
      5       2.2674      2.00000
      6       2.6720      2.00000
      7      18.2412      0.00000
      8      21.9332      0.00000
      9      24.6486      0.00000

 k-point     4 :       0.3500    0.0500    0.0500
  band No.  band energies     occupation 
      1      -1.9594      2.00000
      2       1.0118      2.00000
      3       1.0979      2.00000
      4       1.2425      2.00000
      5       2.7576      2.00000
      6       3.2432      2.00000
      7      14.2088      0.00000
      8      21.2569      0.00000
      9      23.6830      0.00000

 k-point     5 :       0.4500    0.0500    0.0500
  band No.  band energies     occupation 
      1      -1.7378      2.00000
      2       0.8600      2.00000
      3       0.9305      2.00000
      4       2.7511      2.00000
      5       3.3555      2.00000
      6       4.1268      2.00000
      7      10.4200     -0.00000
      8      20.4987      0.00000
      9      22.7560      0.00000

 k-point     6 :      -0.4500    0.0500    0.0500
  band No.  band energies     occupation 
      1      -1.7328      2.00000
      2       0.7935      2.00000
      3       0.8909      2.00000
      4       3.1610      2.00000
      5       3.6389      2.00000
      6       5.0093      2.00080
      7       8.7467     -0.00000
      8      20.2920      0.00000
      9      22.8115      0.00000

 k-point     7 :      -0.3500    0.0500    0.0500
  band No.  band energies     occupation 
      1      -1.7644      2.00000
      2       0.8906      2.00000
      3       1.0012      2.00000
      4       2.1845      2.00000
      5       3.4365      2.00000
      6       3.5683      2.00000
      7      11.5979      0.00000
      8      20.7360      0.00000
      9      23.2228      0.00000

 k-point     8 :      -0.2500    0.0500    0.0500
  band No.  band energies     occupation 
      1      -2.1828      2.00000
      2       0.8216      2.00000
      3       1.1140      2.00000
      4       1.1738      2.00000
      5       2.6680      2.00000
      6       2.9334      2.00000
      7      15.5604      0.00000
      8      21.6362      0.00000
      9      24.1696      0.00000

 k-point     9 :      -0.1500    0.0500    0.0500
  band No.  band energies     occupation 
      1      -3.2054      2.00000
      2       0.5585      2.00000
      3       1.1835      2.00000
      4       1.1960      2.00000
      5       2.2237      2.00000
      6       2.5471      2.00000
      7      19.5288      0.00000
      8      22.0403      0.00000
      9      24.6563      0.00000

 k-point    10 :      -0.0500    0.0500    0.0500
  band No.  band energies     occupation 
      1      -4.0528      2.00000
      2       0.7324      2.00000
      3       0.9959      2.00000
      4       1.0015      2.00000
      5       2.2818      2.00000
      6       2.4643      2.00000
      7      21.2554      0.00000
      8      23.1868      0.00000
      9      24.6106      0.00000

 k-point    11 :       0.1500    0.1500    0.0500
  band No.  band energies     occupation 
      1      -3.6029      2.00000
      2       0.5169      2.00000
      3       1.1958      2.00000
      4       1.1996      2.00000
      5       2.0632      2.00000
      6       2.5745      2.00000
      7      21.6212      0.00000
      8      22.3223      0.00000
      9      23.9276      0.00000

 k-point    12 :       0.2500    0.1500    0.0500
  band No.  band energies     occupation 
      1      -2.7836      2.00000
      2       0.2695      2.00000
      3       1.2941      2.00000
      4       1.4778      2.00000
      5       2.0122      2.00000
      6       2.7959      2.00000
      7      19.7825      0.00000
      8      21.5892      0.00000
      9      23.5692      0.00000

 k-point    13 :       0.3500    0.1500    0.0500
  band No.  band energies     occupation 
      1      -1.7762      2.00000
      2       0.3555      2.00000
      3       0.9934      2.00000
      4       1.4877      2.00000
      5       2.6730      2.00000
      6       3.3777      2.00000
      7      15.7901      0.00000
      8      21.0416      0.00000
      9      22.5103      0.00000

 k-point    14 :       0.4500    0.1500    0.0500
  band No.  band energies     occupation 
      1      -1.3891      2.00000
      2       0.6920      2.00000
      3       1.2289      2.00000
      4       1.3877      2.00000
      5       3.4199      2.00000
      6       4.5597      2.00000
      7      11.7959      0.00000
      8      20.5645      0.00000
      9      21.2327      0.00000

 k-point    15 :      -0.4500    0.1500    0.0500
  band No.  band energies     occupation 
      1      -1.3667      2.00000
      2       0.5638      2.00000
      3       1.1893      2.00000
      4       2.1238      2.00000
      5       3.5921      2.00000
      6       6.4412     -0.00000
      7       8.7345     -0.00000
      8      20.1044      0.00000
      9      20.8763      0.00000

 k-point    16 :      -0.3500    0.1500    0.0500
  band No.  band energies     occupation 
      1      -1.3505      2.00000
      2       0.6442      2.00000
      3       1.2145      2.00000
      4       1.7963      2.00000
      5       3.2749      2.00000
      6       5.2639      2.05952
      7      10.6521     -0.00000
      8      19.7689      0.00000
      9      21.3506      0.00000

 k-point    17 :      -0.2500    0.1500    0.0500
  band No.  band energies     occupation 
      1      -1.5344      2.00000
      2       0.6366      2.00000
      3       0.9456      2.00000
      4       1.4029      2.00000
      5       2.5836      2.00000
      6       3.9181      2.00000
      7      14.4532      0.00000
      8      20.0186      0.00000
      9      22.4580      0.00000

 k-point    18 :      -0.1500    0.1500    0.0500
  band No.  band energies     occupation 
      1      -2.4284      2.00000
      2       0.3126      2.00000
      3       1.1888      2.00000
      4       1.5010      2.00000
      5       2.0061      2.00000
      6       3.0583      2.00000
      7      18.3805      0.00000
      8      20.6516      0.00000
      9      24.1491      0.00000

 k-point    19 :      -0.0500    0.1500    0.0500
  band No.  band energies     occupation 
      1      -3.3946      2.00000
      2       0.5208      2.00000
      3       1.1986      2.00000
      4       1.2089      2.00000
      5       2.1035      2.00000
      6       2.5841      2.00000
      7      20.7792      0.00000
      8      21.7763      0.00000
      9      24.0539      0.00000

 k-point    20 :       0.2500    0.2500    0.0500
  band No.  band energies     occupation 
      1      -2.2367      2.00000
      2      -0.0863      2.00000
      3       1.4477      2.00000
      4       1.8589      2.00000
      5       2.0523      2.00000
      6       2.9167      2.00000
      7      20.2366      0.00000
      8      21.3575      0.00000
      9      22.4876      0.00000

 k-point    21 :       0.3500    0.2500    0.0500
  band No.  band energies     occupation 
      1      -1.4397      2.00000
      2      -0.3112      2.00000
      3       1.1896      2.00000
      4       2.2077      2.00000
      5       2.7111      2.00000
      6       3.3988      2.00000
      7      17.5086      0.00000
      8      19.4599      0.00000
      9      21.0967      0.00000

 k-point    22 :       0.4500    0.2500    0.0500
  band No.  band energies     occupation 
      1      -0.9731      2.00000
      2      -0.0512      2.00000
      3       0.9439      2.00000
      4       2.0755      2.00000
      5       3.5074      2.00000
      6       4.8316      2.00000
      7      13.4384      0.00000
      8      18.7732      0.00000
      9      19.3624      0.00000

 k-point    23 :      -0.4500    0.2500    0.0500
  band No.  band energies     occupation 
      1      -0.8545      2.00000
      2       0.2122      2.00000
      3       1.1475      2.00000
      4       1.8766      2.00000
      5       3.6275      2.00000
      6       7.2820     -0.00000
      7       9.8568     -0.00000
      8      17.4815      0.00000
      9      19.4317      0.00000

 k-point    24 :      -0.3500    0.2500    0.0500
  band No.  band energies     occupation 
      1      -0.6839      2.00000
      2       0.2771      2.00000
      3       1.1699      2.00000
      4       1.7721      2.00000
      5       3.2290      2.00000
      6       7.1210     -0.00000
      7      10.3839     -0.00000
      8      16.3981      0.00000
      9      20.6302      0.00000

 k-point    25 :      -0.2500    0.2500    0.0500
  band No.  band energies     occupation 
      1      -0.6046      2.00000
      2       0.3512      2.00000
      3       0.6104      2.00000
      4       1.8529      2.00000
      5       2.5423      2.00000
      6       5.3257      2.06859
      7      13.7711      0.00000
      8      16.3157      0.00000
      9      21.8938      0.00000

 k-point    26 :      -0.1500    0.2500    0.0500
  band No.  band energies     occupation 
      1      -1.3816      2.00000
      2       0.2347      2.00000
      3       0.9174      2.00000
      4       1.7300      2.00000
      5       2.1449      2.00000
      6       4.0076      2.00000
      7      15.9061      0.00000
      8      18.5561      0.00000
      9      22.9251      0.00000

 k-point    27 :      -0.0500    0.2500    0.0500
  band No.  band energies     occupation 
      1      -2.3436      2.00000
      2       0.4934      2.00000
      3       1.1619      2.00000
      4       1.3099      2.00000
      5       2.3312      2.00000
      6       2.9856      2.00000
      7      16.9995      0.00000
      8      21.6332      0.00000
      9      23.6895      0.00000

 k-point    28 :       0.3500    0.3500    0.0500
  band No.  band energies     occupation 
      1      -1.2959      2.00000
      2      -0.6892      2.00000
      3       2.0717      2.00000
      4       2.7375      2.00000
      5       3.1688      2.00000
      6       3.3309      2.00000
      7      17.4384      0.00000
      8      18.4592      0.00000
      9      18.6940      0.00000

 k-point    29 :       0.4500    0.3500    0.0500
  band No.  band energies     occupation 
      1      -1.1479      2.00000
      2      -0.7983      2.00000
      3       2.1198      2.00000
      4       3.0373      2.00000
      5       3.5213      2.00000
      6       4.8850      2.00002
      7      14.6229      0.00000
      8      16.7587      0.00000
      9      17.3831      0.00000

 k-point    30 :      -0.4500    0.3500    0.0500
  band No.  band energies     occupation 
      1      -0.9797      2.00000
      2      -0.4841      2.00000
      3       1.7631      2.00000
      4       2.7338      2.00000
      5       3.7255      2.00000
      6       7.5073     -0.00000
      7      11.4179      0.00000
      8      15.0104      0.00000
      9      17.5028      0.00000

 k-point    31 :      -0.3500    0.3500    0.0500
  band No.  band energies     occupation 
      1      -0.6875      2.00000
      2       0.0246      2.00000
      3       1.2179      2.00000
      4       2.4037      2.00000
      5       3.4020      2.00000
      6       8.7209     -0.00000
      7      10.8480     -0.00000
      8      13.3413      0.00000
      9      18.8316      0.00000

 k-point    32 :      -0.2500    0.3500    0.0500
  band No.  band energies     occupation 
[...]
      5       3.7252      2.00000
      6       6.6125     -0.00000
      7      11.0187      0.00000
      8      17.2028      0.00000
      9      19.2465      0.00000

 k-point    89 :       0.3500    0.3500    0.2500
  band No.  band energies     occupation 
      1      -1.7577      2.00000
      2       0.8105      2.00000
      3       0.9546      2.00000
      4       1.2813      2.00000
      5       3.1432      2.00000
      6       3.2589      2.00000
      7      14.3130      0.00000
      8      21.4432      0.00000
      9      22.6277      0.00000

 k-point    90 :       0.4500    0.3500    0.2500
  band No.  band energies     occupation 
      1      -1.1311      2.00000
      2       0.6168      2.00000
      3       0.6552      2.00000
      4       1.6356      2.00000
      5       2.9926      2.00000
      6       4.5996      2.00000
      7      13.3024      0.00000
      8      19.0632      0.00000
      9      21.2923      0.00000

 k-point    91 :      -0.4500    0.3500    0.2500
  band No.  band energies     occupation 
      1      -0.2816      2.00000
      2       0.2284      2.00000
      3       0.3939      2.00000
      4       2.1354      2.00000
      5       2.9286      2.00000
      6       6.2040     -0.00004
      7      12.9385      0.00000
      8      15.2918      0.00000
      9      20.0734      0.00000

 k-point    92 :      -0.3500    0.3500    0.2500
  band No.  band energies     occupation 
      1      -0.3558      2.00000
      2       0.1412      2.00000
      3       0.7334      2.00000
      4       2.2333      2.00000
      5       3.3410      2.00000
      6       8.0181     -0.00000
      7      11.6307      0.00000
      8      13.6659      0.00000
      9      18.5587      0.00000

 k-point    93 :      -0.2500    0.3500    0.2500
  band No.  band energies     occupation 
      1      -0.6868      2.00000
      2      -0.1512      2.00000
      3       1.1487      2.00000
      4       2.4822      2.00000
      5       3.6363      2.00000
      6       8.2960     -0.00000
      7      10.6638     -0.00000
      8      14.9600      0.00000
      9      17.3400      0.00000

 k-point    94 :       0.4500    0.4500    0.2500
  band No.  band energies     occupation 
      1      -1.0612      2.00000
      2       0.2933      2.00000
      3       0.9663      2.00000
      4       1.7497      2.00000
      5       3.6841      2.00000
      6       5.1984      2.03051
      7      12.0007      0.00000
      8      19.3269      0.00000
      9      20.1167      0.00000

 k-point    95 :      -0.4500    0.4500    0.2500
  band No.  band energies     occupation 
      1      -0.6877      2.00000
      2       0.0218      2.00000
      3       0.8829      2.00000
      4       2.2581      2.00000
      5       3.5422      2.00000
      6       6.8358     -0.00000
      7      11.3374      0.00000
      8      16.7630      0.00000
      9      18.1032      0.00000

 k-point    96 :      -0.3500    0.4500    0.2500
  band No.  band energies     occupation 
      1      -0.3071      2.00000
      2       0.0837      2.00000
      3       0.5399      2.00000
      4       2.3709      2.00000
      5       3.6812      2.00000
      6       8.6574     -0.00000
      7      11.7047      0.00000
      8      13.5792      0.00000
      9      16.3945      0.00000

 k-point    97 :      -0.2500    0.4500    0.2500
  band No.  band energies     occupation 
      1      -0.4301      2.00000
      2       0.0907      2.00000
      3       0.6987      2.00000
      4       2.3264      2.00000
      5       3.8985      2.00000
      6       9.9170     -0.00000
      7      11.3792      0.00000
      8      12.7227      0.00000
      9      15.4145      0.00000

 k-point    98 :      -0.4500   -0.4500    0.2500
  band No.  band energies     occupation 
      1      -0.8977      2.00000
      2      -0.1858      2.00000
      3       1.5054      2.00000
      4       2.4127      2.00000
      5       3.6510      2.00000
      6       8.1575     -0.00000
      7      10.2843     -0.00000
      8      15.1005      0.00000
      9      18.6638      0.00000

 k-point    99 :      -0.3500   -0.4500    0.2500
  band No.  band energies     occupation 
      1      -0.7253      2.00000
      2      -0.2243      2.00000
      3       1.3541      2.00000
      4       2.5629      2.00000
      5       3.6900      2.00000
      6       9.5207     -0.00000
      7      10.4496     -0.00000
      8      13.3267      0.00000
      9      17.0234      0.00000

 k-point   100 :      -0.3500   -0.3500    0.2500
  band No.  band energies     occupation 
      1      -0.9145      2.00000
      2      -0.2772      2.00000
      3       1.7023      2.00000
      4       2.6701      2.00000
      5       3.5300      2.00000
      6       9.3518     -0.00000
      7      10.1121     -0.00000
      8      13.3781      0.00000
      9      18.3732      0.00000

 k-point   101 :       0.3500    0.3500    0.3500
  band No.  band energies     occupation 
      1      -1.9000      2.00000
      2       0.9971      2.00000
      3       0.9971      2.00000
      4       1.8780      2.00000
      5       3.1342      2.00000
      6       3.1342      2.00000
      7      12.8395      0.00000
      8      20.9590      0.00000
      9      24.4751      0.00000

 k-point   102 :       0.4500    0.3500    0.3500
  band No.  band energies     occupation 
      1      -1.5536      2.00000
      2       0.8138      2.00000
      3       1.1087      2.00000
      4       1.8002      2.00000
      5       3.0259      2.00000
      6       4.3852      2.00000
      7      11.7356      0.00000
      8      20.3688      0.00000
      9      21.9785      0.00000

 k-point   103 :      -0.4500    0.3500    0.3500
  band No.  band energies     occupation 
      1      -0.8482      2.00000
      2       0.4402      2.00000
      3       1.2508      2.00000
      4       1.5651      2.00000
      5       3.0034      2.00000
      6       6.1197     -0.00047
      7      11.2126      0.00000
      8      17.1530      0.00000
      9      22.1152      0.00000

 k-point   104 :      -0.3500    0.3500    0.3500
  band No.  band energies     occupation 
      1      -0.5802      2.00000
      2       0.2642      2.00000
      3       0.9916      2.00000
      4       2.1878      2.00000
      5       3.1510      2.00000
      6       7.7693     -0.00000
      7      11.5597      0.00000
      8      13.6617      0.00000
      9      20.4260      0.00000

 k-point   105 :       0.4500    0.4500    0.3500
  band No.  band energies     occupation 
      1      -1.5515      2.00000
      2       0.7245      2.00000
      3       1.1098      2.00000
      4       2.0036      2.00000
      5       3.6241      2.00000
      6       4.6900      2.00000
      7      10.4851     -0.00000
      8      20.6093      0.00000
      9      22.1945      0.00000

 k-point   106 :      -0.4500    0.4500    0.3500
  band No.  band energies     occupation 
      1      -1.0854      2.00000
      2       0.4224      2.00000
      3       1.4000      2.00000
      4       1.6086      2.00000
      5       3.4772      2.00000
      6       6.4794     -0.00000
      7       9.7068     -0.00000
      8      19.1358      0.00000
      9      20.0497      0.00000

 k-point   107 :      -0.3500    0.4500    0.3500
  band No.  band energies     occupation 
      1      -0.4918      2.00000
      2       0.0827      2.00000
      3       0.9884      2.00000
      4       2.0312      2.00000
      5       3.4348      2.00000
      6       8.3345     -0.00000
      7       9.7274     -0.00000
      8      15.7570      0.00000
      9      18.6936      0.00000

 k-point   108 :      -0.4500   -0.4500    0.3500
  band No.  band energies     occupation 
      1      -0.9722      2.00000
      2       0.3372      2.00000
      3       1.4514      2.00000
      4       1.5964      2.00000
      5       3.5733      2.00000
      6       7.7201     -0.00000
      7       8.7467     -0.00000
      8      17.9021      0.00000
      9      20.8874      0.00000

 k-point   109 :       0.4500    0.4500    0.4500
  band No.  band energies     occupation 
      1      -1.7992      2.00000
      2       0.8557      2.00000
      3       0.8557      2.00000
      4       3.5712      2.00000
      5       3.5712      2.00000
      6       4.0010      2.00000
      7       9.3888     -0.00000
      8      20.3082      0.00000
      9      23.3195      0.00000

 k-point   110 :      -0.4500    0.4500    0.4500
  band No.  band energies     occupation 
      1      -1.5416      2.00000
      2       0.6815      2.00000
      3       1.0314      2.00000
      4       2.5575      2.00000
      5       3.5487      2.00000
      6       5.8614     -0.05202
      7       8.7529     -0.00000
      8      20.2362      0.00000
      9      21.7433      0.00000


--------------------------------------------------------------------------------------------------------


 soft charge-density along one line, spin component           1
         0         1         2         3         4         5         6         7         8         9
 total charge-density along one line
 
 pseudopotential strength for first ion, spin component:           1
 -9.789   0.000   0.000   0.000   0.000   0.000   0.000   0.000   0.000   0.000  -0.098   0.000   0.000   0.000  -0.000   0.000
  0.000   0.000  -9.789   0.000  -0.000   0.000   0.000   0.000   0.000   0.000   0.000   0.000  -0.098   0.000   0.000   0.000
  0.000   0.000  -0.000   0.000  -9.771   0.000  -0.000   0.000  -0.000   0.000  -0.000   0.000   0.000   0.000  -0.100   0.000
  0.000   0.000   0.000   0.000  -0.000   0.000  -9.789   0.000  -0.000   0.000   0.000   0.000   0.000   0.000   0.000   0.000
  0.000   0.000   0.000   0.000  -0.000   0.000  -0.000   0.000  -9.771   0.000  -0.000   0.000  -0.000   0.000   0.000   0.000
 -0.098   0.000   0.000   0.000  -0.000   0.000   0.000   0.000  -0.000   0.000   0.284   0.000  -0.000   0.000   0.000   0.000
  0.000   0.000  -0.098   0.000   0.000   0.000   0.000   0.000  -0.000   0.000  -0.000   0.000   0.284   0.000  -0.000   0.000
 -0.000   0.000   0.000   0.000  -0.100   0.000   0.000   0.000   0.000   0.000   0.000   0.000  -0.000   0.000   0.284   0.000
  0.000   0.000   0.000   0.000   0.000   0.000  -0.098   0.000   0.000   0.000  -0.000   0.000  -0.000   0.000  -0.000   0.000
 -0.000   0.000  -0.000   0.000   0.000   0.000   0.000   0.000  -0.100   0.000   0.000   0.000   0.000   0.000  -0.000   0.000
  0.000   0.000   0.000   0.000   0.000   0.000   0.000   0.000  -0.000   0.000   0.000   0.000   0.000   0.000  -0.000   0.000
 -0.000   0.000  -0.000   0.000  -0.000   0.000  -0.000   0.000   0.000   0.000   0.000   0.000   0.000   0.000   0.000   0.000
 -0.000   0.000   0.000   0.000  -0.000   0.000   0.000   0.000   0.000   0.000   0.000   0.000  -0.000   0.000  -0.000   0.000
  0.000   0.000  -0.000   0.000   0.000   0.000  -0.000   0.000   0.000   0.000  -0.000   0.000   0.000   0.000  -0.000   0.000
  0.000   0.000   0.000   0.000   0.000   0.000   0.000   0.000  -0.000   0.000   0.000   0.000  -0.000   0.000  -0.000   0.000
  0.000   0.000  -0.000   0.000   0.000   0.000  -0.000   0.000  -0.000   0.000  -0.000   0.000   0.000   0.000  -0.000   0.000
 -0.000   0.000   0.000   0.000  -0.000   0.000   0.000   0.000  -0.000   0.000   0.000   0.000  -0.000   0.000   0.000   0.000
 -0.000   0.000  -0.000   0.000  -0.000   0.000  -0.000   0.000   0.000   0.000  -0.000   0.000   0.000   0.000   0.000   0.000
 total augmentation occupancy for first ion, spin component:           1
  1.901   0.000  -0.000  -0.000  -0.000  -0.045   0.000   0.000   0.000   0.000   0.000   0.000   0.000   0.000   0.000   0.000
 -0.000   1.901   0.000   0.000   0.000   0.000  -0.045  -0.000  -0.000   0.000   0.000  -0.000   0.000   0.000   0.000   0.000
  0.000  -0.000   1.949  -0.000   0.000   0.000   0.000  -0.093   0.000   0.000   0.000   0.000   0.000   0.000   0.000   0.000
  0.000   0.000   0.000   1.901  -0.000  -0.000   0.000  -0.000  -0.045  -0.000   0.000  -0.000   0.000   0.000   0.000   0.000
  0.000   0.000   0.000   0.000   1.949   0.000   0.000   0.000   0.000  -0.093   0.000   0.000   0.000   0.000   0.000   0.000
 -0.045  -0.000   0.000   0.000  -0.000   0.227  -0.000   0.000  -0.000   0.000   0.000   0.000   0.000   0.000   0.000   0.000
 -0.000  -0.045  -0.000  -0.000   0.000  -0.000   0.227   0.000  -0.000   0.000   0.000   0.000   0.000   0.000   0.000   0.000
  0.000  -0.000  -0.093   0.000  -0.000   0.000   0.000   0.181   0.000   0.000  -0.000   0.000   0.000   0.000   0.000   0.000
  0.000   0.000  -0.000  -0.045  -0.000  -0.000  -0.000  -0.000   0.227   0.000   0.000   0.000   0.000   0.000   0.000   0.000
 -0.000   0.000   0.000  -0.000  -0.093   0.000   0.000   0.000   0.000   0.181   0.000   0.000   0.000   0.000   0.000   0.000
 -0.000   0.000   0.000  -0.000   0.000   0.000  -0.000  -0.000  -0.000   0.000   1.079  -0.389   0.000   0.000   0.000   0.000
  0.000  -0.000   0.000   0.000   0.000   0.000   0.000   0.000   0.000   0.000  -0.389   0.257   0.000   0.000   0.000   0.000
  0.000   0.000   0.000   0.000   0.000   0.000   0.000   0.000   0.000   0.000   0.000   0.000   0.167   0.000   0.000  -0.013
  0.000   0.000   0.000   0.000   0.000   0.000   0.000   0.000   0.000   0.000   0.000   0.000   0.000   0.167  -0.000   0.000
  0.000   0.000   0.000   0.000   0.000   0.000   0.000   0.000   0.000   0.000   0.000   0.000   0.000  -0.000   0.167   0.000
  0.000   0.000   0.000   0.000   0.000   0.000   0.000   0.000   0.000   0.000   0.000   0.000  -0.013  -0.000   0.000   0.001
  0.000   0.000   0.000   0.000   0.000   0.000   0.000   0.000   0.000   0.000   0.000   0.000   0.000  -0.013  -0.000   0.000
  0.000   0.000   0.000   0.000   0.000   0.000   0.000   0.000   0.000   0.000   0.000   0.000  -0.000  -0.000  -0.013   0.000


------------------------ aborting loop because EDIFF is reached ----------------------------------------


    CHARGE:  cpu time    0.0106: real time    0.0106
    FORLOC:  cpu time    0.0006: real time    0.0005
    FORNL :  cpu time    0.0367: real time    0.0728
    STRESS:  cpu time    0.1123: real time    0.2367
    FORCOR:  cpu time    0.0029: real time    0.0029
    FORHAR:  cpu time    0.0022: real time    0.0022
    MIXING:  cpu time    0.0008: real time    0.0138
    OFIELD:  cpu time    0.0001: real time    0.0001

  FORCE on cell =-STRESS in cart. coord.  units (eV):
  Direction    XX          YY          ZZ          XY          YZ          ZX
  --------------------------------------------------------------------------------------
  Alpha Z   108.24217   108.24217   108.24217
  Ewald    -326.32949  -326.32949  -326.32949     0.00000     0.00000     0.00000
  Hartree    37.08178    37.08178    37.08178    -0.00000    -0.00000    -0.00000
  E(xc)     -49.05242   -49.05242   -49.05242     0.00001     0.00001     0.00001
  Local      82.33363    82.33363    82.33363     0.00014     0.00014     0.00014
  n-local   -48.99260   -46.16727   -49.90182     0.59645    -0.66095     0.01413
  augment    42.47143    42.47143    42.47143    -0.00002    -0.00002    -0.00002
  Kinetic   153.27361   152.13461   154.32918    -0.41120     0.21543     0.01192
  Fock        0.00000     0.00000     0.00000     0.00000     0.00000     0.00000
  -------------------------------------------------------------------------------------
  Total      -0.36100    -0.36100    -0.36100     0.00000     0.00000     0.00000
  in kB     -34.06374   -34.06374   -34.06374     0.00000     0.00000     0.00000
  external pressure =      -34.06 kB  Pullay stress =        0.00 kB


 VOLUME and BASIS-vectors are now :
 -----------------------------------------------------------------------------
  energy-cutoff  :      300.00
  volume of cell :       16.98
      direct lattice vectors                 reciprocal lattice vectors
     0.000000000  2.040000000  2.040000000    -0.245098039  0.245098039  0.245098039
     2.040000000  0.000000000  2.040000000     0.245098039 -0.245098039  0.245098039
     2.040000000  2.040000000  0.000000000     0.245098039  0.245098039 -0.245098039

  length of vectors
     2.884995667  2.884995667  2.884995667     0.424522257  0.424522257  0.424522257


 FORCES acting on ions
    electron-ion (+dipol)            ewald-force                    non-local-force                 convergence-correction
 -----------------------------------------------------------------------------------------------
   0.276E-14 0.149E-14 -.111E-14   -.208E-15 0.128E-14 0.450E-14   0.000E+00 0.000E+00 0.517E-25   0.250E-14 -.418E-15 -.335E-15
 -----------------------------------------------------------------------------------------------
   0.276E-14 0.149E-14 -.111E-14   -.208E-15 0.128E-14 0.450E-14   0.000E+00 0.000E+00 0.517E-25   0.250E-14 -.418E-15 -.335E-15
 
 
 POSITION                                       TOTAL-FORCE (eV/Angst)
 -----------------------------------------------------------------------------------
      0.00000      0.00000      0.00000         0.000000     -0.000000      0.000000
 -----------------------------------------------------------------------------------
    total drift:                                0.000000      0.000000      0.000000


--------------------------------------------------------------------------------------------------------



  FREE ENERGIE OF THE ION-ELECTRON SYSTEM (eV)
  ---------------------------------------------------
  free  energy   TOTEN  =        -4.39935128 eV

  energy  without entropy=       -4.40024820  energy(sigma->0) =       -4.39965025
 


--------------------------------------------------------------------------------------------------------


    POTLOK:  cpu time    0.0052: real time    0.0053


--------------------------------------------------------------------------------------------------------


     LOOP+:  cpu time    2.3171: real time    4.7024
    4ORBIT:  cpu time    0.0000: real time    0.0000

volume of typ            1:    83.8 %
 
total charge     
 
# of ion       s       p       d       tot
------------------------------------------
    1        0.594   0.453   8.860   9.907
 
orbital moment (x)
 
# of ion     s             p             d             tot
-----------------------------------------------------------------
    1     0.000000E+00 -0.273686E-08  0.102154E-08 -0.171532E-08
 
orbital moment (y)
 
# of ion     s             p             d             tot
-----------------------------------------------------------------
    1     0.000000E+00 -0.606276E-09  0.344446E-11 -0.602832E-09
 
orbital moment (z)
 
# of ion     s             p             d             tot
-----------------------------------------------------------------
    1     0.000000E+00 -0.430150E-09  0.266877E-09 -0.163273E-09
 

 total amount of memory used by VASP MPI-rank0    38890. kBytes
=======================================================================

   base      :      30000. kBytes
   nonl-proj :       3250. kBytes
   fftplans  :        932. kBytes
   grid      :       1161. kBytes
   one-center:         15. kBytes
   wavefun   :       3532. kBytes
 
  
  
 General timing and accounting informations for this job:
 ========================================================
  
                  Total CPU time used (sec):        2.999
                            User time (sec):        2.716
                          System time (sec):        0.284
                         Elapsed time (sec):        6.210
  
                   Maximum memory used (kb):       62112.
                   Average memory used (kb):           0.
  
                          Minor page faults:         9201
                          Major page faults:            0
                 Voluntary context switches:          289
