<?xml version="1.0" encoding="ISO-8859-1"?>
<modeling>
 <generator>
  <i name="program" type="string">vasp </i>
  <i name="version" type="string">5.4.4.18Apr17-6-g9f103f2a35  </i>
  <i name="subversion" type="string">(build May 20 2018 16:52:39) complex            parallel </i>
  <i name="platform" type="string">LinuxIFC </i>
  <i name="date" type="string">2022 09 19 </i>
  <i name="time" type="string">16:54:30 </i>
 </generator>
 <incar>
  <i type="string" name="SYSTEM"> fcc Au</i>
  <i type="string" name="PREC">normal</i>
  <i name="EDIFF">      0.00000100</i>
  <i name="ENCUT">    300.00000000</i>
  <v name="RWIGS">      1.50300000</v>
  <i type="logical" name="LWAVE"> F  </i>
  <v type="int" name="KPOINT_BSE">    -1     0     0     0</v>
 </incar>
 <structure name="primitive_cell" >
  <crystal>
   <varray name="basis" >
    <v>       0.00000000       2.04000000       2.04000000 </v>
    <v>       2.04000000       0.00000000       2.04000000 </v>
    <v>       2.04000000       2.04000000       0.00000000 </v>
   </varray>
   <i name="volume">     16.97932800 </i>
   <varray name="rec_basis" >
    <v>      -0.24509804       0.24509804       0.24509804 </v>
    <v>       0.24509804      -0.24509804       0.24509804 </v>
    <v>       0.24509804       0.24509804      -0.24509804 </v>
   </varray>
  </crystal>
  <varray name="positions" >
   <v>       0.00000000       0.00000000       0.00000000 </v>
  </varray>
 </structure>
 <varray name="primitive_index" >
  <v type="int" >        1 </v>
 </varray>
 <kpoints>
  <generation param="Monkhorst-Pack">
   <v type="int" name="divisions">      10       10       10 </v>
   <v name="usershift">      0.00000000       0.00000000       0.00000000 </v>
   <v name="genvec1">      0.10000000       0.00000000       0.00000000 </v>
   <v name="genvec2">      0.00000000       0.10000000       0.00000000 </v>
   <v name="genvec3">      0.00000000       0.00000000       0.10000000 </v>
   <v name="shift">      0.50000000       0.50000000       0.50000000 </v>
  </generation>
  <varray name="kpointlist" >
   <v>       0.05000000       0.05000000       0.05000000 </v>
   <v>       0.15000000       0.05000000       0.05000000 </v>
   <v>       0.25000000       0.05000000       0.05000000 </v>
   <v>       0.35000000       0.05000000       0.05000000 </v>
   <v>       0.45000000       0.05000000       0.05000000 </v>
   <v>      -0.45000000       0.05000000       0.05000000 </v>
   <v>      -0.35000000       0.05000000       0.05000000 </v>
   <v>      -0.25000000       0.05000000       0.05000000 </v>
   <v>      -0.15000000       0.05000000       0.05000000 </v>
   <v>      -0.05000000       0.05000000       0.05000000 </v>
   <v>       0.15000000       0.15000000       0.05000000 </v>
   <v>       0.25000000       0.15000000       0.05000000 </v>
   <v>       0.35000000       0.15000000       0.05000000 </v>
   <v>       0.45000000       0.15000000       0.05000000 </v>
   <v>      -0.45000000       0.15000000       0.05000000 </v>
   <v>      -0.35000000       0.15000000       0.05000000 </v>
   <v>      -0.25000000       0.15000000       0.05000000 </v>
   <v>      -0.15000000       0.15000000       0.05000000 </v>
   <v>      -0.05000000       0.15000000       0.05000000 </v>
   <v>       0.25000000       0.25000000       0.05000000 </v>
   <v>       0.35000000       0.25000000       0.05000000 </v>
   <v>       0.45000000       0.25000000       0.05000000 </v>
   <v>      -0.45000000       0.25000000       0.05000000 </v>
   <v>      -0.35000000       0.25000000       0.05000000 </v>
   <v>      -0.25000000       0.25000000       0.05000000 </v>
   <v>      -0.15000000       0.25000000       0.05000000 </v>
   <v>      -0.05000000       0.25000000       0.05000000 </v>
   <v>       0.35000000       0.35000000       0.05000000 </v>
   <v>       0.45000000       0.35000000       0.05000000 </v>
   <v>      -0.45000000       0.35000000       0.05000000 </v>
   <v>      -0.35000000       0.35000000       0.05000000 </v>
   <v>      -0.25000000       0.35000000       0.05000000 </v>
   <v>      -0.15000000       0.35000000       0.05000000 </v>
   <v>      -0.05000000       0.35000000       0.05000000 </v>
   <v>       0.45000000       0.45000000       0.05000000 </v>
   <v>      -0.45000000       0.45000000       0.05000000 </v>
   <v>      -0.35000000       0.45000000       0.05000000 </v>
   <v>      -0.25000000       0.45000000       0.05000000 </v>
   <v>      -0.15000000       0.45000000       0.05000000 </v>
   <v>      -0.05000000       0.45000000       0.05000000 </v>
   <v>      -0.45000000      -0.45000000       0.05000000 </v>
   <v>      -0.35000000      -0.45000000       0.05000000 </v>
   <v>      -0.25000000      -0.45000000       0.05000000 </v>
   <v>      -0.15000000      -0.45000000       0.05000000 </v>
   <v>      -0.35000000      -0.35000000       0.05000000 </v>
   <v>      -0.25000000      -0.35000000       0.05000000 </v>
   <v>      -0.15000000      -0.35000000       0.05000000 </v>
   <v>      -0.25000000      -0.25000000       0.05000000 </v>
   <v>      -0.15000000      -0.25000000       0.05000000 </v>
   <v>      -0.15000000      -0.15000000       0.05000000 </v>
   <v>       0.15000000       0.15000000       0.15000000 </v>
   <v>       0.25000000       0.15000000       0.15000000 </v>
   <v>       0.35000000       0.15000000       0.15000000 </v>
   <v>       0.45000000       0.15000000       0.15000000 </v>
   <v>      -0.45000000       0.15000000       0.15000000 </v>
   <v>      -0.35000000       0.15000000       0.15000000 </v>
   <v>      -0.25000000       0.15000000       0.15000000 </v>
   <v>      -0.15000000       0.15000000       0.15000000 </v>
   <v>       0.25000000       0.25000000       0.15000000 </v>
   <v>       0.35000000       0.25000000       0.15000000 </v>
   <v>       0.45000000       0.25000000       0.15000000 </v>
   <v>      -0.45000000       0.25000000       0.15000000 </v>
   <v>      -0.35000000       0.25000000       0.15000000 </v>
   <v>      -0.25000000       0.25000000       0.15000000 </v>
   <v>      -0.15000000       0.25000000       0.15000000 </v>
   <v>       0.35000000       0.35000000       0.15000000 </v>
   <v>       0.45000000       0.35000000       0.15000000 </v>
   <v>      -0.45000000       0.35000000       0.15000000 </v>
   <v>      -0.35000000       0.35000000       0.15000000 </v>
   <v>      -0.25000000       0.35000000       0.15000000 </v>
   <v>      -0.15000000       0.35000000       0.15000000 </v>
   <v>       0.45000000       0.45000000       0.15000000 </v>
   <v>      -0.45000000       0.45000000       0.15000000 </v>
   <v>      -0.35000000       0.45000000       0.15000000 </v>
   <v>      -0.25000000       0.45000000       0.15000000 </v>
   <v>      -0.15000000       0.45000000       0.15000000 </v>
   <v>      -0.45000000      -0.45000000       0.15000000 </v>
   <v>      -0.35000000      -0.45000000       0.15000000 </v>
   <v>      -0.25000000      -0.45000000       0.15000000 </v>
   <v>      -0.35000000      -0.35000000       0.15000000 </v>
   <v>      -0.25000000      -0.35000000       0.15000000 </v>
   <v>      -0.25000000      -0.25000000       0.15000000 </v>
   <v>       0.25000000       0.25000000       0.25000000 </v>
   <v>       0.35000000       0.25000000       0.25000000 </v>
   <v>       0.45000000       0.25000000       0.25000000 </v>
   <v>      -0.45000000       0.25000000       0.25000000 </v>
   <v>      -0.35000000       0.25000000       0.25000000 </v>
   <v>      -0.25000000       0.25000000       0.25000000 </v>
   <v>       0.35000000       0.35000000       0.25000000 </v>
   <v>       0.45000000       0.35000000       0.25000000 </v>
   <v>      -0.45000000       0.35000000       0.25000000 </v>
   <v>      -0.35000000       0.35000000       0.25000000 </v>
   <v>      -0.25000000       0.35000000       0.25000000 </v>
   <v>       0.45000000       0.45000000       0.25000000 </v>
   <v>      -0.45000000       0.45000000       0.25000000 </v>
   <v>      -0.35000000       0.45000000       0.25000000 </v>
   <v>      -0.25000000       0.45000000       0.25000000 </v>
   <v>      -0.45000000      -0.45000000       0.25000000 </v>
   <v>      -0.35000000      -0.45000000       0.25000000 </v>
   <v>      -0.35000000      -0.35000000       0.25000000 </v>
   <v>       0.35000000       0.35000000       0.35000000 </v>
   <v>       0.45000000       0.35000000       0.35000000 </v>
   <v>      -0.45000000       0.35000000       0.35000000 </v>
   <v>      -0.35000000       0.35000000       0.35000000 </v>
   <v>       0.45000000       0.45000000       0.35000000 </v>
   <v>      -0.45000000       0.45000000       0.35000000 </v>
   <v>      -0.35000000       0.45000000       0.35000000 </v>
   <v>      -0.45000000      -0.45000000       0.35000000 </v>
   <v>       0.45000000       0.45000000       0.45000000 </v>
   <v>      -0.45000000       0.45000000       0.45000000 </v>
  </varray>
  <varray name="weights" >
   <v>       0.00200000 </v>
   <v>       0.00600000 </v>
   <v>       0.00600000 </v>
   <v>       0.00600000 </v>
   <v>       0.00600000 </v>
   <v>       0.00600000 </v>
   <v>       0.00600000 </v>
   <v>       0.00600000 </v>
   <v>       0.00600000 </v>
   <v>       0.00600000 </v>
   <v>       0.00600000 </v>
   <v>       0.01200000 </v>
   <v>       0.01200000 </v>
   <v>       0.01200000 </v>
   <v>       0.01200000 </v>
   <v>       0.01200000 </v>
   <v>       0.01200000 </v>
   <v>       0.01200000 </v>
   <v>       0.01200000 </v>
   <v>       0.00600000 </v>
   <v>       0.01200000 </v>
   <v>       0.01200000 </v>
   <v>       0.01200000 </v>
   <v>       0.01200000 </v>
   <v>       0.01200000 </v>
   <v>       0.01200000 </v>
   <v>       0.01200000 </v>
   <v>       0.00600000 </v>
   <v>       0.01200000 </v>
   <v>       0.01200000 </v>
   <v>       0.01200000 </v>
   <v>       0.01200000 </v>
   <v>       0.01200000 </v>
   <v>       0.01200000 </v>
   <v>       0.00600000 </v>
   <v>       0.01200000 </v>
   <v>       0.01200000 </v>
   <v>       0.01200000 </v>
   <v>       0.01200000 </v>
   <v>       0.01200000 </v>
   <v>       0.00600000 </v>
   <v>       0.01200000 </v>
   <v>       0.01200000 </v>
   <v>       0.01200000 </v>
   <v>       0.00600000 </v>
   <v>       0.01200000 </v>
   <v>       0.01200000 </v>
   <v>       0.00600000 </v>
   <v>       0.01200000 </v>
   <v>       0.00600000 </v>
   <v>       0.00200000 </v>
   <v>       0.00600000 </v>
   <v>       0.00600000 </v>
   <v>       0.00600000 </v>
   <v>       0.00600000 </v>
   <v>       0.00600000 </v>
   <v>       0.00600000 </v>
   <v>       0.00600000 </v>
   <v>       0.00600000 </v>
   <v>       0.01200000 </v>
   <v>       0.01200000 </v>
   <v>       0.01200000 </v>
   <v>       0.01200000 </v>
   <v>       0.01200000 </v>
   <v>       0.01200000 </v>
   <v>       0.00600000 </v>
   <v>       0.01200000 </v>
   <v>       0.01200000 </v>
   <v>       0.01200000 </v>
   <v>       0.01200000 </v>
   <v>       0.01200000 </v>
   <v>       0.00600000 </v>
   <v>       0.01200000 </v>
   <v>       0.01200000 </v>
   <v>       0.01200000 </v>
   <v>       0.01200000 </v>
   <v>       0.00600000 </v>
   <v>       0.01200000 </v>
   <v>       0.01200000 </v>
   <v>       0.00600000 </v>
   <v>       0.01200000 </v>
   <v>       0.00600000 </v>
   <v>       0.00200000 </v>
   <v>       0.00600000 </v>
   <v>       0.00600000 </v>
   <v>       0.00600000 </v>
   <v>       0.00600000 </v>
   <v>       0.00600000 </v>
   <v>       0.00600000 </v>
   <v>       0.01200000 </v>
   <v>       0.01200000 </v>
   <v>       0.01200000 </v>
   <v>       0.01200000 </v>
   <v>       0.00600000 </v>
   <v>       0.01200000 </v>
   <v>       0.01200000 </v>
   <v>       0.01200000 </v>
   <v>       0.00600000 </v>
   <v>       0.01200000 </v>
   <v>       0.00600000 </v>
   <v>       0.00200000 </v>
   <v>       0.00600000 </v>
   <v>       0.00600000 </v>
   <v>       0.00600000 </v>
   <v>       0.00600000 </v>
   <v>       0.01200000 </v>
   <v>       0.01200000 </v>
   <v>       0.00600000 </v>
   <v>       0.00200000 </v>
   <v>       0.00600000 </v>
  </varray>
 </kpoints>
 <parameters>
  <separator name="general" >
   <i type="string" name="SYSTEM">fcc Au</i>
   <i type="logical" name="LCOMPAT"> F  </i>
  </separator>
  <separator name="electronic" >
   <i type="string" name="PREC">normal</i>
   <i name="ENMAX">    300.00000000</i>
   <i name="ENAUG">    356.67000000</i>
   <i name="EDIFF">      0.00000100</i>
   <i type="int" name="IALGO">    38</i>
   <i type="int" name="IWAVPR">    10</i>
   <i type="int" name="NBANDS">     9</i>
   <i name="NELECT">     11.00000000</i>
   <i type="int" name="TURBO">     0</i>
   <i type="int" name="IRESTART">     0</i>
   <i type="int" name="NREBOOT">     0</i>
   <i type="int" name="NMIN">     0</i>
   <i name="EREF">      0.00000000</i>
   <separator name="electronic smearing" >
    <i type="int" name="ISMEAR">     1</i>
    <i name="SIGMA">      0.20000000</i>
    <i name="KSPACING">      0.50000000</i>
    <i type="logical" name="KGAMMA"> T  </i>
   </separator>
   <separator name="electronic projectors" >
    <i type="logical" name="LREAL"> F  </i>
    <v name="ROPT">      0.00000000</v>
    <i type="int" name="LMAXPAW">  -100</i>
    <i type="int" name="LMAXMIX">     2</i>
    <i type="logical" name="NLSPLINE"> F  </i>
   </separator>
   <separator name="electronic startup" >
    <i type="int" name="ISTART">     0</i>
    <i type="int" name="ICHARG">     2</i>
    <i type="int" name="INIWAV">     1</i>
   </separator>
   <separator name="electronic spin" >
    <i type="int" name="ISPIN">     1</i>
    <i type="logical" name="LNONCOLLINEAR"> F  </i>
    <v name="MAGMOM">      1.00000000</v>
    <i name="NUPDOWN">     -1.00000000</i>
    <i type="logical" name="LSORBIT"> F  </i>
    <v name="SAXIS">      0.00000000      0.00000000      1.00000000</v>
    <i type="logical" name="LSPIRAL"> F  </i>
    <v name="QSPIRAL">      0.00000000      0.00000000      0.00000000</v>
    <i type="logical" name="LZEROZ"> F  </i>
   </separator>
   <separator name="electronic exchange-correlation" >
    <i type="logical" name="LASPH"> F  </i>
    <i type="logical" name="LMETAGGA"> F  </i>
   </separator>
   <separator name="electronic convergence" >
    <i type="int" name="NELM">    60</i>
    <i type="int" name="NELMDL">    -5</i>
    <i type="int" name="NELMIN">     2</i>
    <i name="ENINI">    300.00000000</i>
    <separator name="electronic convergence detail" >
     <i type="logical" name="LDIAG"> T  </i>
     <i type="logical" name="LSUBROT"> F  </i>
     <i name="WEIMIN">      0.00000000</i>
     <i name="EBREAK">      0.00000003</i>
     <i name="DEPER">      0.30000000</i>
     <i type="int" name="NRMM">     4</i>
     <i name="TIME">      0.40000000</i>
    </separator>
   </separator>
   <separator name="electronic mixer" >
    <i name="AMIX">      0.40000000</i>
    <i name="BMIX">      1.00000000</i>
    <i name="AMIN">      0.10000000</i>
    <i name="AMIX_MAG">      1.60000000</i>
    <i name="BMIX_MAG">      1.00000000</i>
    <separator name="electronic mixer details" >
     <i type="int" name="IMIX">     4</i>
     <i type="logical" name="MIXFIRST"> F  </i>
     <i type="int" name="MAXMIX">   -45</i>
     <i name="WC">    100.00000000</i>
     <i type="int" name="INIMIX">     1</i>
     <i type="int" name="MIXPRE">     1</i>
     <i type="int" name="MREMOVE">     5</i>
    </separator>
   </separator>
   <separator name="electronic dipolcorrection" >
    <i type="logical" name="LDIPOL"> F  </i>
    <i type="logical" name="LMONO"> F  </i>
    <i type="int" name="IDIPOL">     0</i>
    <i name="EPSILON">      1.00000000</i>
    <v name="DIPOL">   -100.00000000   -100.00000000   -100.00000000</v>
    <i name="EFIELD">      0.00000000</i>
   </separator>
  </separator>
  <separator name="grids" >
   <i type="int" name="NGX">    12</i>
   <i type="int" name="NGY">    12</i>
   <i type="int" name="NGZ">    12</i>
   <i type="int" name="NGXF">    24</i>
   <i type="int" name="NGYF">    24</i>
   <i type="int" name="NGZF">    24</i>
   <i type="logical" name="ADDGRID"> F  </i>
  </separator>
  <separator name="ionic" >
   <i type="int" name="NSW">     0</i>
   <i type="int" name="IBRION">    -1</i>
   <i type="int" name="MDALGO">     0</i>
   <i type="int" name="ISIF">     2</i>
   <i name="PSTRESS">      0.00000000</i>
   <i name="EDIFFG">      0.00001000</i>
   <i type="int" name="NFREE">     0</i>
   <i name="POTIM">      0.50000000</i>
   <i name="SMASS">     -3.00000000</i>
   <i name="SCALEE">      1.00000000</i>
  </separator>
  <separator name="ionic md" >
   <i name="TEBEG">      0.00010000</i>
   <i name="TEEND">      0.00010000</i>
   <i type="int" name="NBLOCK">     1</i>
   <i type="int" name="KBLOCK">     1</i>
   <i type="int" name="NPACO">   256</i>
   <i name="APACO">     16.00000000</i>
  </separator>
  <separator name="symmetry" >
   <i type="int" name="ISYM">     2</i>
   <i name="SYMPREC">      0.00001000</i>
  </separator>
  <separator name="dos" >
   <i type="int" name="LORBIT">     0</i>
   <v name="RWIGS">      1.50300000</v>
   <i type="int" name="NEDOS">   301</i>
   <i name="EMIN">     10.00000000</i>
   <i name="EMAX">    -10.00000000</i>
   <i name="EFERMI">      0.00000000</i>
  </separator>
  <separator name="writing" >
   <i type="int" name="NWRITE">     2</i>
   <i type="logical" name="LWAVE"> F  </i>
   <i type="logical" name="LDOWNSAMPLE"> F  </i>
   <i type="logical" name="LCHARG"> T  </i>
   <i type="logical" name="LPARD"> F  </i>
   <i type="logical" name="LVTOT"> F  </i>
   <i type="logical" name="LVHAR"> F  </i>
   <i type="logical" name="LELF"> F  </i>
   <i type="logical" name="LOPTICS"> F  </i>
   <v name="STM">      0.00000000      0.00000000      0.00000000      0.00000000      0.00000000      0.00000000      0.00000000</v>
  </separator>
  <separator name="performance" >
   <i type="int" name="NPAR">     1</i>
   <i type="int" name="NSIM">     4</i>
   <i type="int" name="NBLK">    -1</i>
   <i type="logical" name="LPLANE"> T  </i>
   <i type="logical" name="LSCALAPACK"> T  </i>
   <i type="logical" name="LSCAAWARE"> F  </i>
   <i type="logical" name="LSCALU"> F  </i>
   <i type="logical" name="LASYNC"> F  </i>
   <i type="logical" name="LORBITALREAL"> F  </i>
  </separator>
  <separator name="miscellaneous" >
   <i type="int" name="IDIOT">     3</i>
   <i type="int" name="ISPECIAL">     0</i>
   <i type="logical" name="LMUSIC"> F  </i>
   <v name="POMASS">    196.96600000</v>
   <v name="DARWINR">      0.00000000</v>
   <v name="DARWINV">      1.00000000</v>
   <i type="logical" name="LCORR"> T  </i>
  </separator>
  <i type="logical" name="GGA_COMPAT"> T  </i>
  <i type="logical" name="LBERRY"> F  </i>
  <i type="int" name="ICORELEVEL">     0</i>
  <i type="logical" name="LDAU"> F  </i>
  <i type="int" name="I_CONSTRAINED_M">     0</i>
  <separator name="electronic exchange-correlation" >
   <i type="string" name="GGA">--</i>
   <i type="int" name="VOSKOWN">     0</i>
   <i type="logical" name="LHFCALC"> F  </i>
   <i type="string" name="PRECFOCK"></i>
   <i type="logical" name="LSYMGRAD"> F  </i>
   <i type="logical" name="LHFONE"> F  </i>
   <i type="logical" name="LRHFCALC"> F  </i>
   <i type="logical" name="LTHOMAS"> F  </i>
   <i type="logical" name="LMODELHF"> F  </i>
   <i name="ENCUT4O">     -1.00000000</i>
   <i type="int" name="EXXOEP">     0</i>
   <i type="int" name="FOURORBIT">     0</i>
   <i name="AEXX">      0.00000000</i>
   <i name="HFALPHA">      0.00000000</i>
   <i name="MCALPHA">      0.00000000</i>
   <i name="ALDAX">      1.00000000</i>
   <i name="AGGAX">      1.00000000</i>
   <i name="ALDAC">      1.00000000</i>
   <i name="AGGAC">      1.00000000</i>
   <i type="int" name="NKREDX">     1</i>
   <i type="int" name="NKREDY">     1</i>
   <i type="int" name="NKREDZ">     1</i>
   <i type="logical" name="SHIFTRED"> F  </i>
   <i type="logical" name="ODDONLY"> F  </i>
   <i type="logical" name="EVENONLY"> F  </i>
   <i type="int" name="LMAXFOCK">     0</i>
   <i type="int" name="NMAXFOCKAE">     0</i>
   <i type="logical" name="LFOCKAEDFT"> F  </i>
   <i name="HFSCREEN">      0.00000000</i>
   <i name="HFSCREENC">      0.00000000</i>
   <i type="int" name="NBANDSGWLOW">     0</i>
  </separator>
  <separator name="vdW DFT" >
   <i type="logical" name="LUSE_VDW"> F  </i>
   <i name="Zab_VDW">     -0.84910000</i>
   <i name="PARAM1">      0.12340000</i>
   <i name="PARAM2">      1.00000000</i>
   <i name="PARAM3">      0.00000000</i>
  </separator>
  <separator name="model GW" >
   <i type="int" name="MODEL_GW">     0</i>
   <i name="MODEL_EPS0">     10.18759680</i>
   <i name="MODEL_ALPHA">      1.00000000</i>
  </separator>
  <separator name="linear response parameters" >
   <i type="logical" name="LEPSILON"> F  </i>
   <i type="logical" name="LRPA"> F  </i>
   <i type="logical" name="LNABLA"> F  </i>
   <i type="logical" name="LVEL"> F  </i>
   <i type="int" name="KINTER">     0</i>
   <i name="CSHIFT">      0.10000000</i>
   <i name="OMEGAMAX">     -1.00000000</i>
   <i name="DEG_THRESHOLD">      0.00200000</i>
   <i name="RTIME">     -0.10000000</i>
   <i name="WPLASMAI">      0.00000000</i>
   <v name="DFIELD">      0.00000000      0.00000000      0.00000000</v>
   <v name="WPLASMA">      0.00000000      0.00000000      0.00000000      0.00000000      0.00000000      0.00000000      0.00000000      0.00000000      0.00000000</v>
  </separator>
  <separator name="orbital magnetization" >
   <i type="logical" name="NUCIND"> F  </i>
   <v name="MAGPOS">      0.00000000      0.00000000      0.00000000</v>
   <i type="logical" name="LNICSALL"> T  </i>
   <i type="logical" name="ORBITALMAG"> F  </i>
   <i type="logical" name="LMAGBLOCH"> F  </i>
   <i type="logical" name="LCHIMAG"> F  </i>
   <i type="logical" name="LGAUGE"> T  </i>
   <i type="int" name="MAGATOM">     0</i>
   <v name="MAGDIPOL">      0.00000000      0.00000000      0.00000000</v>
   <v name="AVECCONST">      0.00000000      0.00000000      0.00000000</v>
  </separator>
  <separator name="response functions" >
   <i type="logical" name="LADDER"> F  </i>
   <i type="logical" name="LRPAFORCE"> F  </i>
   <i type="logical" name="LFXC"> F  </i>
   <i type="logical" name="LHARTREE"> T  </i>
   <i type="int" name="IBSE">     0</i>
   <v type="int" name="KPOINT">    -1     0     0     0</v>
   <i type="logical" name="LTCTE"> F  </i>
   <i type="logical" name="LTETE"> F  </i>
   <i type="logical" name="LTRIPLET"> F  </i>
   <i type="logical" name="LFXCEPS"> F  </i>
   <i type="logical" name="LFXHEG"> F  </i>
   <i type="int" name="NATURALO">     2</i>
   <i type="logical" name="L2ORDER"> F  </i>
   <i type="logical" name="LMP2LT"> F  </i>
   <i type="logical" name="LUSEW"> F  </i>
   <i name="ENCUTGW">     -2.00000000</i>
   <i name="ENCUTGWSOFT">     -2.00000000</i>
   <i name="ENCUTLF">     -1.00000000</i>
   <i type="int" name="LMAXMP2">    -1</i>
   <i name="SCISSOR">      0.00000000</i>
   <i type="int" name="NOMEGA">     0</i>
   <i type="int" name="NOMEGAR">     0</i>
   <i type="int" name="NBANDSGW">    -1</i>
   <i type="int" name="NBANDSO">    -1</i>
   <i type="int" name="NBANDSV">    -1</i>
   <i type="int" name="NELM">     1</i>
   <i type="int" name="NELMHF">     1</i>
   <i type="int" name="DIM">     3</i>
   <i type="int" name="ANTIRES">     0</i>
   <i name="OMEGAMAX">    -30.00000000</i>
   <i name="OMEGAMIN">    -30.00000000</i>
   <i name="OMEGATL">   -200.00000000</i>
   <i type="int" name="OMEGAGRID">   140</i>
   <i name="CSHIFT">     -0.10000000</i>
   <i type="logical" name="SELFENERGY"> F  </i>
   <i type="logical" name="LSPECTRAL"> F  </i>
   <i type="logical" name="LSPECTRALGW"> F  </i>
   <i type="logical" name="LSINGLES"> F  </i>
   <i type="logical" name="LFERMIGW"> F  </i>
   <i type="logical" name="ODDONLYGW"> F  </i>
   <i type="logical" name="EVENONLYGW"> F  </i>
   <i type="int" name="NKREDLFX">     1</i>
   <i type="int" name="NKREDLFY">     1</i>
   <i type="int" name="NKREDLFZ">     1</i>
   <i type="int" name="MAXMEM">  2800</i>
   <i type="int" name="TELESCOPE">     0</i>
   <i type="int" name="TAUPAR">     1</i>
   <i type="int" name="OMEGAPAR">    -1</i>
   <i name="LAMBDA">      1.00000000</i>
  </separator>
  <separator name="External order field" >
   <i name="OFIELD_KAPPA">      0.00000000</i>
   <v name="OFIELD_K">      0.00000000      0.00000000      0.00000000</v>
   <i name="OFIELD_Q6_NEAR">      0.00000000</i>
   <i name="OFIELD_Q6_FAR">      0.00000000</i>
   <i name="OFIELD_A">      0.00000000</i>
  </separator>
 </parameters>
 <atominfo>
  <atoms>       1 </atoms>
  <types>       1 </types>
  <array name="atoms" >
   <dimension dim="1">ion</dimension>
   <field type="string">element</field>
   <field type="int">atomtype</field>
   <set>
    <rc><c>Au</c><c>   1</c></rc>
   </set>
  </array>
  <array name="atomtypes" >
   <dimension dim="1">type</dimension>
   <field type="int">atomspertype</field>
   <field type="string">element</field>
   <field>mass</field>
   <field>valence</field>
   <field type="string">pseudopotential</field>
   <set>
    <rc><c>   1</c><c>Au</c><c>    196.96600000</c><c>     11.00000000</c><c> PAW Au 04Feb1998                       </c></rc>
   </set>
  </array>
 </atominfo>
 <structure name="initialpos" >
  <crystal>
   <varray name="basis" >
    <v>       0.00000000       2.04000000       2.04000000 </v>
    <v>       2.04000000       0.00000000       2.04000000 </v>
    <v>       2.04000000       2.04000000       0.00000000 </v>
   </varray>
   <i name="volume">     16.97932800 </i>
   <varray name="rec_basis" >
    <v>      -0.24509804       0.24509804       0.24509804 </v>
    <v>       0.24509804      -0.24509804       0.24509804 </v>
    <v>       0.24509804       0.24509804      -0.24509804 </v>
   </varray>
  </crystal>
  <varray name="positions" >
   <v>       0.00000000       0.00000000       0.00000000 </v>
  </varray>
 </structure>
 <calculation>
  <scstep>
   <time name="dav">    0.21    0.41</time>
   <time name="total">    0.22    0.43</time>
   <energy>
    <i name="alphaZ">    108.24217189 </i>
    <i name="ewald">   -978.98843183 </i>
    <i name="hartreedc">   -122.41063523 </i>
    <i name="XCdc">     16.31854387 </i>
    <i name="pawpsdc">    746.10209728 </i>
    <i name="pawaedc">   -725.46159323 </i>
    <i name="eentropy">     -0.00097231 </i>
    <i name="bandstr">     60.62121530 </i>
    <i name="atom">    929.42141189 </i>
    <i name="e_fr_energy">     33.84380764 </i>
    <i name="e_wo_entrp">     33.84477995 </i>
    <i name="e_0_energy">     33.84413174 </i>
   </energy>
  </scstep>
  <scstep>
   <time name="dav">    0.17    0.34</time>
   <time name="total">    0.17    0.35</time>
   <energy>
    <i name="e_fr_energy">     -4.28294174 </i>
    <i name="e_wo_entrp">     -4.28214572 </i>
    <i name="e_0_energy">     -4.28267640 </i>
   </energy>
  </scstep>
  <scstep>
   <time name="dav">    0.20    0.38</time>
   <time name="total">    0.20    0.38</time>
   <energy>
    <i name="e_fr_energy">     -4.71801846 </i>
    <i name="e_wo_entrp">     -4.71748498 </i>
    <i name="e_0_energy">     -4.71784064 </i>
   </energy>
  </scstep>
  <scstep>
   <time name="dav">    0.18    0.38</time>
   <time name="total">    0.19    0.39</time>
   <energy>
    <i name="e_fr_energy">     -4.71923044 </i>
    <i name="e_wo_entrp">     -4.71869680 </i>
    <i name="e_0_energy">     -4.71905256 </i>
   </energy>
  </scstep>
  <scstep>
   <time name="dav">    0.19    0.39</time>
   <time name="total">    0.21    0.43</time>
   <energy>
    <i name="e_fr_energy">     -4.71924058 </i>
    <i name="e_wo_entrp">     -4.71870694 </i>
    <i name="e_0_energy">     -4.71906270 </i>
   </energy>
  </scstep>
  <scstep>
   <time name="dav">    0.17    0.36</time>
   <time name="total">    0.20    0.39</time>
   <energy>
    <i name="e_fr_energy">     -4.42798357 </i>
    <i name="e_wo_entrp">     -4.42880683 </i>
    <i name="e_0_energy">     -4.42825799 </i>
   </energy>
  </scstep>
  <scstep>
   <time name="dav">    0.19    0.37</time>
   <time name="total">    0.21    0.41</time>
   <energy>
    <i name="e_fr_energy">     -4.40442114 </i>
    <i name="e_wo_entrp">     -4.40532214 </i>
    <i name="e_0_energy">     -4.40472148 </i>
   </energy>
  </scstep>
  <scstep>
   <time name="dav">    0.17    0.34</time>
   <time name="total">    0.19    0.38</time>
   <energy>
    <i name="e_fr_energy">     -4.39934649 </i>
    <i name="e_wo_entrp">     -4.40024409 </i>
    <i name="e_0_energy">     -4.39964569 </i>
   </energy>
  </scstep>
  <scstep>
   <time name="dav">    0.19    0.37</time>
   <time name="total">    0.21    0.43</time>
   <energy>
    <i name="e_fr_energy">     -4.39934898 </i>
    <i name="e_wo_entrp">     -4.40024621 </i>
    <i name="e_0_energy">     -4.39964806 </i>
   </energy>
  </scstep>
  <scstep>
   <time name="dav">    0.17    0.34</time>
   <time name="total">    0.19    0.38</time>
   <energy>
    <i name="e_fr_energy">     -4.39935129 </i>
    <i name="e_wo_entrp">     -4.40024819 </i>
    <i name="e_0_energy">     -4.39965026 </i>
   </energy>
  </scstep>
  <scstep>
   <time name="dav">    0.11    0.21</time>
   <time name="total">    0.12    0.23</time>
   <energy>
    <i name="alphaZ">    108.24217189 </i>
    <i name="ewald">   -978.98843183 </i>
    <i name="hartreedc">   -111.24558043 </i>
    <i name="XCdc">     15.74155890 </i>
    <i name="pawpsdc">    752.44691659 </i>
    <i name="pawaedc">   -734.58671730 </i>
    <i name="eentropy">      0.00089692 </i>
    <i name="bandstr">     14.56842209 </i>
    <i name="atom">    929.42141189 </i>
    <i name="e_fr_energy">     -4.39935128 </i>
    <i name="e_wo_entrp">     -4.40024820 </i>
    <i name="e_0_energy">     -4.39965025 </i>
   </energy>
  </scstep>
  <structure>
   <crystal>
    <varray name="basis" >
     <v>       0.00000000       2.04000000       2.04000000 </v>
     <v>       2.04000000       0.00000000       2.04000000 </v>
     <v>       2.04000000       2.04000000       0.00000000 </v>
    </varray>
    <i name="volume">     16.97932800 </i>
    <varray name="rec_basis" >
     <v>      -0.24509804       0.24509804       0.24509804 </v>
     <v>       0.24509804      -0.24509804       0.24509804 </v>
     <v>       0.24509804       0.24509804      -0.24509804 </v>
    </varray>
   </crystal>
   <varray name="positions" >
    <v>       0.00000000       0.00000000       0.00000000 </v>
   </varray>
  </structure>
  <varray name="forces" >
   <v>       0.00000000      -0.00000000       0.00000000 </v>
  </varray>
  <varray name="stress" >
   <v>     -34.06373683      -0.00000000       0.00000000 </v>
   <v>       0.00000000     -34.06373683      -0.00000000 </v>
   <v>       0.00000000       0.00000000     -34.06373683 </v>
  </varray>
  <energy>
   <i name="e_fr_energy">     -4.39935128 </i>
   <i name="e_wo_entrp">     -4.39965025 </i>
   <i name="e_0_energy">      0.00089692 </i>
  </energy>
  <time name="totalsc">    2.32    4.70</time>
  <eigenvalues>
   <array>
    <dimension dim="1">band</dimension>
    <dimension dim="2">kpoint</dimension>
    <dimension dim="3">spin</dimension>
    <field>eigene</field>
    <field>occ</field>
    <set>
     <set comment="spin 1">
      <set comment="kpoint 1">
       <r>   -4.2844    1.0000 </r>
       <r>    0.8402    1.0000 </r>
       <r>    0.9006    1.0000 </r>
       <r>    0.9006    1.0000 </r>
       <r>    2.4067    1.0000 </r>
       <r>    2.4067    1.0000 </r>
       <r>   21.0204    0.0000 </r>
       <r>   24.1046    0.0000 </r>
       <r>   24.8743    0.0000 </r>
      </set>
      <set comment="kpoint 2">
       <r>   -3.8289    1.0000 </r>
       <r>    0.6872    1.0000 </r>
       <r>    1.0397    1.0000 </r>
       <r>    1.0712    1.0000 </r>
       <r>    2.2577    1.0000 </r>
       <r>    2.4568    1.0000 </r>
       <r>   21.3234    0.0000 </r>
       <r>   22.1531    0.0000 </r>
       <r>   24.4918    0.0000 </r>
      </set>
      <set comment="kpoint 3">
       <r>   -2.8429    1.0000 </r>
       <r>    0.5697    1.0000 </r>
       <r>    1.1914    1.0000 </r>
       <r>    1.2136    1.0000 </r>
       <r>    2.2674    1.0000 </r>
       <r>    2.6720    1.0000 </r>
       <r>   18.2412    0.0000 </r>
       <r>   21.9332    0.0000 </r>
       <r>   24.6486    0.0000 </r>
      </set>
      <set comment="kpoint 4">
       <r>   -1.9594    1.0000 </r>
       <r>    1.0118    1.0000 </r>
       <r>    1.0979    1.0000 </r>
       <r>    1.2425    1.0000 </r>
       <r>    2.7576    1.0000 </r>
       <r>    3.2432    1.0000 </r>
       <r>   14.2088    0.0000 </r>
       <r>   21.2569    0.0000 </r>
       <r>   23.6830    0.0000 </r>
      </set>
      <set comment="kpoint 5">
       <r>   -1.7378    1.0000 </r>
       <r>    0.8600    1.0000 </r>
       <r>    0.9305    1.0000 </r>
       <r>    2.7511    1.0000 </r>
       <r>    3.3555    1.0000 </r>
       <r>    4.1268    1.0000 </r>
       <r>   10.4200   -0.0000 </r>
       <r>   20.4987    0.0000 </r>
       <r>   22.7560    0.0000 </r>
      </set>
      <set comment="kpoint 6">
       <r>   -1.7328    1.0000 </r>
       <r>    0.7935    1.0000 </r>
       <r>    0.8909    1.0000 </r>
       <r>    3.1610    1.0000 </r>
       <r>    3.6389    1.0000 </r>
       <r>    5.0093    1.0004 </r>
       <r>    8.7467   -0.0000 </r>
       <r>   20.2920    0.0000 </r>
       <r>   22.8115    0.0000 </r>
      </set>
      <set comment="kpoint 7">
       <r>   -1.7644    1.0000 </r>
       <r>    0.8906    1.0000 </r>
       <r>    1.0012    1.0000 </r>
       <r>    2.1845    1.0000 </r>
       <r>    3.4365    1.0000 </r>
       <r>    3.5683    1.0000 </r>
       <r>   11.5979    0.0000 </r>
       <r>   20.7360    0.0000 </r>
       <r>   23.2228    0.0000 </r>
      </set>
      <set comment="kpoint 8">
       <r>   -2.1828    1.0000 </r>
       <r>    0.8216    1.0000 </r>
       <r>    1.1140    1.0000 </r>
       <r>    1.1738    1.0000 </r>
       <r>    2.6680    1.0000 </r>
       <r>    2.9334    1.0000 </r>
       <r>   15.5604    0.0000 </r>
       <r>   21.6362    0.0000 </r>
       <r>   24.1696    0.0000 </r>
      </set>
      <set comment="kpoint 9">
       <r>   -3.2054    1.0000 </r>
       <r>    0.5585    1.0000 </r>
       <r>    1.1835    1.0000 </r>
       <r>    1.1960    1.0000 </r>
       <r>    2.2237    1.0000 </r>
       <r>    2.5471    1.0000 </r>
       <r>   19.5288    0.0000 </r>
       <r>   22.0403    0.0000 </r>
       <r>   24.6563    0.0000 </r>
      </set>
      <set comment="kpoint 10">
       <r>   -4.0528    1.0000 </r>
       <r>    0.7324    1.0000 </r>
       <r>    0.9959    1.0000 </r>
       <r>    1.0015    1.0000 </r>
       <r>    2.2818    1.0000 </r>
       <r>    2.4643    1.0000 </r>
       <r>   21.2554    0.0000 </r>
       <r>   23.1868    0.0000 </r>
       <r>   24.6106    0.0000 </r>
      </set>
      <set comment="kpoint 11">
       <r>   -3.6029    1.0000 </r>
       <r>    0.5169    1.0000 </r>
       <r>    1.1958    1.0000 </r>
       <r>    1.1996    1.0000 </r>
       <r>    2.0632    1.0000 </r>
       <r>    2.5745    1.0000 </r>
       <r>   21.6212    0.0000 </r>
       <r>   22.3223    0.0000 </r>
       <r>   23.9276    0.0000 </r>
      </set>
      <set comment="kpoint 12">
       <r>   -2.7836    1.0000 </r>
       <r>    0.2695    1.0000 </r>
       <r>    1.2941    1.0000 </r>
       <r>    1.4778    1.0000 </r>
       <r>    2.0122    1.0000 </r>
       <r>    2.7959    1.0000 </r>
       <r>   19.7825    0.0000 </r>
       <r>   21.5892    0.0000 </r>
       <r>   23.5692    0.0000 </r>
      </set>
      <set comment="kpoint 13">
       <r>   -1.7762    1.0000 </r>
       <r>    0.3555    1.0000 </r>
       <r>    0.9934    1.0000 </r>
       <r>    1.4877    1.0000 </r>
       <r>    2.6730    1.0000 </r>
       <r>    3.3777    1.0000 </r>
       <r>   15.7901    0.0000 </r>
       <r>   21.0416    0.0000 </r>
       <r>   22.5103    0.0000 </r>
      </set>
      <set comment="kpoint 14">
       <r>   -1.3891    1.0000 </r>
       <r>    0.6920    1.0000 </r>
       <r>    1.2289    1.0000 </r>
       <r>    1.3877    1.0000 </r>
       <r>    3.4199    1.0000 </r>
       <r>    4.5597    1.0000 </r>
       <r>   11.7959    0.0000 </r>
       <r>   20.5645    0.0000 </r>
       <r>   21.2327    0.0000 </r>
      </set>
      <set comment="kpoint 15">
       <r>   -1.3667    1.0000 </r>
       <r>    0.5638    1.0000 </r>
       <r>    1.1893    1.0000 </r>
       <r>    2.1238    1.0000 </r>
       <r>    3.5921    1.0000 </r>
       <r>    6.4412   -0.0000 </r>
       <r>    8.7345   -0.0000 </r>
       <r>   20.1044    0.0000 </r>
       <r>   20.8763    0.0000 </r>
      </set>
      <set comment="kpoint 16">
       <r>   -1.3505    1.0000 </r>
       <r>    0.6442    1.0000 </r>
       <r>    1.2145    1.0000 </r>
       <r>    1.7963    1.0000 </r>
       <r>    3.2749    1.0000 </r>
       <r>    5.2639    1.0298 </r>
       <r>   10.6521   -0.0000 </r>
       <r>   19.7689    0.0000 </r>
       <r>   21.3506    0.0000 </r>
      </set>
      <set comment="kpoint 17">
       <r>   -1.5344    1.0000 </r>
       <r>    0.6366    1.0000 </r>
       <r>    0.9456    1.0000 </r>
       <r>    1.4029    1.0000 </r>
       <r>    2.5836    1.0000 </r>
       <r>    3.9181    1.0000 </r>
       <r>   14.4532    0.0000 </r>
       <r>   20.0186    0.0000 </r>
       <r>   22.4580    0.0000 </r>
      </set>
      <set comment="kpoint 18">
       <r>   -2.4284    1.0000 </r>
       <r>    0.3126    1.0000 </r>
       <r>    1.1888    1.0000 </r>
       <r>    1.5010    1.0000 </r>
       <r>    2.0061    1.0000 </r>
       <r>    3.0583    1.0000 </r>
       <r>   18.3805    0.0000 </r>
       <r>   20.6516    0.0000 </r>
       <r>   24.1491    0.0000 </r>
      </set>
      <set comment="kpoint 19">
       <r>   -3.3946    1.0000 </r>
       <r>    0.5208    1.0000 </r>
       <r>    1.1986    1.0000 </r>
       <r>    1.2089    1.0000 </r>
       <r>    2.1035    1.0000 </r>
       <r>    2.5841    1.0000 </r>
       <r>   20.7792    0.0000 </r>
       <r>   21.7763    0.0000 </r>
       <r>   24.0539    0.0000 </r>
      </set>
      <set comment="kpoint 20">
       <r>   -2.2367    1.0000 </r>
       <r>   -0.0863    1.0000 </r>
       <r>    1.4477    1.0000 </r>
       <r>    1.8589    1.0000 </r>
       <r>    2.0523    1.0000 </r>
       <r>    2.9167    1.0000 </r>
       <r>   20.2366    0.0000 </r>
       <r>   21.3575    0.0000 </r>
       <r>   22.4876    0.0000 </r>
      </set>
      <set comment="kpoint 21">
       <r>   -1.4397    1.0000 </r>
       <r>   -0.3112    1.0000 </r>
       <r>    1.1896    1.0000 </r>
       <r>    2.2077    1.0000 </r>
       <r>    2.7111    1.0000 </r>
       <r>    3.3988    1.0000 </r>
       <r>   17.5086    0.0000 </r>
       <r>   19.4599    0.0000 </r>
       <r>   21.0967    0.0000 </r>
      </set>
      <set comment="kpoint 22">
       <r>   -0.9731    1.0000 </r>
       <r>   -0.0512    1.0000 </r>
       <r>    0.9439    1.0000 </r>
       <r>    2.0755    1.0000 </r>
       <r>    3.5074    1.0000 </r>
       <r>    4.8316    1.0000 </r>
       <r>   13.4384    0.0000 </r>
       <r>   18.7732    0.0000 </r>
       <r>   19.3624    0.0000 </r>
      </set>
      <set comment="kpoint 23">
       <r>   -0.8545    1.0000 </r>
       <r>    0.2122    1.0000 </r>
       <r>    1.1475    1.0000 </r>
       <r>    1.8766    1.0000 </r>
       <r>    3.6275    1.0000 </r>
       <r>    7.2820   -0.0000 </r>
       <r>    9.8568   -0.0000 </r>
       <r>   17.4815    0.0000 </r>
       <r>   19.4317    0.0000 </r>
      </set>
      <set comment="kpoint 24">
       <r>   -0.6839    1.0000 </r>
       <r>    0.2771    1.0000 </r>
       <r>    1.1699    1.0000 </r>
       <r>    1.7721    1.0000 </r>
       <r>    3.2290    1.0000 </r>
       <r>    7.1210   -0.0000 </r>
       <r>   10.3839   -0.0000 </r>
       <r>   16.3981    0.0000 </r>
       <r>   20.6302    0.0000 </r>
      </set>
      <set comment="kpoint 25">
       <r>   -0.6046    1.0000 </r>
       <r>    0.3512    1.0000 </r>
       <r>    0.6104    1.0000 </r>
       <r>    1.8529    1.0000 </r>
       <r>    2.5423    1.0000 </r>
       <r>    5.3257    1.0343 </r>
       <r>   13.7711    0.0000 </r>
       <r>   16.3157    0.0000 </r>
       <r>   21.8938    0.0000 </r>
      </set>
      <set comment="kpoint 26">
       <r>   -1.3816    1.0000 </r>
       <r>    0.2347    1.0000 </r>
       <r>    0.9174    1.0000 </r>
       <r>    1.7300    1.0000 </r>
       <r>    2.1449    1.0000 </r>
       <r>    4.0076    1.0000 </r>
       <r>   15.9061    0.0000 </r>
       <r>   18.5561    0.0000 </r>
       <r>   22.9251    0.0000 </r>
      </set>
      <set comment="kpoint 27">
       <r>   -2.3436    1.0000 </r>
       <r>    0.4934    1.0000 </r>
       <r>    1.1619    1.0000 </r>
       <r>    1.3099    1.0000 </r>
       <r>    2.3312    1.0000 </r>
       <r>    2.9856    1.0000 </r>
       <r>   16.9995    0.0000 </r>
       <r>   21.6332    0.0000 </r>
       <r>   23.6895    0.0000 </r>
      </set>
      <set comment="kpoint 28">
       <r>   -1.2959    1.0000 </r>
       <r>   -0.6892    1.0000 </r>
       <r>    2.0717    1.0000 </r>
       <r>    2.7375    1.0000 </r>
       <r>    3.1688    1.0000 </r>
       <r>    3.3309    1.0000 </r>
       <r>   17.4384    0.0000 </r>
       <r>   18.4592    0.0000 </r>
       <r>   18.6940    0.0000 </r>
      </set>
      <set comment="kpoint 29">
       <r>   -1.1479    1.0000 </r>
       <r>   -0.7983    1.0000 </r>
       <r>    2.1198    1.0000 </r>
       <r>    3.0373    1.0000 </r>
       <r>    3.5213    1.0000 </r>
       <r>    4.8850    1.0000 </r>
       <r>   14.6229    0.0000 </r>
       <r>   16.7587    0.0000 </r>
       <r>   17.3831    0.0000 </r>
      </set>
      <set comment="kpoint 30">
       <r>   -0.9797    1.0000 </r>
       <r>   -0.4841    1.0000 </r>
       <r>    1.7631    1.0000 </r>
       <r>    2.7338    1.0000 </r>
       <r>    3.7255    1.0000 </r>
       <r>    7.5073   -0.0000 </r>
       <r>   11.4179    0.0000 </r>
       <r>   15.0104    0.0000 </r>
       <r>   17.5028    0.0000 </r>
      </set>
      <set comment="kpoint 31">
       <r>   -0.6875    1.0000 </r>
       <r>    0.0246    1.0000 </r>
       <r>    1.2179    1.0000 </r>
       <r>    2.4037    1.0000 </r>
       <r>    3.4020    1.0000 </r>
       <r>    8.7209   -0.0000 </r>
       <r>   10.8480   -0.0000 </r>
       <r>   13.3413    0.0000 </r>
       <r>   18.8316    0.0000 </r>
      </set>
      <set comment="kpoint 32">
       <r>   -0.4062    1.0000 </r>
       <r>    0.3201    1.0000 </r>
       <r>    0.7236    1.0000 </r>
       <r>    2.0452    1.0000 </r>
       <r>    2.9903    1.0000 </r>
       <r>    6.9448   -0.0000 </r>
       <r>   12.2398    0.0000 </r>
       <r>   14.3416    0.0000 </r>
       <r>   20.6238    0.0000 </r>
      </set>
      <set comment="kpoint 33">
       <r>   -0.9924    1.0000 </r>
       <r>    0.5444    1.0000 </r>
       <r>    1.0415    1.0000 </r>
       <r>    1.5476    1.0000 </r>
       <r>    2.9046    1.0000 </r>
       <r>    5.3105    1.0355 </r>
       <r>   12.1789    0.0000 </r>
       <r>   18.0569    0.0000 </r>
       <r>   21.6401    0.0000 </r>
      </set>
      <set comment="kpoint 34">
       <r>   -1.6883    1.0000 </r>
       <r>    0.8937    1.0000 </r>
       <r>    1.1414    1.0000 </r>
       <r>    1.3945    1.0000 </r>
       <r>    3.0374    1.0000 </r>
       <r>    3.7438    1.0000 </r>
       <r>   12.9549    0.0000 </r>
       <r>   20.9325    0.0000 </r>
       <r>   22.4996    0.0000 </r>
      </set>
      <set comment="kpoint 35">
       <r>   -1.4084    1.0000 </r>
       <r>   -1.0873    1.0000 </r>
       <r>    3.4200    1.0000 </r>
       <r>    3.4251    1.0000 </r>
       <r>    3.7569    1.0000 </r>
       <r>    5.3827    1.0033 </r>
       <r>   13.2211    0.0000 </r>
       <r>   16.0503    0.0000 </r>
       <r>   16.3872    0.0000 </r>
      </set>
      <set comment="kpoint 36">
       <r>   -1.3351    1.0000 </r>
       <r>   -1.0373    1.0000 </r>
       <r>    3.0412    1.0000 </r>
       <r>    3.3727    1.0000 </r>
       <r>    3.9041    1.0000 </r>
       <r>    7.4043   -0.0000 </r>
       <r>   11.3509    0.0000 </r>
       <r>   15.0128    0.0000 </r>
       <r>   15.9810    0.0000 </r>
      </set>
      <set comment="kpoint 37">
       <r>   -1.0332    1.0000 </r>
       <r>   -0.5753    1.0000 </r>
       <r>    2.0529    1.0000 </r>
       <r>    2.9034    1.0000 </r>
       <r>    3.7223    1.0000 </r>
       <r>    8.9470   -0.0000 </r>
       <r>   10.5208   -0.0000 </r>
       <r>   13.7021    0.0000 </r>
       <r>   17.1558    0.0000 </r>
      </set>
      <set comment="kpoint 38">
       <r>   -0.7222    1.0000 </r>
       <r>    0.0721    1.0000 </r>
       <r>    1.1748    1.0000 </r>
       <r>    2.1817    1.0000 </r>
       <r>    3.5259    1.0000 </r>
       <r>    8.7951   -0.0000 </r>
       <r>    9.3742   -0.0000 </r>
       <r>   15.3419    0.0000 </r>
       <r>   19.0312    0.0000 </r>
      </set>
      <set comment="kpoint 39">
       <r>   -1.0459    1.0000 </r>
       <r>    0.3918    1.0000 </r>
       <r>    1.4548    1.0000 </r>
       <r>    1.6558    1.0000 </r>
       <r>    3.4660    1.0000 </r>
       <r>    7.2632   -0.0000 </r>
       <r>    8.8935   -0.0000 </r>
       <r>   18.4384    0.0000 </r>
       <r>   20.6565    0.0000 </r>
      </set>
      <set comment="kpoint 40">
       <r>   -1.6032    1.0000 </r>
       <r>    0.7340    1.0000 </r>
       <r>    1.0071    1.0000 </r>
       <r>    2.5451    1.0000 </r>
       <r>    3.5478    1.0000 </r>
       <r>    5.1570    1.0084 </r>
       <r>    9.4402   -0.0000 </r>
       <r>   20.4116    0.0000 </r>
       <r>   21.9413    0.0000 </r>
      </set>
      <set comment="kpoint 41">
       <r>   -1.4837    1.0000 </r>
       <r>   -1.1723    1.0000 </r>
       <r>    3.5364    1.0000 </r>
       <r>    3.7106    1.0000 </r>
       <r>    3.9169    1.0000 </r>
       <r>    6.6063   -0.0000 </r>
       <r>   11.5748    0.0000 </r>
       <r>   15.5477    0.0000 </r>
       <r>   15.9167    0.0000 </r>
      </set>
      <set comment="kpoint 42">
       <r>   -1.2572    1.0000 </r>
       <r>   -0.9558    1.0000 </r>
       <r>    2.6790    1.0000 </r>
       <r>    3.3079    1.0000 </r>
       <r>    3.7495    1.0000 </r>
       <r>    6.1642   -0.0001 </r>
       <r>   12.8749    0.0000 </r>
       <r>   15.6026    0.0000 </r>
       <r>   16.4434    0.0000 </r>
      </set>
      <set comment="kpoint 43">
       <r>   -0.9237    1.0000 </r>
       <r>   -0.3009    1.0000 </r>
       <r>    1.3299    1.0000 </r>
       <r>    2.4280    1.0000 </r>
       <r>    3.6758    1.0000 </r>
       <r>    6.0655   -0.0009 </r>
       <r>   12.3657    0.0000 </r>
       <r>   16.9133    0.0000 </r>
       <r>   18.1922    0.0000 </r>
      </set>
      <set comment="kpoint 44">
       <r>   -1.0940    1.0000 </r>
       <r>    0.4418    1.0000 </r>
       <r>    1.1786    1.0000 </r>
       <r>    1.5832    1.0000 </r>
       <r>    3.6113    1.0000 </r>
       <r>    5.7823   -0.0342 </r>
       <r>   10.7466   -0.0000 </r>
       <r>   19.5423    0.0000 </r>
       <r>   19.9983    0.0000 </r>
      </set>
      <set comment="kpoint 45">
       <r>   -1.3043    1.0000 </r>
       <r>   -0.9228    1.0000 </r>
       <r>    2.8524    1.0000 </r>
       <r>    3.1460    1.0000 </r>
       <r>    3.5399    1.0000 </r>
       <r>    4.0849    1.0000 </r>
       <r>   15.4001    0.0000 </r>
       <r>   17.0366    0.0000 </r>
       <r>   17.2662    0.0000 </r>
      </set>
      <set comment="kpoint 46">
       <r>   -1.1352    1.0000 </r>
       <r>   -0.5775    1.0000 </r>
       <r>    1.5224    1.0000 </r>
       <r>    2.6340    1.0000 </r>
       <r>    3.1964    1.0000 </r>
       <r>    3.9380    1.0000 </r>
       <r>   16.1612    0.0000 </r>
       <r>   18.1255    0.0000 </r>
       <r>   19.0190    0.0000 </r>
      </set>
      <set comment="kpoint 47">
       <r>   -1.2646    1.0000 </r>
       <r>    0.1839    1.0000 </r>
       <r>    0.8306    1.0000 </r>
       <r>    1.7486    1.0000 </r>
       <r>    3.1606    1.0000 </r>
       <r>    3.9275    1.0000 </r>
       <r>   14.5967    0.0000 </r>
       <r>   20.0349    0.0000 </r>
       <r>   21.1317    0.0000 </r>
      </set>
      <set comment="kpoint 48">
       <r>   -1.5960    1.0000 </r>
       <r>   -0.4029    1.0000 </r>
       <r>    1.5320    1.0000 </r>
       <r>    2.2873    1.0000 </r>
       <r>    2.5351    1.0000 </r>
       <r>    3.1219    1.0000 </r>
       <r>   18.9682    0.0000 </r>
       <r>   19.8622    0.0000 </r>
       <r>   21.0320    0.0000 </r>
      </set>
      <set comment="kpoint 49">
       <r>   -2.0733    1.0000 </r>
       <r>   -0.0197    1.0000 </r>
       <r>    1.2125    1.0000 </r>
       <r>    1.8153    1.0000 </r>
       <r>    2.2439    1.0000 </r>
       <r>    3.0635    1.0000 </r>
       <r>   18.7100    0.0000 </r>
       <r>   20.7242    0.0000 </r>
       <r>   22.8737    0.0000 </r>
      </set>
      <set comment="kpoint 50">
       <r>   -2.9696    1.0000 </r>
       <r>    0.2318    1.0000 </r>
       <r>    1.4368    1.0000 </r>
       <r>    1.4897    1.0000 </r>
       <r>    1.8621    1.0000 </r>
       <r>    2.7295    1.0000 </r>
       <r>   21.2247    0.0000 </r>
       <r>   22.3611    0.0000 </r>
       <r>   22.7859    0.0000 </r>
      </set>
      <set comment="kpoint 51">
       <r>   -3.6164    1.0000 </r>
       <r>    0.6707    1.0000 </r>
       <r>    1.0888    1.0000 </r>
       <r>    1.0888    1.0000 </r>
       <r>    2.3594    1.0000 </r>
       <r>    2.3594    1.0000 </r>
       <r>   20.6287    0.0000 </r>
       <r>   21.9268    0.0000 </r>
       <r>   25.4763    0.0000 </r>
      </set>
      <set comment="kpoint 52">
       <r>   -2.9921    1.0000 </r>
       <r>    0.4652    1.0000 </r>
       <r>    1.2170    1.0000 </r>
       <r>    1.2966    1.0000 </r>
       <r>    2.0483    1.0000 </r>
       <r>    2.7453    1.0000 </r>
       <r>   19.5582    0.0000 </r>
       <r>   21.3538    0.0000 </r>
       <r>   24.1964    0.0000 </r>
      </set>
      <set comment="kpoint 53">
       <r>   -1.9406    1.0000 </r>
       <r>    0.3084    1.0000 </r>
       <r>    1.1098    1.0000 </r>
       <r>    1.5799    1.0000 </r>
       <r>    1.9584    1.0000 </r>
       <r>    3.4858    1.0000 </r>
       <r>   17.0915    0.0000 </r>
       <r>   19.6421    0.0000 </r>
       <r>   23.8558    0.0000 </r>
      </set>
      <set comment="kpoint 54">
       <r>   -1.2690    1.0000 </r>
       <r>    0.6915    1.0000 </r>
       <r>    1.0644    1.0000 </r>
       <r>    1.3759    1.0000 </r>
       <r>    2.6325    1.0000 </r>
       <r>    4.5458    1.0000 </r>
       <r>   13.2508    0.0000 </r>
       <r>   19.0100    0.0000 </r>
       <r>   22.2852    0.0000 </r>
      </set>
      <set comment="kpoint 55">
       <r>   -1.2367    1.0000 </r>
       <r>    0.5496    1.0000 </r>
       <r>    1.2652    1.0000 </r>
       <r>    1.9003    1.0000 </r>
       <r>    3.3201    1.0000 </r>
       <r>    6.1451   -0.0001 </r>
       <r>    9.6825   -0.0000 </r>
       <r>   19.0336    0.0000 </r>
       <r>   21.6277    0.0000 </r>
      </set>
      <set comment="kpoint 56">
       <r>   -1.2757    1.0000 </r>
       <r>    0.5229    1.0000 </r>
       <r>    1.3142    1.0000 </r>
       <r>    1.7285    1.0000 </r>
       <r>    3.6703    1.0000 </r>
       <r>    6.1176   -0.0002 </r>
       <r>    9.5142   -0.0000 </r>
       <r>   19.7853    0.0000 </r>
       <r>   21.4181    0.0000 </r>
      </set>
      <set comment="kpoint 57">
       <r>   -1.3563    1.0000 </r>
       <r>    0.6232    1.0000 </r>
       <r>    0.8513    1.0000 </r>
       <r>    1.4767    1.0000 </r>
       <r>    3.5212    1.0000 </r>
       <r>    4.0176    1.0000 </r>
       <r>   13.1193    0.0000 </r>
       <r>   20.9716    0.0000 </r>
       <r>   21.2560    0.0000 </r>
      </set>
      <set comment="kpoint 58">
       <r>   -1.9669    1.0000 </r>
       <r>    0.1100    1.0000 </r>
       <r>    1.1164    1.0000 </r>
       <r>    1.6111    1.0000 </r>
       <r>    2.5983    1.0000 </r>
       <r>    3.0674    1.0000 </r>
       <r>   17.2481    0.0000 </r>
       <r>   21.8626    0.0000 </r>
       <r>   22.1610    0.0000 </r>
      </set>
      <set comment="kpoint 59">
       <r>   -2.6306    1.0000 </r>
       <r>    0.3547    1.0000 </r>
       <r>    1.2362    1.0000 </r>
       <r>    1.3689    1.0000 </r>
       <r>    2.2353    1.0000 </r>
       <r>    2.7932    1.0000 </r>
       <r>   18.4001    0.0000 </r>
       <r>   22.1843    0.0000 </r>
       <r>   23.3606    0.0000 </r>
      </set>
      <set comment="kpoint 60">
       <r>   -1.7710    1.0000 </r>
       <r>    0.0994    1.0000 </r>
       <r>    1.0171    1.0000 </r>
       <r>    1.7859    1.0000 </r>
       <r>    2.2176    1.0000 </r>
       <r>    3.4644    1.0000 </r>
       <r>   17.2294    0.0000 </r>
       <r>   19.6705    0.0000 </r>
       <r>   22.9554    0.0000 </r>
      </set>
      <set comment="kpoint 61">
       <r>   -0.8453    1.0000 </r>
       <r>    0.1226    1.0000 </r>
       <r>    0.6252    1.0000 </r>
       <r>    2.0138    1.0000 </r>
       <r>    2.5263    1.0000 </r>
       <r>    4.6400    1.0000 </r>
       <r>   14.8084    0.0000 </r>
       <r>   17.4334    0.0000 </r>
       <r>   21.4549    0.0000 </r>
      </set>
      <set comment="kpoint 62">
       <r>   -0.7098    1.0000 </r>
       <r>    0.2988    1.0000 </r>
       <r>    0.9343    1.0000 </r>
       <r>    1.8170    1.0000 </r>
       <r>    3.2204    1.0000 </r>
       <r>    6.3150   -0.0000 </r>
       <r>   11.2411    0.0000 </r>
       <r>   17.1854    0.0000 </r>
       <r>   20.0540    0.0000 </r>
      </set>
      <set comment="kpoint 63">
       <r>   -0.7789    1.0000 </r>
       <r>    0.2085    1.0000 </r>
       <r>    1.2695    1.0000 </r>
       <r>    1.7491    1.0000 </r>
       <r>    3.5125    1.0000 </r>
       <r>    7.9889   -0.0000 </r>
       <r>    8.9212   -0.0000 </r>
       <r>   17.7958    0.0000 </r>
       <r>   19.0218    0.0000 </r>
      </set>
      <set comment="kpoint 64">
       <r>   -0.8280    1.0000 </r>
       <r>    0.3005    1.0000 </r>
       <r>    0.6964    1.0000 </r>
       <r>    1.9440    1.0000 </r>
       <r>    3.3452    1.0000 </r>
       <r>    5.5651    0.4540 </r>
       <r>   12.2475    0.0000 </r>
       <r>   18.0552    0.0000 </r>
       <r>   19.6152    0.0000 </r>
      </set>
      <set comment="kpoint 65">
       <r>   -1.1620    1.0000 </r>
       <r>   -0.1302    1.0000 </r>
       <r>    0.8451    1.0000 </r>
       <r>    2.1390    1.0000 </r>
       <r>    2.6280    1.0000 </r>
       <r>    3.9805    1.0000 </r>
       <r>   16.0653    0.0000 </r>
       <r>   18.5224    0.0000 </r>
       <r>   21.2117    0.0000 </r>
      </set>
      <set comment="kpoint 66">
       <r>   -1.3754    1.0000 </r>
       <r>   -0.1414    1.0000 </r>
       <r>    1.0435    1.0000 </r>
       <r>    1.9154    1.0000 </r>
       <r>    3.2617    1.0000 </r>
       <r>    3.3362    1.0000 </r>
       <r>   16.0425    0.0000 </r>
       <r>   20.3846    0.0000 </r>
       <r>   21.0952    0.0000 </r>
      </set>
      <set comment="kpoint 67">
       <r>   -0.8454    1.0000 </r>
       <r>   -0.3499    1.0000 </r>
       <r>    0.9523    1.0000 </r>
       <r>    2.5363    1.0000 </r>
       <r>    3.0644    1.0000 </r>
       <r>    4.7092    1.0000 </r>
       <r>   14.8845    0.0000 </r>
       <r>   17.3357    0.0000 </r>
       <r>   19.2713    0.0000 </r>
      </set>
      <set comment="kpoint 68">
       <r>   -0.4901    1.0000 </r>
       <r>   -0.1947    1.0000 </r>
       <r>    0.7344    1.0000 </r>
       <r>    2.6168    1.0000 </r>
       <r>    3.3538    1.0000 </r>
       <r>    6.5814   -0.0000 </r>
       <r>   12.8785    0.0000 </r>
       <r>   15.3179    0.0000 </r>
       <r>   17.7261    0.0000 </r>
      </set>
      <set comment="kpoint 69">
       <r>   -0.3212    1.0000 </r>
       <r>   -0.0290    1.0000 </r>
       <r>    0.7619    1.0000 </r>
       <r>    2.2526    1.0000 </r>
       <r>    3.5861    1.0000 </r>
       <r>    8.9031   -0.0000 </r>
       <r>   10.1165   -0.0000 </r>
       <r>   14.9630    0.0000 </r>
       <r>   17.1006    0.0000 </r>
      </set>
      <set comment="kpoint 70">
       <r>   -0.0999    1.0000 </r>
       <r>    0.0101    1.0000 </r>
       <r>    0.3935    1.0000 </r>
       <r>    2.3333    1.0000 </r>
       <r>    3.3284    1.0000 </r>
       <r>    7.3271   -0.0000 </r>
       <r>   12.2449    0.0000 </r>
       <r>   14.3975    0.0000 </r>
       <r>   18.1023    0.0000 </r>
      </set>
      <set comment="kpoint 71">
       <r>   -0.5016    1.0000 </r>
       <r>   -0.0085    1.0000 </r>
       <r>    0.4802    1.0000 </r>
       <r>    2.3577    1.0000 </r>
       <r>    2.9564    1.0000 </r>
       <r>    5.4701    0.8233 </r>
       <r>   13.7986    0.0000 </r>
       <r>   16.3390    0.0000 </r>
       <r>   19.5989    0.0000 </r>
      </set>
      <set comment="kpoint 72">
       <r>   -1.0793    1.0000 </r>
       <r>   -0.6139    1.0000 </r>
       <r>    1.8390    1.0000 </r>
       <r>    2.6288    1.0000 </r>
       <r>    3.7258    1.0000 </r>
       <r>    5.3469    1.0285 </r>
       <r>   13.5401    0.0000 </r>
       <r>   16.8865    0.0000 </r>
       <r>   17.9725    0.0000 </r>
      </set>
      <set comment="kpoint 73">
       <r>   -0.9782    1.0000 </r>
       <r>   -0.6951    1.0000 </r>
       <r>    1.8671    1.0000 </r>
       <r>    3.0495    1.0000 </r>
       <r>    3.7130    1.0000 </r>
       <r>    7.0926   -0.0000 </r>
       <r>   12.3907    0.0000 </r>
       <r>   15.0672    0.0000 </r>
       <r>   16.3123    0.0000 </r>
      </set>
      <set comment="kpoint 74">
       <r>   -0.7152    1.0000 </r>
       <r>   -0.3885    1.0000 </r>
       <r>    1.4111    1.0000 </r>
       <r>    2.6369    1.0000 </r>
       <r>    3.8988    1.0000 </r>
       <r>    9.4601   -0.0000 </r>
       <r>   10.9276   -0.0000 </r>
       <r>   13.5983    0.0000 </r>
       <r>   15.5514    0.0000 </r>
      </set>
      <set comment="kpoint 75">
       <r>   -0.3750    1.0000 </r>
       <r>    0.0680    1.0000 </r>
       <r>    0.7195    1.0000 </r>
       <r>    2.3148    1.0000 </r>
       <r>    3.6796    1.0000 </r>
       <r>    9.1909   -0.0000 </r>
       <r>   11.1982    0.0000 </r>
       <r>   13.1940    0.0000 </r>
       <r>   16.6866    0.0000 </r>
      </set>
      <set comment="kpoint 76">
       <r>   -0.4449    1.0000 </r>
       <r>    0.0535    1.0000 </r>
       <r>    0.8362    1.0000 </r>
       <r>    2.0793    1.0000 </r>
       <r>    3.4406    1.0000 </r>
       <r>    7.5887   -0.0000 </r>
       <r>   10.4755   -0.0000 </r>
       <r>   16.2993    0.0000 </r>
       <r>   18.2731    0.0000 </r>
      </set>
      <set comment="kpoint 77">
       <r>   -1.2380    1.0000 </r>
       <r>   -0.8703    1.0000 </r>
       <r>    2.6922    1.0000 </r>
       <r>    3.1806    1.0000 </r>
       <r>    3.7949    1.0000 </r>
       <r>    8.0343   -0.0000 </r>
       <r>   11.0106   -0.0000 </r>
       <r>   14.2477    0.0000 </r>
       <r>   16.7968    0.0000 </r>
      </set>
      <set comment="kpoint 78">
       <r>   -1.0612    1.0000 </r>
       <r>   -0.7705    1.0000 </r>
       <r>    2.2134    1.0000 </r>
       <r>    3.0412    1.0000 </r>
       <r>    3.9002    1.0000 </r>
       <r>    8.4668   -0.0000 </r>
       <r>   11.0482    0.0000 </r>
       <r>   14.3807    0.0000 </r>
       <r>   15.7892    0.0000 </r>
      </set>
      <set comment="kpoint 79">
       <r>   -0.6194    1.0000 </r>
       <r>   -0.3279    1.0000 </r>
       <r>    1.1239    1.0000 </r>
       <r>    2.6885    1.0000 </r>
       <r>    3.6915    1.0000 </r>
       <r>    7.9555   -0.0000 </r>
       <r>   11.9934    0.0000 </r>
       <r>   14.3458    0.0000 </r>
       <r>   16.2611    0.0000 </r>
      </set>
      <set comment="kpoint 80">
       <r>   -1.1696    1.0000 </r>
       <r>   -0.7830    1.0000 </r>
       <r>    2.3728    1.0000 </r>
       <r>    2.9599    1.0000 </r>
       <r>    3.7964    1.0000 </r>
       <r>    6.7188   -0.0000 </r>
       <r>   12.2539    0.0000 </r>
       <r>   15.1815    0.0000 </r>
       <r>   17.1998    0.0000 </r>
      </set>
      <set comment="kpoint 81">
       <r>   -0.8608    1.0000 </r>
       <r>   -0.5480    1.0000 </r>
       <r>    1.3796    1.0000 </r>
       <r>    2.8836    1.0000 </r>
       <r>    3.4219    1.0000 </r>
       <r>    5.7571   -0.0266 </r>
       <r>   13.6842    0.0000 </r>
       <r>   16.1727    0.0000 </r>
       <r>   17.4916    0.0000 </r>
      </set>
      <set comment="kpoint 82">
       <r>   -1.0825    1.0000 </r>
       <r>   -0.3873    1.0000 </r>
       <r>    1.2993    1.0000 </r>
       <r>    2.2648    1.0000 </r>
       <r>    3.5661    1.0000 </r>
       <r>    4.1789    1.0000 </r>
       <r>   14.7960    0.0000 </r>
       <r>   18.9918    0.0000 </r>
       <r>   19.0581    0.0000 </r>
      </set>
      <set comment="kpoint 83">
       <r>   -2.5617    1.0000 </r>
       <r>    0.7300    1.0000 </r>
       <r>    1.1562    1.0000 </r>
       <r>    1.1562    1.0000 </r>
       <r>    2.5866    1.0000 </r>
       <r>    2.5866    1.0000 </r>
       <r>   16.8693    0.0000 </r>
       <r>   21.8684    0.0000 </r>
       <r>   25.7574    0.0000 </r>
      </set>
      <set comment="kpoint 84">
       <r>   -1.9603    1.0000 </r>
       <r>    0.6082    1.0000 </r>
       <r>    1.1117    1.0000 </r>
       <r>    1.2984    1.0000 </r>
       <r>    2.3509    1.0000 </r>
       <r>    3.3972    1.0000 </r>
       <r>   15.6836    0.0000 </r>
       <r>   20.8779    0.0000 </r>
       <r>   23.2516    0.0000 </r>
      </set>
      <set comment="kpoint 85">
       <r>   -0.9754    1.0000 </r>
       <r>    0.3307    1.0000 </r>
       <r>    0.8351    1.0000 </r>
       <r>    1.6857    1.0000 </r>
       <r>    2.2515    1.0000 </r>
       <r>    4.6208    1.0000 </r>
       <r>   14.7557    0.0000 </r>
       <r>   17.4234    0.0000 </r>
       <r>   22.7985    0.0000 </r>
      </set>
      <set comment="kpoint 86">
       <r>   -0.4793    1.0000 </r>
       <r>    0.4211    1.0000 </r>
       <r>    0.7012    1.0000 </r>
       <r>    1.8484    1.0000 </r>
       <r>    2.7039    1.0000 </r>
       <r>    6.0672   -0.0009 </r>
       <r>   12.9344    0.0000 </r>
       <r>   15.2531    0.0000 </r>
       <r>   22.5131    0.0000 </r>
      </set>
      <set comment="kpoint 87">
       <r>   -0.7122    1.0000 </r>
       <r>    0.2403    1.0000 </r>
       <r>    1.1903    1.0000 </r>
       <r>    1.9185    1.0000 </r>
       <r>    3.3666    1.0000 </r>
       <r>    8.0625   -0.0000 </r>
       <r>    9.6309   -0.0000 </r>
       <r>   15.7833    0.0000 </r>
       <r>   20.5704    0.0000 </r>
      </set>
      <set comment="kpoint 88">
       <r>   -0.9207    1.0000 </r>
       <r>    0.0072    1.0000 </r>
       <r>    1.2139    1.0000 </r>
       <r>    2.0755    1.0000 </r>
       <r>    3.7252    1.0000 </r>
       <r>    6.6125   -0.0000 </r>
       <r>   11.0187    0.0000 </r>
       <r>   17.2028    0.0000 </r>
       <r>   19.2465    0.0000 </r>
      </set>
      <set comment="kpoint 89">
       <r>   -1.7577    1.0000 </r>
       <r>    0.8105    1.0000 </r>
       <r>    0.9546    1.0000 </r>
       <r>    1.2813    1.0000 </r>
       <r>    3.1432    1.0000 </r>
       <r>    3.2589    1.0000 </r>
       <r>   14.3130    0.0000 </r>
       <r>   21.4432    0.0000 </r>
       <r>   22.6277    0.0000 </r>
      </set>
      <set comment="kpoint 90">
       <r>   -1.1311    1.0000 </r>
       <r>    0.6168    1.0000 </r>
       <r>    0.6552    1.0000 </r>
       <r>    1.6356    1.0000 </r>
       <r>    2.9926    1.0000 </r>
       <r>    4.5996    1.0000 </r>
       <r>   13.3024    0.0000 </r>
       <r>   19.0632    0.0000 </r>
       <r>   21.2923    0.0000 </r>
      </set>
      <set comment="kpoint 91">
       <r>   -0.2816    1.0000 </r>
       <r>    0.2284    1.0000 </r>
       <r>    0.3939    1.0000 </r>
       <r>    2.1354    1.0000 </r>
       <r>    2.9286    1.0000 </r>
       <r>    6.2040   -0.0000 </r>
       <r>   12.9385    0.0000 </r>
       <r>   15.2918    0.0000 </r>
       <r>   20.0734    0.0000 </r>
      </set>
      <set comment="kpoint 92">
       <r>   -0.3558    1.0000 </r>
       <r>    0.1412    1.0000 </r>
       <r>    0.7334    1.0000 </r>
       <r>    2.2333    1.0000 </r>
       <r>    3.3410    1.0000 </r>
       <r>    8.0181   -0.0000 </r>
       <r>   11.6307    0.0000 </r>
       <r>   13.6659    0.0000 </r>
       <r>   18.5587    0.0000 </r>
      </set>
      <set comment="kpoint 93">
       <r>   -0.6868    1.0000 </r>
       <r>   -0.1512    1.0000 </r>
       <r>    1.1487    1.0000 </r>
       <r>    2.4822    1.0000 </r>
       <r>    3.6363    1.0000 </r>
       <r>    8.2960   -0.0000 </r>
       <r>   10.6638   -0.0000 </r>
       <r>   14.9600    0.0000 </r>
       <r>   17.3400    0.0000 </r>
      </set>
      <set comment="kpoint 94">
       <r>   -1.0612    1.0000 </r>
       <r>    0.2933    1.0000 </r>
       <r>    0.9663    1.0000 </r>
       <r>    1.7497    1.0000 </r>
       <r>    3.6841    1.0000 </r>
       <r>    5.1984    1.0153 </r>
       <r>   12.0007    0.0000 </r>
       <r>   19.3269    0.0000 </r>
       <r>   20.1167    0.0000 </r>
      </set>
      <set comment="kpoint 95">
       <r>   -0.6877    1.0000 </r>
       <r>    0.0218    1.0000 </r>
       <r>    0.8829    1.0000 </r>
       <r>    2.2581    1.0000 </r>
       <r>    3.5422    1.0000 </r>
       <r>    6.8358   -0.0000 </r>
       <r>   11.3374    0.0000 </r>
       <r>   16.7630    0.0000 </r>
       <r>   18.1032    0.0000 </r>
      </set>
      <set comment="kpoint 96">
       <r>   -0.3071    1.0000 </r>
       <r>    0.0837    1.0000 </r>
       <r>    0.5399    1.0000 </r>
       <r>    2.3709    1.0000 </r>
       <r>    3.6812    1.0000 </r>
       <r>    8.6574   -0.0000 </r>
       <r>   11.7047    0.0000 </r>
       <r>   13.5792    0.0000 </r>
       <r>   16.3945    0.0000 </r>
      </set>
      <set comment="kpoint 97">
       <r>   -0.4301    1.0000 </r>
       <r>    0.0907    1.0000 </r>
       <r>    0.6987    1.0000 </r>
       <r>    2.3264    1.0000 </r>
       <r>    3.8985    1.0000 </r>
       <r>    9.9170   -0.0000 </r>
       <r>   11.3792    0.0000 </r>
       <r>   12.7227    0.0000 </r>
       <r>   15.4145    0.0000 </r>
      </set>
      <set comment="kpoint 98">
       <r>   -0.8977    1.0000 </r>
       <r>   -0.1858    1.0000 </r>
       <r>    1.5054    1.0000 </r>
       <r>    2.4127    1.0000 </r>
       <r>    3.6510    1.0000 </r>
       <r>    8.1575   -0.0000 </r>
       <r>   10.2843   -0.0000 </r>
       <r>   15.1005    0.0000 </r>
       <r>   18.6638    0.0000 </r>
      </set>
      <set comment="kpoint 99">
       <r>   -0.7253    1.0000 </r>
       <r>   -0.2243    1.0000 </r>
       <r>    1.3541    1.0000 </r>
       <r>    2.5629    1.0000 </r>
       <r>    3.6900    1.0000 </r>
       <r>    9.5207   -0.0000 </r>
       <r>   10.4496   -0.0000 </r>
       <r>   13.3267    0.0000 </r>
       <r>   17.0234    0.0000 </r>
      </set>
      <set comment="kpoint 100">
       <r>   -0.9145    1.0000 </r>
       <r>   -0.2772    1.0000 </r>
       <r>    1.7023    1.0000 </r>
       <r>    2.6701    1.0000 </r>
       <r>    3.5300    1.0000 </r>
       <r>    9.3518   -0.0000 </r>
       <r>   10.1121   -0.0000 </r>
       <r>   13.3781    0.0000 </r>
       <r>   18.3732    0.0000 </r>
      </set>
      <set comment="kpoint 101">
       <r>   -1.9000    1.0000 </r>
       <r>    0.9971    1.0000 </r>
       <r>    0.9971    1.0000 </r>
       <r>    1.8780    1.0000 </r>
       <r>    3.1342    1.0000 </r>
       <r>    3.1342    1.0000 </r>
       <r>   12.8395    0.0000 </r>
       <r>   20.9590    0.0000 </r>
       <r>   24.4751    0.0000 </r>
      </set>
      <set comment="kpoint 102">
       <r>   -1.5536    1.0000 </r>
       <r>    0.8138    1.0000 </r>
       <r>    1.1087    1.0000 </r>
       <r>    1.8002    1.0000 </r>
       <r>    3.0259    1.0000 </r>
       <r>    4.3852    1.0000 </r>
       <r>   11.7356    0.0000 </r>
       <r>   20.3688    0.0000 </r>
       <r>   21.9785    0.0000 </r>
      </set>
      <set comment="kpoint 103">
       <r>   -0.8482    1.0000 </r>
       <r>    0.4402    1.0000 </r>
       <r>    1.2508    1.0000 </r>
       <r>    1.5651    1.0000 </r>
       <r>    3.0034    1.0000 </r>
       <r>    6.1197   -0.0002 </r>
       <r>   11.2126    0.0000 </r>
       <r>   17.1530    0.0000 </r>
       <r>   22.1152    0.0000 </r>
      </set>
      <set comment="kpoint 104">
       <r>   -0.5802    1.0000 </r>
       <r>    0.2642    1.0000 </r>
       <r>    0.9916    1.0000 </r>
       <r>    2.1878    1.0000 </r>
       <r>    3.1510    1.0000 </r>
       <r>    7.7693   -0.0000 </r>
       <r>   11.5597    0.0000 </r>
       <r>   13.6617    0.0000 </r>
       <r>   20.4260    0.0000 </r>
      </set>
      <set comment="kpoint 105">
       <r>   -1.5515    1.0000 </r>
       <r>    0.7245    1.0000 </r>
       <r>    1.1098    1.0000 </r>
       <r>    2.0036    1.0000 </r>
       <r>    3.6241    1.0000 </r>
       <r>    4.6900    1.0000 </r>
       <r>   10.4851   -0.0000 </r>
       <r>   20.6093    0.0000 </r>
       <r>   22.1945    0.0000 </r>
      </set>
      <set comment="kpoint 106">
       <r>   -1.0854    1.0000 </r>
       <r>    0.4224    1.0000 </r>
       <r>    1.4000    1.0000 </r>
       <r>    1.6086    1.0000 </r>
       <r>    3.4772    1.0000 </r>
       <r>    6.4794   -0.0000 </r>
       <r>    9.7068   -0.0000 </r>
       <r>   19.1358    0.0000 </r>
       <r>   20.0497    0.0000 </r>
      </set>
      <set comment="kpoint 107">
       <r>   -0.4918    1.0000 </r>
       <r>    0.0827    1.0000 </r>
       <r>    0.9884    1.0000 </r>
       <r>    2.0312    1.0000 </r>
       <r>    3.4348    1.0000 </r>
       <r>    8.3345   -0.0000 </r>
       <r>    9.7274   -0.0000 </r>
       <r>   15.7570    0.0000 </r>
       <r>   18.6936    0.0000 </r>
      </set>
      <set comment="kpoint 108">
       <r>   -0.9722    1.0000 </r>
       <r>    0.3372    1.0000 </r>
       <r>    1.4514    1.0000 </r>
       <r>    1.5964    1.0000 </r>
       <r>    3.5733    1.0000 </r>
       <r>    7.7201   -0.0000 </r>
       <r>    8.7467   -0.0000 </r>
       <r>   17.9021    0.0000 </r>
       <r>   20.8874    0.0000 </r>
      </set>
      <set comment="kpoint 109">
       <r>   -1.7992    1.0000 </r>
       <r>    0.8557    1.0000 </r>
       <r>    0.8557    1.0000 </r>
       <r>    3.5712    1.0000 </r>
       <r>    3.5712    1.0000 </r>
       <r>    4.0010    1.0000 </r>
       <r>    9.3888   -0.0000 </r>
       <r>   20.3082    0.0000 </r>
       <r>   23.3195    0.0000 </r>
      </set>
      <set comment="kpoint 110">
       <r>   -1.5416    1.0000 </r>
       <r>    0.6815    1.0000 </r>
       <r>    1.0314    1.0000 </r>
       <r>    2.5575    1.0000 </r>
       <r>    3.5487    1.0000 </r>
       <r>    5.8614   -0.0260 </r>
       <r>    8.7529   -0.0000 </r>
       <r>   20.2362    0.0000 </r>
       <r>   21.7433    0.0000 </r>
      </set>
     </set>
    </set>
   </array>
  </eigenvalues>
  <separator name="orbital magnetization" >
   <v name="MAGDIPOLOUT">      0.00000000      0.00000000      0.00000000</v>
  </separator>
  <dos>
   <i name="efermi">      5.55415746 </i>
   <total>
    <array>
     <dimension dim="1">gridpoints</dimension>
     <dimension dim="2">spin</dimension>
     <field>energy</field>
     <field>total</field>
     <field>integrated</field>
     <set>
      <set comment="spin 1">
       <r>    -6.2844     0.0000     0.0000 </r>
       <r>    -6.1709     0.0000     0.0000 </r>
       <r>    -6.0574     0.0000     0.0000 </r>
       <r>    -5.9439    -0.0000    -0.0000 </r>
       <r>    -5.8305    -0.0000    -0.0000 </r>
       <r>    -5.7170    -0.0000    -0.0000 </r>
       <r>    -5.6035    -0.0000    -0.0000 </r>
       <r>    -5.4900    -0.0000    -0.0000 </r>
       <r>    -5.3766    -0.0000    -0.0000 </r>
       <r>    -5.2631    -0.0000    -0.0000 </r>
       <r>    -5.1496    -0.0000    -0.0000 </r>
       <r>    -5.0362    -0.0000    -0.0000 </r>
       <r>    -4.9227    -0.0000    -0.0000 </r>
       <r>    -4.8092    -0.0000    -0.0000 </r>
       <r>    -4.6957    -0.0002    -0.0000 </r>
       <r>    -4.5823    -0.0008    -0.0001 </r>
       <r>    -4.4688    -0.0001    -0.0001 </r>
       <r>    -4.3553     0.0060     0.0005 </r>
       <r>    -4.2418     0.0164     0.0024 </r>
       <r>    -4.1284     0.0321     0.0060 </r>
       <r>    -4.0149     0.0500     0.0117 </r>
       <r>    -3.9014     0.0543     0.0179 </r>
       <r>    -3.7880     0.0543     0.0240 </r>
       <r>    -3.6745     0.0597     0.0308 </r>
       <r>    -3.5610     0.0745     0.0393 </r>
       <r>    -3.4475     0.0971     0.0503 </r>
       <r>    -3.3341     0.1097     0.0627 </r>
       <r>    -3.2206     0.0858     0.0725 </r>
       <r>    -3.1071     0.0646     0.0798 </r>
       <r>    -2.9937     0.0955     0.0906 </r>
       <r>    -2.8802     0.1535     0.1081 </r>
       <r>    -2.7667     0.1751     0.1279 </r>
       <r>    -2.6532     0.1355     0.1433 </r>
       <r>    -2.5398     0.1036     0.1551 </r>
       <r>    -2.4263     0.1493     0.1720 </r>
       <r>    -2.3128     0.2019     0.1949 </r>
       <r>    -2.1993     0.1906     0.2165 </r>
       <r>    -2.0859     0.1933     0.2385 </r>
       <r>    -1.9724     0.2560     0.2675 </r>
       <r>    -1.8589     0.3598     0.3083 </r>
       <r>    -1.7455     0.5077     0.3659 </r>
       <r>    -1.6320     0.5860     0.4324 </r>
       <r>    -1.5185     0.6341     0.5044 </r>
       <r>    -1.4050     0.8539     0.6013 </r>
       <r>    -1.2916     1.1182     0.7282 </r>
       <r>    -1.1781     1.2924     0.8748 </r>
       <r>    -1.0646     1.5653     1.0524 </r>
       <r>    -0.9511     1.7841     1.2549 </r>
       <r>    -0.8377     1.8060     1.4598 </r>
       <r>    -0.7242     1.8191     1.6662 </r>
       <r>    -0.6107     1.7118     1.8605 </r>
       <r>    -0.4973     1.5278     2.0338 </r>
       <r>    -0.3838     1.5515     2.2099 </r>
       <r>    -0.2703     1.4726     2.3770 </r>
       <r>    -0.1568     1.1607     2.5087 </r>
       <r>    -0.0434     1.1942     2.6442 </r>
       <r>     0.0701     1.5804     2.8235 </r>
       <r>     0.1836     1.7954     3.0273 </r>
       <r>     0.2971     1.8845     3.2411 </r>
       <r>     0.4105     1.8773     3.4541 </r>
       <r>     0.5240     1.8046     3.6589 </r>
       <r>     0.6375     2.0018     3.8861 </r>
       <r>     0.7509     2.2224     4.1383 </r>
       <r>     0.8644     2.1939     4.3872 </r>
       <r>     0.9779     2.2572     4.6433 </r>
       <r>     1.0914     2.6769     4.9471 </r>
       <r>     1.2048     3.2094     5.3113 </r>
       <r>     1.3183     3.0190     5.6538 </r>
       <r>     1.4318     2.2650     5.9108 </r>
       <r>     1.5453     1.6997     6.1037 </r>
       <r>     1.6587     1.4260     6.2655 </r>
       <r>     1.7722     1.5151     6.4375 </r>
       <r>     1.8857     1.6500     6.6247 </r>
       <r>     1.9991     1.6951     6.8170 </r>
       <r>     2.1126     1.9879     7.0426 </r>
       <r>     2.2261     2.2422     7.2971 </r>
       <r>     2.3396     2.0551     7.5302 </r>
       <r>     2.4530     1.6996     7.7231 </r>
       <r>     2.5665     1.8122     7.9287 </r>
       <r>     2.6800     2.0289     8.1590 </r>
       <r>     2.7935     1.6363     8.3446 </r>
       <r>     2.9069     1.3207     8.4945 </r>
       <r>     3.0204     1.6152     8.6778 </r>
       <r>     3.1339     1.7432     8.8756 </r>
       <r>     3.2473     1.6298     9.0605 </r>
       <r>     3.3608     1.9691     9.2840 </r>
       <r>     3.4743     2.5097     9.5688 </r>
       <r>     3.5878     2.6671     9.8714 </r>
       <r>     3.7012     2.3830    10.1418 </r>
       <r>     3.8147     1.7636    10.3419 </r>
       <r>     3.9282     1.2318    10.4817 </r>
       <r>     4.0417     0.8522    10.5784 </r>
       <r>     4.1551     0.3970    10.6234 </r>
       <r>     4.2686     0.0899    10.6337 </r>
       <r>     4.3821     0.0287    10.6369 </r>
       <r>     4.4955     0.1642    10.6555 </r>
       <r>     4.6090     0.4033    10.7013 </r>
       <r>     4.7225     0.4796    10.7557 </r>
       <r>     4.8360     0.3518    10.7956 </r>
       <r>     4.9494     0.2112    10.8196 </r>
       <r>     5.0629     0.1394    10.8354 </r>
       <r>     5.1764     0.2215    10.8606 </r>
       <r>     5.2899     0.4034    10.9063 </r>
       <r>     5.4033     0.4456    10.9569 </r>
       <r>     5.5168     0.3094    10.9920 </r>
       <r>     5.6303     0.1926    11.0139 </r>
       <r>     5.7437     0.1955    11.0361 </r>
       <r>     5.8572     0.2056    11.0594 </r>
       <r>     5.9707     0.1815    11.0800 </r>
       <r>     6.0842     0.3085    11.1150 </r>
       <r>     6.1976     0.4421    11.1651 </r>
       <r>     6.3111     0.3590    11.2059 </r>
       <r>     6.4246     0.2748    11.2371 </r>
       <r>     6.5381     0.3094    11.2722 </r>
       <r>     6.6515     0.2965    11.3058 </r>
       <r>     6.7650     0.2102    11.3297 </r>
       <r>     6.8785     0.1740    11.3494 </r>
       <r>     6.9919     0.1944    11.3715 </r>
       <r>     7.1054     0.2415    11.3989 </r>
       <r>     7.2189     0.3176    11.4349 </r>
       <r>     7.3324     0.3788    11.4779 </r>
       <r>     7.4458     0.3488    11.5175 </r>
       <r>     7.5593     0.2647    11.5475 </r>
       <r>     7.6728     0.1858    11.5686 </r>
       <r>     7.7862     0.1290    11.5832 </r>
       <r>     7.8997     0.1890    11.6047 </r>
       <r>     8.0132     0.3466    11.6440 </r>
       <r>     8.1267     0.3458    11.6833 </r>
       <r>     8.2401     0.2329    11.7097 </r>
       <r>     8.3536     0.2150    11.7341 </r>
       <r>     8.4671     0.1870    11.7553 </r>
       <r>     8.5806     0.1733    11.7750 </r>
       <r>     8.6940     0.3648    11.8164 </r>
       <r>     8.8075     0.6056    11.8851 </r>
       <r>     8.9210     0.6020    11.9534 </r>
       <r>     9.0344     0.3590    11.9941 </r>
       <r>     9.1479     0.1291    12.0088 </r>
       <r>     9.2614     0.1210    12.0225 </r>
       <r>     9.3749     0.2873    12.0551 </r>
       <r>     9.4883     0.4355    12.1045 </r>
       <r>     9.6018     0.4162    12.1518 </r>
       <r>     9.7153     0.3575    12.1923 </r>
       <r>     9.8288     0.3199    12.2286 </r>
       <r>     9.9422     0.2451    12.2564 </r>
       <r>    10.0557     0.1773    12.2765 </r>
       <r>    10.1692     0.1479    12.2933 </r>
       <r>    10.2826     0.1616    12.3117 </r>
       <r>    10.3961     0.3105    12.3469 </r>
       <r>    10.5096     0.4706    12.4003 </r>
       <r>    10.6231     0.4413    12.4504 </r>
       <r>    10.7365     0.3450    12.4895 </r>
       <r>    10.8500     0.2944    12.5229 </r>
[...]
        <r>  0.0021  0.1179  0.7567 </r>
       </set>
       <set comment="band 4">
        <r>  0.0000  0.0092  0.9297 </r>
       </set>
       <set comment="band 5">
        <r>  0.0000  0.0007  0.9680 </r>
       </set>
       <set comment="band 6">
        <r>  0.3460  0.1825  0.2534 </r>
       </set>
       <set comment="band 7">
        <r>  0.1894  0.2987  0.2991 </r>
       </set>
       <set comment="band 8">
        <r>  0.0905  0.3814  0.2221 </r>
       </set>
       <set comment="band 9">
        <r>  0.0000  0.5137  0.1162 </r>
       </set>
      </set>
      <set comment="kpoint 88">
       <set comment="band 1">
        <r>  0.0923  0.0210  0.7501 </r>
       </set>
       <set comment="band 2">
        <r>  0.0027  0.0641  0.7952 </r>
       </set>
       <set comment="band 3">
        <r>  0.0637  0.0927  0.7206 </r>
       </set>
       <set comment="band 4">
        <r>  0.0000  0.0103  0.9327 </r>
       </set>
       <set comment="band 5">
        <r>  0.0000  0.0000  0.9783 </r>
       </set>
       <set comment="band 6">
        <r>  0.1886  0.2150  0.4328 </r>
       </set>
       <set comment="band 7">
        <r>  0.2918  0.2976  0.1301 </r>
       </set>
       <set comment="band 8">
        <r>  0.0833  0.3411  0.2432 </r>
       </set>
       <set comment="band 9">
        <r>  0.0000  0.5211  0.0876 </r>
       </set>
      </set>
      <set comment="kpoint 89">
       <set comment="band 1">
        <r>  0.3643  0.0598  0.3489 </r>
       </set>
       <set comment="band 2">
        <r>  0.0759  0.1041  0.6744 </r>
       </set>
       <set comment="band 3">
        <r>  0.0012  0.0137  0.9052 </r>
       </set>
       <set comment="band 4">
        <r>  0.0000  0.0052  0.9361 </r>
       </set>
       <set comment="band 5">
        <r>  0.0541  0.0560  0.8111 </r>
       </set>
       <set comment="band 6">
        <r>  0.0000  0.0020  0.9679 </r>
       </set>
       <set comment="band 7">
        <r>  0.1969  0.3073  0.1936 </r>
       </set>
       <set comment="band 8">
        <r>  0.0000  0.0259  0.0926 </r>
       </set>
       <set comment="band 9">
        <r>  0.0000  0.4960  0.1227 </r>
       </set>
      </set>
      <set comment="kpoint 90">
       <set comment="band 1">
        <r>  0.2526  0.0641  0.4905 </r>
       </set>
       <set comment="band 2">
        <r>  0.0556  0.1071  0.6849 </r>
       </set>
       <set comment="band 3">
        <r>  0.0086  0.0072  0.9013 </r>
       </set>
       <set comment="band 4">
        <r>  0.0071  0.0153  0.9117 </r>
       </set>
       <set comment="band 5">
        <r>  0.0077  0.0202  0.9226 </r>
       </set>
       <set comment="band 6">
        <r>  0.1162  0.0849  0.7093 </r>
       </set>
       <set comment="band 7">
        <r>  0.2280  0.3091  0.1773 </r>
       </set>
       <set comment="band 8">
        <r>  0.0311  0.4046  0.1895 </r>
       </set>
       <set comment="band 9">
        <r>  0.0252  0.1849  0.1427 </r>
       </set>
      </set>
      <set comment="kpoint 91">
       <set comment="band 1">
        <r>  0.1467  0.0757  0.6205 </r>
       </set>
       <set comment="band 2">
        <r>  0.0000  0.0259  0.8609 </r>
       </set>
       <set comment="band 3">
        <r>  0.0291  0.0920  0.7437 </r>
       </set>
       <set comment="band 4">
        <r>  0.0018  0.0264  0.9038 </r>
       </set>
       <set comment="band 5">
        <r>  0.0000  0.0073  0.9508 </r>
       </set>
       <set comment="band 6">
        <r>  0.2490  0.1196  0.4931 </r>
       </set>
       <set comment="band 7">
        <r>  0.2452  0.3083  0.1589 </r>
       </set>
       <set comment="band 8">
        <r>  0.0488  0.4426  0.2270 </r>
       </set>
       <set comment="band 9">
        <r>  0.0241  0.2826  0.2267 </r>
       </set>
      </set>
      <set comment="kpoint 92">
       <set comment="band 1">
        <r>  0.0445  0.0154  0.8235 </r>
       </set>
       <set comment="band 2">
        <r>  0.0233  0.0974  0.7244 </r>
       </set>
       <set comment="band 3">
        <r>  0.0002  0.0914  0.7953 </r>
       </set>
       <set comment="band 4">
        <r>  0.0053  0.0134  0.9181 </r>
       </set>
       <set comment="band 5">
        <r>  0.0010  0.0039  0.9614 </r>
       </set>
       <set comment="band 6">
        <r>  0.4034  0.1391  0.2543 </r>
       </set>
       <set comment="band 7">
        <r>  0.1247  0.3800  0.2456 </r>
       </set>
       <set comment="band 8">
        <r>  0.1247  0.3865  0.2184 </r>
       </set>
       <set comment="band 9">
        <r>  0.0160  0.3763  0.2207 </r>
       </set>
      </set>
      <set comment="kpoint 93">
       <set comment="band 1">
        <r>  0.0455  0.0195  0.8041 </r>
       </set>
       <set comment="band 2">
        <r>  0.0000  0.0665  0.7995 </r>
       </set>
       <set comment="band 3">
        <r>  0.0322  0.0908  0.7618 </r>
       </set>
       <set comment="band 4">
        <r>  0.0013  0.0209  0.9186 </r>
       </set>
       <set comment="band 5">
        <r>  0.0032  0.0016  0.9678 </r>
       </set>
       <set comment="band 6">
        <r>  0.2938  0.2088  0.3153 </r>
       </set>
       <set comment="band 7">
        <r>  0.2507  0.3355  0.1291 </r>
       </set>
       <set comment="band 8">
        <r>  0.1097  0.3895  0.2248 </r>
       </set>
       <set comment="band 9">
        <r>  0.0027  0.4073  0.2030 </r>
       </set>
      </set>
      <set comment="kpoint 94">
       <set comment="band 1">
        <r>  0.1611  0.0375  0.6423 </r>
       </set>
       <set comment="band 2">
        <r>  0.0080  0.0623  0.7954 </r>
       </set>
       <set comment="band 3">
        <r>  0.0758  0.0735  0.7304 </r>
       </set>
       <set comment="band 4">
        <r>  0.0000  0.0091  0.9321 </r>
       </set>
       <set comment="band 5">
        <r>  0.0000  0.0005  0.9778 </r>
       </set>
       <set comment="band 6">
        <r>  0.1502  0.1696  0.5381 </r>
       </set>
       <set comment="band 7">
        <r>  0.2633  0.3007  0.1615 </r>
       </set>
       <set comment="band 8">
        <r>  0.0551  0.2903  0.2118 </r>
       </set>
       <set comment="band 9">
        <r>  0.0000  0.5137  0.0944 </r>
       </set>
      </set>
      <set comment="kpoint 95">
       <set comment="band 1">
        <r>  0.0809  0.0340  0.7476 </r>
       </set>
       <set comment="band 2">
        <r>  0.0008  0.0597  0.8045 </r>
       </set>
       <set comment="band 3">
        <r>  0.0590  0.0773  0.7443 </r>
       </set>
       <set comment="band 4">
        <r>  0.0012  0.0251  0.9111 </r>
       </set>
       <set comment="band 5">
        <r>  0.0009  0.0052  0.9641 </r>
       </set>
       <set comment="band 6">
        <r>  0.2276  0.1904  0.4203 </r>
       </set>
       <set comment="band 7">
        <r>  0.2688  0.3110  0.1416 </r>
       </set>
       <set comment="band 8">
        <r>  0.0972  0.4393  0.1691 </r>
       </set>
       <set comment="band 9">
        <r>  0.0025  0.3331  0.2410 </r>
       </set>
      </set>
      <set comment="kpoint 96">
       <set comment="band 1">
        <r>  0.0060  0.0459  0.7992 </r>
       </set>
       <set comment="band 2">
        <r>  0.0099  0.0617  0.8175 </r>
       </set>
       <set comment="band 3">
        <r>  0.0324  0.0790  0.7703 </r>
       </set>
       <set comment="band 4">
        <r>  0.0150  0.0144  0.9046 </r>
       </set>
       <set comment="band 5">
        <r>  0.0010  0.0041  0.9679 </r>
       </set>
       <set comment="band 6">
        <r>  0.3920  0.1652  0.2450 </r>
       </set>
       <set comment="band 7">
        <r>  0.1866  0.3687  0.1745 </r>
       </set>
       <set comment="band 8">
        <r>  0.0965  0.4534  0.1766 </r>
       </set>
       <set comment="band 9">
        <r>  0.0077  0.3257  0.3051 </r>
       </set>
      </set>
      <set comment="kpoint 97">
       <set comment="band 1">
        <r>  0.0042  0.0442  0.8006 </r>
       </set>
       <set comment="band 2">
        <r>  0.0028  0.0640  0.8235 </r>
       </set>
       <set comment="band 3">
        <r>  0.0048  0.0834  0.8015 </r>
       </set>
       <set comment="band 4">
        <r>  0.0345  0.0037  0.8919 </r>
       </set>
       <set comment="band 5">
        <r>  0.0002  0.0011  0.9779 </r>
       </set>
       <set comment="band 6">
        <r>  0.5649  0.0883  0.1432 </r>
       </set>
       <set comment="band 7">
        <r>  0.0729  0.4624  0.1956 </r>
       </set>
       <set comment="band 8">
        <r>  0.0630  0.4730  0.1882 </r>
       </set>
       <set comment="band 9">
        <r>  0.0000  0.3214  0.3292 </r>
       </set>
      </set>
      <set comment="kpoint 98">
       <set comment="band 1">
        <r>  0.0574  0.0075  0.8075 </r>
       </set>
       <set comment="band 2">
        <r>  0.0007  0.0686  0.7919 </r>
       </set>
       <set comment="band 3">
        <r>  0.0312  0.1084  0.7427 </r>
       </set>
       <set comment="band 4">
        <r>  0.0000  0.0108  0.9353 </r>
       </set>
       <set comment="band 5">
        <r>  0.0000  0.0001  0.9753 </r>
       </set>
       <set comment="band 6">
        <r>  0.2469  0.2330  0.3420 </r>
       </set>
       <set comment="band 7">
        <r>  0.2859  0.3161  0.1060 </r>
       </set>
       <set comment="band 8">
        <r>  0.1023  0.3471  0.2680 </r>
       </set>
       <set comment="band 9">
        <r>  0.0000  0.5264  0.0854 </r>
       </set>
      </set>
      <set comment="kpoint 99">
       <set comment="band 1">
        <r>  0.0326  0.0132  0.8224 </r>
       </set>
       <set comment="band 2">
        <r>  0.0002  0.0692  0.7995 </r>
       </set>
       <set comment="band 3">
        <r>  0.0046  0.1031  0.7819 </r>
       </set>
       <set comment="band 4">
        <r>  0.0108  0.0108  0.9203 </r>
       </set>
       <set comment="band 5">
        <r>  0.0008  0.0024  0.9707 </r>
       </set>
       <set comment="band 6">
        <r>  0.5126  0.1178  0.1615 </r>
       </set>
       <set comment="band 7">
        <r>  0.0651  0.4629  0.2013 </r>
       </set>
       <set comment="band 8">
        <r>  0.1053  0.3613  0.2657 </r>
       </set>
       <set comment="band 9">
        <r>  0.0069  0.4298  0.1889 </r>
       </set>
      </set>
      <set comment="kpoint 100">
       <set comment="band 1">
        <r>  0.0441  0.0008  0.8292 </r>
       </set>
       <set comment="band 2">
        <r>  0.0002  0.0712  0.7908 </r>
       </set>
       <set comment="band 3">
        <r>  0.0040  0.1175  0.7668 </r>
       </set>
       <set comment="band 4">
        <r>  0.0000  0.0112  0.9381 </r>
       </set>
       <set comment="band 5">
        <r>  0.0000  0.0001  0.9719 </r>
       </set>
       <set comment="band 6">
        <r>  0.5102  0.1191  0.1568 </r>
       </set>
       <set comment="band 7">
        <r>  0.0515  0.4689  0.2088 </r>
       </set>
       <set comment="band 8">
        <r>  0.1148  0.3256  0.2968 </r>
       </set>
       <set comment="band 9">
        <r>  0.0000  0.5291  0.0853 </r>
       </set>
      </set>
      <set comment="kpoint 101">
       <set comment="band 1">
        <r>  0.3199  0.0296  0.4506 </r>
       </set>
       <set comment="band 2">
        <r>  0.0000  0.0006  0.9386 </r>
       </set>
       <set comment="band 3">
        <r>  0.0000  0.0006  0.9386 </r>
       </set>
       <set comment="band 4">
        <r>  0.1449  0.2453  0.3753 </r>
       </set>
       <set comment="band 5">
        <r>  0.0000  0.0021  0.9634 </r>
       </set>
       <set comment="band 6">
        <r>  0.0000  0.0021  0.9634 </r>
       </set>
       <set comment="band 7">
        <r>  0.2404  0.2707  0.2247 </r>
       </set>
       <set comment="band 8">
        <r>  0.0000  0.0239  0.0270 </r>
       </set>
       <set comment="band 9">
        <r>  0.0000  0.5223  0.0689 </r>
       </set>
      </set>
      <set comment="kpoint 102">
       <set comment="band 1">
        <r>  0.2495  0.0299  0.5436 </r>
       </set>
       <set comment="band 2">
        <r>  0.0005  0.0042  0.9247 </r>
       </set>
       <set comment="band 3">
        <r>  0.0000  0.0008  0.9365 </r>
       </set>
       <set comment="band 4">
        <r>  0.0791  0.1998  0.5270 </r>
       </set>
       <set comment="band 5">
        <r>  0.0000  0.0021  0.9600 </r>
       </set>
       <set comment="band 6">
        <r>  0.0894  0.1007  0.7124 </r>
       </set>
       <set comment="band 7">
        <r>  0.2757  0.2517  0.2317 </r>
       </set>
       <set comment="band 8">
        <r>  0.0087  0.1857  0.1362 </r>
       </set>
       <set comment="band 9">
        <r>  0.0202  0.3281  0.0197 </r>
       </set>
      </set>
      <set comment="kpoint 103">
       <set comment="band 1">
        <r>  0.1614  0.0451  0.6423 </r>
       </set>
       <set comment="band 2">
        <r>  0.0006  0.0229  0.8755 </r>
       </set>
       <set comment="band 3">
        <r>  0.0255  0.1546  0.6617 </r>
       </set>
       <set comment="band 4">
        <r>  0.0000  0.0056  0.9309 </r>
       </set>
       <set comment="band 5">
        <r>  0.0000  0.0015  0.9598 </r>
       </set>
       <set comment="band 6">
        <r>  0.2183  0.1445  0.4879 </r>
       </set>
       <set comment="band 7">
        <r>  0.2588  0.2715  0.2305 </r>
       </set>
       <set comment="band 8">
        <r>  0.0573  0.4016  0.2031 </r>
       </set>
       <set comment="band 9">
        <r>  0.0180  0.0916  0.0976 </r>
       </set>
      </set>
      <set comment="kpoint 104">
       <set comment="band 1">
        <r>  0.0645  0.0085  0.8107 </r>
       </set>
       <set comment="band 2">
        <r>  0.0113  0.1063  0.7239 </r>
       </set>
       <set comment="band 3">
        <r>  0.0001  0.1025  0.7835 </r>
       </set>
       <set comment="band 4">
        <r>  0.0000  0.0111  0.9289 </r>
       </set>
       <set comment="band 5">
        <r>  0.0000  0.0003  0.9644 </r>
       </set>
       <set comment="band 6">
        <r>  0.4052  0.1330  0.2534 </r>
       </set>
       <set comment="band 7">
        <r>  0.1142  0.3779  0.2684 </r>
       </set>
       <set comment="band 8">
        <r>  0.1302  0.3621  0.2381 </r>
       </set>
       <set comment="band 9">
        <r>  0.0000  0.5134  0.1289 </r>
       </set>
      </set>
      <set comment="kpoint 105">
       <set comment="band 1">
        <r>  0.2145  0.0192  0.6039 </r>
       </set>
       <set comment="band 2">
        <r>  0.0003  0.0040  0.9194 </r>
       </set>
       <set comment="band 3">
        <r>  0.0000  0.0034  0.9340 </r>
       </set>
       <set comment="band 4">
        <r>  0.0460  0.1666  0.6245 </r>
       </set>
       <set comment="band 5">
        <r>  0.0000  0.0004  0.9762 </r>
       </set>
       <set comment="band 6">
        <r>  0.0994  0.2121  0.5205 </r>
       </set>
       <set comment="band 7">
        <r>  0.3322  0.1999  0.2570 </r>
       </set>
       <set comment="band 8">
        <r>  0.0011  0.0436  0.0669 </r>
       </set>
       <set comment="band 9">
        <r>  0.0000  0.5140  0.0648 </r>
       </set>
      </set>
      <set comment="kpoint 106">
       <set comment="band 1">
        <r>  0.1576  0.0332  0.6608 </r>
       </set>
       <set comment="band 2">
        <r>  0.0001  0.0131  0.8896 </r>
       </set>
       <set comment="band 3">
        <r>  0.0028  0.0383  0.8761 </r>
       </set>
       <set comment="band 4">
        <r>  0.0136  0.1180  0.7409 </r>
       </set>
       <set comment="band 5">
        <r>  0.0006  0.0038  0.9653 </r>
       </set>
       <set comment="band 6">
        <r>  0.1469  0.2517  0.4105 </r>
       </set>
       <set comment="band 7">
        <r>  0.3485  0.1877  0.2582 </r>
       </set>
       <set comment="band 8">
        <r>  0.0464  0.4194  0.1528 </r>
       </set>
       <set comment="band 9">
        <r>  0.0192  0.2440  0.1694 </r>
       </set>
      </set>
      <set comment="kpoint 107">
       <set comment="band 1">
        <r>  0.0804  0.0355  0.7580 </r>
       </set>
       <set comment="band 2">
        <r>  0.0069  0.0524  0.8055 </r>
       </set>
       <set comment="band 3">
        <r>  0.0002  0.1120  0.7645 </r>
       </set>
       <set comment="band 4">
        <r>  0.0016  0.0143  0.9207 </r>
       </set>
       <set comment="band 5">
        <r>  0.0046  0.0010  0.9624 </r>
       </set>
       <set comment="band 6">
        <r>  0.3799  0.1575  0.2586 </r>
       </set>
       <set comment="band 7">
        <r>  0.1559  0.3352  0.2770 </r>
       </set>
       <set comment="band 8">
        <r>  0.0999  0.4077  0.1981 </r>
       </set>
       <set comment="band 9">
        <r>  0.0128  0.3615  0.2151 </r>
       </set>
      </set>
      <set comment="kpoint 108">
       <set comment="band 1">
        <r>  0.1275  0.0284  0.7058 </r>
       </set>
       <set comment="band 2">
        <r>  0.0020  0.0345  0.8481 </r>
       </set>
       <set comment="band 3">
        <r>  0.0092  0.1316  0.7264 </r>
       </set>
       <set comment="band 4">
        <r>  0.0000  0.0073  0.9302 </r>
       </set>
       <set comment="band 5">
        <r>  0.0000  0.0003  0.9737 </r>
       </set>
       <set comment="band 6">
        <r>  0.0390  0.3945  0.3237 </r>
       </set>
       <set comment="band 7">
        <r>  0.4801  0.0710  0.2764 </r>
       </set>
       <set comment="band 8">
        <r>  0.0620  0.3629  0.2002 </r>
       </set>
       <set comment="band 9">
        <r>  0.0000  0.5139  0.0963 </r>
       </set>
      </set>
      <set comment="kpoint 109">
       <set comment="band 1">
        <r>  0.2167  0.0027  0.6235 </r>
       </set>
       <set comment="band 2">
        <r>  0.0000  0.0001  0.9363 </r>
       </set>
       <set comment="band 3">
        <r>  0.0000  0.0001  0.9363 </r>
       </set>
       <set comment="band 4">
        <r>  0.0000  0.0004  0.9745 </r>
       </set>
       <set comment="band 5">
        <r>  0.0000  0.0004  0.9745 </r>
       </set>
       <set comment="band 6">
        <r>  0.0717  0.4951  0.0817 </r>
       </set>
       <set comment="band 7">
        <r>  0.4158  0.0978  0.3317 </r>
       </set>
       <set comment="band 8">
        <r>  0.0000  0.0226  0.0027 </r>
       </set>
       <set comment="band 9">
        <r>  0.0000  0.5181  0.0082 </r>
       </set>
      </set>
      <set comment="kpoint 110">
       <set comment="band 1">
        <r>  0.1883  0.0123  0.6484 </r>
       </set>
       <set comment="band 2">
        <r>  0.0000  0.0046  0.9188 </r>
       </set>
       <set comment="band 3">
        <r>  0.0000  0.0019  0.9339 </r>
       </set>
       <set comment="band 4">
        <r>  0.0011  0.1678  0.6883 </r>
       </set>
       <set comment="band 5">
        <r>  0.0000  0.0004  0.9735 </r>
       </set>
       <set comment="band 6">
        <r>  0.0207  0.4020  0.3142 </r>
       </set>
       <set comment="band 7">
        <r>  0.4821  0.0287  0.3614 </r>
       </set>
       <set comment="band 8">
        <r>  0.0046  0.1051  0.0853 </r>
       </set>
       <set comment="band 9">
        <r>  0.0259  0.4031  0.0439 </r>
       </set>
      </set>
     </set>
    </set>
   </array>
  </projected>
 </calculation>
 <structure name="finalpos" >
  <crystal>
   <varray name="basis" >
    <v>       0.00000000       2.04000000       2.04000000 </v>
    <v>       2.04000000       0.00000000       2.04000000 </v>
    <v>       2.04000000       2.04000000       0.00000000 </v>
   </varray>
   <i name="volume">     16.97932800 </i>
   <varray name="rec_basis" >
    <v>      -0.24509804       0.24509804       0.24509804 </v>
    <v>       0.24509804      -0.24509804       0.24509804 </v>
    <v>       0.24509804       0.24509804      -0.24509804 </v>
   </varray>
  </crystal>
  <varray name="positions" >
   <v>       0.00000000       0.00000000       0.00000000 </v>
  </varray>
 </structure>
</modeling>
