Nb                                      
   3.30080000000000     
     2.000000    0.000000    0.000000
     0.000000    2.000000    0.000000
     0.000000    0.000000    2.000000
   Nb
    16
Direct
  0.000000  0.000000  0.000000
  0.250000  0.250000  0.250000
  0.500000  0.000000  0.000000
  0.750000  0.250000  0.250000
  0.000000  0.500000  0.000000
  0.250000  0.750000  0.250000
  0.000000  0.000000  0.500000
  0.250000  0.250000  0.750000
  0.500000  0.500000  0.000000
  0.750000  0.750000  0.250000
  0.000000  0.500000  0.500000
  0.250000  0.750000  0.750000
  0.500000  0.000000  0.500000
  0.750000  0.250000  0.750000
  0.500000  0.500000  0.500000
  0.750000  0.750000  0.750000
 
   56   56   56
  1351.0      1325.1      1246.0      1112.2      929.86      717.86      506.14      325.88      197.11      121.81    
  86.133      69.814      62.073      59.005      58.241      59.005      62.073      69.814      86.133      121.81    
  197.11      325.88      506.14      717.86      929.86      1112.2      1246.0      1325.1      1351.0      1325.1    
  1246.0      1112.2      929.86      717.86      506.14      325.88      197.11      121.81      86.133      69.814    
  62.073      59.005      58.241      59.005      62.073      69.814      86.133      121.81      197.11      325.88    
  506.14      717.86      929.86      1112.2      1246.0      1325.1      1325.1      1299.4      1220.9      1088.5    
  908.44      699.88      492.51      316.85      192.12      119.68      85.452      69.595      62.066      59.082    
  58.340      59.082      62.066      69.595      85.452      119.68      192.12      316.85      492.51      699.88    
  908.44      1088.5      1220.9      1299.4      1325.1      1299.4      1220.9      1088.5      908.44      699.88    
  492.51      316.85      192.12      119.68      85.452      69.595      62.066      59.082      58.340      59.082    
  62.066      69.595      85.452      119.68      192.12      316.85      492.51      699.88      908.44      1088.5    
  1220.9      1299.4      1246.0      1220.9      1144.6      1016.6      844.16      646.56      452.65      290.88    
  178.04      113.77      83.548      68.977      62.055      59.313      58.630      59.313      62.055      68.977    
  83.548      113.77      178.04      290.88      452.65      646.56      844.16      1016.6      1144.6      1220.9    
  1246.0      1220.9      1144.6      1016.6      844.16      646.56      452.65      290.88      178.04      113.77    
  83.548      68.977      62.055      59.313      58.630      59.313      62.055      68.977      83.548      113.77    
  178.04      290.88      452.65      646.56      844.16      1016.6      1144.6      1220.9      1112.2      1088.5    
  1016.6      897.46      739.32      561.45      390.61      251.64      157.51      105.44      80.718      68.069    
  62.068      59.683      59.088      59.683      62.068      68.069      80.718      105.44      157.51      251.64    
  390.61      561.45      739.32      897.46      1016.6      1088.5      1112.2      1088.5      1016.6      897.46    
  739.32      561.45      390.61      251.64      157.51      105.44      80.718      68.069      62.068      59.683    
  59.088      59.683      62.068      68.069      80.718      105.44      157.51      251.64      390.61      561.45    
  739.32      897.46      1016.6      1088.5      929.86      908.44      844.16      739.32      603.18      453.96    
  314.89      205.66      134.57      96.454      77.302      67.015      62.115      60.144      59.646      60.144    
  62.115      67.015      77.302      96.454      134.57      205.66      314.89      453.96      603.18      739.32    
  844.16      908.44      929.86      908.44      844.16      739.32      603.18      453.96      314.89      205.66    
  134.57      96.454      77.302      67.015      62.115      60.144      59.646      60.144      62.115      67.015    
  77.302      96.454      134.57      205.66      314.89      453.96      603.18      739.32      844.16      908.44    
  717.86      699.88      646.56      561.45      453.96      340.01      237.87      161.18      113.54      88.074    
  73.753      65.946      62.168      60.602      60.195      60.602      62.168      65.946      73.753      88.074    
  113.54      161.18      237.87      340.01      453.96      561.45      646.56      699.88      717.86      699.88    
  646.56      561.45      453.96      340.01      237.87      161.18      113.54      88.074      73.753      65.946    
  62.168      60.602      60.195      60.602      62.168      65.946      73.753      88.074      113.54      161.18    
  237.87      340.01      453.96      561.45      646.56      699.88      506.14      492.51      452.65      390.61    
  314.89      237.87      172.09      125.25      97.073      80.529      70.489      64.951      62.165      60.938    
  60.601      60.938      62.165      64.951      70.489      80.529      97.073      125.25      172.09      237.87    
  314.89      390.61      452.65      492.51      506.14      492.51      452.65      390.61      314.89      237.87    
  172.09      125.25      97.073      80.529      70.489      64.951      62.165      60.938      60.601      60.938    
  62.165      64.951      70.489      80.529      97.073      125.25      172.09      237.87      314.89      390.61    
  452.65      492.51      325.88      316.85      290.88      251.64      205.66      161.18      125.25      100.68    
  84.843      74.268      67.774      64.053      62.033      61.045      60.750      61.045      62.033      64.053    
  67.774      74.268      84.843      100.68      125.25      161.18      205.66      251.64      290.88      316.85    
  325.88      316.85      290.88      251.64      205.66      161.18      125.25      100.68      84.843      74.268    
  67.774      64.053      62.033      61.045      60.750      61.045      62.033      64.053      67.774      74.268    
  84.843      100.68      125.25      161.18      205.66      251.64      290.88      316.85      197.11      192.12    
  178.04      157.51      134.57      113.54      97.073      84.843      75.747      69.577      65.656      63.219    
  61.718      60.876      60.601      60.876      61.718      63.219      65.656      69.577      75.747      84.843    
  97.073      113.54      134.57      157.51      178.04      192.12      197.11      192.12      178.04      157.51    
  134.57      113.54      97.073      84.843      75.747      69.577      65.656      63.219      61.718      60.876    
  60.601      60.876      61.718      63.219      65.656      69.577      75.747      84.843      97.073      113.54    
  134.57      157.51      178.04      192.12      121.81      119.68      113.77      105.44      96.454      88.074    
  80.529      74.268      69.577      66.290      64.017      62.390      61.211      60.458      60.195      60.458    
  61.211      62.390      64.017      66.290      69.577      74.268      80.529      88.074      96.454      105.44    
  113.77      119.68      121.81      119.68      113.77      105.44      96.454      88.074      80.529      74.268    
  69.577      66.290      64.017      62.390      61.211      60.458      60.195      60.458      61.211      62.390    
  64.017      66.290      69.577      74.268      80.529      88.074      96.454      105.44      113.77      119.68    
  86.133      85.452      83.548      80.718      77.302      73.753      70.489      67.774      65.656      64.017    
  62.680      61.526      60.558      59.889      59.646      59.889      60.558      61.526      62.680      64.017    
  65.656      67.774      70.489      73.753      77.302      80.718      83.548      85.452      86.133      85.452    
  83.548      80.718      77.302      73.753      70.489      67.774      65.656      64.017      62.680      61.526    
  60.558      59.889      59.646      59.889      60.558      61.526      62.680      64.017      65.656      67.774    
  70.489      73.753      77.302      80.718      83.548      85.452      69.814      69.595      68.977      68.069    
  67.015      65.946      64.951      64.053      63.219      62.390      61.526      60.648      59.856      59.292    
  59.088      59.292      59.856      60.648      61.526      62.390      63.219      64.053      64.951      65.946    
  67.015      68.069      68.977      69.595      69.814      69.595      68.977      68.069      67.015      65.946    
  64.951      64.053      63.219      62.390      61.526      60.648      59.856      59.292      59.088      59.292    
  59.856      60.648      61.526      62.390      63.219      64.053      64.951      65.946      67.015      68.069    
  68.977      69.595      62.073      62.066      62.055      62.068      62.115      62.168      62.165      62.033    
  61.718      61.211      60.558      59.856      59.225      58.787      58.630      58.787      59.225      59.856    
  60.558      61.211      61.718      62.033      62.165      62.168      62.115      62.068      62.055      62.066    
  62.073      62.066      62.055      62.068      62.115      62.168      62.165      62.033      61.718      61.211    
  60.558      59.856      59.225      58.787      58.630      58.787      59.225      59.856      60.558      61.211    
  61.718      62.033      62.165      62.168      62.115      62.068      62.055      62.066      59.005      59.082    
  59.313      59.683      60.144      60.602      60.938      61.045      60.876      60.458      59.889      59.292    
  58.787      58.455      58.340      58.455      58.787      59.292      59.889      60.458      60.876      61.045    
  60.938      60.602      60.144      59.683      59.313      59.082      59.005      59.082      59.313      59.683    
  60.144      60.602      60.938      61.045      60.876      60.458      59.889      59.292      58.787      58.455    
  58.340      58.455      58.787      59.292      59.889      60.458      60.876      61.045      60.938      60.602    
  60.144      59.683      59.313      59.082      58.241      58.340      58.630      59.088      59.646      60.195    
  60.601      60.750      60.601      60.195      59.646      59.088      58.630      58.340      58.241      58.340    
  58.630      59.088      59.646      60.195      60.601      60.750      60.601      60.195      59.646      59.088    
  58.630      58.340      58.241      58.340      58.630      59.088      59.646      60.195      60.601      60.750    
  60.601      60.195      59.646      59.088      58.630      58.340      58.241      58.340      58.630      59.088    
  59.646      60.195      60.601      60.750      60.601      60.195      59.646      59.088      58.630      58.340    
  59.005      59.082      59.313      59.683      60.144      60.602      60.938      61.045      60.876      60.458    
  59.889      59.292      58.787      58.455      58.340      58.455      58.787      59.292      59.889      60.458    
  60.876      61.045      60.938      60.602      60.144      59.683      59.313      59.082      59.005      59.082    
  59.313      59.683      60.144      60.602      60.938      61.045      60.876      60.458      59.889      59.292    
  58.787      58.455      58.340      58.455      58.787      59.292      59.889      60.458      60.876      61.045    
  60.938      60.602      60.144      59.683      59.313      59.082      62.073      62.066      62.055      62.068    
  62.115      62.168      62.165      62.033      61.718      61.211      60.558      59.856      59.225      58.787    
  58.630      58.787      59.225      59.856      60.558      61.211      61.718      62.033      62.165      62.168    
  62.115      62.068      62.055      62.066      62.073      62.066      62.055      62.068      62.115      62.168    
  62.165      62.033      61.718      61.211      60.558      59.856      59.225      58.787      58.630      58.787    
  59.225      59.856      60.558      61.211      61.718      62.033      62.165      62.168      62.115      62.068    
  62.055      62.066      69.814      69.595      68.977      68.069      67.015      65.946      64.951      64.053    
  63.219      62.390      61.526      60.648      59.856      59.292      59.088      59.292      59.856      60.648    
  61.526      62.390      63.219      64.053      64.951      65.946      67.015      68.069      68.977      69.595    
  69.814      69.595      68.977      68.069      67.015      65.946      64.951      64.053      63.219      62.390    
  61.526      60.648      59.856      59.292      59.088      59.292      59.856      60.648      61.526      62.390    
  63.219      64.053      64.951      65.946      67.015      68.069      68.977      69.595      86.133      85.452    
  83.548      80.718      77.302      73.753      70.489      67.774      65.656      64.017      62.680      61.526    
  60.558      59.889      59.646      59.889      60.558      61.526      62.680      64.017      65.656      67.774    
  70.489      73.753      77.302      80.718      83.548      85.452      86.133      85.452      83.548      80.718    
  77.302      73.753      70.489      67.774      65.656      64.017      62.680      61.526      60.558      59.889    
  59.646      59.889      60.558      61.526      62.680      64.017      65.656      67.774      70.489      73.753    
  77.302      80.718      83.548      85.452      121.81      119.68      113.77      105.44      96.454      88.074    
  80.529      74.268      69.577      66.290      64.017      62.390      61.211      60.458      60.195      60.458    
  61.211      62.390      64.017      66.290      69.577      74.268      80.529      88.074      96.454      105.44    
  113.77      119.68      121.81      119.68      113.77      105.44      96.454      88.074      80.529      74.268    
  69.577      66.290      64.017      62.390      61.211      60.458      60.195      60.458      61.211      62.390    
  64.017      66.290      69.577      74.268      80.529      88.074      96.454      105.44      113.77      119.68    
  197.11      192.12      178.04      157.51      134.57      113.54      97.073      84.843      75.747      69.577    
  65.656      63.219      61.718      60.876      60.601      60.876      61.718      63.219      65.656      69.577    
  75.747      84.843      97.073      113.54      134.57      157.51      178.04      192.12      197.11      192.12    
  178.04      157.51      134.57      113.54      97.073      84.843      75.747      69.577      65.656      63.219    
  61.718      60.876      60.601      60.876      61.718      63.219      65.656      69.577      75.747      84.843    
  97.073      113.54      134.57      157.51      178.04      192.12      325.88      316.85      290.88      251.64    
  205.66      161.18      125.25      100.68      84.843      74.268      67.774      64.053      62.033      61.045    
  60.750      61.045      62.033      64.053      67.774      74.268      84.843      100.68      125.25      161.18    
  205.66      251.64      290.88      316.85      325.88      316.85      290.88      251.64      205.66      161.18    
  125.25      100.68      84.843      74.268      67.774      64.053      62.033      61.045      60.750      61.045    
  62.033      64.053      67.774      74.268      84.843      100.68      125.25      161.18      205.66      251.64    
  290.88      316.85      506.14      492.51      452.65      390.61      314.89      237.87      172.09      125.25    
  97.073      80.529      70.489      64.951      62.165      60.938      60.601      60.938      62.165      64.951    
  70.489      80.529      97.073      125.25      172.09      237.87      314.89      390.61      452.65      492.51    
  506.14      492.51      452.65      390.61      314.89      237.87      172.09      125.25      97.073      80.529    
  70.489      64.951      62.165      60.938      60.601      60.938      62.165      64.951      70.489      80.529    
  97.073      125.25      172.09      237.87      314.89      390.61      452.65      492.51      717.86      699.88    
  646.56      561.45      453.96      340.01      237.87      161.18      113.54      88.074      73.753      65.946    
  62.168      60.602      60.195      60.602      62.168      65.946      73.753      88.074      113.54      161.18    
  237.87      340.01      453.96      561.45      646.56      699.88      717.86      699.88      646.56      561.45    
  453.96      340.01      237.87      161.18      113.54      88.074      73.753      65.946      62.168      60.602    
  60.195      60.602      62.168      65.946      73.753      88.074      113.54      161.18      237.87      340.01    
  453.96      561.45      646.56      699.88      929.86      908.44      844.16      739.32      603.18      453.96    
  314.89      205.66      134.57      96.454      77.302      67.015      62.115      60.144      59.646      60.144    
  62.115      67.015      77.302      96.454      134.57      205.66      314.89      453.96      603.18      739.32    
  844.16      908.44      929.86      908.44      844.16      739.32      603.18      453.96      314.89      205.66    
  134.57      96.454      77.302      67.015      62.115      60.144      59.646      60.144      62.115      67.015    
  77.302      96.454      134.57      205.66      314.89      453.96      603.18      739.32      844.16      908.44    
  1112.2      1088.5      1016.6      897.46      739.32      561.45      390.61      251.64      157.51      105.44    
  80.718      68.069      62.068      59.683      59.088      59.683      62.068      68.069      80.718      105.44    
  157.51      251.64      390.61      561.45      739.32      897.46      1016.6      1088.5      1112.2      1088.5    
  1016.6      897.46      739.32      561.45      390.61      251.64      157.51      105.44      80.718      68.069    
  62.068      59.683      59.088      59.683      62.068      68.069      80.718      105.44      157.51      251.64    
  390.61      561.45      739.32      897.46      1016.6      1088.5      1246.0      1220.9      1144.6      1016.6    
  844.16      646.56      452.65      290.88      178.04      113.77      83.548      68.977      62.055      59.313    
  58.630      59.313      62.055      68.977      83.548      113.77      178.04      290.88      452.65      646.56    
  844.16      1016.6      1144.6      1220.9      1246.0      1220.9      1144.6      1016.6      844.16      646.56    
  452.65      290.88      178.04      113.77      83.548      68.977      62.055      59.313      58.630      59.313    
  62.055      68.977      83.548      113.77      178.04      290.88      452.65      646.56      844.16      1016.6    
  1144.6      1220.9      1325.1      1299.4      1220.9      1088.5      908.44      699.88      492.51      316.85    
  192.12      119.68      85.452      69.595      62.066      59.082      58.340      59.082      62.066      69.595    
  85.452      119.68      192.12      316.85      492.51      699.88      908.44      1088.5      1220.9      1299.4    
  1325.1      1299.4      1220.9      1088.5      908.44      699.88      492.51      316.85      192.12      119.68    
  85.452      69.595      62.066      59.082      58.340      59.082      62.066      69.595      85.452      119.68    
  192.12      316.85      492.51      699.88      908.44      1088.5      1220.9      1299.4      1351.0      1325.1    
  1246.0      1112.2      929.86      717.86      506.14      325.88      197.11      121.81      86.133      69.814    
  62.073      59.005      58.241      59.005      62.073      69.814      86.133      121.81      197.11      325.88    
  506.14      717.86      929.86      1112.2      1246.0      1325.1      1351.0      1325.1      1246.0      1112.2    
  929.86      717.86      506.14      325.88      197.11      121.81      86.133      69.814      62.073      59.005    
  58.241      59.005      62.073      69.814      86.133      121.81      197.11      325.88      506.14      717.86    
  929.86      1112.2      1246.0      1325.1      1325.1      1299.4      1220.9      1088.5      908.44      699.88    
  492.51      316.85      192.12      119.68      85.452      69.595      62.066      59.082      58.340      59.082    
  62.066      69.595      85.452      119.68      192.12      316.85      492.51      699.88      908.44      1088.5    
  1220.9      1299.4      1325.1      1299.4      1220.9      1088.5      908.44      699.88      492.51      316.85    
  192.12      119.68      85.452      69.595      62.066      59.082      58.340      59.082      62.066      69.595    
  85.452      119.68      192.12      316.85      492.51      699.88      908.44      1088.5      1220.9      1299.4    
  1246.0      1220.9      1144.6      1016.6      844.16      646.56      452.65      290.88      178.04      113.77    
  83.548      68.977      62.055      59.313      58.630      59.313      62.055      68.977      83.548      113.77    
  178.04      290.88      452.65      646.56      844.16      1016.6      1144.6      1220.9      1246.0      1220.9    
  1144.6      1016.6      844.16      646.56      452.65      290.88      178.04      113.77      83.548      68.977    
  62.055      59.313      58.630      59.313      62.055      68.977      83.548      113.77      178.04      290.88    
  452.65      646.56      844.16      1016.6      1144.6      1220.9      1112.2      1088.5      1016.6      897.46    
  739.32      561.45      390.61      251.64      157.51      105.44      80.718      68.069      62.068      59.683    
  59.088      59.683      62.068      68.069      80.718      105.44      157.51      251.64      390.61      561.45    
  739.32      897.46      1016.6      1088.5      1112.2      1088.5      1016.6      897.46      739.32      561.45    
  390.61      251.64      157.51      105.44      80.718      68.069      62.068      59.683      59.088      59.683    
  62.068      68.069      80.718      105.44      157.51      251.64      390.61      561.45      739.32      897.46    
  1016.6      1088.5      929.86      908.44      844.16      739.32      603.18      453.96      314.89      205.66    
  134.57      96.454      77.302      67.015      62.115      60.144      59.646      60.144      62.115      67.015    
  77.302      96.454      134.57      205.66      314.89      453.96      603.18      739.32      844.16      908.44    
  929.86      908.44      844.16      739.32      603.18      453.96      314.89      205.66      134.57      96.454    
  77.302      67.015      62.115      60.144      59.646      60.144      62.115      67.015      77.302      96.454    
  134.57      205.66      314.89      453.96      603.18      739.32      844.16      908.44      717.86      699.88    
  646.56      561.45      453.96      340.01      237.87      161.18      113.54      88.074      73.753      65.946    
  62.168      60.602      60.195      60.602      62.168      65.946      73.753      88.074      113.54      161.18    
  237.87      340.01      453.96      561.45      646.56      699.88      717.86      699.88      646.56      561.45    
  453.96      340.01      237.87      161.18      113.54      88.074      73.753      65.946      62.168      60.602    
  60.195      60.602      62.168      65.946      73.753      88.074      113.54      161.18      237.87      340.01    
  453.96      561.45      646.56      699.88      506.14      492.51      452.65      390.61      314.89      237.87    
  172.09      125.25      97.073      80.529      70.489      64.951      62.165      60.938      60.601      60.938    
  62.165      64.951      70.489      80.529      97.073      125.25      172.09      237.87      314.89      390.61    
  452.65      492.51      506.14      492.51      452.65      390.61      314.89      237.87      172.09      125.25    
  97.073      80.529      70.489      64.951      62.165      60.938      60.601      60.938      62.165      64.951    
  70.489      80.529      97.073      125.25      172.09      237.87      314.89      390.61      452.65      492.51    
  325.88      316.85      290.88      251.64      205.66      161.18      125.25      100.68      84.843      74.268    
  67.774      64.053      62.033      61.045      60.750      61.045      62.033      64.053      67.774      74.268    
  84.843      100.68      125.25      161.18      205.66      251.64      290.88      316.85      325.88      316.85    
  290.88      251.64      205.66      161.18      125.25      100.68      84.843      74.268      67.774      64.053    
  62.033      61.045      60.750      61.045      62.033      64.053      67.774      74.268      84.843      100.68    
  125.25      161.18      205.66      251.64      290.88      316.85      197.11      192.12      178.04      157.51    
  134.57      113.54      97.073      84.843      75.747      69.577      65.656      63.219      61.718      60.876    
  60.601      60.876      61.718      63.219      65.656      69.577      75.747      84.843      97.073      113.54    
  134.57      157.51      178.04      192.12      197.11      192.12      178.04      157.51      134.57      113.54    
  97.073      84.843      75.747      69.577      65.656      63.219      61.718      60.876      60.601      60.876    
  61.718      63.219      65.656      69.577      75.747      84.843      97.073      113.54      134.57      157.51    
  178.04      192.12      121.81      119.68      113.77      105.44      96.454      88.074      80.529      74.268    
  69.577      66.290      64.017      62.390      61.211      60.458      60.195      60.458      61.211      62.390    
  64.017      66.290      69.577      74.268      80.529      88.074      96.454      105.44      113.77      119.68    
  121.81      119.68      113.77      105.44      96.454      88.074      80.529      74.268      69.577      66.290    
  64.017      62.390      61.211      60.458      60.195      60.458      61.211      62.390      64.017      66.290    
  69.577      74.268      80.529      88.074      96.454      105.44      113.77      119.68      86.133      85.452    
  83.548      80.718      77.302      73.753      70.489      67.774      65.656      64.017      62.680      61.526    
  60.558      59.889      59.646      59.889      60.558      61.526      62.680      64.017      65.656      67.774    
  70.489      73.753      77.302      80.718      83.548      85.452      86.133      85.452      83.548      80.718    
  77.302      73.753      70.489      67.774      65.656      64.017      62.680      61.526      60.558      59.889    
  59.646      59.889      60.558      61.526      62.680      64.017      65.656      67.774      70.489      73.753    
  77.302      80.718      83.548      85.452      69.814      69.595      68.977      68.069      67.015      65.946    
  64.951      64.053      63.219      62.390      61.526      60.648      59.856      59.292      59.088      59.292    
  59.856      60.648      61.526      62.390      63.219      64.053      64.951      65.946      67.015      68.069    
  68.977      69.595      69.814      69.595      68.977      68.069      67.015      65.946      64.951      64.053    
  63.219      62.390      61.526      60.648      59.856      59.292      59.088      59.292      59.856      60.648    
  61.526      62.390      63.219      64.053      64.951      65.946      67.015      68.069      68.977      69.595    
  62.073      62.066      62.055      62.068      62.115      62.168      62.165      62.033      61.718      61.211    
  60.558      59.856      59.225      58.787      58.630      58.787      59.225      59.856      60.558      61.211    
  61.718      62.033      62.165      62.168      62.115      62.068      62.055      62.066      62.073      62.066    
  62.055      62.068      62.115      62.168      62.165      62.033      61.718      61.211      60.558      59.856    
  59.225      58.787      58.630      58.787      59.225      59.856      60.558      61.211      61.718      62.033    
  62.165      62.168      62.115      62.068      62.055      62.066      59.005      59.082      59.313      59.683    
  60.144      60.602      60.938      61.045      60.876      60.458      59.889      59.292      58.787      58.455    
  58.340      58.455      58.787      59.292      59.889      60.458      60.876      61.045      60.938      60.602    
  60.144      59.683      59.313      59.082      59.005      59.082      59.313      59.683      60.144      60.602    
  60.938      61.045      60.876      60.458      59.889      59.292      58.787      58.455      58.340      58.455    
  58.787      59.292      59.889      60.458      60.876      61.045      60.938      60.602      60.144      59.683    
  59.313      59.082      58.241      58.340      58.630      59.088      59.646      60.195      60.601      60.750    
  60.601      60.195      59.646      59.088      58.630      58.340      58.241      58.340      58.630      59.088    
  59.646      60.195      60.601      60.750      60.601      60.195      59.646      59.088      58.630      58.340    
  58.241      58.340      58.630      59.088      59.646      60.195      60.601      60.750      60.601      60.195    
  59.646      59.088      58.630      58.340      58.241      58.340      58.630      59.088      59.646      60.195    
  60.601      60.750      60.601      60.195      59.646      59.088      58.630      58.340      59.005      59.082    
  59.313      59.683      60.144      60.602      60.938      61.045      60.876      60.458      59.889      59.292    