  16  16   0   0
  0.1798157E+02  0.6601600E-09  0.6601600E-09  0.6601600E-09  0.5000000E-15
  1.000000000000000E-004
  CAR 
 Nb                                      
     10.90855505    -28.06988021  301      4.83979884      1.00000000
    -28.070  0.0000E+00  0.0000E+00
    -27.940  0.0000E+00  0.0000E+00
    -27.810  0.0000E+00  0.0000E+00
    -27.680  0.0000E+00  0.0000E+00
    -27.550  0.0000E+00  0.0000E+00
    -27.420  0.0000E+00  0.0000E+00
    -27.290  0.0000E+00  0.0000E+00
    -27.160  0.0000E+00  0.0000E+00
    -27.030  0.0000E+00  0.0000E+00
    -26.901  0.0000E+00  0.0000E+00
    -26.771  0.0000E+00  0.0000E+00
    -26.641  0.0000E+00  0.0000E+00
    -26.511  0.0000E+00  0.0000E+00
    -26.381  0.0000E+00  0.0000E+00
    -26.251  0.0000E+00  0.0000E+00
    -26.121  0.0000E+00  0.0000E+00
    -25.991  0.2951E+02  0.1479E+01
    -25.861  0.7197E+02  0.7901E+01
    -25.731  0.6328E+02  0.1957E+02
    -25.601  0.3699E+02  0.2614E+02
    -25.471  0.4940E+02  0.3213E+02
    -25.341  0.5273E+02  0.3933E+02
    -25.211  0.8970E+02  0.4831E+02
    -25.082  0.7332E+02  0.5963E+02
    -24.952  0.6979E+02  0.6903E+02
    -24.822  0.1015E+03  0.8244E+02
    -24.692  0.0000E+00  0.9600E+02
    -24.562  0.0000E+00  0.9600E+02
    -24.432  0.0000E+00  0.9600E+02
    -24.302  0.0000E+00  0.9600E+02
    -24.172  0.0000E+00  0.9600E+02
    -24.042  0.0000E+00  0.9600E+02
    -23.912  0.0000E+00  0.9600E+02
    -23.782  0.0000E+00  0.9600E+02
    -23.652  0.0000E+00  0.9600E+02
    -23.522  0.0000E+00  0.9600E+02
    -23.392  0.0000E+00  0.9600E+02
    -23.263  0.0000E+00  0.9600E+02
    -23.133  0.0000E+00  0.9600E+02
    -23.003  0.0000E+00  0.9600E+02
    -22.873  0.0000E+00  0.9600E+02
    -22.743  0.0000E+00  0.9600E+02
    -22.613  0.0000E+00  0.9600E+02
    -22.483  0.0000E+00  0.9600E+02
    -22.353  0.0000E+00  0.9600E+02
    -22.223  0.0000E+00  0.9600E+02
    -22.093  0.0000E+00  0.9600E+02
    -21.963  0.0000E+00  0.9600E+02
    -21.833  0.0000E+00  0.9600E+02
    -21.703  0.0000E+00  0.9600E+02
    -21.573  0.0000E+00  0.9600E+02
    -21.444  0.0000E+00  0.9600E+02
    -21.314  0.0000E+00  0.9600E+02
    -21.184  0.0000E+00  0.9600E+02
    -21.054  0.0000E+00  0.9600E+02
    -20.924  0.0000E+00  0.9600E+02
    -20.794  0.0000E+00  0.9600E+02
    -20.664  0.0000E+00  0.9600E+02
    -20.534  0.0000E+00  0.9600E+02
    -20.404  0.0000E+00  0.9600E+02
    -20.274  0.0000E+00  0.9600E+02
    -20.144  0.0000E+00  0.9600E+02
    -20.014  0.0000E+00  0.9600E+02
    -19.884  0.0000E+00  0.9600E+02
    -19.754  0.0000E+00  0.9600E+02
    -19.625  0.0000E+00  0.9600E+02
    -19.495  0.0000E+00  0.9600E+02
    -19.365  0.0000E+00  0.9600E+02
    -19.235  0.0000E+00  0.9600E+02
    -19.105  0.0000E+00  0.9600E+02
    -18.975  0.0000E+00  0.9600E+02
    -18.845  0.0000E+00  0.9600E+02
    -18.715  0.0000E+00  0.9600E+02
    -18.585  0.0000E+00  0.9600E+02
    -18.455  0.0000E+00  0.9600E+02
    -18.325  0.0000E+00  0.9600E+02
    -18.195  0.0000E+00  0.9600E+02
    -18.065  0.0000E+00  0.9600E+02
    -17.935  0.0000E+00  0.9600E+02
    -17.806  0.0000E+00  0.9600E+02
    -17.676  0.0000E+00  0.9600E+02
    -17.546  0.0000E+00  0.9600E+02
    -17.416  0.0000E+00  0.9600E+02
    -17.286  0.0000E+00  0.9600E+02
    -17.156  0.0000E+00  0.9600E+02
    -17.026  0.0000E+00  0.9600E+02
    -16.896  0.0000E+00  0.9600E+02
    -16.766  0.0000E+00  0.9600E+02
    -16.636  0.0000E+00  0.9600E+02
    -16.506  0.0000E+00  0.9600E+02
    -16.376  0.0000E+00  0.9600E+02
    -16.246  0.0000E+00  0.9600E+02
    -16.116  0.0000E+00  0.9600E+02
    -15.987  0.0000E+00  0.9600E+02
    -15.857  0.0000E+00  0.9600E+02
    -15.727  0.0000E+00  0.9600E+02
    -15.597  0.0000E+00  0.9600E+02
    -15.467  0.0000E+00  0.9600E+02
    -15.337  0.0000E+00  0.9600E+02
    -15.207  0.0000E+00  0.9600E+02
    -15.077  0.0000E+00  0.9600E+02
    -14.947  0.0000E+00  0.9600E+02
    -14.817  0.0000E+00  0.9600E+02
    -14.687  0.0000E+00  0.9600E+02
    -14.557  0.0000E+00  0.9600E+02
    -14.427  0.0000E+00  0.9600E+02
    -14.297  0.0000E+00  0.9600E+02
    -14.168  0.0000E+00  0.9600E+02
    -14.038  0.0000E+00  0.9600E+02
    -13.908  0.0000E+00  0.9600E+02
    -13.778  0.0000E+00  0.9600E+02
    -13.648  0.0000E+00  0.9600E+02
    -13.518  0.0000E+00  0.9600E+02
    -13.388  0.0000E+00  0.9600E+02
    -13.258  0.0000E+00  0.9600E+02
    -13.128  0.0000E+00  0.9600E+02
    -12.998  0.0000E+00  0.9600E+02
    -12.868  0.0000E+00  0.9600E+02
    -12.738  0.0000E+00  0.9600E+02
    -12.608  0.0000E+00  0.9600E+02
    -12.479  0.0000E+00  0.9600E+02
    -12.349  0.0000E+00  0.9600E+02
    -12.219  0.0000E+00  0.9600E+02
    -12.089  0.0000E+00  0.9600E+02
    -11.959  0.0000E+00  0.9600E+02
    -11.829  0.0000E+00  0.9600E+02
    -11.699  0.0000E+00  0.9600E+02
    -11.569  0.0000E+00  0.9600E+02
    -11.439  0.0000E+00  0.9600E+02
    -11.309  0.0000E+00  0.9600E+02
    -11.179  0.0000E+00  0.9600E+02
    -11.049  0.0000E+00  0.9600E+02
    -10.919  0.0000E+00  0.9600E+02
    -10.789  0.0000E+00  0.9600E+02
    -10.660  0.0000E+00  0.9600E+02
    -10.530  0.0000E+00  0.9600E+02
    -10.400  0.0000E+00  0.9600E+02
    -10.270  0.0000E+00  0.9600E+02
    -10.140  0.0000E+00  0.9600E+02
    -10.010  0.0000E+00  0.9600E+02
     -9.880  0.0000E+00  0.9600E+02
     -9.750  0.0000E+00  0.9600E+02
     -9.620  0.0000E+00  0.9600E+02
     -9.490  0.0000E+00  0.9600E+02
     -9.360  0.0000E+00  0.9600E+02
     -9.230  0.0000E+00  0.9600E+02
     -9.100  0.0000E+00  0.9600E+02
     -8.970  0.0000E+00  0.9600E+02
     -8.841  0.0000E+00  0.9600E+02
     -8.711  0.0000E+00  0.9600E+02
     -8.581  0.0000E+00  0.9600E+02
     -8.451  0.0000E+00  0.9600E+02
     -8.321  0.0000E+00  0.9600E+02
     -8.191  0.0000E+00  0.9600E+02
     -8.061  0.0000E+00  0.9600E+02
     -7.931  0.0000E+00  0.9600E+02
     -7.801  0.0000E+00  0.9600E+02
     -7.671  0.0000E+00  0.9600E+02
     -7.541  0.0000E+00  0.9600E+02
     -7.411  0.0000E+00  0.9600E+02
     -7.281  0.0000E+00  0.9600E+02
     -7.151  0.0000E+00  0.9600E+02
     -7.022  0.0000E+00  0.9600E+02
     -6.892  0.0000E+00  0.9600E+02
     -6.762  0.0000E+00  0.9600E+02
     -6.632  0.0000E+00  0.9600E+02
     -6.502  0.0000E+00  0.9600E+02
     -6.372  0.0000E+00  0.9600E+02
     -6.242  0.0000E+00  0.9600E+02
     -6.112  0.0000E+00  0.9600E+02
     -5.982  0.0000E+00  0.9600E+02
     -5.852  0.0000E+00  0.9600E+02
     -5.722  0.0000E+00  0.9600E+02
     -5.592  0.0000E+00  0.9600E+02
     -5.462  0.0000E+00  0.9600E+02
     -5.332  0.0000E+00  0.9600E+02
     -5.203  0.0000E+00  0.9600E+02
     -5.073  0.0000E+00  0.9600E+02
     -4.943  0.0000E+00  0.9600E+02
     -4.813  0.0000E+00  0.9600E+02
     -4.683  0.0000E+00  0.9600E+02
     -4.553  0.0000E+00  0.9600E+02
     -4.423  0.0000E+00  0.9600E+02
     -4.293  0.0000E+00  0.9600E+02
     -4.163  0.0000E+00  0.9600E+02
     -4.033  0.0000E+00  0.9600E+02
     -3.903  0.0000E+00  0.9600E+02
     -3.773  0.0000E+00  0.9600E+02
     -3.643  0.0000E+00  0.9600E+02
     -3.513  0.0000E+00  0.9600E+02
     -3.384  0.0000E+00  0.9600E+02
     -3.254  0.0000E+00  0.9600E+02
     -3.124  0.0000E+00  0.9600E+02
     -2.994  0.0000E+00  0.9600E+02
     -2.864  0.0000E+00  0.9600E+02
     -2.734  0.0000E+00  0.9600E+02
     -2.604  0.0000E+00  0.9600E+02
     -2.474  0.0000E+00  0.9600E+02
     -2.344  0.0000E+00  0.9600E+02
     -2.214  0.0000E+00  0.9600E+02
     -2.084  0.0000E+00  0.9600E+02
     -1.954  0.0000E+00  0.9600E+02
     -1.824  0.0000E+00  0.9600E+02
     -1.694  0.0000E+00  0.9600E+02
     -1.565  0.0000E+00  0.9600E+02
     -1.435  0.0000E+00  0.9600E+02
     -1.305  0.0000E+00  0.9600E+02
     -1.175  0.0000E+00  0.9600E+02
     -1.045  0.1235E+00  0.9600E+02
     -0.915  0.4128E+00  0.9604E+02
     -0.785  0.5818E+00  0.9610E+02
     -0.655  0.7178E+00  0.9619E+02
     -0.525  0.8581E+00  0.9629E+02
     -0.395  0.9930E+00  0.9641E+02
     -0.265  0.1113E+01  0.9655E+02
     -0.135  0.1253E+01  0.9670E+02
     -0.005  0.1785E+01  0.9690E+02
      0.125  0.1578E+01  0.9712E+02
      0.254  0.1399E+01  0.9731E+02
      0.384  0.1765E+01  0.9750E+02
      0.514  0.2065E+01  0.9775E+02
      0.644  0.2288E+01  0.9804E+02
      0.774  0.2597E+01  0.9835E+02
      0.904  0.3042E+01  0.9872E+02
      1.034  0.3411E+01  0.9914E+02
      1.164  0.8850E+01  0.9982E+02
      1.294  0.1197E+02  0.1012E+03
      1.424  0.1729E+02  0.1033E+03
      1.554  0.1597E+02  0.1054E+03
      1.684  0.1568E+02  0.1074E+03
      1.814  0.2023E+02  0.1096E+03
      1.944  0.1990E+02  0.1122E+03
      2.073  0.2114E+02  0.1149E+03
      2.203  0.2269E+02  0.1180E+03
      2.333  0.1804E+02  0.1208E+03
      2.463  0.2770E+02  0.1235E+03
      2.593  0.2182E+02  0.1265E+03
      2.723  0.1348E+02  0.1287E+03
      2.853  0.8555E+01  0.1300E+03
      2.983  0.6532E+01  0.1311E+03
      3.113  0.9643E+01  0.1320E+03
      3.243  0.2594E+02  0.1349E+03
      3.373  0.3245E+02  0.1385E+03
      3.503  0.4206E+02  0.1434E+03
      3.633  0.2357E+02  0.1478E+03
      3.763  0.1866E+02  0.1508E+03
      3.892  0.1642E+02  0.1532E+03
      4.022  0.1789E+02  0.1556E+03
      4.152  0.1898E+02  0.1578E+03
      4.282  0.2060E+02  0.1602E+03
      4.412  0.2335E+02  0.1629E+03
      4.542  0.3584E+02  0.1667E+03
      4.672  0.2853E+02  0.1712E+03
      4.802  0.2679E+02  0.1749E+03
      4.932  0.2040E+02  0.1780E+03
      5.062  0.1898E+02  0.1806E+03
      5.192  0.1235E+02  0.1826E+03
      5.322  0.9239E+01  0.1840E+03
      5.452  0.8619E+01  0.1852E+03
      5.582  0.8637E+01  0.1863E+03
      5.711  0.6754E+01  0.1873E+03
      5.841  0.5815E+01  0.1881E+03
      5.971  0.6395E+01  0.1891E+03
      6.101  0.7906E+01  0.1901E+03
      6.231  0.6018E+01  0.1911E+03
      6.361  0.8203E+01  0.1921E+03
      6.491  0.8899E+01  0.1931E+03
      6.621  0.1437E+02  0.1948E+03
      6.751  0.1746E+02  0.1967E+03
      6.881  0.1359E+02  0.1984E+03
      7.011  0.1319E+02  0.2002E+03
      7.141  0.1757E+02  0.2024E+03
      7.271  0.1481E+02  0.2046E+03
      7.400  0.1806E+02  0.2067E+03
      7.530  0.2068E+02  0.2093E+03
      7.660  0.2162E+02  0.2121E+03
      7.790  0.2111E+02  0.2148E+03
      7.920  0.1818E+02  0.2173E+03
      8.050  0.3050E+02  0.2200E+03
      8.180  0.2398E+02  0.2235E+03
      8.310  0.2663E+02  0.2266E+03
      8.440  0.2206E+02  0.2295E+03
      8.570  0.2117E+02  0.2324E+03
      8.700  0.2308E+02  0.2353E+03
      8.830  0.2854E+02  0.2383E+03
      8.960  0.0000E+00  0.2400E+03
      9.090  0.0000E+00  0.2400E+03
      9.219  0.0000E+00  0.2400E+03
      9.349  0.0000E+00  0.2400E+03
      9.479  0.0000E+00  0.2400E+03
      9.609  0.0000E+00  0.2400E+03
      9.739  0.0000E+00  0.2400E+03
      9.869  0.0000E+00  0.2400E+03
      9.999  0.0000E+00  0.2400E+03
     10.129  0.0000E+00  0.2400E+03
     10.259  0.0000E+00  0.2400E+03
     10.389  0.0000E+00  0.2400E+03
     10.519  0.0000E+00  0.2400E+03
     10.649  0.0000E+00  0.2400E+03
     10.779  0.0000E+00  0.2400E+03
     10.909  0.0000E+00  0.2400E+03
