   16   16    1    1
  0.1798157E+02  0.6601600E-09  0.6601600E-09  0.6601600E-09  0.5000000E-15
  1.000000000000000E-004
  CAR 
 Nb                                      
    176     35    120
 
  0.5000000E-01  0.5000000E-01  0.5000000E-01  0.8000000E-02
    1      -26.069880   1.000000
    2      -26.069880   1.000000
    3      -26.069880   1.000000
    4      -26.064692   1.000000
    5      -26.064692   1.000000
    6      -26.064692   1.000000
    7      -25.639361   1.000000
    8      -25.639361   1.000000
    9      -25.627141   1.000000
   10      -25.499374   1.000000
   11      -25.496103   1.000000
   12      -25.496103   1.000000
   13      -25.496103   1.000000
   14      -25.446910   1.000000
   15      -25.446910   1.000000
   16      -25.424741   1.000000
   17      -25.424741   1.000000
   18      -25.424741   1.000000
   19      -25.339485   1.000000
   20      -25.339485   1.000000
   21      -25.285872   1.000000
   22      -25.195483   1.000000
   23      -25.195483   1.000000
   24      -25.195483   1.000000
   25      -25.175256   1.000000
   26      -25.175256   1.000000
   27      -25.175256   1.000000
   28      -25.133173   1.000000
   29      -25.133173   1.000000
   30      -25.133173   1.000000
   31      -25.127191   1.000000
   32      -25.127191   1.000000
   33      -25.127191   1.000000
   34      -25.120887   1.000000
   35      -25.120887   1.000000
   36      -25.120887   1.000000
   37      -25.101766   1.000000
   38      -25.101766   1.000000
   39      -25.101766   1.000000
   40      -24.713182   1.000000
   41      -24.713182   1.000000
   42      -24.713182   1.000000
   43      -24.707129   1.000000
   44      -24.707063   1.000000
   45      -24.707063   1.000000
   46      -24.707063   1.000000
   47      -24.693241   1.000000
   48      -24.693241   1.000000
   49       -1.048724   1.000000
   50        1.106712   1.000000
   51        1.106712   1.000000
   52        1.112481   1.000000
   53        1.112481   1.000000
   54        1.112481   1.000000
   55        1.125642   1.000000
   56        1.125642   1.000000
   57        1.125642   1.000000
   58        2.192288   1.000000
   59        2.192288   1.000000
   60        2.192288   1.000000
   61        2.481882   1.000000
   62        2.481882   1.000000
   63        2.481882   1.000000
   64        3.150705   1.000000
   65        3.150705   1.000000
   66        3.150705   1.000000
   67        3.167654   1.000000
   68        3.167654   1.000000
   69        3.167654   1.000000
   70        3.485509   1.000000
   71        3.515932   1.000000
   72        3.515932   1.000000
   73        3.515932   1.000000
   74        3.625678   1.000000
   75        3.625678   1.000000
   76        3.860296   1.000000
   77        3.860296   1.000000
   78        3.948945   1.000000
   79        4.002679   1.000000
   80        4.002679   1.000000
   81        4.002679   1.000000
   82        5.149870   0.000000
   83        5.149870   0.000000
   84        5.211542   0.000000
   85        5.610753   0.000000
   86        5.610753   0.000000
   87        5.610753   0.000000
   88        5.730873   0.000000
   89        5.730873   0.000000
   90        5.730873   0.000000
   91        5.872513   0.000000
   92        5.872513   0.000000
   93        5.872513   0.000000
   94        5.991473   0.000000
   95        5.991473   0.000000
   96        5.991473   0.000000
   97        7.017319   0.000000
   98        7.017319   0.000000
   99        7.017319   0.000000
  100        7.104550   0.000000
  101        7.104550   0.000000
  102        7.104550   0.000000
  103        7.300594   0.000000
  104        7.300594   0.000000
  105        7.300594   0.000000
  106        7.697912   0.000000
  107        7.697912   0.000000
  108        7.697912   0.000000
  109        8.053391   0.000000
  110        8.053391   0.000000
  111        8.058327   0.000000
  112        8.058327   0.000000
  113        8.058327   0.000000
  114        8.124124   0.000000
  115        8.124124   0.000000
  116        8.124124   0.000000
  117        8.775201   0.000000
  118        8.775445   0.000000
  119        8.796322   0.000000
  120        8.908555   0.000000
 
  0.1500000E+00  0.5000000E-01  0.5000000E-01  0.2400000E-01
    1      -26.054486   1.000000
    2      -26.054486   1.000000
    3      -26.053358   1.000000
    4      -26.048556   1.000000
    5      -26.039077   1.000000
    6      -26.039077   1.000000
    7      -25.647367   1.000000
    8      -25.627384   1.000000
    9      -25.608852   1.000000
   10      -25.578028   1.000000
   11      -25.554297   1.000000
   12      -25.554297   1.000000
   13      -25.553615   1.000000
   14      -25.552738   1.000000
   15      -25.485375   1.000000
   16      -25.485375   1.000000
   17      -25.412326   1.000000
   18      -25.352835   1.000000
   19      -25.341071   1.000000
   20      -25.269611   1.000000
   21      -25.248347   1.000000
   22      -25.233165   1.000000
   23      -25.202900   1.000000
   24      -25.195191   1.000000
   25      -25.195191   1.000000
   26      -25.146972   1.000000
   27      -25.140559   1.000000
   28      -25.140559   1.000000
   29      -25.140103   1.000000
   30      -25.122759   1.000000
   31      -25.122759   1.000000
   32      -25.122407   1.000000
   33      -25.122407   1.000000
   34      -25.121685   1.000000
   35      -25.121685   1.000000
   36      -25.050615   1.000000
   37      -25.050615   1.000000
   38      -25.047593   1.000000
   39      -25.029653   1.000000
   40      -24.738772   1.000000
   41      -24.731035   1.000000
   42      -24.731035   1.000000
   43      -24.729169   1.000000
   44      -24.723988   1.000000
   45      -24.712863   1.000000
   46      -24.712863   1.000000
   47      -24.704507   1.000000
   48      -24.698597   1.000000
   49       -0.944184   1.000000
   50        1.158784   1.000000
   51        1.158784   1.000000
   52        1.163108   1.000000
   53        1.197784   1.000000
   54        1.198130   1.000000
   55        1.198130   1.000000
   56        1.217720   1.000000
   57        1.229737   1.000000
   58        1.792815   1.000000
   59        2.185072   1.000000
   60        2.185072   1.000000
   61        2.470273   1.000000
   62        2.470273   1.000000
   63        2.623762   1.000000
   64        3.059288   1.000000
   65        3.143637   1.000000
   66        3.159116   1.000000
   67        3.207489   1.000000
   68        3.207489   1.000000
   69        3.257761   1.000000
   70        3.257761   1.000000
   71        3.302156   1.000000
   72        3.440279   1.000000
   73        3.510531   1.000000
   74        3.510531   1.000000
   75        3.546384   1.000000
   76        3.701218   1.000000
   77        3.946938   1.000000
   78        3.946938   1.000000
   79        4.143913   1.000000
   80        4.144311   1.000000
   81        4.501488   1.029367
   82        5.110682  -0.036336
   83        5.137821  -0.002724
   84        5.289121   0.000000
   85        5.322689   0.000000
   86        5.322689   0.000000
   87        5.402706   0.000000
   88        5.547669   0.000000
   89        5.570442   0.000000
   90        5.570442   0.000000
   91        5.931942   0.000000
   92        5.931942   0.000000
   93        6.121651   0.000000
   94        6.121651   0.000000
   95        6.189790   0.000000
   96        6.320719   0.000000
   97        6.573561   0.000000
   98        6.573561   0.000000
   99        6.743852   0.000000
  100        6.743852   0.000000
  101        6.834325   0.000000
  102        6.896879   0.000000
  103        6.925120   0.000000
  104        7.651533   0.000000
  105        7.651533   0.000000
  106        7.905975   0.000000
  107        7.921866   0.000000
  108        7.921866   0.000000
  109        8.047368   0.000000
  110        8.047368   0.000000
  111        8.091870   0.000000
  112        8.091871   0.000000
  113        8.095363   0.000000
  114        8.108164   0.000000
  115        8.109415   0.000000
  116        8.150654   0.000000
  117        8.785718   0.000000
  118        8.867893   0.000000
  119        8.886039   0.000000
  120        8.900463   0.000000
 
  0.2500000E+00  0.5000000E-01  0.5000000E-01  0.2400000E-01
    1      -26.020741   1.000000
    2      -26.019472   1.000000
    3      -26.019472   1.000000
    4      -26.016754   1.000000
    5      -25.994027   1.000000
    6      -25.994027   1.000000
    7      -25.667287   1.000000
    8      -25.654411   1.000000
    9      -25.652855   1.000000
   10      -25.638351   1.000000
   11      -25.638351   1.000000
   12      -25.603700   1.000000
   13      -25.596934   1.000000
   14      -25.582067   1.000000
   15      -25.573719   1.000000
   16      -25.573719   1.000000
   17      -25.378257   1.000000
   18      -25.341341   1.000000
   19      -25.340022   1.000000
   20      -25.319263   1.000000
   21      -25.247559   1.000000
   22      -25.191012   1.000000
   23      -25.191012   1.000000
   24      -25.173264   1.000000
   25      -25.164605   1.000000
   26      -25.149103   1.000000
   27      -25.149103   1.000000
   28      -25.130597   1.000000
   29      -25.120990   1.000000
   30      -25.120990   1.000000
   31      -25.119919   1.000000
   32      -25.119919   1.000000
   33      -25.111589   1.000000
   34      -25.051591   1.000000
   35      -25.051591   1.000000
   36      -24.982696   1.000000
   37      -24.982696   1.000000
   38      -24.977430   1.000000
   39      -24.960712   1.000000
   40      -24.791717   1.000000
   41      -24.760845   1.000000
   42      -24.760427   1.000000
   43      -24.760427   1.000000
   44      -24.757433   1.000000
   45      -24.730669   1.000000
   46      -24.730669   1.000000
   47      -24.726671   1.000000
   48      -24.717471   1.000000
   49       -0.739508   1.000000
   50        1.261346   1.000000
   51        1.261346   1.000000
   52        1.275845   1.000000
   53        1.326899   1.000000
   54        1.326899   1.000000
   55        1.329094   1.000000
   56        1.372726   1.000000
   57        1.422177   1.000000
   58        1.431847   1.000000
   59        2.131750   1.000000
   60        2.131750   1.000000
   61        2.386284   1.000000
   62        2.386284   1.000000
   63        2.604180   1.000000
   64        2.641264   1.000000
   65        3.107122   1.000000
   66        3.131748   1.000000
   67        3.145873   1.000000
   68        3.269809   1.000000
   69        3.302102   1.000000
   70        3.335765   1.000000
   71        3.335765   1.000000
   72        3.418194   1.000000
   73        3.418194   1.000000
   74        3.469104   1.000000
   75        3.600134   1.000000
   76        3.600134   1.000000
   77        3.954610   1.000000
   78        3.954610   1.000000
   79        4.453554   1.000000
   80        4.474300   1.000000
   81        4.924090   0.595120
   82        4.924090   0.181039
   83        4.941932  -0.040442
   84        5.079017  -0.014829
   85        5.120137  -0.002969
   86        5.150908   0.000000
   87        5.150908   0.000000
   88        5.247553   0.000000
   89        5.402487   0.000000
   90        5.499866   0.000000
   91        5.990248   0.000000
   92        5.990248   0.000000
   93        6.169645   0.000000
   94        6.169645   0.000000
   95        6.270133   0.000000
   96        6.270133   0.000000
   97        6.352617   0.000000
   98        6.352617   0.000000
   99        6.512814   0.000000
  100        6.544051   0.000000
  101        6.566528   0.000000
  102        6.577866   0.000000
  103        6.716162   0.000000
  104        7.626578   0.000000
  105        7.726131   0.000000
  106        7.726131   0.000000
  107        7.953433   0.000000
  108        7.953433   0.000000
  109        8.150765   0.000000
  110        8.150766   0.000000
  111        8.166247   0.000000
  112        8.208777   0.000000
  113        8.214540   0.000000
  114        8.526190   0.000000
  115        8.545892   0.000000
  116        8.545978   0.000000
  117        8.772723   0.000000
  118        8.779993   0.000000
  119        8.803502   0.000000
  120        8.883731   0.000000
 
  0.3500000E+00  0.5000000E-01  0.5000000E-01  0.2400000E-01
    1      -25.972717   1.000000
    2      -25.970044   1.000000
    3      -25.966417   1.000000
    4      -25.966417   1.000000
    5      -25.931471   1.000000
    6      -25.931471   1.000000
    7      -25.755585   1.000000
    8      -25.749416   1.000000
    9      -25.729086   1.000000
   10      -25.729086   1.000000
   11      -25.670201   1.000000
   12      -25.670201   1.000000
   13      -25.655593   1.000000
   14      -25.626834   1.000000
   15      -25.568981   1.000000
   16      -25.545993   1.000000
   17      -25.408808   1.000000
   18      -25.385962   1.000000
   19      -25.339238   1.000000
   20      -25.312303   1.000000
   21      -25.209220   1.000000
   22      -25.197919   1.000000
   23      -25.184624   1.000000
   24      -25.184624   1.000000
   25      -25.158301   1.000000
   26      -25.158301   1.000000
   27      -25.148058   1.000000
   28      -25.119878   1.000000
   29      -25.119878   1.000000
   30      -25.118475   1.000000
   31      -25.118475   1.000000
   32      -25.034132   1.000000
   33      -25.022320   1.000000
   34      -24.979054   1.000000
   35      -24.979054   1.000000
   36      -24.914792   1.000000
   37      -24.914792   1.000000
   38      -24.912072   1.000000
   39      -24.896598   1.000000
   40      -24.863714   1.000000
   41      -24.807359   1.000000
   42      -24.806535   1.000000
   43      -24.800736   1.000000
   44      -24.800736   1.000000
   45      -24.760326   1.000000
   46      -24.760326   1.000000
   47      -24.759319   1.000000
   48      -24.748044   1.000000
   49       -0.443379   1.000000
   50        0.842433   1.000000
   51        1.413613   1.000000
   52        1.413613   1.000000
   53        1.443904   1.000000
   54        1.506285   1.000000
   55        1.506285   1.000000
   56        1.614556   1.000000
   57        1.714526   1.000000
   58        1.719769   1.000000
   59        2.000521   1.000000
   60        2.000521   1.000000
   61        2.204041   1.000000
   62        2.204041   1.000000
   63        2.267451   1.000000
   64        2.444696   1.000000
   65        2.830075   1.000000
   66        2.894659   1.000000
   67        3.123519   1.000000
   68        3.137313   1.000000
   69        3.208990   1.000000
   70        3.278157   1.000000
   71        3.532740   1.000000
   72        3.532740   1.000000
   73        3.646842   1.000000
   74        3.646842   1.000000
   75        3.849896   1.000000
   76        3.849896   1.000000
   77        4.108320   1.000000
   78        4.108320   1.000000
   79        4.538217   1.000000
   80        4.538217   1.000000
   81        4.726527   1.001037
   82        4.726527   1.009698
   83        4.822461   0.759901
   84        4.846794   0.255644
   85        5.058591  -0.026045
   86        5.102565  -0.013368
   87        5.103140  -0.002880
   88        5.142101  -0.000147
   89        5.379031   0.000000
   90        5.379031   0.000000
   91        5.555599   0.000000
   92        5.556853   0.000000
   93        5.556853   0.000000
   94        5.790579   0.000000
   95        6.112629   0.000000
   96        6.118709   0.000000
   97        6.263904   0.000000
   98        6.632138   0.000000
   99        6.632138   0.000000
  100        6.658898   0.000000
  101        6.658898   0.000000
  102        7.006116   0.000000
  103        7.175347   0.000000
  104        7.241303   0.000000
  105        7.486478   0.000000
  106        7.486478   0.000000
  107        7.721765   0.000000
  108        7.721765   0.000000
  109        8.267126   0.000000
  110        8.297797   0.000000
  111        8.365778   0.000000
  112        8.648170   0.000000
  113        8.655865   0.000000
  114        8.661735   0.000000
  115        8.689453   0.000000
  116        8.690827   0.000000
  117        8.816915   0.000000
  118        8.867386   0.000000
  119        8.870303   0.000000
  120        8.900010   0.000000
 
  0.4500000E+00  0.5000000E-01  0.5000000E-01  0.2400000E-01
    1      -25.910455   1.000000
    2      -25.909716   1.000000
    3      -25.898007   1.000000
    4      -25.898007   1.000000
    5      -25.854174   1.000000
    6      -25.854174   1.000000
    7      -25.837480   1.000000
    8      -25.835439   1.000000
    9      -25.817512   1.000000
   10      -25.817512   1.000000
   11      -25.765655   1.000000
   12      -25.765655   1.000000
   13      -25.653788   1.000000
   14      -25.645040   1.000000
   15      -25.524091   1.000000
   16      -25.500657   1.000000
   17      -25.470257   1.000000
   18      -25.446914   1.000000
   19      -25.296053   1.000000
   20      -25.276203   1.000000
   21      -25.251438   1.000000
   22      -25.236576   1.000000
   23      -25.176647   1.000000
   24      -25.176647   1.000000
   25      -25.167651   1.000000
   26      -25.167651   1.000000
   27      -25.118851   1.000000
   28      -25.118851   1.000000
   29      -25.118249   1.000000
   30      -25.118249   1.000000
   31      -25.047282   1.000000
   32      -24.950596   1.000000
   33      -24.946657   1.000000
   34      -24.939976   1.000000
   35      -24.911349   1.000000
   36      -24.911349   1.000000
   37      -24.870217   1.000000
   38      -24.867591   1.000000
   39      -24.853457   1.000000
   40      -24.853457   1.000000
   41      -24.853027   1.000000
   42      -24.851368   1.000000
   43      -24.851368   1.000000
   44      -24.838845   1.000000
   45      -24.801748   1.000000
   46      -24.801516   1.000000
   47      -24.801516   1.000000
   48      -24.788914   1.000000
   49       -0.068657   1.000000
   50        0.367297   1.000000
   51        1.603211   1.000000
   52        1.603211   1.000000
   53        1.666459   1.000000
   54        1.725535   1.000000
   55        1.725535   1.000000
   56        1.810088   1.000000
   57        1.810088   1.000000
   58        1.899552   1.000000
   59        1.941635   1.000000
   60        1.967890   1.000000
   61        1.967890   1.000000
   62        2.073134   1.000000
   63        2.076093   1.000000
   64        2.191812   1.000000
   65        2.460616   1.000000
   66        2.481321   1.000000
   67        3.127122   1.000000
   68        3.144626   1.000000
   69        3.152985   1.000000
   70        3.182516   1.000000
   71        3.792146   1.000000
   72        3.792146   1.000000
   73        3.934474   1.000000
   74        3.934474   1.000000
   75        4.092537   1.000000
   76        4.092537   1.000000
   77        4.165719   1.000000
   78        4.165719   1.000000
   79        4.413170   1.000000
   80        4.413170   1.000000
   81        4.527428   1.000000
   82        4.527428   1.000000
   83        4.803311   1.000000
   84        4.803311   1.064578
   85        4.987138  -0.034017
   86        4.987138  -0.024852
   87        5.056555  -0.010149
   88        5.081219  -0.002307
   89        5.095390   0.000000
   90        5.101208   0.000000
   91        5.233053   0.000000
   92        5.253557   0.000000
   93        5.671473   0.000000
   94        5.682174   0.000000
   95        5.750619   0.000000
   96        5.987211   0.000000
   97        6.280159   0.000000
   98        6.781194   0.000000
   99        6.926676   0.000000
  100        6.926676   0.000000
  101        7.050541   0.000000
  102        7.050541   0.000000
  103        7.215905   0.000000
  104        7.215905   0.000000
  105        7.413387   0.000000
  106        7.413387   0.000000
  107        7.506441   0.000000
  108        7.693647   0.000000
  109        8.059093   0.000000
  110        8.263159   0.000000
  111        8.389405   0.000000
  112        8.409609   0.000000
  113        8.522922   0.000000
  114        8.535113   0.000000
  115        8.552125   0.000000
  116        8.757918   0.000000
  117        8.831603   0.000000
  118        8.852422   0.000000
  119        8.858440   0.000000
  120        8.864910   0.000000
 
  0.1500000E+00  0.1500000E+00  0.5000000E-01  0.2400000E-01
    1      -26.049561   1.000000
    2      -26.038507   1.000000
    3      -26.038507   1.000000
    4      -26.024265   1.000000
    5      -26.024265   1.000000
    6      -26.003471   1.000000
    7      -25.661261   1.000000
    8      -25.628994   1.000000
    9      -25.620642   1.000000
   10      -25.608906   1.000000
   11      -25.608906   1.000000
   12      -25.593630   1.000000
   13      -25.584937   1.000000
   14      -25.580033   1.000000
   15      -25.527990   1.000000
   16      -25.434820   1.000000
   17      -25.403699   1.000000
   18      -25.403699   1.000000
   19      -25.328922   1.000000
   20      -25.268217   1.000000
   21      -25.268217   1.000000
   22      -25.207991   1.000000
   23      -25.194330   1.000000
   24      -25.194330   1.000000
   25      -25.189432   1.000000
   26      -25.159589   1.000000
   27      -25.156081   1.000000
   28      -25.156081   1.000000
   29      -25.139260   1.000000
   30      -25.135659   1.000000
   31      -25.135659   1.000000
   32      -25.131712   1.000000
   33      -25.106622   1.000000
   34      -25.075410   1.000000
   35      -25.049618   1.000000
   36      -25.049618   1.000000
   37      -25.008503   1.000000
   38      -24.980797   1.000000
   39      -24.980797   1.000000
   40      -24.780997   1.000000
   41      -24.760477   1.000000
   42      -24.744169   1.000000
   43      -24.744169   1.000000
   44      -24.728701   1.000000
   45      -24.728701   1.000000
   46      -24.713924   1.000000
   47      -24.706334   1.000000
   48      -24.693903   1.000000
   49       -0.841977   1.000000
   50        1.173587   1.000000
   51        1.234628   1.000000
   52        1.263289   1.000000
   53        1.263289   1.000000
   54        1.272751   1.000000
   55        1.291339   1.000000
   56        1.299677   1.000000
   57        1.299677   1.000000
   58        1.800342   1.000000
   59        1.800342   1.000000
   60        2.194116   1.000000
   61        2.483362   1.000000
   62        2.615202   1.000000
   63        2.615202   1.000000
   64        3.093410   1.000000
   65        3.093410   1.000000
   66        3.127070   1.000000
   67        3.196742   1.000000
   68        3.196742   1.000000
   69        3.230184   1.000000
   70        3.243178   1.000000
   71        3.243178   1.000000
   72        3.303030   1.000000
   73        3.379562   1.000000
   74        3.469583   1.000000
   75        3.591241   1.000000
   76        3.799766   1.000000
   77        3.863432   1.000000
   78        4.154133   1.000000
   79        4.168261   1.000000
   80        4.366323   1.000000
   81        4.366323   1.019718
   82        5.025010  -0.034579
   83        5.113454  -0.034536
   84        5.127651  -0.023584
   85        5.127651  -0.009258
   86        5.212502   0.000000
   87        5.408217   0.000000
   88        5.422379   0.000000
   89        5.825048   0.000000
   90        5.825048   0.000000
   91        5.868969   0.000000
   92        5.868969   0.000000
   93        6.019134   0.000000
   94        6.173513   0.000000
   95        6.202294   0.000000
   96        6.374444   0.000000
   97        6.374444   0.000000
   98        6.441884   0.000000
   99        6.441884   0.000000
  100        6.571740   0.000000
  101        6.571740   0.000000
  102        6.572819   0.000000
  103        7.271088   0.000000
  104        7.271088   0.000000
  105        7.685186   0.000000
  106        7.878975   0.000000
  107        7.933654   0.000000
  108        7.963700   0.000000
  109        7.963700   0.000000
  110        8.062159   0.000000
  111        8.110032   0.000000
  112        8.110032   0.000000
  113        8.141887   0.000000
  114        8.284314   0.000000
  115        8.451760   0.000000
  116        8.451808   0.000000
  117        8.706732   0.000000
  118        8.831417   0.000000
  119        8.855059   0.000000
  120        8.874705   0.000000
 
  0.2500000E+00  0.1500000E+00  0.5000000E-01  0.4800000E-01
    1      -26.024861   1.000000
    2      -26.006927   1.000000
    3      -26.004967   1.000000
    4      -25.995095   1.000000
    5      -25.981461   1.000000
    6      -25.949005   1.000000
    7      -25.694181   1.000000
    8      -25.687692   1.000000
    9      -25.676235   1.000000
   10      -25.663357   1.000000
   11      -25.659165   1.000000
   12      -25.648919   1.000000
   13      -25.598453   1.000000
   14      -25.597979   1.000000
   15      -25.544024   1.000000
   16      -25.495214   1.000000
   17      -25.409772   1.000000
   18      -25.339009   1.000000
   19      -25.319310   1.000000
   20      -25.311681   1.000000
   21      -25.264697   1.000000
   22      -25.260734   1.000000
   23      -25.212445   1.000000
   24      -25.185406   1.000000
   25      -25.179210   1.000000
   26      -25.166869   1.000000
   27      -25.159879   1.000000
   28      -25.136787   1.000000
   29      -25.133506   1.000000
   30      -25.122011   1.000000
   31      -25.105566   1.000000
   32      -25.092457   1.000000
   33      -25.065228   1.000000
   34      -25.052445   1.000000
   35      -25.015199   1.000000
   36      -24.980721   1.000000
   37      -24.953122   1.000000
   38      -24.917159   1.000000
   39      -24.914766   1.000000
   40      -24.843529   1.000000
   41      -24.800337   1.000000
   42      -24.770245   1.000000
   43      -24.768721   1.000000
   44      -24.760041   1.000000
   45      -24.743418   1.000000
   46      -24.735408   1.000000
   47      -24.711928   1.000000
   48      -24.701519   1.000000
   49       -0.642033   1.000000
   50        1.239006   1.000000
   51        1.349520   1.000000
   52        1.356489   1.000000
   53        1.363538   1.000000
   54        1.425307   1.000000
   55        1.435487   1.000000
   56        1.442655   1.000000
   57        1.466425   1.000000
   58        1.496356   1.000000
   59        1.789794   1.000000
   60        2.169057   1.000000
   61        2.437152   1.000000
   62        2.511974   1.000000
   63        2.569519   1.000000
   64        2.741009   1.000000
   65        2.953186   1.000000
   66        3.122730   1.000000
   67        3.180581   1.000000
   68        3.222238   1.000000
   69        3.260943   1.000000
   70        3.317290   1.000000
   71        3.324868   1.000000
   72        3.392690   1.000000
   73        3.462944   1.000000
   74        3.499160   1.000000
   75        3.572322   1.000000
   76        3.642355   1.000000
   77        3.818574   1.000000
   78        4.280880   1.000000
   79        4.344420   1.000000
   80        4.403718   1.000000
   81        4.701088   1.002055
   82        4.755974   0.852463
   83        4.936905   0.147672
   84        4.941992   0.009704
   85        4.987789  -0.037071
   86        5.082636  -0.025124
   87        5.104930  -0.013576
   88        5.432281  -0.000636
   89        5.590677   0.000000
   90        5.653097   0.000000
   91        5.861846   0.000000
   92        5.901109   0.000000
   93        6.041906   0.000000
   94        6.123768   0.000000
   95        6.194696   0.000000
   96        6.218546   0.000000
   97        6.235862   0.000000
   98        6.263851   0.000000
   99        6.301159   0.000000
  100        6.409915   0.000000
  101        6.464866   0.000000
  102        6.696928   0.000000
  103        6.913161   0.000000
  104        7.430813   0.000000
  105        7.663754   0.000000
  106        7.759813   0.000000
  107        7.772608   0.000000
  108        7.967863   0.000000
  109        8.046720   0.000000
  110        8.058643   0.000000
  111        8.140357   0.000000
  112        8.160156   0.000000
  113        8.347704   0.000000
  114        8.635198   0.000000
  115        8.735793   0.000000
  116        8.743755   0.000000
  117        8.757133   0.000000
  118        8.764220   0.000000
  119        8.846385   0.000000
  120        8.864232   0.000000
 
  0.3500000E+00  0.1500000E+00  0.5000000E-01  0.4800000E-01
    1      -25.981960   1.000000
    2      -25.960593   1.000000
    3      -25.954571   1.000000
    4      -25.952597   1.000000
    5      -25.922282   1.000000
    6      -25.877687   1.000000
    7      -25.771561   1.000000
    8      -25.765129   1.000000
    9      -25.748758   1.000000
   10      -25.736619   1.000000
   11      -25.687182   1.000000
   12      -25.681790   1.000000
   13      -25.674983   1.000000
   14      -25.596072   1.000000
   15      -25.563852   1.000000
   16      -25.501054   1.000000
   17      -25.405605   1.000000
   18      -25.368907   1.000000
   19      -25.331894   1.000000
   20      -25.298156   1.000000
   21      -25.249261   1.000000
   22      -25.225407   1.000000
   23      -25.212883   1.000000
   24      -25.209172   1.000000
   25      -25.198773   1.000000
   26      -25.192573   1.000000
   27      -25.178657   1.000000
   28      -25.137611   1.000000
   29      -25.133310   1.000000
   30      -25.080413   1.000000
   31      -25.056729   1.000000
   32      -25.046684   1.000000
   33      -25.018649   1.000000
   34      -24.990740   1.000000
   35      -24.953742   1.000000
   36      -24.922185   1.000000
   37      -24.916623   1.000000
   38      -24.897002   1.000000
   39      -24.855629   1.000000
   40      -24.854232   1.000000
   41      -24.849916   1.000000
   42      -24.809029   1.000000
   43      -24.806134   1.000000
   44      -24.802604   1.000000
   45      -24.768053   1.000000
   46      -24.767233   1.000000
   47      -24.729868   1.000000