    4    4    1    2
  0.9063964E+01  0.5107186E-09  0.5107186E-09  0.5107186E-09  0.5000000E-15
  1.000000000000000E-004
  CAR 
 NiO_af2                                 
     32     10     20
 
  0.1250000E+00  0.1250000E+00  0.1250000E+00  0.3125000E-01
    1      -15.041336    -15.041336   1.000000   1.000000
    2      -13.749413    -13.749413   1.000000   1.000000
    3       -2.798280     -2.798280   1.000000   1.000000
    4       -0.280381     -0.280381   1.000000   1.000000
    5       -0.280381     -0.280381   1.000000   1.000000
    6        1.851554      1.851554   1.000000   1.000000
    7        1.987695      1.987695   1.000000   1.000000
    8        1.987695      1.987695   1.000000   1.000000
    9        2.824810      2.824810   1.000000   1.000000
   10        2.824810      2.824810   1.000000   1.000000
   11        3.038445      3.038445   1.000000   1.000000
   12        3.444566      3.444566   1.000000   1.000000
   13        3.444566      3.444566   1.000000   1.000000
   14        4.067548      4.067548   1.000000   1.000000
   15        4.067548      4.067548   1.000000   1.000000
   16        4.338952      4.338952   1.000000   1.000000
   17        6.483667      6.483667   0.000000   0.000000
   18        6.483667      6.483667   0.000000   0.000000
   19        7.203533      7.203533   0.000000   0.000000
   20       10.877943     10.877943   0.000000   0.000000
 
  0.3750000E+00  0.1250000E+00  0.1250000E+00  0.9375000E-01
    1      -14.435682    -14.435682   1.000000   1.000000
    2      -13.674230    -13.674230   1.000000   1.000000
    3       -2.001231     -2.001231   1.000000   1.000000
    4       -0.917936     -0.917936   1.000000   1.000000
    5       -0.537152     -0.537152   1.000000   1.000000
    6       -0.222388     -0.222388   1.000000   1.000000
    7        1.104978      1.104978   1.000000   1.000000
    8        1.192256      1.192256   1.000000   1.000000
    9        2.597480      2.597480   1.000000   1.000000
   10        3.314776      3.314776   1.000000   1.000000
   11        3.452879      3.452879   1.000000   1.000000
   12        3.513283      3.513283   1.000000   1.000000
   13        3.812382      3.812382   1.000000   1.000000
   14        4.183257      4.183257   1.000000   1.000000
   15        4.350313      4.350313   1.000000   1.000000
   16        4.500822      4.500822   1.000000   1.000000
   17        5.449081      5.449081   0.000000   0.000000
   18        6.400037      6.400037   0.000000   0.000000
   19       10.297634     10.297634   0.000000   0.000000
   20       13.134466     13.134466   0.000000   0.000000
 
 -0.3750000E+00  0.1250000E+00  0.1250000E+00  0.9375000E-01
    1      -13.672922    -13.672922   1.000000   1.000000
    2      -13.647510    -13.647510   1.000000   1.000000
    3       -2.282106     -2.282106   1.000000   1.000000
    4       -1.689838     -1.689838   1.000000   1.000000
    5       -0.535614     -0.535614   1.000000   1.000000
    6       -0.180337     -0.180338   1.000000   1.000000
    7       -0.116953     -0.116953   1.000000   1.000000
    8        0.527263      0.527263   1.000000   1.000000
    9        2.664990      2.664990   1.000000   1.000000
   10        3.404884      3.404884   1.000000   1.000000
   11        3.591739      3.591739   1.000000   1.000000
   12        3.781874      3.781874   1.000000   1.000000
   13        4.239367      4.239367   1.000000   1.000000
   14        4.269256      4.269256   1.000000   1.000000
   15        4.450207      4.450207   1.000000   1.000000
   16        4.609471      4.609471   1.000000   1.000000
   17        6.035741      6.035741   0.000000   0.000000
   18        6.040240      6.040240   0.000000   0.000000
   19       12.502643     12.502643   0.000000   0.000000
   20       12.634243     12.634243   0.000000   0.000000
 
 -0.1250000E+00  0.1250000E+00  0.1250000E+00  0.9375000E-01
    1      -14.507511    -14.507511   1.000000   1.000000
    2      -13.589154    -13.589154   1.000000   1.000000
    3       -1.969638     -1.969638   1.000000   1.000000
    4       -0.746570     -0.746570   1.000000   1.000000
    5       -0.633870     -0.633870   1.000000   1.000000
    6       -0.082446     -0.082446   1.000000   1.000000
    7        0.609540      0.609540   1.000000   1.000000
    8        0.840741      0.840741   1.000000   1.000000
    9        2.892540      2.892540   1.000000   1.000000
   10        3.261641      3.261641   1.000000   1.000000
   11        3.402274      3.402274   1.000000   1.000000
   12        3.830622      3.830622   1.000000   1.000000
   13        3.898984      3.898984   1.000000   1.000000
   14        4.255770      4.255770   1.000000   1.000000
   15        4.522345      4.522345   1.000000   1.000000
   16        4.607486      4.607486   1.000000   1.000000
   17        5.891798      5.891798   0.000000   0.000000
   18        5.983524      5.983524   0.000000   0.000000
   19        9.558299      9.558299   0.000000   0.000000
   20       13.399044     13.399044   0.000000   0.000000
 
  0.3750000E+00  0.3750000E+00  0.1250000E+00  0.9375000E-01
    1      -14.330656    -14.330656   1.000000   1.000000
    2      -13.796132    -13.796132   1.000000   1.000000
    3       -1.822330     -1.822330   1.000000   1.000000
    4       -1.191593     -1.191593   1.000000   1.000000
    5       -0.122326     -0.122326   1.000000   1.000000
    6        0.115143      0.115143   1.000000   1.000000
    7        0.543111      0.543111   1.000000   1.000000
    8        0.607648      0.607648   1.000000   1.000000
    9        2.750676      2.750676   1.000000   1.000000
   10        3.226199      3.226199   1.000000   1.000000
   11        3.343764      3.343764   1.000000   1.000000
   12        3.887487      3.887487   1.000000   1.000000
   13        3.924384      3.924384   1.000000   1.000000
   14        4.227873      4.227873   1.000000   1.000000
   15        4.528377      4.528377   1.000000   1.000000
   16        4.618258      4.618258   1.000000   1.000000
   17        5.820544      5.820544   0.000000   0.000000
   18        6.074520      6.074520   0.000000   0.000000
   19       10.052958     10.052958   0.000000   0.000000
   20       12.340473     12.340473   0.000000   0.000000
 
 -0.3750000E+00  0.3750000E+00  0.1250000E+00  0.1875000E+00
    1      -13.719295    -13.719295   1.000000   1.000000
    2      -13.604045    -13.604045   1.000000   1.000000
    3       -1.993188     -1.993188   1.000000   1.000000
    4       -1.740846     -1.740846   1.000000   1.000000
    5       -0.625182     -0.625182   1.000000   1.000000
    6       -0.393216     -0.393216   1.000000   1.000000
    7        0.046167      0.046167   1.000000   1.000000
    8        0.254391      0.254391   1.000000   1.000000
    9        3.049375      3.049375   1.000000   1.000000
   10        3.159724      3.159724   1.000000   1.000000
   11        3.498692      3.498692   1.000000   1.000000
   12        3.871263      3.871263   1.000000   1.000000
   13        4.131065      4.131065   1.000000   1.000000
   14        4.450146      4.450146   1.000000   1.000000
   15        4.493526      4.493526   1.000000   1.000000
   16        4.561624      4.561624   1.000000   1.000000
   17        5.862646      5.862646   0.000000   0.000000
   18        6.024097      6.024097   0.000000   0.000000
   19       12.645563     12.645563   0.000000   0.000000
   20       13.209947     13.209946   0.000000   0.000000
 
 -0.1250000E+00  0.3750000E+00  0.1250000E+00  0.1875000E+00
    1      -13.802384    -13.802384   1.000000   1.000000
    2      -13.523815    -13.523815   1.000000   1.000000
    3       -1.949020     -1.949020   1.000000   1.000000
    4       -1.162903     -1.162903   1.000000   1.000000
    5       -0.774078     -0.774078   1.000000   1.000000
    6       -0.373111     -0.373111   1.000000   1.000000
    7       -0.209613     -0.209613   1.000000   1.000000
    8       -0.128738     -0.128738   1.000000   1.000000
    9        3.223564      3.223564   1.000000   1.000000
   10        3.398630      3.398630   1.000000   1.000000
   11        3.496087      3.496087   1.000000   1.000000
   12        3.837880      3.837880   1.000000   1.000000
   13        3.870551      3.870551   1.000000   1.000000
   14        4.193221      4.193221   1.000000   1.000000
   15        4.408485      4.408485   1.000000   1.000000
   16        4.561860      4.561860   1.000000   1.000000
   17        5.646553      5.646553   0.000000   0.000000
   18        6.476437      6.476437   0.000000   0.000000
   19       12.421360     12.421360   0.000000   0.000000
   20       13.854998     13.854998   0.000000   0.000000
 
 -0.3750000E+00 -0.3750000E+00  0.1250000E+00  0.9375000E-01
    1      -13.684065    -13.684065   1.000000   1.000000
    2      -13.627975    -13.627975   1.000000   1.000000
    3       -2.865799     -2.865799   1.000000   1.000000
    4       -1.658992     -1.658992   1.000000   1.000000
    5       -0.339134     -0.339134   1.000000   1.000000
    6       -0.300173     -0.300173   1.000000   1.000000
    7        0.718580      0.718580   1.000000   1.000000
    8        0.895126      0.895126   1.000000   1.000000
    9        2.171469      2.171469   1.000000   1.000000
   10        3.329094      3.329094   1.000000   1.000000
   11        3.545459      3.545459   1.000000   1.000000
   12        3.768541      3.768541   1.000000   1.000000
   13        3.881973      3.881973   1.000000   1.000000
   14        4.226167      4.226167   1.000000   1.000000
   15        4.461066      4.461066   1.000000   1.000000
   16        4.596122      4.596122   1.000000   1.000000
   17        6.505642      6.505642   0.000000   0.000000
   18        6.527440      6.527440   0.000000   0.000000
   19       11.160627     11.160627   0.000000   0.000000
   20       11.733670     11.733670   0.000000   0.000000
 
  0.3750000E+00  0.3750000E+00  0.3750000E+00  0.3125000E-01
    1      -14.703007    -14.703007   1.000000   1.000000
    2      -14.174688    -14.174688   1.000000   1.000000
    3       -1.702111     -1.702111   1.000000   1.000000
    4        0.071738      0.071738   1.000000   1.000000
    5        0.074173      0.074173   1.000000   1.000000
    6        0.074173      0.074173   1.000000   1.000000
    7        1.072504      1.072504   1.000000   1.000000
    8        1.072504      1.072504   1.000000   1.000000
    9        2.910178      2.910178   1.000000   1.000000
   10        2.910178      2.910178   1.000000   1.000000
   11        3.273576      3.273576   1.000000   1.000000
   12        3.923117      3.923117   1.000000   1.000000
   13        3.923117      3.923117   1.000000   1.000000
   14        4.111209      4.111209   1.000000   1.000000
   15        4.428541      4.428541   1.000000   1.000000
   16        4.428541      4.428541   1.000000   1.000000
   17        6.072398      6.072398   0.000000   0.000000
   18        6.072398      6.072398   0.000000   0.000000
   19        8.780991      8.780991   0.000000   0.000000
   20       10.301823     10.301823   0.000000   0.000000
 
 -0.3750000E+00  0.3750000E+00  0.3750000E+00  0.9375000E-01
    1      -14.148870    -14.148870   1.000000   1.000000
    2      -13.989545    -13.989545   1.000000   1.000000
    3       -1.778865     -1.778865   1.000000   1.000000
    4       -1.427981     -1.427981   1.000000   1.000000
    5       -0.109243     -0.109243   1.000000   1.000000
    6        0.077920      0.077920   1.000000   1.000000
    7        0.924371      0.924371   1.000000   1.000000
    8        1.032315      1.032315   1.000000   1.000000
    9        2.456091      2.456091   1.000000   1.000000
   10        3.290314      3.290314   1.000000   1.000000
   11        3.389436      3.389436   1.000000   1.000000
   12        3.491964      3.491964   1.000000   1.000000
   13        3.838754      3.838754   1.000000   1.000000
   14        4.225363      4.225363   1.000000   1.000000
   15        4.395372      4.395372   1.000000   1.000000
   16        4.500846      4.500846   1.000000   1.000000
   17        5.428718      5.428718   0.000000   0.000000
   18        6.465961      6.465961   0.000000   0.000000
   19       11.330553     11.330553   0.000000   0.000000
   20       11.554085     11.554085   0.000000   0.000000
