Automatically generated mesh
      10
Reciprocal lattice
    0.12500000000000    0.12500000000000    0.12500000000000             2
    0.37500000000000    0.12500000000000    0.12500000000000             6
   -0.37500000000000    0.12500000000000    0.12500000000000             6
   -0.12500000000000    0.12500000000000    0.12500000000000             6
    0.37500000000000    0.37500000000000    0.12500000000000             6
   -0.37500000000000    0.37500000000000    0.12500000000000            12
   -0.12500000000000    0.37500000000000    0.12500000000000            12
   -0.37500000000000   -0.37500000000000    0.12500000000000             6
    0.37500000000000    0.37500000000000    0.37500000000000             2
   -0.37500000000000    0.37500000000000    0.37500000000000             6
Tetrahedra
        32    0.00260416666667
        12         1         2         5         9
        12         2         5         6        10
        12         2         3         6        10
        12         2         5         9        10
        12         3         6         7         8
        12         3         4         7         8
        12         3         6         8        10
        12         2         4         5         7
        12         1         2         4         5
        12         4         5         7         8
        12         5         6         8        10
        12         5         6        10        10
        12         5         9        10        10
        24         6         6         7         8
        24         6         6         7         7
        12         6         6         8        10
         6         6         6        10        10
        24         3         6         7         7
        12         2         3         6         7
        12         2         5         6         7
        12         5         6         7         8
         6         4         4         7         7
        12         3         4         7         7
        12         1         2         4         4
        12         2         4         4         7
        12         2         3         4         7
         6         9         9        10        10
         6         6         6         8         8
        12         5         6         8         8
        12         2         3         3         7
         6         3         3         7         7
         6         1         1         4         4
