    2    2    1    1
  0.2402370E+02  0.4080640E-09  0.4080640E-09  0.4080640E-09  0.5000000E-15
  1.000000000000000E-004
  CAR 
 Ge                                      
      8    250      8
