 vasp.5.4.4.18Apr17-6-g9f103f2a35 (build May 20 2018 16:52:39) complex          
  
 executed on             LinuxIFC date 2022.11.06  14:21:25
 running on    1 total cores
 distrk:  each k-point on    1 cores,    1 groups
 distr:  one band on NCORES_PER_BAND=   1 cores,    1 groups


--------------------------------------------------------------------------------------------------------


 INCAR:
 POTCAR:    PAW Ge                                
 POTCAR:    PAW Ge                                
   VRHFIN =Ge: s2p2                                                             
   LEXCH  = 91                                                                  
   EATOM  =   105.2738 eV,    7.7374 Ry                                         
                                                                                
   TITEL  = PAW Ge                                                              
   LULTRA =        F    use ultrasoft PP ?                                      
   IUNSCR =        1    unscreen: 0-lin 1-nonlin 2-no                           
   RPACOR =    2.170    partial core radius                                     
   POMASS =   72.610; ZVAL   =    4.000    mass and valenz                      
   RCORE  =    2.300    outmost cutoff radius                                   
   RWIGS  =    2.300; RWIGS  =    1.217    wigner-seitz radius (au A)           
   ENMAX  =  173.845; ENMIN  =  130.384 eV                                      
   ICORE  =        3    local potential                                         
   LCOR   =        T    correct aug charges                                     
   LPAW   =        T    paw PP                                                  
   EAUG   =  385.843                                                            
   DEXC   =    -.102                                                            
   RMAX   =    3.497    core radius for proj-oper                               
   RAUG   =    1.300    factor for augmentation sphere                          
   RDEP   =    2.318    core radius for depl-charge                             
   QCUT   =   -3.575; QGAM   =    7.149    optimization parameters              
                                                                                
   Description                                                                  
     l     E      TYP  RCUT    TYP  RCUT                                        
     0   .000     23  2.300                                                     
     0   .000     23  2.300                                                     
     1   .000     23  2.300                                                     
     1   .000     23  2.300                                                     
     2   .000     23  2.300                                                     
     3  -.100      7  2.300                                                     
  local pseudopotential read in
  partial core-charges read in
  atomic valenz-charges read in
  non local Contribution for L=           0  read in
    real space projection operators read in
  non local Contribution for L=           0  read in
    real space projection operators read in
  non local Contribution for L=           1  read in
    real space projection operators read in
  non local Contribution for L=           1  read in
    real space projection operators read in
  non local Contribution for L=           2  read in
    real space projection operators read in
    PAW grid and wavefunctions read in
 
   number of l-projection  operators is LMAX  =           5
   number of lm-projection operators is LMMAX =          13
 
  PAW Ge                                :
 energy of atom  1       EATOM= -105.2738
 kinetic energy error for atom=    0.0055 (will be added to EATOM!!)
 
 
 POSCAR: Ge                                      
  positions in direct lattice
  velocities in cartesian coordinates
 exchange correlation table for  LEXCH =        7
   RHO(1)=    0.500       N(1)  =     2000
   RHO(2)=  100.500       N(2)  =     4000
 


--------------------------------------------------------------------------------------------------------


 ion  position               nearest neighbor table
   1  0.000  0.000  0.000-   2 2.50   2 2.50   2 2.50   2 2.50
   2  0.250  0.250  0.250-   1 2.50   1 2.50   1 2.50   1 2.50
 
  LATTYP: Found a face centered cubic cell.
 ALAT       =     5.7708962577
  
  Lattice vectors:
  
 A1 = (   0.0000000000,   2.8854481288,   2.8854481288)
 A2 = (   2.8854481288,   0.0000000000,   2.8854481288)
 A3 = (   2.8854481288,   2.8854481288,   0.0000000000)


Analysis of symmetry for initial positions (statically):
=====================================================================
 Subroutine PRICEL returns:
 Original cell was already a primitive cell.
 

 Routine SETGRP: Setting up the symmetry group for a 
 face centered cubic supercell.


 Subroutine GETGRP returns: Found 48 space group operations
 (whereof 24 operations were pure point group operations)
 out of a pool of 48 trial point group operations.


The static configuration has the point symmetry T_d .
 The point group associated with its full space group is O_h .


Analysis of symmetry for dynamics (positions and initial velocities):
=====================================================================
 Subroutine PRICEL returns:
 Original cell was already a primitive cell.
 

 Routine SETGRP: Setting up the symmetry group for a 
 face centered cubic supercell.


 Subroutine GETGRP returns: Found 48 space group operations
 (whereof 24 operations were pure point group operations)
 out of a pool of 48 trial point group operations.


The dynamic configuration has the point symmetry T_d .
 The point group associated with its full space group is O_h .


 Subroutine INISYM returns: Found 48 space group operations
 (whereof 24 operations are pure point group operations),
 and found     1 'primitive' translations

 
 
 KPOINTS: K-points along high symmetry lines for F
  interpolating k-points between supplied coordinates
  k-points in reciprocal lattice
Space group operators:
 irot       det(A)        alpha          n_x          n_y          n_z        tau_x        tau_y        tau_z
    1     1.000000     0.000001     1.000000     0.000000     0.000000     0.000000     0.000000     0.000000
    2     1.000000   120.000000    -0.577350    -0.577350    -0.577350     0.000000     0.000000     0.000000
    3     1.000000   120.000000     0.577350     0.577350     0.577350     0.000000     0.000000     0.000000
    4    -1.000000    90.000000     0.000000     0.000000    -1.000000     0.000000     0.000000     0.000000
    5    -1.000000   180.000000     0.000000     0.707107     0.707107     0.000000     0.000000     0.000000
    6    -1.000000    90.000000     0.000000     1.000000     0.000000     0.000000     0.000000     0.000000
    7     1.000000   180.000000     0.000000     0.000000     1.000000     0.000000     0.000000     0.000000
    8     1.000000   120.000000    -0.577350     0.577350     0.577350     0.000000     0.000000     0.000000
    9     1.000000   120.000000    -0.577350     0.577350    -0.577350     0.000000     0.000000     0.000000
   10    -1.000000    90.000000     0.000000     0.000000     1.000000     0.000000     0.000000     0.000000
   11    -1.000000    90.000000    -1.000000     0.000000     0.000000     0.000000     0.000000     0.000000
   12    -1.000000   180.000000     0.707107     0.000000     0.707107     0.000000     0.000000     0.000000
   13     1.000000   120.000000     0.577350    -0.577350     0.577350     0.000000     0.000000     0.000000
   14     1.000000   120.000000    -0.577350    -0.577350     0.577350     0.000000     0.000000     0.000000
   15     1.000000   180.000000     1.000000     0.000000     0.000000     0.000000     0.000000     0.000000
   16    -1.000000    90.000000     0.000000    -1.000000     0.000000     0.000000     0.000000     0.000000
   17    -1.000000   180.000000     0.707107     0.707107     0.000000     0.000000     0.000000     0.000000
   18    -1.000000    90.000000     1.000000     0.000000     0.000000     0.000000     0.000000     0.000000
   19     1.000000   120.000000     0.577350    -0.577350    -0.577350     0.000000     0.000000     0.000000
   20     1.000000   180.000000     0.000000     1.000000     0.000000     0.000000     0.000000     0.000000
   21     1.000000   120.000000     0.577350     0.577350    -0.577350     0.000000     0.000000     0.000000
   22    -1.000000   180.000000     0.000000    -0.707107     0.707107     0.000000     0.000000     0.000000
   23    -1.000000   180.000000     0.707107    -0.707107     0.000000     0.000000     0.000000     0.000000
   24    -1.000000   180.000000     0.707107     0.000000    -0.707107     0.000000     0.000000     0.000000
   25    -1.000000     0.000001     1.000000     0.000000     0.000000     0.250000     0.250000     0.250000
   26    -1.000000   120.000000    -0.577350    -0.577350    -0.577350     0.250000     0.250000     0.250000
   27    -1.000000   120.000000     0.577350     0.577350     0.577350     0.250000     0.250000     0.250000
   28     1.000000    90.000000     0.000000     0.000000    -1.000000     0.250000     0.250000     0.250000
   29     1.000000   180.000000     0.000000     0.707107     0.707107     0.250000     0.250000     0.250000
   30     1.000000    90.000000     0.000000     1.000000     0.000000     0.250000     0.250000     0.250000
   31    -1.000000   180.000000     0.000000     0.000000     1.000000     0.250000     0.250000     0.250000
   32    -1.000000   120.000000    -0.577350     0.577350     0.577350     0.250000     0.250000     0.250000
   33    -1.000000   120.000000    -0.577350     0.577350    -0.577350     0.250000     0.250000     0.250000
   34     1.000000    90.000000     0.000000     0.000000     1.000000     0.250000     0.250000     0.250000
   35     1.000000    90.000000    -1.000000     0.000000     0.000000     0.250000     0.250000     0.250000
   36     1.000000   180.000000     0.707107     0.000000     0.707107     0.250000     0.250000     0.250000
   37    -1.000000   120.000000     0.577350    -0.577350     0.577350     0.250000     0.250000     0.250000
   38    -1.000000   120.000000    -0.577350    -0.577350     0.577350     0.250000     0.250000     0.250000
   39    -1.000000   180.000000     1.000000     0.000000     0.000000     0.250000     0.250000     0.250000
   40     1.000000    90.000000     0.000000    -1.000000     0.000000     0.250000     0.250000     0.250000
   41     1.000000   180.000000     0.707107     0.707107     0.000000     0.250000     0.250000     0.250000
   42     1.000000    90.000000     1.000000     0.000000     0.000000     0.250000     0.250000     0.250000
   43    -1.000000   120.000000     0.577350    -0.577350    -0.577350     0.250000     0.250000     0.250000
   44    -1.000000   180.000000     0.000000     1.000000     0.000000     0.250000     0.250000     0.250000
   45    -1.000000   120.000000     0.577350     0.577350    -0.577350     0.250000     0.250000     0.250000
   46     1.000000   180.000000     0.000000    -0.707107     0.707107     0.250000     0.250000     0.250000
   47     1.000000   180.000000     0.707107    -0.707107     0.000000     0.250000     0.250000     0.250000
   48     1.000000   180.000000     0.707107     0.000000    -0.707107     0.250000     0.250000     0.250000


--------------------------------------------------------------------------------------------------------




 Dimension of arrays:
   k-points           NKPTS =    250   k-points in BZ     NKDIM =    250   number of bands    NBANDS=      8
   number of dos      NEDOS =    301   number of ions     NIONS =      2
   non local maximal  LDIM  =      5   non local SUM 2l+1 LMDIM =     13
   total plane-waves  NPLWV =   2744
   max r-space proj   IRMAX =      1   max aug-charges    IRDMAX=   3303
   dimension x,y,z NGX =    14 NGY =   14 NGZ =   14
   dimension x,y,z NGXF=    28 NGYF=   28 NGZF=   28
   support grid    NGXF=    28 NGYF=   28 NGZF=   28
   ions per type =               2
   NGX,Y,Z   is equivalent  to a cutoff of   5.70,  5.70,  5.70 a.u.
   NGXF,Y,Z  is equivalent  to a cutoff of  11.41, 11.41, 11.41 a.u.

 SYSTEM =  Ge                                      
 POSCAR =  Ge                                      

 Startparameter for this run:
   NWRITE =      2    write-flag & timer
   PREC   = normal    normal or accurate (medium, high low for compatibility)
   ISTART =      0    job   : 0-new  1-cont  2-samecut
   ICHARG =     11    charge: 1-file 2-atom 10-const
   ISPIN  =      1    spin polarized calculation?
   LNONCOLLINEAR =      F non collinear calculations
   LSORBIT =      F    spin-orbit coupling
   INIWAV =      1    electr: 0-lowe 1-rand  2-diag
   LASPH  =      F    aspherical Exc in radial PAW
   METAGGA=      F    non-selfconsistent MetaGGA calc.

 Electronic Relaxation 1
   ENCUT  =  173.8 eV  12.78 Ry    3.57 a.u.   4.39  4.39  4.39*2*pi/ulx,y,z
   ENINI  =  173.8     initial cutoff
   ENAUG  =  385.8 eV  augmentation charge cutoff
   NELM   =     60;   NELMIN=  2; NELMDL= -5     # of ELM steps 
   EDIFF  = 0.1E-05   stopping-criterion for ELM
   LREAL  =      F    real-space projection
   NLSPLINE    = F    spline interpolate recip. space projectors
   LCOMPAT=      F    compatible to vasp.4.4
   GGA_COMPAT  = T    GGA compatible to vasp.4.4-vasp.4.6
   LMAXPAW     = -100 max onsite density
   LMAXMIX     =    2 max onsite mixed and CHGCAR
   VOSKOWN=      0    Vosko Wilk Nusair interpolation
   ROPT   =    0.00000
 Ionic relaxation
   EDIFFG = 0.1E-04   stopping-criterion for IOM
   NSW    =      0    number of steps for IOM
   NBLOCK =      1;   KBLOCK =      1    inner block; outer block 
   IBRION =     -1    ionic relax: 0-MD 1-quasi-New 2-CG
   NFREE  =      0    steps in history (QN), initial steepest desc. (CG)
   ISIF   =      2    stress and relaxation
   IWAVPR =     10    prediction:  0-non 1-charg 2-wave 3-comb
   ISYM   =      2    0-nonsym 1-usesym 2-fastsym
   LCORR  =      T    Harris-Foulkes like correction to forces

   POTIM  = 0.5000    time-step for ionic-motion
   TEIN   =    0.0    initial temperature
   TEBEG  =    0.0;   TEEND  =   0.0 temperature during run
   SMASS  =  -3.00    Nose mass-parameter (am)
   estimated Nose-frequenzy (Omega)   =  0.10E-29 period in steps =****** mass=  -0.381E-27a.u.
   SCALEE = 1.0000    scale energy and forces
   NPACO  =    256;   APACO  = 16.0  distance and # of slots for P.C.
   PSTRESS=    0.0 pullay stress

  Mass of Ions in am
   POMASS =  72.61
  Ionic Valenz
   ZVAL   =   4.00
  Atomic Wigner-Seitz radii
   RWIGS  =  -1.00
  virtual crystal weights 
   VCA    =   1.00
   NELECT =       8.0000    total number of electrons
   NUPDOWN=      -1.0000    fix difference up-down

 DOS related values:
   EMIN   =  10.00;   EMAX   =-10.00  energy-range for DOS
   EFERMI =   0.00
   ISMEAR =     1;   SIGMA  =   0.20  broadening in eV -4-tet -1-fermi 0-gaus

 Electronic relaxation 2 (details)
   IALGO  =     38    algorithm
   LDIAG  =      T    sub-space diagonalisation (order eigenvalues)
   LSUBROT=      F    optimize rotation matrix (better conditioning)
   TURBO    =      0    0=normal 1=particle mesh
   IRESTART =      0    0=no restart 2=restart with 2 vectors
   NREBOOT  =      0    no. of reboots
   NMIN     =      0    reboot dimension
   EREF     =   0.00    reference energy to select bands
   IMIX   =      4    mixing-type and parameters
     AMIX     =   0.40;   BMIX     =  1.00
     AMIX_MAG =   1.60;   BMIX_MAG =  1.00
     AMIN     =   0.10
     WC   =   100.;   INIMIX=   1;  MIXPRE=   1;  MAXMIX= -45

 Intra band minimization:
   WEIMIN = 0.0000     energy-eigenvalue tresh-hold
   EBREAK =  0.31E-07  absolut break condition
   DEPER  =   0.30     relativ break condition  

   TIME   =   0.40     timestep for ELM

  volume/ion in A,a.u.               =      24.02       162.12
  Fermi-wavevector in a.u.,A,eV,Ry     =   0.900634  1.701951 11.036246  0.811141
  Thomas-Fermi vector in A             =   2.023616
 
 Write flags
   LWAVE        =      F    write WAVECAR
   LDOWNSAMPLE  =      F    k-point downsampling of WAVECAR
   LCHARG       =      F    write CHGCAR
   LVTOT        =      F    write LOCPOT, total local potential
   LVHAR        =      F    write LOCPOT, Hartree potential only
   LELF         =      F    write electronic localiz. function (ELF)
   LORBIT       =      0    0 simple, 1 ext, 2 COOP (PROOUT), +10 PAW based schemes


 Dipole corrections
   LMONO  =      F    monopole corrections only (constant potential shift)
   LDIPOL =      F    correct potential (dipole corrections)
   IDIPOL =      0    1-x, 2-y, 3-z, 4-all directions 
   EPSILON=  1.0000000 bulk dielectric constant

 Exchange correlation treatment:
   GGA     =    --    GGA type
   LEXCH   =     7    internal setting for exchange type
   VOSKOWN=      0    Vosko Wilk Nusair interpolation
   LHFCALC =     F    Hartree Fock is set to
   LHFONE  =     F    Hartree Fock one center treatment
   AEXX    =    0.0000 exact exchange contribution

 Linear response parameters
   LEPSILON=     F    determine dielectric tensor
   LRPA    =     F    only Hartree local field effects (RPA)
   LNABLA  =     F    use nabla operator in PAW spheres
   LVEL    =     F    velocity operator in full k-point grid
   LINTERFAST=   F  fast interpolation
   KINTER  =     0    interpolate to denser k-point grid
   CSHIFT  =0.1000    complex shift for real part using Kramers Kronig
   OMEGAMAX=  -1.0    maximum frequency
   DEG_THRESHOLD= 0.2000000E-02 threshold for treating states as degnerate
   RTIME   =   -0.100 relaxation time in fs
  (WPLASMAI=    0.000 imaginary part of plasma frequency in eV, 0.658/RTIME)
   DFIELD  = 0.0000000 0.0000000 0.0000000 field for delta impulse in time
 
 Orbital magnetization related:
   ORBITALMAG=     F  switch on orbital magnetization
   LCHIMAG   =     F  perturbation theory with respect to B field
   DQ        =  0.001000  dq finite difference perturbation B field
   LLRAUG    =     F  two centre corrections for induced B field



--------------------------------------------------------------------------------------------------------


 Static calculation
 charge density and potential remain constant during run
 non-spin polarized calculation
 Variant of blocked Davidson
 Davidson routine will perform the subspace rotation
 perform sub-space diagonalisation
    after iterative eigenvector-optimisation
 no mixing
 using additional bands            4
 reciprocal scheme for non local part
 use partial core corrections
 calculate Harris-corrections to forces 
   (improved forces if not selfconsistent)
 use gradient corrections 
 WARNING: stress and forces are not correct
  (second derivative of E(xc) not defined)
 use of overlap-Matrix (Vanderbilt PP)
 Methfessel and Paxton  Order N= 1 SIGMA  =   0.20


--------------------------------------------------------------------------------------------------------


  energy-cutoff  :      173.84
  volume of cell :       48.05
      direct lattice vectors                 reciprocal lattice vectors
     0.000000000  2.885448129  2.885448129    -0.173283309  0.173283309  0.173283309
     2.885448129  0.000000000  2.885448129     0.173283309 -0.173283309  0.173283309
     2.885448129  2.885448129  0.000000000     0.173283309  0.173283309 -0.173283309

  length of vectors
     4.080639877  4.080639877  4.080639877     0.300135495  0.300135495  0.300135495


 
 k-points in units of 2pi/SCALE and weight: K-points along high symmetry lines for F
   0.49992235  0.99984469  0.00000000       0.004
   0.49992235  0.98964220  0.01020250       0.004
   0.49992235  0.97943970  0.02040499       0.004
   0.49992235  0.96923720  0.03060749       0.004
   0.49992235  0.95903471  0.04080999       0.004
   0.49992235  0.94883221  0.05101248       0.004
   0.49992235  0.93862971  0.06121498       0.004
   0.49992235  0.92842722  0.07141748       0.004
   0.49992235  0.91822472  0.08161997       0.004
   0.49992235  0.90802222  0.09182247       0.004
   0.49992235  0.89781972  0.10202497       0.004
   0.49992235  0.88761723  0.11222747       0.004
   0.49992235  0.87741473  0.12242996       0.004
   0.49992235  0.86721223  0.13263246       0.004
   0.49992235  0.85700974  0.14283496       0.004
   0.49992235  0.84680724  0.15303745       0.004
   0.49992235  0.83660474  0.16323995       0.004
   0.49992235  0.82640225  0.17344245       0.004
   0.49992235  0.81619975  0.18364494       0.004
   0.49992235  0.80599725  0.19384744       0.004
   0.49992235  0.79579476  0.20404994       0.004
   0.49992235  0.78559226  0.21425243       0.004
   0.49992235  0.77538976  0.22445493       0.004
   0.49992235  0.76518727  0.23465743       0.004
   0.49992235  0.75498477  0.24485992       0.004
   0.49992235  0.74478227  0.25506242       0.004
   0.49992235  0.73457977  0.26526492       0.004
   0.49992235  0.72437728  0.27546742       0.004
   0.49992235  0.71417478  0.28566991       0.004
   0.49992235  0.70397228  0.29587241       0.004
   0.49992235  0.69376979  0.30607491       0.004
   0.49992235  0.68356729  0.31627740       0.004
   0.49992235  0.67336479  0.32647990       0.004
   0.49992235  0.66316230  0.33668240       0.004
   0.49992235  0.65295980  0.34688489       0.004
   0.49992235  0.64275730  0.35708739       0.004
   0.49992235  0.63255481  0.36728989       0.004
   0.49992235  0.62235231  0.37749238       0.004
   0.49992235  0.61214981  0.38769488       0.004
   0.49992235  0.60194732  0.39789738       0.004
   0.49992235  0.59174482  0.40809987       0.004
   0.49992235  0.58154232  0.41830237       0.004
   0.49992235  0.57133982  0.42850487       0.004
   0.49992235  0.56113733  0.43870737       0.004
   0.49992235  0.55093483  0.44890986       0.004
   0.49992235  0.54073233  0.45911236       0.004
   0.49992235  0.53052984  0.46931486       0.004
   0.49992235  0.52032734  0.47951735       0.004
   0.49992235  0.51012484  0.48971985       0.004
   0.49992235  0.49992235  0.49992235       0.004
   0.49992235  0.49992235  0.49992235       0.004
   0.48971985  0.48971985  0.48971985       0.004
   0.47951735  0.47951735  0.47951735       0.004
   0.46931486  0.46931486  0.46931486       0.004
   0.45911236  0.45911236  0.45911236       0.004
   0.44890986  0.44890986  0.44890986       0.004
   0.43870737  0.43870737  0.43870737       0.004
   0.42850487  0.42850487  0.42850487       0.004
   0.41830237  0.41830237  0.41830237       0.004
   0.40809987  0.40809987  0.40809987       0.004
   0.39789738  0.39789738  0.39789738       0.004
   0.38769488  0.38769488  0.38769488       0.004
   0.37749238  0.37749238  0.37749238       0.004
   0.36728989  0.36728989  0.36728989       0.004
   0.35708739  0.35708739  0.35708739       0.004
   0.34688489  0.34688489  0.34688489       0.004
   0.33668240  0.33668240  0.33668240       0.004
   0.32647990  0.32647990  0.32647990       0.004
   0.31627740  0.31627740  0.31627740       0.004
   0.30607491  0.30607491  0.30607491       0.004
   0.29587241  0.29587241  0.29587241       0.004
   0.28566991  0.28566991  0.28566991       0.004
   0.27546742  0.27546742  0.27546742       0.004
   0.26526492  0.26526492  0.26526492       0.004
   0.25506242  0.25506242  0.25506242       0.004
   0.24485992  0.24485992  0.24485992       0.004
   0.23465743  0.23465743  0.23465743       0.004
   0.22445493  0.22445493  0.22445493       0.004
   0.21425243  0.21425243  0.21425243       0.004
   0.20404994  0.20404994  0.20404994       0.004
   0.19384744  0.19384744  0.19384744       0.004
   0.18364494  0.18364494  0.18364494       0.004
   0.17344245  0.17344245  0.17344245       0.004
   0.16323995  0.16323995  0.16323995       0.004
   0.15303745  0.15303745  0.15303745       0.004
   0.14283496  0.14283496  0.14283496       0.004
   0.13263246  0.13263246  0.13263246       0.004
   0.12242996  0.12242996  0.12242996       0.004
   0.11222747  0.11222747  0.11222747       0.004
   0.10202497  0.10202497  0.10202497       0.004
   0.09182247  0.09182247  0.09182247       0.004
   0.08161997  0.08161997  0.08161997       0.004
   0.07141748  0.07141748  0.07141748       0.004
   0.06121498  0.06121498  0.06121498       0.004
   0.05101248  0.05101248  0.05101248       0.004
   0.04080999  0.04080999  0.04080999       0.004
   0.03060749  0.03060749  0.03060749       0.004
   0.02040499  0.02040499  0.02040499       0.004
   0.01020250  0.01020250  0.01020250       0.004
   0.00000000  0.00000000  0.00000000       0.004
   0.00000000  0.00000000  0.00000000       0.004
   0.00000000  0.02040499  0.00000000       0.004
   0.00000000  0.04080999  0.00000000       0.004
   0.00000000  0.06121498  0.00000000       0.004
   0.00000000  0.08161997  0.00000000       0.004
   0.00000000  0.10202497  0.00000000       0.004
   0.00000000  0.12242996  0.00000000       0.004
   0.00000000  0.14283496  0.00000000       0.004
   0.00000000  0.16323995  0.00000000       0.004
   0.00000000  0.18364494  0.00000000       0.004
   0.00000000  0.20404994  0.00000000       0.004
   0.00000000  0.22445493  0.00000000       0.004
   0.00000000  0.24485992  0.00000000       0.004
   0.00000000  0.26526492  0.00000000       0.004
   0.00000000  0.28566991  0.00000000       0.004
   0.00000000  0.30607491  0.00000000       0.004
   0.00000000  0.32647990  0.00000000       0.004
   0.00000000  0.34688489  0.00000000       0.004
   0.00000000  0.36728989  0.00000000       0.004
   0.00000000  0.38769488  0.00000000       0.004
   0.00000000  0.40809987  0.00000000       0.004
   0.00000000  0.42850487  0.00000000       0.004
   0.00000000  0.44890986  0.00000000       0.004
   0.00000000  0.46931486  0.00000000       0.004
   0.00000000  0.48971985  0.00000000       0.004
   0.00000000  0.51012484  0.00000000       0.004
   0.00000000  0.53052984  0.00000000       0.004
   0.00000000  0.55093483  0.00000000       0.004
   0.00000000  0.57133982  0.00000000       0.004
   0.00000000  0.59174482  0.00000000       0.004
   0.00000000  0.61214981  0.00000000       0.004
   0.00000000  0.63255481  0.00000000       0.004
   0.00000000  0.65295980  0.00000000       0.004
   0.00000000  0.67336479  0.00000000       0.004
   0.00000000  0.69376979  0.00000000       0.004
   0.00000000  0.71417478  0.00000000       0.004
   0.00000000  0.73457977  0.00000000       0.004
   0.00000000  0.75498477  0.00000000       0.004
   0.00000000  0.77538976  0.00000000       0.004
   0.00000000  0.79579476  0.00000000       0.004
   0.00000000  0.81619975  0.00000000       0.004
   0.00000000  0.83660474  0.00000000       0.004
   0.00000000  0.85700974  0.00000000       0.004
   0.00000000  0.87741473  0.00000000       0.004
   0.00000000  0.89781972  0.00000000       0.004
   0.00000000  0.91822472  0.00000000       0.004
   0.00000000  0.93862971  0.00000000       0.004
   0.00000000  0.95903471  0.00000000       0.004
   0.00000000  0.97943970  0.00000000       0.004
   0.00000000  0.99984469  0.00000000       0.004
   0.00000000  0.99984469  0.00000000       0.004
   0.01020250  0.99984469  0.00000000       0.004
   0.02040499  0.99984469  0.00000000       0.004
   0.03060749  0.99984469  0.00000000       0.004
   0.04080999  0.99984469  0.00000000       0.004
   0.05101248  0.99984469  0.00000000       0.004
   0.06121498  0.99984469  0.00000000       0.004
   0.07141748  0.99984469  0.00000000       0.004
   0.08161997  0.99984469 -0.00000000       0.004
   0.09182247  0.99984469  0.00000000       0.004
   0.10202497  0.99984469  0.00000000       0.004
   0.11222747  0.99984469 -0.00000000       0.004
   0.12242996  0.99984469  0.00000000       0.004
   0.13263246  0.99984469  0.00000000       0.004
   0.14283496  0.99984469  0.00000000       0.004
   0.15303745  0.99984469 -0.00000000       0.004
   0.16323995  0.99984469  0.00000000       0.004
   0.17344245  0.99984469 -0.00000000       0.004
   0.18364494  0.99984469  0.00000000       0.004
   0.19384744  0.99984469  0.00000000       0.004
   0.20404994  0.99984469  0.00000000       0.004
   0.21425243  0.99984469  0.00000000       0.004
   0.22445493  0.99984469  0.00000000       0.004
   0.23465743  0.99984469  0.00000000       0.004
   0.24485992  0.99984469 -0.00000000       0.004
   0.25506242  0.99984469  0.00000000       0.004
   0.26526492  0.99984469  0.00000000       0.004
   0.27546742  0.99984469  0.00000000       0.004
   0.28566991  0.99984469  0.00000000       0.004
   0.29587241  0.99984469  0.00000000       0.004
   0.30607491  0.99984469  0.00000000       0.004
   0.31627740  0.99984469  0.00000000       0.004
   0.32647990  0.99984469  0.00000000       0.004
   0.33668240  0.99984469 -0.00000000       0.004
   0.34688489  0.99984469  0.00000000       0.004
   0.35708739  0.99984469 -0.00000000       0.004
   0.36728989  0.99984469  0.00000000       0.004
   0.37749238  0.99984469  0.00000000       0.004
   0.38769488  0.99984469  0.00000000       0.004
   0.39789738  0.99984469  0.00000000       0.004
   0.40809987  0.99984469  0.00000000       0.004
   0.41830237  0.99984469  0.00000000       0.004
   0.42850487  0.99984469  0.00000000       0.004
   0.43870737  0.99984469  0.00000000       0.004
   0.44890986  0.99984469 -0.00000000       0.004
   0.45911236  0.99984469  0.00000000       0.004
   0.46931486  0.99984469  0.00000000       0.004
   0.47951735  0.99984469  0.00000000       0.004
   0.48971985  0.99984469  0.00000000       0.004
   0.49992235  0.99984469  0.00000000       0.004
   0.49992235  0.99984469  0.00000000       0.004
   0.48971985  0.99984469  0.00000000       0.004
   0.47951735  0.99984469  0.00000000       0.004
   0.46931486  0.99984469  0.00000000       0.004
   0.45911236  0.99984469  0.00000000       0.004
   0.44890986  0.99984469 -0.00000000       0.004
   0.43870737  0.99984469  0.00000000       0.004
   0.42850487  0.99984469  0.00000000       0.004
   0.41830237  0.99984469  0.00000000       0.004
   0.40809987  0.99984469  0.00000000       0.004
   0.39789738  0.99984469 -0.00000000       0.004
   0.38769488  0.99984469  0.00000000       0.004
   0.37749238  0.99984469 -0.00000000       0.004
   0.36728989  0.99984469  0.00000000       0.004
   0.35708739  0.99984469  0.00000000       0.004
   0.34688489  0.99984469  0.00000000       0.004
   0.33668240  0.99984469  0.00000000       0.004
   0.32647990  0.99984469  0.00000000       0.004
   0.31627740  0.99984469  0.00000000       0.004
   0.30607491  0.99984469 -0.00000000       0.004
   0.29587241  0.99984469  0.00000000       0.004
   0.28566991  0.99984469 -0.00000000       0.004
   0.27546742  0.99984469  0.00000000       0.004
   0.26526492  0.99984469  0.00000000       0.004
   0.25506242  0.99984469  0.00000000       0.004
   0.24485992  0.99984469 -0.00000000       0.004
   0.23465743  0.99984469  0.00000000       0.004
   0.22445493  0.99984469  0.00000000       0.004
   0.21425243  0.99984469 -0.00000000       0.004
   0.20404994  0.99984469  0.00000000       0.004
   0.19384744  0.99984469  0.00000000       0.004
   0.18364494  0.99984469  0.00000000       0.004
   0.17344245  0.99984469 -0.00000000       0.004
   0.16323995  0.99984469  0.00000000       0.004
   0.15303745  0.99984469  0.00000000       0.004
   0.14283496  0.99984469  0.00000000       0.004
   0.13263246  0.99984469  0.00000000       0.004
   0.12242996  0.99984469 -0.00000000       0.004
   0.11222747  0.99984469 -0.00000000       0.004
   0.10202497  0.99984469  0.00000000       0.004
   0.09182247  0.99984469  0.00000000       0.004
   0.08161997  0.99984469 -0.00000000       0.004
   0.07141748  0.99984469  0.00000000       0.004
   0.06121498  0.99984469  0.00000000       0.004
   0.05101248  0.99984469  0.00000000       0.004
   0.04080999  0.99984469  0.00000000       0.004
   0.03060749  0.99984469 -0.00000000       0.004
   0.02040499  0.99984469  0.00000000       0.004
   0.01020250  0.99984469  0.00000000       0.004
   0.00000000  0.99984469  0.00000000       0.004
 
 k-points in reciprocal lattice and weights: K-points along high symmetry lines for F
   0.50000000  0.25000000  0.75000000       0.004
   0.50000000  0.25510204  0.74489796       0.004
   0.50000000  0.26020408  0.73979592       0.004
   0.50000000  0.26530612  0.73469388       0.004
   0.50000000  0.27040816  0.72959184       0.004
   0.50000000  0.27551020  0.72448980       0.004
   0.50000000  0.28061224  0.71938776       0.004
   0.50000000  0.28571429  0.71428571       0.004
   0.50000000  0.29081633  0.70918367       0.004
   0.50000000  0.29591837  0.70408163       0.004
   0.50000000  0.30102041  0.69897959       0.004
   0.50000000  0.30612245  0.69387755       0.004
   0.50000000  0.31122449  0.68877551       0.004
   0.50000000  0.31632653  0.68367347       0.004
   0.50000000  0.32142857  0.67857143       0.004
   0.50000000  0.32653061  0.67346939       0.004
   0.50000000  0.33163265  0.66836735       0.004
   0.50000000  0.33673469  0.66326531       0.004
   0.50000000  0.34183673  0.65816327       0.004
   0.50000000  0.34693878  0.65306122       0.004
   0.50000000  0.35204082  0.64795918       0.004
   0.50000000  0.35714286  0.64285714       0.004
   0.50000000  0.36224490  0.63775510       0.004
   0.50000000  0.36734694  0.63265306       0.004
   0.50000000  0.37244898  0.62755102       0.004
   0.50000000  0.37755102  0.62244898       0.004
   0.50000000  0.38265306  0.61734694       0.004
   0.50000000  0.38775510  0.61224490       0.004
   0.50000000  0.39285714  0.60714286       0.004
   0.50000000  0.39795918  0.60204082       0.004
   0.50000000  0.40306122  0.59693878       0.004
   0.50000000  0.40816327  0.59183673       0.004
   0.50000000  0.41326531  0.58673469       0.004
   0.50000000  0.41836735  0.58163265       0.004
   0.50000000  0.42346939  0.57653061       0.004
   0.50000000  0.42857143  0.57142857       0.004
   0.50000000  0.43367347  0.56632653       0.004
   0.50000000  0.43877551  0.56122449       0.004
   0.50000000  0.44387755  0.55612245       0.004
   0.50000000  0.44897959  0.55102041       0.004
   0.50000000  0.45408163  0.54591837       0.004
   0.50000000  0.45918367  0.54081633       0.004
   0.50000000  0.46428571  0.53571429       0.004
   0.50000000  0.46938776  0.53061224       0.004
   0.50000000  0.47448980  0.52551020       0.004
   0.50000000  0.47959184  0.52040816       0.004
   0.50000000  0.48469388  0.51530612       0.004
   0.50000000  0.48979592  0.51020408       0.004
   0.50000000  0.49489796  0.50510204       0.004
   0.50000000  0.50000000  0.50000000       0.004
   0.50000000  0.50000000  0.50000000       0.004
   0.48979592  0.48979592  0.48979592       0.004
   0.47959184  0.47959184  0.47959184       0.004
   0.46938776  0.46938776  0.46938776       0.004
   0.45918367  0.45918367  0.45918367       0.004
   0.44897959  0.44897959  0.44897959       0.004
   0.43877551  0.43877551  0.43877551       0.004
   0.42857143  0.42857143  0.42857143       0.004
   0.41836735  0.41836735  0.41836735       0.004
   0.40816327  0.40816327  0.40816327       0.004
   0.39795918  0.39795918  0.39795918       0.004
   0.38775510  0.38775510  0.38775510       0.004
   0.37755102  0.37755102  0.37755102       0.004
   0.36734694  0.36734694  0.36734694       0.004
   0.35714286  0.35714286  0.35714286       0.004
   0.34693878  0.34693878  0.34693878       0.004
   0.33673469  0.33673469  0.33673469       0.004
   0.32653061  0.32653061  0.32653061       0.004
   0.31632653  0.31632653  0.31632653       0.004
   0.30612245  0.30612245  0.30612245       0.004
   0.29591837  0.29591837  0.29591837       0.004
   0.28571429  0.28571429  0.28571429       0.004
   0.27551020  0.27551020  0.27551020       0.004
   0.26530612  0.26530612  0.26530612       0.004
   0.25510204  0.25510204  0.25510204       0.004
   0.24489796  0.24489796  0.24489796       0.004
   0.23469388  0.23469388  0.23469388       0.004
   0.22448980  0.22448980  0.22448980       0.004
   0.21428571  0.21428571  0.21428571       0.004
   0.20408163  0.20408163  0.20408163       0.004
   0.19387755  0.19387755  0.19387755       0.004
   0.18367347  0.18367347  0.18367347       0.004
   0.17346939  0.17346939  0.17346939       0.004
   0.16326531  0.16326531  0.16326531       0.004
   0.15306122  0.15306122  0.15306122       0.004
   0.14285714  0.14285714  0.14285714       0.004
   0.13265306  0.13265306  0.13265306       0.004
   0.12244898  0.12244898  0.12244898       0.004
   0.11224490  0.11224490  0.11224490       0.004
   0.10204082  0.10204082  0.10204082       0.004
   0.09183673  0.09183673  0.09183673       0.004
   0.08163265  0.08163265  0.08163265       0.004
   0.07142857  0.07142857  0.07142857       0.004
   0.06122449  0.06122449  0.06122449       0.004
   0.05102041  0.05102041  0.05102041       0.004
   0.04081633  0.04081633  0.04081633       0.004
   0.03061224  0.03061224  0.03061224       0.004
   0.02040816  0.02040816  0.02040816       0.004
   0.01020408  0.01020408  0.01020408       0.004
   0.00000000  0.00000000  0.00000000       0.004
   0.00000000  0.00000000  0.00000000       0.004
   0.01020408  0.00000000  0.01020408       0.004
   0.02040816  0.00000000  0.02040816       0.004
   0.03061224  0.00000000  0.03061224       0.004
   0.04081633  0.00000000  0.04081633       0.004
   0.05102041  0.00000000  0.05102041       0.004
   0.06122449  0.00000000  0.06122449       0.004
   0.07142857  0.00000000  0.07142857       0.004
   0.08163265  0.00000000  0.08163265       0.004
   0.09183673  0.00000000  0.09183673       0.004
   0.10204082  0.00000000  0.10204082       0.004
   0.11224490  0.00000000  0.11224490       0.004
   0.12244898  0.00000000  0.12244898       0.004
   0.13265306  0.00000000  0.13265306       0.004
   0.14285714  0.00000000  0.14285714       0.004
   0.15306122  0.00000000  0.15306122       0.004
   0.16326531  0.00000000  0.16326531       0.004
   0.17346939  0.00000000  0.17346939       0.004
   0.18367347  0.00000000  0.18367347       0.004
   0.19387755  0.00000000  0.19387755       0.004
   0.20408163  0.00000000  0.20408163       0.004
   0.21428571  0.00000000  0.21428571       0.004
   0.22448980  0.00000000  0.22448980       0.004
   0.23469388  0.00000000  0.23469388       0.004
   0.24489796  0.00000000  0.24489796       0.004
   0.25510204  0.00000000  0.25510204       0.004
   0.26530612  0.00000000  0.26530612       0.004
   0.27551020  0.00000000  0.27551020       0.004
   0.28571429  0.00000000  0.28571429       0.004
   0.29591837  0.00000000  0.29591837       0.004
   0.30612245  0.00000000  0.30612245       0.004
   0.31632653  0.00000000  0.31632653       0.004
   0.32653061  0.00000000  0.32653061       0.004
   0.33673469  0.00000000  0.33673469       0.004
   0.34693878  0.00000000  0.34693878       0.004
   0.35714286  0.00000000  0.35714286       0.004
   0.36734694  0.00000000  0.36734694       0.004
   0.37755102  0.00000000  0.37755102       0.004
   0.38775510  0.00000000  0.38775510       0.004
   0.39795918  0.00000000  0.39795918       0.004
   0.40816327  0.00000000  0.40816327       0.004
   0.41836735  0.00000000  0.41836735       0.004
   0.42857143  0.00000000  0.42857143       0.004
   0.43877551  0.00000000  0.43877551       0.004
   0.44897959  0.00000000  0.44897959       0.004
   0.45918367  0.00000000  0.45918367       0.004
   0.46938776  0.00000000  0.46938776       0.004
   0.47959184  0.00000000  0.47959184       0.004
   0.48979592  0.00000000  0.48979592       0.004
   0.50000000  0.00000000  0.50000000       0.004
   0.50000000  0.00000000  0.50000000       0.004
   0.50000000  0.00510204  0.50510204       0.004
   0.50000000  0.01020408  0.51020408       0.004
   0.50000000  0.01530612  0.51530612       0.004
   0.50000000  0.02040816  0.52040816       0.004
   0.50000000  0.02551020  0.52551020       0.004
   0.50000000  0.03061224  0.53061224       0.004
   0.50000000  0.03571429  0.53571429       0.004
   0.50000000  0.04081633  0.54081633       0.004
   0.50000000  0.04591837  0.54591837       0.004
   0.50000000  0.05102041  0.55102041       0.004
   0.50000000  0.05612245  0.55612245       0.004
   0.50000000  0.06122449  0.56122449       0.004
   0.50000000  0.06632653  0.56632653       0.004
   0.50000000  0.07142857  0.57142857       0.004
   0.50000000  0.07653061  0.57653061       0.004
   0.50000000  0.08163265  0.58163265       0.004
   0.50000000  0.08673469  0.58673469       0.004
   0.50000000  0.09183673  0.59183673       0.004
   0.50000000  0.09693878  0.59693878       0.004
   0.50000000  0.10204082  0.60204082       0.004
   0.50000000  0.10714286  0.60714286       0.004
   0.50000000  0.11224490  0.61224490       0.004
   0.50000000  0.11734694  0.61734694       0.004
   0.50000000  0.12244898  0.62244898       0.004
   0.50000000  0.12755102  0.62755102       0.004
   0.50000000  0.13265306  0.63265306       0.004
   0.50000000  0.13775510  0.63775510       0.004
   0.50000000  0.14285714  0.64285714       0.004
   0.50000000  0.14795918  0.64795918       0.004
   0.50000000  0.15306122  0.65306122       0.004
   0.50000000  0.15816327  0.65816327       0.004
   0.50000000  0.16326531  0.66326531       0.004
   0.50000000  0.16836735  0.66836735       0.004
   0.50000000  0.17346939  0.67346939       0.004
   0.50000000  0.17857143  0.67857143       0.004
   0.50000000  0.18367347  0.68367347       0.004
   0.50000000  0.18877551  0.68877551       0.004
   0.50000000  0.19387755  0.69387755       0.004
   0.50000000  0.19897959  0.69897959       0.004
   0.50000000  0.20408163  0.70408163       0.004
   0.50000000  0.20918367  0.70918367       0.004
   0.50000000  0.21428571  0.71428571       0.004
   0.50000000  0.21938776  0.71938776       0.004
   0.50000000  0.22448980  0.72448980       0.004
   0.50000000  0.22959184  0.72959184       0.004
   0.50000000  0.23469388  0.73469388       0.004
   0.50000000  0.23979592  0.73979592       0.004
   0.50000000  0.24489796  0.74489796       0.004
   0.50000000  0.25000000  0.75000000       0.004
   0.50000000  0.25000000  0.75000000       0.004
   0.50000000  0.24489796  0.74489796       0.004
   0.50000000  0.23979592  0.73979592       0.004
   0.50000000  0.23469388  0.73469388       0.004
   0.50000000  0.22959184  0.72959184       0.004
   0.50000000  0.22448980  0.72448980       0.004
   0.50000000  0.21938776  0.71938776       0.004
   0.50000000  0.21428571  0.71428571       0.004
   0.50000000  0.20918367  0.70918367       0.004
   0.50000000  0.20408163  0.70408163       0.004
   0.50000000  0.19897959  0.69897959       0.004
   0.50000000  0.19387755  0.69387755       0.004
   0.50000000  0.18877551  0.68877551       0.004
   0.50000000  0.18367347  0.68367347       0.004
   0.50000000  0.17857143  0.67857143       0.004
   0.50000000  0.17346939  0.67346939       0.004
   0.50000000  0.16836735  0.66836735       0.004
   0.50000000  0.16326531  0.66326531       0.004
   0.50000000  0.15816327  0.65816327       0.004
   0.50000000  0.15306122  0.65306122       0.004
   0.50000000  0.14795918  0.64795918       0.004
   0.50000000  0.14285714  0.64285714       0.004
   0.50000000  0.13775510  0.63775510       0.004
   0.50000000  0.13265306  0.63265306       0.004
   0.50000000  0.12755102  0.62755102       0.004
   0.50000000  0.12244898  0.62244898       0.004
   0.50000000  0.11734694  0.61734694       0.004
   0.50000000  0.11224490  0.61224490       0.004
   0.50000000  0.10714286  0.60714286       0.004
   0.50000000  0.10204082  0.60204082       0.004
   0.50000000  0.09693878  0.59693878       0.004
   0.50000000  0.09183673  0.59183673       0.004
   0.50000000  0.08673469  0.58673469       0.004
   0.50000000  0.08163265  0.58163265       0.004
   0.50000000  0.07653061  0.57653061       0.004
   0.50000000  0.07142857  0.57142857       0.004
   0.50000000  0.06632653  0.56632653       0.004
   0.50000000  0.06122449  0.56122449       0.004
   0.50000000  0.05612245  0.55612245       0.004
   0.50000000  0.05102041  0.55102041       0.004
   0.50000000  0.04591837  0.54591837       0.004
   0.50000000  0.04081633  0.54081633       0.004
   0.50000000  0.03571429  0.53571429       0.004
   0.50000000  0.03061224  0.53061224       0.004
   0.50000000  0.02551020  0.52551020       0.004
   0.50000000  0.02040816  0.52040816       0.004
   0.50000000  0.01530612  0.51530612       0.004
   0.50000000  0.01020408  0.51020408       0.004
   0.50000000  0.00510204  0.50510204       0.004
   0.50000000  0.00000000  0.50000000       0.004
 
 position of ions in fractional coordinates (direct lattice) 
   0.00000000  0.00000000  0.00000000
   0.25000000  0.25000000  0.25000000
 
 position of ions in cartesian coordinates  (Angst):
   0.00000000  0.00000000  0.00000000
   1.44272406  1.44272406  1.44272406
 


--------------------------------------------------------------------------------------------------------


 k-point  1 :   0.5000 0.2500 0.7500  plane waves:     252
 k-point  2 :   0.5000 0.2551 0.7449  plane waves:     252
 k-point  3 :   0.5000 0.2602 0.7398  plane waves:     252
 k-point  4 :   0.5000 0.2653 0.7347  plane waves:     252
 k-point  5 :   0.5000 0.2704 0.7296  plane waves:     252
 k-point  6 :   0.5000 0.2755 0.7245  plane waves:     252
 k-point  7 :   0.5000 0.2806 0.7194  plane waves:     254
 k-point  8 :   0.5000 0.2857 0.7143  plane waves:     254
 k-point  9 :   0.5000 0.2908 0.7092  plane waves:     256
 k-point 10 :   0.5000 0.2959 0.7041  plane waves:     252
 k-point 11 :   0.5000 0.3010 0.6990  plane waves:     252
 k-point 12 :   0.5000 0.3061 0.6939  plane waves:     252
 k-point 13 :   0.5000 0.3112 0.6888  plane waves:     246
 k-point 14 :   0.5000 0.3163 0.6837  plane waves:     248
 k-point 15 :   0.5000 0.3214 0.6786  plane waves:     248
 k-point 16 :   0.5000 0.3265 0.6735  plane waves:     248
 k-point 17 :   0.5000 0.3316 0.6684  plane waves:     250
 k-point 18 :   0.5000 0.3367 0.6633  plane waves:     250
 k-point 19 :   0.5000 0.3418 0.6582  plane waves:     250
 k-point 20 :   0.5000 0.3469 0.6531  plane waves:     250
 k-point 21 :   0.5000 0.3520 0.6480  plane waves:     250
 k-point 22 :   0.5000 0.3571 0.6429  plane waves:     250
 k-point 23 :   0.5000 0.3622 0.6378  plane waves:     248
 k-point 24 :   0.5000 0.3673 0.6327  plane waves:     248
 k-point 25 :   0.5000 0.3724 0.6276  plane waves:     248
 k-point 26 :   0.5000 0.3776 0.6224  plane waves:     248
 k-point 27 :   0.5000 0.3827 0.6173  plane waves:     248
 k-point 28 :   0.5000 0.3878 0.6122  plane waves:     250
 k-point 29 :   0.5000 0.3929 0.6071  plane waves:     250
 k-point 30 :   0.5000 0.3980 0.6020  plane waves:     250
 k-point 31 :   0.5000 0.4031 0.5969  plane waves:     250
 k-point 32 :   0.5000 0.4082 0.5918  plane waves:     250
 k-point 33 :   0.5000 0.4133 0.5867  plane waves:     250
 k-point 34 :   0.5000 0.4184 0.5816  plane waves:     250
 k-point 35 :   0.5000 0.4235 0.5765  plane waves:     250
 k-point 36 :   0.5000 0.4286 0.5714  plane waves:     250
 k-point 37 :   0.5000 0.4337 0.5663  plane waves:     252
 k-point 38 :   0.5000 0.4388 0.5612  plane waves:     252
 k-point 39 :   0.5000 0.4439 0.5561  plane waves:     252
 k-point 40 :   0.5000 0.4490 0.5510  plane waves:     254
 k-point 41 :   0.5000 0.4541 0.5459  plane waves:     254
 k-point 42 :   0.5000 0.4592 0.5408  plane waves:     254
 k-point 43 :   0.5000 0.4643 0.5357  plane waves:     254
 k-point 44 :   0.5000 0.4694 0.5306  plane waves:     252
 k-point 45 :   0.5000 0.4745 0.5255  plane waves:     252
 k-point 46 :   0.5000 0.4796 0.5204  plane waves:     252
 k-point 47 :   0.5000 0.4847 0.5153  plane waves:     248
 k-point 48 :   0.5000 0.4898 0.5102  plane waves:     246
 k-point 49 :   0.5000 0.4949 0.5051  plane waves:     242
 k-point 50 :   0.5000 0.5000 0.5000  plane waves:     242
 k-point 51 :   0.5000 0.5000 0.5000  plane waves:     242
 k-point 52 :   0.4898 0.4898 0.4898  plane waves:     242
 k-point 53 :   0.4796 0.4796 0.4796  plane waves:     242
 k-point 54 :   0.4694 0.4694 0.4694  plane waves:     248
 k-point 55 :   0.4592 0.4592 0.4592  plane waves:     254
 k-point 56 :   0.4490 0.4490 0.4490  plane waves:     254
 k-point 57 :   0.4388 0.4388 0.4388  plane waves:     254
 k-point 58 :   0.4286 0.4286 0.4286  plane waves:     254
 k-point 59 :   0.4184 0.4184 0.4184  plane waves:     254
 k-point 60 :   0.4082 0.4082 0.4082  plane waves:     253
 k-point 61 :   0.3980 0.3980 0.3980  plane waves:     253
 k-point 62 :   0.3878 0.3878 0.3878  plane waves:     253
 k-point 63 :   0.3776 0.3776 0.3776  plane waves:     256
 k-point 64 :   0.3673 0.3673 0.3673  plane waves:     256
 k-point 65 :   0.3571 0.3571 0.3571  plane waves:     256
 k-point 66 :   0.3469 0.3469 0.3469  plane waves:     256
 k-point 67 :   0.3367 0.3367 0.3367  plane waves:     256
 k-point 68 :   0.3265 0.3265 0.3265  plane waves:     256
 k-point 69 :   0.3163 0.3163 0.3163  plane waves:     256
 k-point 70 :   0.3061 0.3061 0.3061  plane waves:     256
 k-point 71 :   0.2959 0.2959 0.2959  plane waves:     256
 k-point 72 :   0.2857 0.2857 0.2857  plane waves:     253
 k-point 73 :   0.2755 0.2755 0.2755  plane waves:     253
 k-point 74 :   0.2653 0.2653 0.2653  plane waves:     253
 k-point 75 :   0.2551 0.2551 0.2551  plane waves:     253
 k-point 76 :   0.2449 0.2449 0.2449  plane waves:     253
 k-point 77 :   0.2347 0.2347 0.2347  plane waves:     259
 k-point 78 :   0.2245 0.2245 0.2245  plane waves:     259
 k-point 79 :   0.2143 0.2143 0.2143  plane waves:     259
 k-point 80 :   0.2041 0.2041 0.2041  plane waves:     250
 k-point 81 :   0.1939 0.1939 0.1939  plane waves:     256
 k-point 82 :   0.1837 0.1837 0.1837  plane waves:     262
 k-point 83 :   0.1735 0.1735 0.1735  plane waves:     262
 k-point 84 :   0.1633 0.1633 0.1633  plane waves:     262
 k-point 85 :   0.1531 0.1531 0.1531  plane waves:     262
 k-point 86 :   0.1429 0.1429 0.1429  plane waves:     262
 k-point 87 :   0.1327 0.1327 0.1327  plane waves:     262
 k-point 88 :   0.1224 0.1224 0.1224  plane waves:     262
 k-point 89 :   0.1122 0.1122 0.1122  plane waves:     265
 k-point 90 :   0.1020 0.1020 0.1020  plane waves:     265
 k-point 91 :   0.0918 0.0918 0.0918  plane waves:     259
 k-point 92 :   0.0816 0.0816 0.0816  plane waves:     259
 k-point 93 :   0.0714 0.0714 0.0714  plane waves:     259
 k-point 94 :   0.0612 0.0612 0.0612  plane waves:     259
 k-point 95 :   0.0510 0.0510 0.0510  plane waves:     259
 k-point 96 :   0.0408 0.0408 0.0408  plane waves:     259
 k-point 97 :   0.0306 0.0306 0.0306  plane waves:     259
 k-point 98 :   0.0204 0.0204 0.0204  plane waves:     259
 k-point 99 :   0.0102 0.0102 0.0102  plane waves:     259
 k-point ** :   0.0000 0.0000 0.0000  plane waves:     259
 k-point ** :   0.0000 0.0000 0.0000  plane waves:     259
 k-point ** :   0.0102 0.0000 0.0102  plane waves:     259
 k-point ** :   0.0204 0.0000 0.0204  plane waves:     259
 k-point ** :   0.0306 0.0000 0.0306  plane waves:     259
 k-point ** :   0.0408 0.0000 0.0408  plane waves:     259
 k-point ** :   0.0510 0.0000 0.0510  plane waves:     259
 k-point ** :   0.0612 0.0000 0.0612  plane waves:     259
 k-point ** :   0.0714 0.0000 0.0714  plane waves:     263
 k-point ** :   0.0816 0.0000 0.0816  plane waves:     263
 k-point ** :   0.0918 0.0000 0.0918  plane waves:     263
 k-point ** :   0.1020 0.0000 0.1020  plane waves:     263
 k-point ** :   0.1122 0.0000 0.1122  plane waves:     262
 k-point ** :   0.1224 0.0000 0.1224  plane waves:     262
 k-point ** :   0.1327 0.0000 0.1327  plane waves:     262
 k-point ** :   0.1429 0.0000 0.1429  plane waves:     262
 k-point ** :   0.1531 0.0000 0.1531  plane waves:     254
 k-point ** :   0.1633 0.0000 0.1633  plane waves:     254
 k-point ** :   0.1735 0.0000 0.1735  plane waves:     246
 k-point ** :   0.1837 0.0000 0.1837  plane waves:     246
 k-point ** :   0.1939 0.0000 0.1939  plane waves:     246
 k-point ** :   0.2041 0.0000 0.2041  plane waves:     246
 k-point ** :   0.2143 0.0000 0.2143  plane waves:     250
 k-point ** :   0.2245 0.0000 0.2245  plane waves:     250
 k-point ** :   0.2347 0.0000 0.2347  plane waves:     250
 k-point ** :   0.2449 0.0000 0.2449  plane waves:     258
 k-point ** :   0.2551 0.0000 0.2551  plane waves:     258
 k-point ** :   0.2653 0.0000 0.2653  plane waves:     258
 k-point ** :   0.2755 0.0000 0.2755  plane waves:     246
 k-point ** :   0.2857 0.0000 0.2857  plane waves:     246
 k-point ** :   0.2959 0.0000 0.2959  plane waves:     246
 k-point ** :   0.3061 0.0000 0.3061  plane waves:     246
 k-point ** :   0.3163 0.0000 0.3163  plane waves:     246
 k-point ** :   0.3265 0.0000 0.3265  plane waves:     246
 k-point ** :   0.3367 0.0000 0.3367  plane waves:     246
 k-point ** :   0.3469 0.0000 0.3469  plane waves:     246
 k-point ** :   0.3571 0.0000 0.3571  plane waves:     246
 k-point ** :   0.3673 0.0000 0.3673  plane waves:     246
 k-point ** :   0.3776 0.0000 0.3776  plane waves:     242
 k-point ** :   0.3878 0.0000 0.3878  plane waves:     242
 k-point ** :   0.3980 0.0000 0.3980  plane waves:     242
 k-point ** :   0.4082 0.0000 0.4082  plane waves:     242
 k-point ** :   0.4184 0.0000 0.4184  plane waves:     242
 k-point ** :   0.4286 0.0000 0.4286  plane waves:     242
 k-point ** :   0.4388 0.0000 0.4388  plane waves:     242
 k-point ** :   0.4490 0.0000 0.4490  plane waves:     250
 k-point ** :   0.4592 0.0000 0.4592  plane waves:     250
 k-point ** :   0.4694 0.0000 0.4694  plane waves:     250
 k-point ** :   0.4796 0.0000 0.4796  plane waves:     250
 k-point ** :   0.4898 0.0000 0.4898  plane waves:     254
 k-point ** :   0.5000 0.0000 0.5000  plane waves:     254
 k-point ** :   0.5000 0.0000 0.5000  plane waves:     254
 k-point ** :   0.5000 0.0051 0.5051  plane waves:     254
 k-point ** :   0.5000 0.0102 0.5102  plane waves:     254
 k-point ** :   0.5000 0.0153 0.5153  plane waves:     254
 k-point ** :   0.5000 0.0204 0.5204  plane waves:     254
 k-point ** :   0.5000 0.0255 0.5255  plane waves:     250
 k-point ** :   0.5000 0.0306 0.5306  plane waves:     250
 k-point ** :   0.5000 0.0357 0.5357  plane waves:     250
 k-point ** :   0.5000 0.0408 0.5408  plane waves:     246
 k-point ** :   0.5000 0.0459 0.5459  plane waves:     246
 k-point ** :   0.5000 0.0510 0.5510  plane waves:     246
 k-point ** :   0.5000 0.0561 0.5561  plane waves:     246
 k-point ** :   0.5000 0.0612 0.5612  plane waves:     246
 k-point ** :   0.5000 0.0663 0.5663  plane waves:     244
 k-point ** :   0.5000 0.0714 0.5714  plane waves:     244
 k-point ** :   0.5000 0.0765 0.5765  plane waves:     244
 k-point ** :   0.5000 0.0816 0.5816  plane waves:     244
 k-point ** :   0.5000 0.0867 0.5867  plane waves:     244
 k-point ** :   0.5000 0.0918 0.5918  plane waves:     244
 k-point ** :   0.5000 0.0969 0.5969  plane waves:     244
 k-point ** :   0.5000 0.1020 0.6020  plane waves:     244
 k-point ** :   0.5000 0.1071 0.6071  plane waves:     248
 k-point ** :   0.5000 0.1122 0.6122  plane waves:     244
 k-point ** :   0.5000 0.1173 0.6173  plane waves:     244
 k-point ** :   0.5000 0.1224 0.6224  plane waves:     244
 k-point ** :   0.5000 0.1276 0.6276  plane waves:     244
 k-point ** :   0.5000 0.1327 0.6327  plane waves:     244
 k-point ** :   0.5000 0.1378 0.6378  plane waves:     244
 k-point ** :   0.5000 0.1429 0.6429  plane waves:     244
 k-point ** :   0.5000 0.1480 0.6480  plane waves:     244
 k-point ** :   0.5000 0.1531 0.6531  plane waves:     244
 k-point ** :   0.5000 0.1582 0.6582  plane waves:     244
 k-point ** :   0.5000 0.1633 0.6633  plane waves:     244
 k-point ** :   0.5000 0.1684 0.6684  plane waves:     250
 k-point ** :   0.5000 0.1735 0.6735  plane waves:     250
 k-point ** :   0.5000 0.1786 0.6786  plane waves:     250
 k-point ** :   0.5000 0.1837 0.6837  plane waves:     254
 k-point ** :   0.5000 0.1888 0.6888  plane waves:     254
 k-point ** :   0.5000 0.1939 0.6939  plane waves:     254
 k-point ** :   0.5000 0.1990 0.6990  plane waves:     254
 k-point ** :   0.5000 0.2041 0.7041  plane waves:     254
 k-point ** :   0.5000 0.2092 0.7092  plane waves:     254
 k-point ** :   0.5000 0.2143 0.7143  plane waves:     254
 k-point ** :   0.5000 0.2194 0.7194  plane waves:     252
 k-point ** :   0.5000 0.2245 0.7245  plane waves:     252
 k-point ** :   0.5000 0.2296 0.7296  plane waves:     252
 k-point ** :   0.5000 0.2347 0.7347  plane waves:     252
 k-point ** :   0.5000 0.2398 0.7398  plane waves:     252
 k-point ** :   0.5000 0.2449 0.7449  plane waves:     252
 k-point ** :   0.5000 0.2500 0.7500  plane waves:     252
 k-point ** :   0.5000 0.2500 0.7500  plane waves:     252
 k-point ** :   0.5000 0.2449 0.7449  plane waves:     252
 k-point ** :   0.5000 0.2398 0.7398  plane waves:     252
 k-point ** :   0.5000 0.2347 0.7347  plane waves:     252
 k-point ** :   0.5000 0.2296 0.7296  plane waves:     252
 k-point ** :   0.5000 0.2245 0.7245  plane waves:     252
 k-point ** :   0.5000 0.2194 0.7194  plane waves:     252
 k-point ** :   0.5000 0.2143 0.7143  plane waves:     254
 k-point ** :   0.5000 0.2092 0.7092  plane waves:     254
 k-point ** :   0.5000 0.2041 0.7041  plane waves:     254
 k-point ** :   0.5000 0.1990 0.6990  plane waves:     254
 k-point ** :   0.5000 0.1939 0.6939  plane waves:     254
 k-point ** :   0.5000 0.1888 0.6888  plane waves:     254
 k-point ** :   0.5000 0.1837 0.6837  plane waves:     254
 k-point ** :   0.5000 0.1786 0.6786  plane waves:     250
 k-point ** :   0.5000 0.1735 0.6735  plane waves:     250
 k-point ** :   0.5000 0.1684 0.6684  plane waves:     250
 k-point ** :   0.5000 0.1633 0.6633  plane waves:     244
 k-point ** :   0.5000 0.1582 0.6582  plane waves:     244
 k-point ** :   0.5000 0.1531 0.6531  plane waves:     244
 k-point ** :   0.5000 0.1480 0.6480  plane waves:     244
 k-point ** :   0.5000 0.1429 0.6429  plane waves:     244
 k-point ** :   0.5000 0.1378 0.6378  plane waves:     244
 k-point ** :   0.5000 0.1327 0.6327  plane waves:     244
 k-point ** :   0.5000 0.1276 0.6276  plane waves:     244
 k-point ** :   0.5000 0.1224 0.6224  plane waves:     244
 k-point ** :   0.5000 0.1173 0.6173  plane waves:     244
 k-point ** :   0.5000 0.1122 0.6122  plane waves:     244
 k-point ** :   0.5000 0.1071 0.6071  plane waves:     248
 k-point ** :   0.5000 0.1020 0.6020  plane waves:     244
 k-point ** :   0.5000 0.0969 0.5969  plane waves:     244
 k-point ** :   0.5000 0.0918 0.5918  plane waves:     244
 k-point ** :   0.5000 0.0867 0.5867  plane waves:     244
 k-point ** :   0.5000 0.0816 0.5816  plane waves:     244
 k-point ** :   0.5000 0.0765 0.5765  plane waves:     244
 k-point ** :   0.5000 0.0714 0.5714  plane waves:     244
 k-point ** :   0.5000 0.0663 0.5663  plane waves:     244
 k-point ** :   0.5000 0.0612 0.5612  plane waves:     246
 k-point ** :   0.5000 0.0561 0.5561  plane waves:     246
 k-point ** :   0.5000 0.0510 0.5510  plane waves:     246
 k-point ** :   0.5000 0.0459 0.5459  plane waves:     246
 k-point ** :   0.5000 0.0408 0.5408  plane waves:     246
 k-point ** :   0.5000 0.0357 0.5357  plane waves:     250
 k-point ** :   0.5000 0.0306 0.5306  plane waves:     250
 k-point ** :   0.5000 0.0255 0.5255  plane waves:     250
 k-point ** :   0.5000 0.0204 0.5204  plane waves:     254
 k-point ** :   0.5000 0.0153 0.5153  plane waves:     254
 k-point ** :   0.5000 0.0102 0.5102  plane waves:     254
 k-point ** :   0.5000 0.0051 0.5051  plane waves:     254
 k-point ** :   0.5000 0.0000 0.5000  plane waves:     254

 maximum and minimum number of plane-waves per node :       265      242

 maximum number of plane-waves:       265
 maximum index in each direction: 
   IXMAX=    4   IYMAX=    4   IZMAX=    4
   IXMIN=   -4   IYMIN=   -4   IZMIN=   -5


 serial   3D FFT for wavefunctions
 parallel 3D FFT for charge:
    minimum data exchange during FFTs selected (reduces bandwidth)


 total amount of memory used by VASP MPI-rank0    49557. kBytes
=======================================================================

   base      :      30000. kBytes
   nonl-proj :       6898. kBytes
   fftplans  :       1488. kBytes
   grid      :       1843. kBytes
   one-center:         16. kBytes
   wavefun   :       9312. kBytes
 
     INWAV:  cpu time    0.0008: real time    0.0002
 initial charge density was supplied:
