Nb                                      
   3.30080000000000     
    -0.500000    0.500000    0.500000
     0.500000   -0.500000    0.500000
     0.500000    0.500000   -0.500000
   Nb
     1
Direct
  0.000000  0.000000  0.000000
 
   24   24   24
 0.84432570271E+02 0.82793729908E+02 0.77885071482E+02 0.69796138252E+02 0.58907332101E+02
 0.46169006524E+02 0.33186688268E+02 0.21849450499E+02 0.13586073877E+02 0.87274420759E+01
 0.64502788907E+01 0.54358700710E+01 0.51251135300E+01 0.54358700710E+01 0.64502788907E+01
 0.87274420759E+01 0.13586073877E+02 0.21849450499E+02 0.33186688268E+02 0.46169006524E+02
 0.58907332101E+02 0.69796138252E+02 0.77885071482E+02 0.82793729908E+02 0.82793729908E+02
 0.82228196723E+02 0.78359982805E+02 0.71273519398E+02 0.61274562701E+02 0.49140915303E+02
 0.36281231307E+02 0.24518210378E+02 0.15448268426E+02 0.97411274001E+01 0.68888145115E+01
 0.56220621529E+01 0.51128578243E+01 0.52118402799E+01 0.59464731452E+01 0.75966819734E+01
 0.11284683601E+02 0.18117942258E+02 0.28226327886E+02 0.40571743684E+02 0.53393067759E+02
 0.64946568694E+02 0.74028639180E+02 0.80045805164E+02 0.77885071482E+02 0.78359982805E+02
 0.75456992181E+02 0.69317502365E+02 0.60289718885E+02 0.49093603025E+02 0.36966479730E+02
 0.25551479381E+02 0.16407372034E+02 0.10363462549E+02 0.71697660428E+01 0.57255218835E+01
 0.50700726649E+01 0.49841204725E+01 0.54431050693E+01 0.65762251452E+01 0.90562612051E+01
 0.14102118913E+02 0.22309895320E+02 0.33196693590E+02 0.45363840808E+02 0.57094795539E+02
 0.66951019984E+02 0.74028639180E+02 0.69796138252E+02 0.71273519398E+02 0.69317502365E+02
 0.64124346836E+02 0.56140314996E+02 0.46116254058E+02 0.35177726598E+02 0.24752029974E+02
 0.16220375385E+02 0.10400910404E+02 0.71986460304E+01 0.57071561623E+01 0.49832257944E+01
 0.47688858314E+01 0.49985770218E+01 0.57436364915E+01 0.72700429622E+01 0.10539702815E+02
 0.16483688481E+02 0.25206642097E+02 0.35863065663E+02 0.47000088197E+02 0.57094795539E+02
 0.64946568694E+02 0.58907332101E+02 0.61274562701E+02 0.60289718885E+02 0.56140314996E+02
 0.49347400546E+02 0.40716383000E+02 0.31305164444E+02 0.22334994015E+02 0.14945988324E+02
 0.98285044631E+01 0.69418019934E+01 0.55514843302E+01 0.48418307044E+01 0.45677636918E+01
 0.46391131616E+01 0.50806134100E+01 0.60245239836E+01 0.78944922677E+01 0.11642048285E+02
 0.17832457660E+02 0.26231544366E+02 0.35863065663E+02 0.45363840808E+02 0.53393067759E+02
 0.46169006524E+02 0.49140915303E+02 0.49093603025E+02 0.46116254058E+02 0.40716383000E+02
 0.33703156658E+02 0.26064342516E+02 0.18834222416E+02 0.12907254324E+02 0.87974174117E+01
 0.64521813303E+01 0.52759017577E+01 0.46482191715E+01 0.43768855106E+01 0.43633856409E+01
 0.45975474929E+01 0.51644502645E+01 0.62237085722E+01 0.82669125013E+01 0.12047749843E+02
 0.17832457660E+02 0.25206642097E+02 0.33196693590E+02 0.40571743684E+02 0.33186688268E+02
 0.36281231307E+02 0.36966479730E+02 0.35177726598E+02 0.31305164444E+02 0.26064342516E+02
 0.20323299765E+02 0.14932916621E+02 0.10566280791E+02 0.75663063645E+01 0.58449888775E+01
 0.49262657527E+01 0.44205983398E+01 0.41949149930E+01 0.41555875250E+01 0.42723672832E+01
 0.45883997183E+01 0.52128350957E+01 0.62967935452E+01 0.82669125013E+01 0.11642048285E+02
 0.16483688481E+02 0.22309895320E+02 0.28226327886E+02 0.21849450499E+02 0.24518210378E+02
 0.25551479381E+02 0.24752029974E+02 0.22334994015E+02 0.18834222416E+02 0.14932916621E+02
 0.11285660494E+02 0.83723466180E+01 0.63963447366E+01 0.52400876197E+01 0.45612663703E+01
 0.41879139614E+01 0.40262453706E+01 0.39970973543E+01 0.40630450281E+01 0.42380478619E+01
 0.45872223231E+01 0.52128350957E+01 0.62237085722E+01 0.78944922677E+01 0.10539702815E+02
 0.14102118913E+02 0.18117942258E+02 0.13586073877E+02 0.15448268426E+02 0.16407372034E+02
 0.16220375385E+02 0.14945988324E+02 0.12907254324E+02 0.10566280791E+02 0.83723466180E+01
 0.66363704332E+01 0.54566071338E+01 0.47069796500E+01 0.42335129443E+01 0.39797439585E+01
 0.38794600658E+01 0.38736587034E+01 0.39274489395E+01 0.40382758724E+01 0.42380478619E+01
 0.45883997183E+01 0.51644502645E+01 0.60245239836E+01 0.72700429622E+01 0.90562612051E+01
 0.11284683601E+02 0.87274420759E+01 0.97411274001E+01 0.10363462549E+02 0.10400910404E+02
 0.98285044631E+01 0.87974174117E+01 0.75663063645E+01 0.63963447366E+01 0.54566071338E+01
 0.47701441177E+01 0.42825368876E+01 0.39758841734E+01 0.38167359355E+01 0.37634634030E+01
 0.37785166207E+01 0.38361549176E+01 0.39274489395E+01 0.40630450281E+01 0.42723672832E+01
 0.45975474929E+01 0.50806134100E+01 0.57436364915E+01 0.65762251452E+01 0.75966819734E+01
 0.64502788907E+01 0.68888145115E+01 0.71697660428E+01 0.71986460304E+01 0.69418019934E+01
 0.64521813303E+01 0.58449888775E+01 0.52400876197E+01 0.47069796500E+01 0.42825368876E+01
 0.39827534218E+01 0.37980194965E+01 0.37062656614E+01 0.36841774058E+01 0.37127580735E+01
 0.37785166207E+01 0.38736587034E+01 0.39970973543E+01 0.41555875250E+01 0.43633856409E+01
 0.46391131616E+01 0.49985770218E+01 0.54431050693E+01 0.59464731452E+01 0.54358700710E+01
 0.56220621529E+01 0.57255218835E+01 0.57071561623E+01 0.55514843302E+01 0.52759017577E+01
 0.49262657527E+01 0.45612663703E+01 0.42335129443E+01 0.39758841734E+01 0.37980194965E+01
 0.36923781195E+01 0.36449010793E+01 0.36440430547E+01 0.36841774058E+01 0.37634634030E+01
 0.38794600658E+01 0.40262453706E+01 0.41949149930E+01 0.43768855106E+01 0.45677636918E+01
 0.47688858314E+01 0.49841204725E+01 0.52118402799E+01 0.51251135300E+01 0.51128578243E+01
 0.50700726649E+01 0.49832257944E+01 0.48418307044E+01 0.46482191715E+01 0.44205983398E+01
 0.41879139614E+01 0.39797439585E+01 0.38167359355E+01 0.37062656614E+01 0.36449010793E+01
 0.36255713452E+01 0.36449010793E+01 0.37062656614E+01 0.38167359355E+01 0.39797439585E+01
 0.41879139614E+01 0.44205983398E+01 0.46482191715E+01 0.48418307044E+01 0.49832257944E+01
 0.50700726649E+01 0.51128578243E+01 0.54358700710E+01 0.52118402799E+01 0.49841204725E+01
 0.47688858314E+01 0.45677636918E+01 0.43768855106E+01 0.41949149930E+01 0.40262453706E+01
 0.38794600658E+01 0.37634634030E+01 0.36841774058E+01 0.36440430547E+01 0.36449010793E+01
 0.36923781195E+01 0.37980194965E+01 0.39758841734E+01 0.42335129443E+01 0.45612663703E+01
 0.49262657527E+01 0.52759017577E+01 0.55514843302E+01 0.57071561623E+01 0.57255218835E+01
 0.56220621529E+01 0.64502788907E+01 0.59464731452E+01 0.54431050693E+01 0.49985770218E+01
 0.46391131616E+01 0.43633856409E+01 0.41555875250E+01 0.39970973543E+01 0.38736587034E+01
 0.37785166207E+01 0.37127580735E+01 0.36841774058E+01 0.37062656614E+01 0.37980194965E+01
 0.39827534218E+01 0.42825368876E+01 0.47069796500E+01 0.52400876197E+01 0.58449888775E+01
 0.64521813303E+01 0.69418019934E+01 0.71986460304E+01 0.71697660428E+01 0.68888145115E+01
 0.87274420759E+01 0.75966819734E+01 0.65762251452E+01 0.57436364915E+01 0.50806134100E+01
 0.45975474929E+01 0.42723672832E+01 0.40630450281E+01 0.39274489395E+01 0.38361549176E+01
 0.37785166207E+01 0.37634634030E+01 0.38167359355E+01 0.39758841734E+01 0.42825368876E+01
 0.47701441177E+01 0.54566071338E+01 0.63963447366E+01 0.75663063645E+01 0.87974174117E+01
 0.98285044631E+01 0.10400910404E+02 0.10363462549E+02 0.97411274001E+01 0.13586073877E+02
 0.11284683601E+02 0.90562612051E+01 0.72700429622E+01 0.60245239836E+01 0.51644502645E+01
 0.45883997183E+01 0.42380478619E+01 0.40382758724E+01 0.39274489395E+01 0.38736587034E+01
 0.38794600658E+01 0.39797439585E+01 0.42335129443E+01 0.47069796500E+01 0.54566071338E+01
 0.66363704332E+01 0.83723466180E+01 0.10566280791E+02 0.12907254324E+02 0.14945988324E+02
 0.16220375385E+02 0.16407372034E+02 0.15448268426E+02 0.21849450499E+02 0.18117942258E+02
 0.14102118913E+02 0.10539702815E+02 0.78944922677E+01 0.62237085722E+01 0.52128350957E+01
 0.45872223231E+01 0.42380478619E+01 0.40630450281E+01 0.39970973543E+01 0.40262453706E+01
 0.41879139614E+01 0.45612663703E+01 0.52400876197E+01 0.63963447366E+01 0.83723466180E+01
 0.11285660494E+02 0.14932916621E+02 0.18834222416E+02 0.22334994015E+02 0.24752029974E+02
 0.25551479381E+02 0.24518210378E+02 0.33186688268E+02 0.28226327886E+02 0.22309895320E+02
 0.16483688481E+02 0.11642048285E+02 0.82669125013E+01 0.62967935452E+01 0.52128350957E+01
 0.45883997183E+01 0.42723672832E+01 0.41555875250E+01 0.41949149930E+01 0.44205983398E+01
 0.49262657527E+01 0.58449888775E+01 0.75663063645E+01 0.10566280791E+02 0.14932916621E+02
 0.20323299765E+02 0.26064342516E+02 0.31305164444E+02 0.35177726598E+02 0.36966479730E+02
 0.36281231307E+02 0.46169006524E+02 0.40571743684E+02 0.33196693590E+02 0.25206642097E+02
 0.17832457660E+02 0.12047749843E+02 0.82669125013E+01 0.62237085722E+01 0.51644502645E+01
 0.45975474929E+01 0.43633856409E+01 0.43768855106E+01 0.46482191715E+01 0.52759017577E+01
 0.64521813303E+01 0.87974174117E+01 0.12907254324E+02 0.18834222416E+02 0.26064342516E+02
 0.33703156658E+02 0.40716383000E+02 0.46116254058E+02 0.49093603025E+02 0.49140915303E+02
 0.58907332101E+02 0.53393067759E+02 0.45363840808E+02 0.35863065663E+02 0.26231544366E+02
 0.17832457660E+02 0.11642048285E+02 0.78944922677E+01 0.60245239836E+01 0.50806134100E+01
 0.46391131616E+01 0.45677636918E+01 0.48418307044E+01 0.55514843302E+01 0.69418019934E+01
 0.98285044631E+01 0.14945988324E+02 0.22334994015E+02 0.31305164444E+02 0.40716383000E+02
 0.49347400546E+02 0.56140314996E+02 0.60289718885E+02 0.61274562701E+02 0.69796138252E+02
 0.64946568694E+02 0.57094795539E+02 0.47000088197E+02 0.35863065663E+02 0.25206642097E+02
 0.16483688481E+02 0.10539702815E+02 0.72700429622E+01 0.57436364915E+01 0.49985770218E+01
 0.47688858314E+01 0.49832257944E+01 0.57071561623E+01 0.71986460304E+01 0.10400910404E+02
 0.16220375385E+02 0.24752029974E+02 0.35177726598E+02 0.46116254058E+02 0.56140314996E+02
 0.64124346836E+02 0.69317502365E+02 0.71273519398E+02 0.77885071482E+02 0.74028639180E+02
 0.66951019984E+02 0.57094795539E+02 0.45363840808E+02 0.33196693590E+02 0.22309895320E+02
 0.14102118913E+02 0.90562612051E+01 0.65762251452E+01 0.54431050693E+01 0.49841204725E+01
 0.50700726649E+01 0.57255218835E+01 0.71697660428E+01 0.10363462549E+02 0.16407372034E+02
 0.25551479381E+02 0.36966479730E+02 0.49093603025E+02 0.60289718885E+02 0.69317502365E+02
 0.75456992181E+02 0.78359982805E+02 0.82793729908E+02 0.80045805164E+02 0.74028639180E+02
 0.64946568694E+02 0.53393067759E+02 0.40571743684E+02 0.28226327886E+02 0.18117942258E+02
 0.11284683601E+02 0.75966819734E+01 0.59464731452E+01 0.52118402799E+01 0.51128578243E+01
 0.56220621529E+01 0.68888145115E+01 0.97411274001E+01 0.15448268426E+02 0.24518210378E+02
 0.36281231307E+02 0.49140915303E+02 0.61274562701E+02 0.71273519398E+02 0.78359982805E+02
 0.82228196723E+02 0.82793729908E+02 0.82228196723E+02 0.78359982805E+02 0.71273519398E+02
 0.61274562701E+02 0.49140915303E+02 0.36281231307E+02 0.24518210378E+02 0.15448268426E+02
 0.97411274001E+01 0.68888145115E+01 0.56220621529E+01 0.51128578243E+01 0.52118402799E+01
 0.59464731452E+01 0.75966819734E+01 0.11284683601E+02 0.18117942258E+02 0.28226327886E+02
 0.40571743684E+02 0.53393067759E+02 0.64946568694E+02 0.74028639180E+02 0.80045805164E+02
 0.82228196723E+02 0.82794098633E+02 0.80046192725E+02 0.74028677149E+02 0.64946315975E+02
 0.53392873298E+02 0.40571758351E+02 0.28226361668E+02 0.18117820733E+02 0.11284533354E+02
 0.75967226954E+01 0.59466567012E+01 0.52119016905E+01 0.51127081671E+01 0.56219277401E+01
 0.68889051211E+01 0.97413276748E+01 0.15448316235E+02 0.24518092865E+02 0.36281195934E+02
 0.49141072036E+02 0.61274684697E+02 0.71273372542E+02 0.78359716438E+02 0.78359982805E+02
 0.80046192725E+02 0.78359835037E+02 0.73355245011E+02 0.65246127865E+02 0.54563919902E+02
 0.42355350325E+02 0.30195805178E+02 0.19811552010E+02 0.12411744179E+02 0.81596027203E+01
 0.61836536694E+01 0.52730058736E+01 0.49949238988E+01 0.52730144051E+01 0.61836592501E+01
 0.81595751417E+01 0.12411658955E+02 0.19811442267E+02 0.30195771315E+02 0.42355486327E+02
 0.54564221341E+02 0.65246485273E+02 0.73355530743E+02 0.71273519398E+02 0.74028677149E+02
 0.73355245011E+02 0.69317213830E+02 0.62196764038E+02 0.52562045713E+02 0.41383072481E+02
 0.30053687978E+02 0.20132895041E+02 0.12811828034E+02 0.84097717433E+01 0.62749241484E+01
 0.52694250863E+01 0.48644978984E+01 0.49462740543E+01 0.55400732873E+01 0.68275428094E+01
 0.96199774528E+01 0.15009063049E+02 0.23352194629E+02 0.33996601968E+02 0.45538858269E+02
 0.56388766674E+02 0.65246520308E+02 0.61274562701E+02 0.64946315975E+02 0.65246127865E+02
 0.62196764038E+02 0.56140506980E+02 0.47719818476E+02 0.37886756432E+02 0.27877567109E+02
 0.19024505715E+02 0.12368250887E+02 0.82511327787E+01 0.61836186032E+01 0.51796819147E+01
 0.47176741790E+01 0.46638615333E+01 0.49996798573E+01 0.58296442742E+01 0.74795485995E+01
 0.10910867196E+02 0.16871645511E+02 0.25303599647E+02 0.35317392538E+02 0.45538690535E+02
 0.54564073883E+02 0.49140915303E+02 0.53392873298E+02 0.54563919902E+02 0.52562045713E+02
 0.47719818476E+02 0.40716566796E+02 0.32490487901E+02 0.24141693554E+02 0.16768533151E+02
 0.11199893961E+02 0.77111057459E+01 0.59131252707E+01 0.50002880030E+01 0.45498638159E+01
 0.44279799344E+01 0.45866422658E+01 0.50837493220E+01 0.60651938811E+01 0.79760658250E+01
 0.11664073449E+02 0.17543635290E+02 0.25303363711E+02 0.33996303485E+02 0.42355278575E+02
 0.36281231307E+02 0.40571758351E+02 0.42355350325E+02 0.41383072481E+02 0.37886756432E+02
 0.32490487901E+02 0.26064353378E+02 0.19566066593E+02 0.13875035785E+02 0.96048546726E+01
 0.69282776524E+01 0.55143318254E+01 0.47509406665E+01 0.43636279023E+01 0.42310342539E+01
 0.42913177798E+01 0.45641962818E+01 0.51486411842E+01 0.61991376214E+01 0.81616982412E+01
 0.11663894859E+02 0.16871387703E+02 0.23352039351E+02 0.30195763670E+02 0.24518210378E+02
 0.28226361668E+02 0.30195805178E+02 0.30053687978E+02 0.27877567109E+02 0.24141693554E+02
 0.19566066593E+02 0.14932929062E+02 0.10916815251E+02 0.79429637693E+01 0.60876376995E+01
 0.50607840489E+01 0.44692085517E+01 0.41711420622E+01 0.40646184286E+01 0.40868749582E+01
 0.42330308771E+01 0.45592078846E+01 0.51718781585E+01 0.61990621653E+01 0.79759475450E+01
 0.10910835388E+02 0.15009182811E+02 0.19811626296E+02 0.15448268426E+02 0.18117820733E+02
 0.19811552010E+02 0.20132895041E+02 0.19024505715E+02 0.16768533151E+02 0.13875035785E+02
 0.10916815251E+02 0.83722725584E+01 0.65116346517E+01 0.53390726038E+01 0.46225379382E+01
 0.41976727617E+01 0.39906271009E+01 0.39241676899E+01 0.39440162255E+01 0.40332314076E+01
 0.42168458708E+01 0.45592100881E+01 0.51486449339E+01 0.60652544752E+01 0.74797033313E+01
 0.96201650105E+01 0.12411756932E+02 0.97411274001E+01 0.11284533354E+02 0.12411744179E+02
 0.12811828034E+02 0.12368250887E+02 0.11199893961E+02 0.96048546726E+01 0.79429637693E+01
 0.65116346517E+01 0.54565424227E+01 0.47369440806E+01 0.42530860414E+01 0.39701839522E+01
 0.38395900043E+01 0.38096925527E+01 0.38405835646E+01 0.39130528732E+01 0.40332621217E+01
 0.42330860287E+01 0.45642769840E+01 0.50838512182E+01 0.58297260304E+01 0.68275345752E+01
 0.81594428866E+01 0.68888145115E+01 0.75967226954E+01 0.81596027203E+01 0.84097717433E+01
 0.82511327787E+01 0.77111057459E+01 0.69282776524E+01 0.60876376995E+01 0.53390726038E+01
 0.47369440806E+01 0.42825391064E+01 0.39781232701E+01 0.38036504474E+01 0.37289495354E+01
 0.37243781973E+01 0.37664112353E+01 0.38406085470E+01 0.39440648156E+01 0.40869272280E+01
 0.42913426638E+01 0.45866090126E+01 0.49995723612E+01 0.55399074263E+01 0.61834916552E+01
 0.56220621529E+01 0.59466567012E+01 0.61836536694E+01 0.62749241484E+01 0.61836186032E+01
 0.59131252707E+01 0.55143318254E+01 0.50607840489E+01 0.46225379382E+01 0.42530860414E+01
 0.39781232701E+01 0.37980213437E+01 0.36983114196E+01 0.36612552661E+01 0.36729198248E+01
 0.37243890058E+01 0.38097152847E+01 0.39241842150E+01 0.40645961615E+01 0.42309514728E+01
 0.44278505118E+01 0.46637353071E+01 0.49462111245E+01 0.52730524966E+01 0.51128578243E+01
 0.52119016905E+01 0.52730058736E+01 0.52694250863E+01 0.51796819147E+01 0.50002880030E+01
 0.47509406665E+01 0.44692085517E+01 0.41976727617E+01 0.39701839522E+01 0.38036504474E+01
 0.36983114196E+01 0.36449012059E+01 0.36338475307E+01 0.36612581738E+01 0.37289554145E+01
 0.38395882006E+01 0.39905979148E+01 0.41710769039E+01 0.43635501187E+01 0.45498242908E+01
 0.47177185700E+01 0.48646311778E+01 0.49951011891E+01 0.52118402799E+01 0.51127081671E+01
 0.49949238988E+01 0.48644978984E+01 0.47176741790E+01 0.45498638159E+01 0.43636279023E+01
 0.41711420622E+01 0.39906271009E+01 0.38395900043E+01 0.37289495354E+01 0.36612552661E+01
 0.36338475307E+01 0.36449024126E+01 0.36983131696E+01 0.38036480652E+01 0.39701700605E+01
 0.41976505588E+01 0.44692019019E+01 0.47509830246E+01 0.50003940801E+01 0.51798268093E+01
 0.52695509419E+01 0.52730524966E+01 0.59464731452E+01 0.56219277401E+01 0.52730144051E+01
 0.49462740543E+01 0.46638615333E+01 0.44279799344E+01 0.42310342539E+01 0.40646184286E+01
 0.39241676899E+01 0.38096925527E+01 0.37243781973E+01 0.36729198248E+01 0.36612581738E+01
 0.36983131696E+01 0.37980216788E+01 0.39781242624E+01 0.42530970685E+01 0.46225779429E+01
 0.50608678103E+01 0.55144468067E+01 0.59132243477E+01 0.61836437273E+01 0.62748453272E+01
 0.61834916552E+01 0.75966819734E+01 0.68889051211E+01 0.61836592501E+01 0.55400732873E+01
 0.49996798573E+01 0.45866422658E+01 0.42913177798E+01 0.40868749582E+01 0.39440162255E+01
 0.38405835646E+01 0.37664112353E+01 0.37243890058E+01 0.37289554145E+01 0.38036480652E+01
 0.39781242624E+01 0.42825615809E+01 0.47370010121E+01 0.53391612432E+01 0.60877310816E+01
 0.69283262215E+01 0.77110603600E+01 0.82509832503E+01 0.84095702681E+01 0.81594428866E+01
 0.11284683601E+02 0.97413276748E+01 0.81595751417E+01 0.68275428094E+01 0.58296442742E+01
 0.50837493220E+01 0.45641962818E+01 0.42330308771E+01 0.40332314076E+01 0.39130528732E+01
 0.38406085470E+01 0.38097152847E+01 0.38395882006E+01 0.39701700605E+01 0.42530970685E+01
 0.47370010121E+01 0.54566274814E+01 0.65117066726E+01 0.79429845146E+01 0.96048006118E+01
 0.11199764369E+02 0.12368085819E+02 0.12811711164E+02 0.12411756932E+02 0.18117942258E+02
 0.15448316235E+02 0.12411658955E+02 0.96199774528E+01 0.74795485995E+01 0.60651938811E+01
 0.51486411842E+01 0.45592078846E+01 0.42168458708E+01 0.40332621217E+01 0.39440648156E+01
 0.39241842150E+01 0.39905979148E+01 0.41976505588E+01 0.46225779429E+01 0.53391612432E+01
 0.65117066726E+01 0.83722859256E+01 0.10916779949E+02 0.13874974056E+02 0.16768451481E+02
 0.19024424577E+02 0.20132871433E+02 0.19811626296E+02 0.28226327886E+02 0.24518092865E+02
 0.19811442267E+02 0.15009063049E+02 0.10910867196E+02 0.79760658250E+01 0.61991376214E+01
 0.51718781585E+01 0.45592100881E+01 0.42330860287E+01 0.40869272280E+01 0.40645961615E+01
 0.41710769039E+01 0.44692019019E+01 0.50608678103E+01 0.60877310816E+01 0.79429845146E+01
 0.10916779949E+02 0.14932903061E+02 0.19566052704E+02 0.24141633694E+02 0.27877449104E+02
 0.30053582479E+02 0.30195763670E+02 0.40571743684E+02 0.36281195934E+02 0.30195771315E+02
 0.23352194629E+02 0.16871645511E+02 0.11664073449E+02 0.81616982412E+01 0.61990621653E+01
 0.51486449339E+01 0.45642769840E+01 0.42913426638E+01 0.42309514728E+01 0.43635501187E+01
 0.47509830246E+01 0.55144468067E+01 0.69283262215E+01 0.96048006118E+01 0.13874974056E+02
 0.19566052704E+02 0.26064300512E+02 0.32490293853E+02 0.37886472876E+02 0.41382859845E+02
 0.42355278575E+02 0.53393067759E+02 0.49141072036E+02 0.42355486327E+02 0.33996601968E+02
 0.25303599647E+02 0.17543635290E+02 0.11663894859E+02 0.79759475450E+01 0.60652544752E+01
 0.50838512182E+01 0.45866090126E+01 0.44278505118E+01 0.45498242908E+01 0.50003940801E+01
 0.59132243477E+01 0.77110603600E+01 0.11199764369E+02 0.16768451481E+02 0.24141633694E+02
 0.32490293853E+02 0.40716210246E+02 0.47719500763E+02 0.52561975912E+02 0.54564073883E+02
 0.64946568694E+02 0.61274684697E+02 0.54564221341E+02 0.45538858269E+02 0.35317392538E+02
 0.25303363711E+02 0.16871387703E+02 0.10910835388E+02 0.74797033313E+01 0.58297260304E+01
 0.49995723612E+01 0.46637353071E+01 0.47177185700E+01 0.51798268093E+01 0.61836437273E+01
 0.82509832503E+01 0.12368085819E+02 0.19024424577E+02 0.27877449104E+02 0.37886472876E+02
 0.47719500763E+02 0.56140444474E+02 0.62197043828E+02 0.65246520308E+02 0.74028639180E+02
 0.71273372542E+02 0.65246485273E+02 0.56388766674E+02 0.45538690535E+02 0.33996303485E+02
 0.23352039351E+02 0.15009182811E+02 0.96201650105E+01 0.68275345752E+01 0.55399074263E+01
 0.49462111245E+01 0.48646311778E+01 0.52695509419E+01 0.62748453272E+01 0.84095702681E+01
 0.12811711164E+02 0.20132871433E+02 0.30053582479E+02 0.41382859845E+02 0.52561975912E+02
 0.62197043828E+02 0.69317682780E+02 0.73355530743E+02 0.80045805164E+02 0.78359716438E+02
 0.73355530743E+02 0.65246520308E+02 0.54564073883E+02 0.42355278575E+02 0.30195763670E+02
 0.19811626296E+02 0.12411756932E+02 0.81594428866E+01 0.61834916552E+01 0.52730524966E+01
 0.49951011891E+01 0.52730524966E+01 0.61834916552E+01 0.81594428866E+01 0.12411756932E+02
 0.19811626296E+02 0.30195763670E+02 0.42355278575E+02 0.54564073883E+02 0.65246520308E+02
 0.73355530743E+02 0.78359716438E+02 0.77885071482E+02 0.78359982805E+02 0.75456992181E+02
 0.69317502365E+02 0.60289718885E+02 0.49093603025E+02 0.36966479730E+02 0.25551479381E+02
 0.16407372034E+02 0.10363462549E+02 0.71697660428E+01 0.57255218835E+01 0.50700726649E+01
 0.49841204725E+01 0.54431050693E+01 0.65762251452E+01 0.90562612051E+01 0.14102118913E+02
 0.22309895320E+02 0.33196693590E+02 0.45363840808E+02 0.57094795539E+02 0.66951019984E+02
 0.74028639180E+02 0.78359982805E+02 0.80046192725E+02 0.78359835037E+02 0.73355245011E+02
 0.65246127865E+02 0.54563919902E+02 0.42355350325E+02 0.30195805178E+02 0.19811552010E+02
 0.12411744179E+02 0.81596027203E+01 0.61836536694E+01 0.52730058736E+01 0.49949238988E+01
 0.52730144051E+01 0.61836592501E+01 0.81595751417E+01 0.12411658955E+02 0.19811442267E+02
 0.30195771315E+02 0.42355486327E+02 0.54564221341E+02 0.65246485273E+02 0.73355530743E+02
 0.75456992181E+02 0.78359835037E+02 0.77884819114E+02 0.74028325137E+02 0.66950722521E+02
 0.57094624743E+02 0.45363862611E+02 0.33196862478E+02 0.22310086296E+02 0.14102232352E+02
 0.90562877870E+01 0.65762146862E+01 0.54430983984E+01 0.49841247527E+01 0.50700807443E+01
 0.57255248245E+01 0.71697488992E+01 0.10363419935E+02 0.16407344642E+02 0.25551552246E+02
 0.36966710639E+02 0.49093947094E+02 0.60290042791E+02 0.69317682780E+02 0.69317502365E+02
 0.73355245011E+02 0.74028325137E+02 0.71273091612E+02 0.65246309000E+02 0.56388766846E+02
 0.45538874466E+02 0.33996576398E+02 0.23352263394E+02 0.15009282919E+02 0.96201687363E+01
 0.68275135351E+01 0.55399017047E+01 0.49462170113E+01 0.48646361353E+01 0.52695516938E+01
 0.62748386031E+01 0.84095585416E+01 0.12811729603E+02 0.20132982102E+02 0.30053809937E+02
 0.41383133511E+02 0.52562161271E+02 0.62197043828E+02 0.60289718885E+02 0.65246127865E+02
 0.66950722521E+02 0.65246309000E+02 0.60290032186E+02 0.52562332176E+02 0.42895221862E+02
 0.32477796196E+02 0.22720311041E+02 0.14895319343E+02 0.96746833416E+01 0.68584244693E+01
 0.55275846059E+01 0.48687620319E+01 0.46706799454E+01 0.48687565222E+01 0.55275901832E+01
 0.68584595761E+01 0.96747444409E+01 0.14895365031E+02 0.22720274448E+02 0.32477626146E+02
 0.42894923968E+02 0.52561975912E+02 0.49093603025E+02 0.54563919902E+02 0.57094624743E+02
 0.56388766846E+02 0.52562332176E+02 0.46116609228E+02 0.37886753766E+02 0.28969687595E+02
 0.20582416789E+02 0.13794795343E+02 0.91893885958E+01 0.66387755336E+01 0.53911033602E+01
 0.47419479866E+01 0.44892119815E+01 0.45453556603E+01 0.49310250897E+01 0.57676129386E+01
 0.73788637620E+01 0.10619309982E+02 0.16079732194E+02 0.23637644739E+02 0.32477496608E+02
 0.41382859845E+02 0.36966479730E+02 0.42355350325E+02 0.45363862611E+02 0.45538874466E+02
 0.42895221862E+02 0.37886753766E+02 0.31305167851E+02 0.24141623589E+02 0.17420573560E+02
 0.11990287636E+02 0.82922835834E+01 0.62122750865E+01 0.51450117876E+01 0.45675417964E+01
 0.43165428516E+01 0.42972714659E+01 0.44981840446E+01 0.49959639376E+01 0.59326805680E+01
 0.76888005963E+01 0.10967655071E+02 0.16079681068E+02 0.22720128778E+02 0.30053582479E+02
 0.25551479381E+02 0.30195805178E+02 0.33196862478E+02 0.33996576398E+02 0.32477796196E+02
 0.28969687595E+02 0.24141623589E+02 0.18834162638E+02 0.13874899636E+02 0.99017857476E+01
 0.72112134898E+01 0.56766981349E+01 0.48300594770E+01 0.43618514728E+01 0.41515860734E+01
 0.41100581242E+01 0.42075881174E+01 0.44821632140E+01 0.50330370311E+01 0.59919825095E+01
 0.76887966132E+01 0.10619275380E+02 0.14895281170E+02 0.20132871433E+02 0.16407372034E+02
 0.19811552010E+02 0.22310086296E+02 0.23352263394E+02 0.22720311041E+02 0.20582416789E+02
 0.17420573560E+02 0.13874899636E+02 0.10566105989E+02 0.79428589679E+01 0.61780638285E+01
 0.51328662138E+01 0.44994022793E+01 0.41512107222E+01 0.39986880243E+01 0.39672168582E+01
 0.40210576470E+01 0.41717965525E+01 0.44780338366E+01 0.50330413956E+01 0.59326861404E+01
 0.73788583119E+01 0.96747225393E+01 0.12811711164E+02 0.10363462549E+02 0.12411744179E+02
 0.14102232352E+02 0.15009282919E+02 0.14895319343E+02 0.13794795343E+02 0.11990287636E+02
 0.99017857476E+01 0.79428589679E+01 0.63962190915E+01 0.53391017297E+01 0.46439500194E+01
 0.42013304760E+01 0.39627552306E+01 0.38660719327E+01 0.38563621283E+01 0.39008855080E+01
 0.39965482373E+01 0.41717971387E+01 0.44821664114E+01 0.49959691849E+01 0.57676161951E+01
 0.68584609496E+01 0.84095702681E+01 0.71697660428E+01 0.81596027203E+01 0.90562877870E+01
 0.96201687363E+01 0.96746833416E+01 0.91893885958E+01 0.82922835834E+01 0.72112134898E+01
 0.61780638285E+01 0.53391017297E+01 0.47070082340E+01 0.42531163241E+01 0.39663770067E+01
 0.38154981792E+01 0.37621141509E+01 0.37718072673E+01 0.38208880802E+01 0.39008865614E+01
 0.40210584226E+01 0.42075885283E+01 0.44981842565E+01 0.49310251963E+01 0.55275915620E+01
 0.62748453272E+01 0.57255218835E+01 0.61836536694E+01 0.65762146862E+01 0.68275135351E+01
 0.68584244693E+01 0.66387755336E+01 0.62122750865E+01 0.56766981349E+01 0.51328662138E+01
 0.46439500194E+01 0.42531163241E+01 0.39759069383E+01 0.38036557033E+01 0.37161386849E+01
 0.36921797198E+01 0.37147420473E+01 0.37718102832E+01 0.38563669141E+01 0.39672211211E+01
 0.41100601601E+01 0.42972716671E+01 0.45453556526E+01 0.48687567754E+01 0.52695509419E+01
 0.50700726649E+01 0.52730058736E+01 0.54430983984E+01 0.55399017047E+01 0.55275846059E+01
 0.53911033602E+01 0.51450117876E+01 0.48300594770E+01 0.44994022793E+01 0.42013304760E+01
 0.39663770067E+01 0.38036557033E+01 0.37062673951E+01 0.36612580804E+01 0.36581585093E+01
 0.36921824295E+01 0.37621197639E+01 0.38660788023E+01 0.39986932261E+01 0.41515880008E+01
 0.43165425561E+01 0.44892111016E+01 0.46706779939E+01 0.48646311778E+01 0.49841204725E+01
 0.49949238988E+01 0.49841247527E+01 0.49462170113E+01 0.48687620319E+01 0.47419479866E+01
 0.45675417964E+01 0.43618514728E+01 0.41512107222E+01 0.39627552306E+01 0.38154981792E+01
 0.37161386849E+01 0.36612580804E+01 0.36440455672E+01 0.36612597967E+01 0.37161417569E+01
 0.38155010167E+01 0.39627554171E+01 0.41512071689E+01 0.43618456747E+01 0.45675361460E+01
 0.47419431136E+01 0.48687567754E+01 0.49462111245E+01 0.54431050693E+01 0.52730144051E+01
 0.50700807443E+01 0.48646361353E+01 0.46706799454E+01 0.44892119815E+01 0.43165428516E+01
 0.41515860734E+01 0.39986880243E+01 0.38660719327E+01 0.37621141509E+01 0.36921797198E+01
 0.36581585093E+01 0.36612597967E+01 0.37062691146E+01 0.38036542975E+01 0.39663693255E+01
 0.42013170252E+01 0.44993887364E+01 0.48300527348E+01 0.51450139416E+01 0.53911104467E+01
 0.55275915620E+01 0.55399074263E+01 0.65762251452E+01 0.61836592501E+01 0.57255248245E+01
 0.52695516938E+01 0.48687565222E+01 0.45453556603E+01 0.42972714659E+01 0.41100581242E+01
 0.39672168582E+01 0.38563621283E+01 0.37718072673E+01 0.37147420473E+01 0.36921824295E+01
 0.37161417569E+01 0.38036542975E+01 0.39758960452E+01 0.42530966384E+01 0.46439319446E+01
 0.51328652511E+01 0.56767231088E+01 0.62123199579E+01 0.66388235710E+01 0.68584609496E+01
 0.68275345752E+01 0.90562612051E+01 0.81595751417E+01 0.71697488992E+01 0.62748386031E+01
 0.55275901832E+01 0.49310250897E+01 0.44981840446E+01 0.42075881174E+01 0.40210576470E+01
 0.39008855080E+01 0.38208880802E+01 0.37718102832E+01 0.37621197639E+01 0.38155010167E+01
 0.39663693255E+01 0.42530966384E+01 0.47069891278E+01 0.53391070078E+01 0.61781129425E+01
 0.72113042932E+01 0.82923890837E+01 0.91894724920E+01 0.96747225393E+01 0.96201650105E+01
 0.14102118913E+02 0.12411658955E+02 0.10363419935E+02 0.84095585416E+01 0.68584595761E+01
 0.57676129386E+01 0.49959639376E+01 0.44821632140E+01 0.41717965525E+01 0.39965482373E+01
 0.39008865614E+01 0.38563669141E+01 0.38660788023E+01 0.39627554171E+01 0.42013170252E+01
 0.46439319446E+01 0.53391070078E+01 0.63962779416E+01 0.79429780080E+01 0.99019346761E+01
 0.11990411498E+02 0.13794845398E+02 0.14895281170E+02 0.15009182811E+02 0.22309895320E+02
 0.19811442267E+02 0.16407344642E+02 0.12811729603E+02 0.96747444409E+01 0.73788637620E+01
 0.59326805680E+01 0.50330370311E+01 0.44780338366E+01 0.41717971387E+01 0.40210584226E+01
 0.39672211211E+01 0.39986932261E+01 0.41512071689E+01 0.44993887364E+01 0.51328652511E+01
 0.61781129425E+01 0.79429780080E+01 0.10566269587E+02 0.13875041908E+02 0.17420623916E+02
 0.20582340606E+02 0.22720128778E+02 0.23352039351E+02 0.33196693590E+02 0.30195771315E+02
 0.25551552246E+02 0.20132982102E+02 0.14895365031E+02 0.10619309982E+02 0.76888005963E+01
 0.59919825095E+01 0.50330413956E+01 0.44821664114E+01 0.42075885283E+01 0.41100601601E+01
 0.41515880008E+01 0.43618456747E+01 0.48300527348E+01 0.56767231088E+01 0.72113042932E+01
 0.99019346761E+01 0.13875041908E+02 0.18834211067E+02 0.24141524713E+02 0.28969453726E+02