   1   1   0   0
  0.1798157E+02  0.2858577E-09  0.2858577E-09  0.2858577E-09  0.5000000E-15
  1.000000000000000E-004
  CAR 
 Nb gaussian                             
    100.23707884    -32.04635031  301      4.81398582      1.00000000
    -32.046  0.0000E+00  0.0000E+00
    -31.605  0.0000E+00  0.0000E+00
    -31.164  0.0000E+00  0.0000E+00
    -30.724  0.0000E+00  0.0000E+00
    -30.283  0.0000E+00  0.0000E+00
    -29.842  0.0000E+00  0.0000E+00
    -29.401  0.0000E+00  0.0000E+00
    -28.960  0.0000E+00  0.0000E+00
    -28.519  0.0000E+00  0.0000E+00
    -28.078  0.0000E+00  0.0000E+00
    -27.637  0.0000E+00  0.0000E+00
    -27.196  0.1209E-16  0.5329E-17
    -26.755  0.2809E-07  0.1239E-07
    -26.314  0.6940E-02  0.3060E-02
    -25.873  0.1266E+01  0.5611E+00
    -25.432  0.3615E+01  0.2155E+01
    -24.991  0.4483E+01  0.4132E+01
    -24.550  0.4052E+01  0.5918E+01
    -24.109  0.1851E+00  0.6000E+01
    -23.668  0.9099E-05  0.6000E+01
    -23.227  0.5952E-13  0.6000E+01
    -22.787  0.0000E+00  0.6000E+01
    -22.346  0.0000E+00  0.6000E+01
    -21.905  0.0000E+00  0.6000E+01
    -21.464  0.0000E+00  0.6000E+01
    -21.023  0.0000E+00  0.6000E+01
    -20.582  0.0000E+00  0.6000E+01
    -20.141  0.0000E+00  0.6000E+01
    -19.700  0.0000E+00  0.6000E+01
    -19.259  0.0000E+00  0.6000E+01
    -18.818  0.0000E+00  0.6000E+01
    -18.377  0.0000E+00  0.6000E+01
    -17.936  0.0000E+00  0.6000E+01
    -17.495  0.0000E+00  0.6000E+01
    -17.054  0.0000E+00  0.6000E+01
    -16.613  0.0000E+00  0.6000E+01
    -16.172  0.0000E+00  0.6000E+01
    -15.731  0.0000E+00  0.6000E+01
    -15.290  0.0000E+00  0.6000E+01
    -14.850  0.0000E+00  0.6000E+01
    -14.409  0.0000E+00  0.6000E+01
    -13.968  0.0000E+00  0.6000E+01
    -13.527  0.0000E+00  0.6000E+01
    -13.086  0.0000E+00  0.6000E+01
    -12.645  0.0000E+00  0.6000E+01
    -12.204  0.0000E+00  0.6000E+01
    -11.763  0.0000E+00  0.6000E+01
    -11.322  0.0000E+00  0.6000E+01
    -10.881  0.0000E+00  0.6000E+01
    -10.440  0.0000E+00  0.6000E+01
     -9.999  0.0000E+00  0.6000E+01
     -9.558  0.0000E+00  0.6000E+01
     -9.117  0.0000E+00  0.6000E+01
     -8.676  0.0000E+00  0.6000E+01
     -8.235  0.0000E+00  0.6000E+01
     -7.794  0.0000E+00  0.6000E+01
     -7.353  0.0000E+00  0.6000E+01
     -6.912  0.0000E+00  0.6000E+01
     -6.472  0.0000E+00  0.6000E+01
     -6.031  0.0000E+00  0.6000E+01
     -5.590  0.0000E+00  0.6000E+01
     -5.149  0.0000E+00  0.6000E+01
     -4.708  0.0000E+00  0.6000E+01
     -4.267  0.0000E+00  0.6000E+01
     -3.826  0.0000E+00  0.6000E+01
     -3.385  0.0000E+00  0.6000E+01
     -2.944  0.0000E+00  0.6000E+01
     -2.503  0.0000E+00  0.6000E+01
     -2.062  0.1511E-17  0.6000E+01
     -1.621  0.2137E-08  0.6000E+01
     -1.180  0.4557E-03  0.6000E+01
     -0.739  0.2373E-01  0.6011E+01
     -0.298  0.4703E-01  0.6031E+01
      0.143  0.9806E-01  0.6075E+01
      0.584  0.9586E-01  0.6117E+01
      1.025  0.2377E+00  0.6222E+01
      1.465  0.5755E+00  0.6475E+01
      1.906  0.1177E+01  0.6995E+01
      2.347  0.1250E+01  0.7546E+01
      2.788  0.1127E+01  0.8042E+01
      3.229  0.9664E+00  0.8468E+01
      3.670  0.1825E+01  0.9273E+01
      4.111  0.1151E+01  0.9781E+01
      4.552  0.1686E+01  0.1052E+02
      4.993  0.1474E+01  0.1117E+02
      5.434  0.6856E+00  0.1148E+02
      5.875  0.7143E+00  0.1179E+02
      6.316  0.5649E+00  0.1204E+02
      6.757  0.4833E+00  0.1225E+02
      7.198  0.1063E+01  0.1272E+02
      7.639  0.1062E+01  0.1319E+02
      8.080  0.1413E+01  0.1381E+02
      8.521  0.1404E+01  0.1443E+02
      8.962  0.2011E+01  0.1532E+02
      9.402  0.1594E+01  0.1602E+02
      9.843  0.6898E+00  0.1633E+02
     10.284  0.4128E+00  0.1651E+02
     10.725  0.3358E+00  0.1666E+02
     11.166  0.7880E+00  0.1700E+02
     11.607  0.3030E+00  0.1714E+02
     12.048  0.2388E+00  0.1724E+02
     12.489  0.2414E+00  0.1735E+02
     12.930  0.2485E+00  0.1746E+02
     13.371  0.4136E+00  0.1764E+02
     13.812  0.2361E+00  0.1775E+02
     14.253  0.8415E-01  0.1778E+02
     14.694  0.2470E+00  0.1789E+02
     15.135  0.2827E+00  0.1802E+02
     15.576  0.3461E+00  0.1817E+02
     16.017  0.2032E+00  0.1826E+02
     16.458  0.7426E+00  0.1859E+02
     16.899  0.4894E+00  0.1880E+02
     17.339  0.5169E+00  0.1903E+02
     17.780  0.7538E+00  0.1936E+02
     18.221  0.6609E+00  0.1965E+02
     18.662  0.9653E+00  0.2008E+02
     19.103  0.5794E+00  0.2034E+02
     19.544  0.1043E+01  0.2079E+02
     19.985  0.4931E+00  0.2101E+02
     20.426  0.6612E+00  0.2130E+02
     20.867  0.6206E+00  0.2158E+02
     21.308  0.8629E+00  0.2196E+02
     21.749  0.6847E+00  0.2226E+02
     22.190  0.8764E+00  0.2265E+02
     22.631  0.1012E+01  0.2309E+02
     23.072  0.4753E+00  0.2330E+02
     23.513  0.3684E+00  0.2346E+02
     23.954  0.3761E+00  0.2363E+02
     24.395  0.5738E+00  0.2388E+02
     24.836  0.7436E+00  0.2421E+02
     25.276  0.1190E+01  0.2474E+02
     25.717  0.6331E+00  0.2502E+02
     26.158  0.7250E+00  0.2534E+02
     26.599  0.3390E+00  0.2548E+02
     27.040  0.2288E+00  0.2559E+02
     27.481  0.5178E+00  0.2581E+02
     27.922  0.1012E+01  0.2626E+02
     28.363  0.5885E+00  0.2652E+02
     28.804  0.3519E+00  0.2667E+02
     29.245  0.9730E+00  0.2710E+02
     29.686  0.8190E+00  0.2747E+02
     30.127  0.9048E+00  0.2786E+02
     30.568  0.3666E+00  0.2803E+02
     31.009  0.5616E+00  0.2827E+02
     31.450  0.8334E+00  0.2864E+02
     31.891  0.6111E+00  0.2891E+02
     32.332  0.8264E+00  0.2927E+02
     32.773  0.9193E+00  0.2968E+02
     33.213  0.6480E+00  0.2997E+02
     33.654  0.1043E+01  0.3043E+02
     34.095  0.1063E+01  0.3089E+02
     34.536  0.1108E+01  0.3138E+02
     34.977  0.3464E+00  0.3154E+02
     35.418  0.4441E+00  0.3173E+02
     35.859  0.5890E+00  0.3199E+02
     36.300  0.9234E+00  0.3240E+02
     36.741  0.6832E+00  0.3270E+02
     37.182  0.6775E+00  0.3300E+02
     37.623  0.1116E+01  0.3349E+02
     38.064  0.8811E+00  0.3388E+02
     38.505  0.7524E+00  0.3421E+02
     38.946  0.7533E+00  0.3454E+02
     39.387  0.9603E+00  0.3497E+02
     39.828  0.8539E+00  0.3534E+02
     40.269  0.7483E+00  0.3567E+02
     40.710  0.8057E+00  0.3603E+02
     41.150  0.5770E+00  0.3628E+02
     41.591  0.1304E+01  0.3686E+02
     42.032  0.1801E+01  0.3765E+02
     42.473  0.3234E+01  0.3908E+02
     42.914  0.1430E+01  0.3971E+02
     43.355  0.1041E+01  0.4017E+02
     43.796  0.8949E+00  0.4056E+02
     44.237  0.1405E+01  0.4118E+02
     44.678  0.1143E+01  0.4169E+02
     45.119  0.6684E+00  0.4198E+02
     45.560  0.8892E+00  0.4237E+02
     46.001  0.9745E+00  0.4280E+02
     46.442  0.5041E+00  0.4302E+02
     46.883  0.6089E+00  0.4329E+02
     47.324  0.7768E+00  0.4364E+02
     47.765  0.9882E+00  0.4407E+02
     48.206  0.7598E+00  0.4441E+02
     48.647  0.5444E+00  0.4465E+02
     49.087  0.1109E+01  0.4514E+02
     49.528  0.7597E+00  0.4547E+02
     49.969  0.5384E+00  0.4571E+02
     50.410  0.1140E+01  0.4621E+02
     50.851  0.9130E+00  0.4661E+02
     51.292  0.8831E+00  0.4700E+02
     51.733  0.7593E+00  0.4734E+02
     52.174  0.1071E+01  0.4781E+02
     52.615  0.8911E+00  0.4820E+02
     53.056  0.8396E+00  0.4857E+02
     53.497  0.5267E+00  0.4881E+02
     53.938  0.1588E+01  0.4951E+02
     54.379  0.1141E+01  0.5001E+02
     54.820  0.4304E+00  0.5020E+02
     55.261  0.5095E+00  0.5042E+02
     55.702  0.1124E+01  0.5092E+02
     56.143  0.1213E+01  0.5145E+02
     56.584  0.1084E+01  0.5193E+02
     57.024  0.9158E+00  0.5234E+02
     57.465  0.8558E+00  0.5271E+02
     57.906  0.8927E+00  0.5311E+02
     58.347  0.1132E+01  0.5361E+02
     58.788  0.1149E+01  0.5411E+02
     59.229  0.9543E+00  0.5453E+02
     59.670  0.8446E+00  0.5491E+02
     60.111  0.1139E+01  0.5541E+02
     60.552  0.1268E+01  0.5597E+02
     60.993  0.1253E+01  0.5652E+02
     61.434  0.7775E+00  0.5686E+02
     61.875  0.8831E+00  0.5725E+02
     62.316  0.1281E+01  0.5782E+02
     62.757  0.9022E+00  0.5821E+02
     63.198  0.1032E+01  0.5867E+02
     63.639  0.9243E+00  0.5908E+02
     64.080  0.6549E+00  0.5937E+02
     64.521  0.1058E+01  0.5983E+02
     64.961  0.9101E+00  0.6023E+02
     65.402  0.5543E+00  0.6048E+02
     65.843  0.1103E+01  0.6096E+02
     66.284  0.7759E+00  0.6131E+02
     66.725  0.1077E+01  0.6178E+02
     67.166  0.1165E+01  0.6230E+02
     67.607  0.1033E+01  0.6275E+02
     68.048  0.1536E+01  0.6343E+02
     68.489  0.1197E+01  0.6396E+02
     68.930  0.1330E+01  0.6454E+02
     69.371  0.1165E+01  0.6506E+02
     69.812  0.7140E+00  0.6537E+02
     70.253  0.6272E+00  0.6565E+02
     70.694  0.5809E+00  0.6590E+02
     71.135  0.7318E+00  0.6623E+02
     71.576  0.5688E+00  0.6648E+02
     72.017  0.1597E+01  0.6718E+02
     72.458  0.6679E+00  0.6748E+02
     72.899  0.1181E+01  0.6800E+02
     73.339  0.1346E+01  0.6859E+02
     73.780  0.1120E+01  0.6908E+02
     74.221  0.1604E+01  0.6979E+02
     74.662  0.1020E+01  0.7024E+02
     75.103  0.8861E+00  0.7063E+02
     75.544  0.1233E+01  0.7118E+02
     75.985  0.1341E+01  0.7177E+02
     76.426  0.6815E+00  0.7207E+02
     76.867  0.1159E+01  0.7258E+02
     77.308  0.1354E+01  0.7318E+02
     77.749  0.1149E+01  0.7368E+02
     78.190  0.8364E+00  0.7405E+02
     78.631  0.7567E+00  0.7439E+02
     79.072  0.9913E+00  0.7482E+02
     79.513  0.1002E+01  0.7526E+02
     79.954  0.7153E+00  0.7558E+02
     80.395  0.1032E+01  0.7603E+02
     80.836  0.8712E+00  0.7642E+02
     81.276  0.9684E+00  0.7685E+02
     81.717  0.1273E+01  0.7741E+02
     82.158  0.1305E+01  0.7798E+02
     82.599  0.1094E+01  0.7846E+02
     83.040  0.1156E+01  0.7897E+02
     83.481  0.4963E+00  0.7919E+02
     83.922  0.5375E+00  0.7943E+02
     84.363  0.3745E+00  0.7960E+02
     84.804  0.1386E+00  0.7966E+02
     85.245  0.2562E+00  0.7977E+02
     85.686  0.2790E+00  0.7989E+02
     86.127  0.8219E-02  0.7990E+02
     86.568  0.3114E-01  0.7991E+02
     87.009  0.4134E-02  0.7991E+02
     87.450  0.5650E-02  0.7991E+02
     87.891  0.9581E-01  0.7996E+02
     88.332  0.7396E-02  0.7996E+02
     88.773  0.2200E-06  0.7996E+02
     89.213  0.6043E-15  0.7996E+02
     89.654  0.0000E+00  0.7996E+02
     90.095  0.0000E+00  0.7996E+02
     90.536  0.0000E+00  0.7996E+02
     90.977  0.0000E+00  0.7996E+02
     91.418  0.0000E+00  0.7996E+02
     91.859  0.0000E+00  0.7996E+02
     92.300  0.0000E+00  0.7996E+02
     92.741  0.1213E-08  0.7996E+02
     93.182  0.4086E-03  0.7996E+02
     93.623  0.2857E-01  0.7997E+02
     94.064  0.1434E-01  0.7998E+02
     94.505  0.4613E-01  0.8000E+02
     94.946  0.1276E-02  0.8000E+02
     95.387  0.8984E-08  0.8000E+02
     95.828  0.0000E+00  0.8000E+02
     96.269  0.0000E+00  0.8000E+02
     96.710  0.0000E+00  0.8000E+02
     97.150  0.0000E+00  0.8000E+02
     97.591  0.0000E+00  0.8000E+02
     98.032  0.0000E+00  0.8000E+02
     98.473  0.0000E+00  0.8000E+02
     98.914  0.0000E+00  0.8000E+02
     99.355  0.0000E+00  0.8000E+02
     99.796  0.0000E+00  0.8000E+02
    100.237  0.0000E+00  0.8000E+02
