       N       E                     dE             d eps       ncg     rms          rms(c)
DAV:   1    -0.998960233248E+01   -0.99896E+01   -0.55710E+03  4840   0.184E+02
DAV:   2    -0.111669874407E+02   -0.11774E+01   -0.11390E+01  3800   0.979E+00
DAV:   3    -0.111673485334E+02   -0.36109E-03   -0.36109E-03  6160   0.163E-01
DAV:   4    -0.111673485345E+02   -0.11080E-08   -0.10442E-08  3960   0.169E-04
DAV:   5    -0.111673485348E+02   -0.29581E-09   -0.39908E-12  5880   0.130E-06
DAV:   6    -0.111673485342E+02    0.62096E-09    0.41279E-13  3240   0.478E-08
   1 F= -.11167349E+02 E0= -.11155247E+02  d E =-.242027E-01
