   4   4   1   0
  0.9063964E+01  0.5107186E-09  0.5107186E-09  0.5107186E-09  0.5000000E-15
  1.000000000000000E-004
  CAR 
 NiO_af2                                 
     15.00887442    -16.69226838  301      3.76651729      1.00000000
    -16.692  0.0000E+00  0.0000E+00  0.0000E+00  0.0000E+00
    -16.587  0.0000E+00  0.0000E+00  0.0000E+00  0.0000E+00
    -16.481  0.0000E+00  0.0000E+00  0.0000E+00  0.0000E+00
    -16.375 -0.1862E-30 -0.1862E-30 -0.1968E-31 -0.1968E-31
    -16.270 -0.1031E-26 -0.1031E-26 -0.1089E-27 -0.1089E-27
    -16.164 -0.3108E-23 -0.3108E-23 -0.3285E-24 -0.3285E-24
    -16.058 -0.5345E-20 -0.5345E-20 -0.5652E-21 -0.5652E-21
    -15.953 -0.5242E-17 -0.5242E-17 -0.5545E-18 -0.5545E-18
    -15.847 -0.2842E-14 -0.2842E-14 -0.3008E-15 -0.3008E-15
    -15.741 -0.8987E-12 -0.8987E-12 -0.9527E-13 -0.9527E-13
    -15.636 -0.1611E-09 -0.1611E-09 -0.1712E-10 -0.1712E-10
    -15.530 -0.1633E-07 -0.1633E-07 -0.1742E-08 -0.1742E-08
    -15.424 -0.9305E-06 -0.9305E-06 -0.1001E-06 -0.1001E-06
    -15.319 -0.2956E-04 -0.2956E-04 -0.3223E-05 -0.3223E-05
    -15.213 -0.5143E-03 -0.5143E-03 -0.5757E-04 -0.5757E-04
    -15.107 -0.4722E-02 -0.4722E-02 -0.5565E-03 -0.5565E-03
    -15.002 -0.2058E-01 -0.2058E-01 -0.2731E-02 -0.2731E-02
    -14.896 -0.2307E-01 -0.2307E-01 -0.5169E-02 -0.5169E-02
    -14.790  0.1172E+00  0.1172E+00  0.7215E-02  0.7215E-02
    -14.685  0.4524E+00  0.4524E+00  0.5502E-01  0.5502E-01
    -14.579  0.6816E+00  0.6816E+00  0.1270E+00  0.1270E+00
    -14.473  0.5959E+00  0.5959E+00  0.1900E+00  0.1900E+00
    -14.368  0.4128E+00  0.4128E+00  0.2336E+00  0.2336E+00
    -14.262  0.3165E+00  0.3165E+00  0.2671E+00  0.2671E+00
    -14.156  0.3598E+00  0.3598E+00  0.3051E+00  0.3051E+00
    -14.051  0.5860E+00  0.5860E+00  0.3670E+00  0.3670E+00
    -13.945  0.8082E+00  0.8082E+00  0.4524E+00  0.4524E+00
    -13.839  0.7796E+00  0.7796E+00  0.5348E+00  0.5348E+00
    -13.733  0.6089E+00  0.6089E+00  0.5991E+00  0.5991E+00
    -13.628  0.5920E+00  0.5920E+00  0.6617E+00  0.6617E+00
    -13.522  0.1104E+01  0.1104E+01  0.7784E+00  0.7784E+00
    -13.416  0.2435E+01  0.2435E+01  0.1036E+01  0.1036E+01
    -13.311  0.3846E+01  0.3846E+01  0.1442E+01  0.1442E+01
    -13.205  0.3618E+01  0.3618E+01  0.1824E+01  0.1824E+01
    -13.099  0.1719E+01  0.1719E+01  0.2006E+01  0.2006E+01
    -12.994  0.1880E+00  0.1880E+00  0.2026E+01  0.2026E+01
    -12.888 -0.1619E+00 -0.1619E+00  0.2009E+01  0.2009E+01
    -12.782 -0.7096E-01 -0.7096E-01  0.2001E+01  0.2001E+01
    -12.677 -0.1221E-01 -0.1221E-01  0.2000E+01  0.2000E+01
    -12.571 -0.1063E-02 -0.1063E-02  0.2000E+01  0.2000E+01
    -12.465 -0.4998E-04 -0.4998E-04  0.2000E+01  0.2000E+01
    -12.360 -0.1301E-05 -0.1301E-05  0.2000E+01  0.2000E+01
    -12.254 -0.1899E-07 -0.1899E-07  0.2000E+01  0.2000E+01
    -12.148 -0.1565E-09 -0.1565E-09  0.2000E+01  0.2000E+01
    -12.043 -0.7304E-12 -0.7304E-12  0.2000E+01  0.2000E+01
    -11.937 -0.1944E-14 -0.1944E-14  0.2000E+01  0.2000E+01
    -11.831  0.0000E+00  0.0000E+00  0.2000E+01  0.2000E+01
    -11.726  0.0000E+00  0.0000E+00  0.2000E+01  0.2000E+01
    -11.620  0.0000E+00  0.0000E+00  0.2000E+01  0.2000E+01
    -11.514  0.0000E+00  0.0000E+00  0.2000E+01  0.2000E+01
    -11.409  0.0000E+00  0.0000E+00  0.2000E+01  0.2000E+01
    -11.303  0.0000E+00  0.0000E+00  0.2000E+01  0.2000E+01
    -11.197  0.0000E+00  0.0000E+00  0.2000E+01  0.2000E+01
    -11.092  0.0000E+00  0.0000E+00  0.2000E+01  0.2000E+01
    -10.986  0.0000E+00  0.0000E+00  0.2000E+01  0.2000E+01
    -10.880  0.0000E+00  0.0000E+00  0.2000E+01  0.2000E+01
    -10.775  0.0000E+00  0.0000E+00  0.2000E+01  0.2000E+01
    -10.669  0.0000E+00  0.0000E+00  0.2000E+01  0.2000E+01
    -10.563  0.0000E+00  0.0000E+00  0.2000E+01  0.2000E+01
    -10.458  0.0000E+00  0.0000E+00  0.2000E+01  0.2000E+01
    -10.352  0.0000E+00  0.0000E+00  0.2000E+01  0.2000E+01
    -10.246  0.0000E+00  0.0000E+00  0.2000E+01  0.2000E+01
    -10.141  0.0000E+00  0.0000E+00  0.2000E+01  0.2000E+01
    -10.035  0.0000E+00  0.0000E+00  0.2000E+01  0.2000E+01
     -9.929  0.0000E+00  0.0000E+00  0.2000E+01  0.2000E+01
     -9.824  0.0000E+00  0.0000E+00  0.2000E+01  0.2000E+01
     -9.718  0.0000E+00  0.0000E+00  0.2000E+01  0.2000E+01
     -9.612  0.0000E+00  0.0000E+00  0.2000E+01  0.2000E+01
     -9.507  0.0000E+00  0.0000E+00  0.2000E+01  0.2000E+01
     -9.401  0.0000E+00  0.0000E+00  0.2000E+01  0.2000E+01
     -9.295  0.0000E+00  0.0000E+00  0.2000E+01  0.2000E+01
     -9.190  0.0000E+00  0.0000E+00  0.2000E+01  0.2000E+01
     -9.084  0.0000E+00  0.0000E+00  0.2000E+01  0.2000E+01
     -8.978  0.0000E+00  0.0000E+00  0.2000E+01  0.2000E+01
     -8.873  0.0000E+00  0.0000E+00  0.2000E+01  0.2000E+01
     -8.767  0.0000E+00  0.0000E+00  0.2000E+01  0.2000E+01
     -8.661  0.0000E+00  0.0000E+00  0.2000E+01  0.2000E+01
     -8.556  0.0000E+00  0.0000E+00  0.2000E+01  0.2000E+01
     -8.450  0.0000E+00  0.0000E+00  0.2000E+01  0.2000E+01
     -8.344  0.0000E+00  0.0000E+00  0.2000E+01  0.2000E+01
     -8.239  0.0000E+00  0.0000E+00  0.2000E+01  0.2000E+01
     -8.133  0.0000E+00  0.0000E+00  0.2000E+01  0.2000E+01
     -8.027  0.0000E+00  0.0000E+00  0.2000E+01  0.2000E+01
     -7.922  0.0000E+00  0.0000E+00  0.2000E+01  0.2000E+01
     -7.816  0.0000E+00  0.0000E+00  0.2000E+01  0.2000E+01
     -7.710  0.0000E+00  0.0000E+00  0.2000E+01  0.2000E+01
     -7.605  0.0000E+00  0.0000E+00  0.2000E+01  0.2000E+01
     -7.499  0.0000E+00  0.0000E+00  0.2000E+01  0.2000E+01
     -7.393  0.0000E+00  0.0000E+00  0.2000E+01  0.2000E+01
     -7.288  0.0000E+00  0.0000E+00  0.2000E+01  0.2000E+01
     -7.182  0.0000E+00  0.0000E+00  0.2000E+01  0.2000E+01
     -7.076  0.0000E+00  0.0000E+00  0.2000E+01  0.2000E+01
     -6.971  0.0000E+00  0.0000E+00  0.2000E+01  0.2000E+01
     -6.865  0.0000E+00  0.0000E+00  0.2000E+01  0.2000E+01
     -6.759  0.0000E+00  0.0000E+00  0.2000E+01  0.2000E+01
     -6.654  0.0000E+00  0.0000E+00  0.2000E+01  0.2000E+01
     -6.548  0.0000E+00  0.0000E+00  0.2000E+01  0.2000E+01
     -6.442  0.0000E+00  0.0000E+00  0.2000E+01  0.2000E+01
     -6.337  0.0000E+00  0.0000E+00  0.2000E+01  0.2000E+01
     -6.231  0.0000E+00  0.0000E+00  0.2000E+01  0.2000E+01
     -6.125  0.0000E+00  0.0000E+00  0.2000E+01  0.2000E+01
     -6.020  0.0000E+00  0.0000E+00  0.2000E+01  0.2000E+01
     -5.914  0.0000E+00  0.0000E+00  0.2000E+01  0.2000E+01
     -5.808  0.0000E+00  0.0000E+00  0.2000E+01  0.2000E+01
     -5.703  0.0000E+00  0.0000E+00  0.2000E+01  0.2000E+01
     -5.597  0.0000E+00  0.0000E+00  0.2000E+01  0.2000E+01
     -5.491  0.0000E+00  0.0000E+00  0.2000E+01  0.2000E+01
     -5.386  0.0000E+00  0.0000E+00  0.2000E+01  0.2000E+01
     -5.280  0.0000E+00  0.0000E+00  0.2000E+01  0.2000E+01
     -5.174 -0.4063E-31 -0.4063E-31  0.2000E+01  0.2000E+01
     -5.069 -0.4584E-27 -0.4584E-27  0.2000E+01  0.2000E+01
     -4.963 -0.1512E-23 -0.1512E-23  0.2000E+01  0.2000E+01
     -4.857 -0.2846E-20 -0.2846E-20  0.2000E+01  0.2000E+01
     -4.752 -0.3059E-17 -0.3059E-17  0.2000E+01  0.2000E+01
     -4.646 -0.1822E-14 -0.1822E-14  0.2000E+01  0.2000E+01
     -4.540 -0.6324E-12 -0.6324E-12  0.2000E+01  0.2000E+01
     -4.434 -0.1247E-09 -0.1247E-09  0.2000E+01  0.2000E+01
     -4.329 -0.1392E-07 -0.1392E-07  0.2000E+01  0.2000E+01
     -4.223 -0.8757E-06 -0.8757E-06  0.2000E+01  0.2000E+01
     -4.117 -0.3080E-04 -0.3080E-04  0.2000E+01  0.2000E+01
     -4.012 -0.5964E-03 -0.5964E-03  0.2000E+01  0.2000E+01
     -3.906 -0.6158E-02 -0.6158E-02  0.1999E+01  0.1999E+01
     -3.800 -0.3115E-01 -0.3115E-01  0.1996E+01  0.1996E+01
     -3.695 -0.5225E-01 -0.5225E-01  0.1990E+01  0.1990E+01
     -3.589  0.1360E+00  0.1360E+00  0.2005E+01  0.2005E+01
     -3.483  0.7128E+00  0.7128E+00  0.2080E+01  0.2080E+01
     -3.378  0.1235E+01  0.1235E+01  0.2211E+01  0.2211E+01
     -3.272  0.1202E+01  0.1202E+01  0.2338E+01  0.2338E+01
     -3.166  0.8952E+00  0.8952E+00  0.2432E+01  0.2432E+01
     -3.061  0.7000E+00  0.7000E+00  0.2506E+01  0.2506E+01
     -2.955  0.7025E+00  0.7025E+00  0.2580E+01  0.2580E+01
     -2.849  0.8122E+00  0.8122E+00  0.2666E+01  0.2666E+01
     -2.744  0.7608E+00  0.7608E+00  0.2747E+01  0.2747E+01
     -2.638  0.8672E+00  0.8672E+00  0.2838E+01  0.2838E+01
     -2.532  0.2417E+01  0.2417E+01  0.3094E+01  0.3094E+01
     -2.427  0.5263E+01  0.5263E+01  0.3650E+01  0.3650E+01
     -2.321  0.6450E+01  0.6450E+01  0.4331E+01  0.4331E+01
     -2.215  0.4459E+01  0.4459E+01  0.4803E+01  0.4803E+01
     -2.110  0.1685E+01  0.1685E+01  0.4981E+01  0.4981E+01
     -2.004  0.5088E+00  0.5088E+00  0.5034E+01  0.5034E+01
     -1.898  0.6505E+00  0.6505E+00  0.5103E+01  0.5103E+01
     -1.793  0.1143E+01  0.1143E+01  0.5224E+01  0.5224E+01
     -1.687  0.1692E+01  0.1692E+01  0.5403E+01  0.5403E+01
     -1.581  0.2047E+01  0.2047E+01  0.5619E+01  0.5619E+01
     -1.476  0.2609E+01  0.2609E+01  0.5895E+01  0.5895E+01
     -1.370  0.3729E+01  0.3729E+01  0.6289E+01  0.6289E+01
     -1.264  0.3724E+01  0.3724E+01  0.6682E+01  0.6682E+01
     -1.159  0.2184E+01  0.2184E+01  0.6913E+01  0.6913E+01
     -1.053  0.1274E+01  0.1274E+01  0.7048E+01  0.7048E+01
     -0.947  0.1308E+01  0.1308E+01  0.7186E+01  0.7186E+01
     -0.842  0.1178E+01  0.1178E+01  0.7310E+01  0.7310E+01
     -0.736  0.1107E+01  0.1107E+01  0.7427E+01  0.7427E+01
     -0.630  0.1528E+01  0.1528E+01  0.7589E+01  0.7589E+01
     -0.525  0.1910E+01  0.1910E+01  0.7791E+01  0.7791E+01
     -0.419  0.1925E+01  0.1925E+01  0.7994E+01  0.7994E+01
     -0.313  0.1856E+01  0.1856E+01  0.8190E+01  0.8190E+01
     -0.208  0.1522E+01  0.1522E+01  0.8351E+01  0.8351E+01
     -0.102  0.8738E+00  0.8738E+00  0.8443E+01  0.8443E+01
      0.004  0.5262E+00  0.5262E+00  0.8499E+01  0.8499E+01
      0.109  0.4961E+00  0.4961E+00  0.8551E+01  0.8551E+01
      0.215  0.4560E+00  0.4560E+00  0.8600E+01  0.8600E+01
      0.321  0.4649E+00  0.4649E+00  0.8649E+01  0.8649E+01
      0.426  0.5809E+00  0.5809E+00  0.8710E+01  0.8710E+01
      0.532  0.7693E+00  0.7693E+00  0.8791E+01  0.8791E+01
      0.638  0.1186E+01  0.1186E+01  0.8917E+01  0.8917E+01
      0.743  0.1791E+01  0.1791E+01  0.9106E+01  0.9106E+01
      0.849  0.2158E+01  0.2158E+01  0.9334E+01  0.9334E+01
      0.955  0.2079E+01  0.2079E+01  0.9554E+01  0.9554E+01
      1.060  0.1783E+01  0.1783E+01  0.9742E+01  0.9742E+01
      1.166  0.1763E+01  0.1763E+01  0.9928E+01  0.9928E+01
      1.272  0.2332E+01  0.2332E+01  0.1017E+02  0.1017E+02
      1.377  0.2808E+01  0.2808E+01  0.1047E+02  0.1047E+02
      1.483  0.2281E+01  0.2281E+01  0.1071E+02  0.1071E+02
      1.589  0.1635E+01  0.1635E+01  0.1089E+02  0.1089E+02
      1.694  0.1924E+01  0.1924E+01  0.1109E+02  0.1109E+02
      1.800  0.2307E+01  0.2307E+01  0.1133E+02  0.1133E+02
      1.906  0.1847E+01  0.1847E+01  0.1153E+02  0.1153E+02
      2.011  0.9760E+00  0.9760E+00  0.1163E+02  0.1163E+02
      2.117  0.5188E+00  0.5188E+00  0.1169E+02  0.1169E+02
      2.223  0.6106E+00  0.6106E+00  0.1175E+02  0.1175E+02
      2.328  0.9712E+00  0.9712E+00  0.1185E+02  0.1185E+02
      2.434  0.1663E+01  0.1663E+01  0.1203E+02  0.1203E+02
      2.540  0.3239E+01  0.3239E+01  0.1237E+02  0.1237E+02
      2.645  0.4889E+01  0.4889E+01  0.1289E+02  0.1289E+02
      2.751  0.4640E+01  0.4640E+01  0.1338E+02  0.1338E+02
      2.857  0.3048E+01  0.3048E+01  0.1370E+02  0.1370E+02
      2.962  0.2343E+01  0.2343E+01  0.1395E+02  0.1395E+02
      3.068  0.2931E+01  0.2931E+01  0.1426E+02  0.1426E+02
      3.174  0.3600E+01  0.3600E+01  0.1464E+02  0.1464E+02
      3.279  0.3839E+01  0.3839E+01  0.1504E+02  0.1504E+02
      3.385  0.3454E+01  0.3454E+01  0.1541E+02  0.1541E+02
      3.491  0.2502E+01  0.2502E+01  0.1567E+02  0.1567E+02
      3.596  0.1725E+01  0.1725E+01  0.1586E+02  0.1586E+02
      3.702  0.1072E+01  0.1072E+01  0.1597E+02  0.1597E+02
      3.808  0.3763E+00  0.3763E+00  0.1601E+02  0.1601E+02
      3.913 -0.3928E-02 -0.3928E-02  0.1601E+02  0.1601E+02
      4.019 -0.5201E-01 -0.5201E-01  0.1600E+02  0.1600E+02
      4.125 -0.1830E-01 -0.1830E-01  0.1600E+02  0.1600E+02
      4.230 -0.3056E-02 -0.3056E-02  0.1600E+02  0.1600E+02
      4.336 -0.1234E-02 -0.1234E-02  0.1600E+02  0.1600E+02
      4.442 -0.6778E-02 -0.6778E-02  0.1600E+02  0.1600E+02
      4.547 -0.2244E-01 -0.2244E-01  0.1600E+02  0.1600E+02
      4.653 -0.1639E-01 -0.1639E-01  0.1600E+02  0.1600E+02
      4.759  0.1155E+00  0.1155E+00  0.1601E+02  0.1601E+02
      4.865  0.4467E+00  0.4467E+00  0.1605E+02  0.1605E+02
      4.970  0.9013E+00  0.9013E+00  0.1615E+02  0.1615E+02
      5.076  0.1330E+01  0.1330E+01  0.1629E+02  0.1629E+02
      5.182  0.1709E+01  0.1709E+01  0.1647E+02  0.1647E+02
      5.287  0.2072E+01  0.2072E+01  0.1669E+02  0.1669E+02
      5.393  0.2185E+01  0.2185E+01  0.1692E+02  0.1692E+02
      5.499  0.2125E+01  0.2125E+01  0.1715E+02  0.1715E+02
      5.604  0.2492E+01  0.2492E+01  0.1741E+02  0.1741E+02
      5.710  0.2853E+01  0.2853E+01  0.1771E+02  0.1771E+02
      5.816  0.2113E+01  0.2113E+01  0.1793E+02  0.1793E+02
      5.921  0.7575E+00  0.7575E+00  0.1801E+02  0.1801E+02
      6.027  0.4070E-02  0.4070E-02  0.1801E+02  0.1801E+02
      6.133 -0.9274E-01 -0.9274E-01  0.1800E+02  0.1800E+02
      6.238 -0.3247E-01 -0.3247E-01  0.1800E+02  0.1800E+02
      6.344 -0.5216E-02 -0.5216E-02  0.1800E+02  0.1800E+02
      6.450 -0.4730E-03 -0.4730E-03  0.1800E+02  0.1800E+02
      6.555 -0.3723E-03 -0.3723E-03  0.1800E+02  0.1800E+02
      6.661 -0.2846E-02 -0.2846E-02  0.1800E+02  0.1800E+02
      6.767 -0.1047E-01 -0.1047E-01  0.1800E+02  0.1800E+02
      6.872 -0.5151E-02 -0.5151E-02  0.1800E+02  0.1800E+02
      6.978  0.7404E-01  0.7404E-01  0.1801E+02  0.1801E+02
      7.084  0.2207E+00  0.2207E+00  0.1803E+02  0.1803E+02
      7.189  0.2867E+00  0.2867E+00  0.1806E+02  0.1806E+02
      7.295  0.2261E+00  0.2261E+00  0.1808E+02  0.1808E+02
      7.401  0.1547E+00  0.1547E+00  0.1810E+02  0.1810E+02
      7.506  0.1281E+00  0.1281E+00  0.1811E+02  0.1811E+02
      7.612  0.1189E+00  0.1189E+00  0.1813E+02  0.1813E+02
      7.718  0.1093E+00  0.1093E+00  0.1814E+02  0.1814E+02
      7.823  0.1061E+00  0.1061E+00  0.1815E+02  0.1815E+02
      7.929  0.1063E+00  0.1063E+00  0.1816E+02  0.1816E+02
      8.035  0.9638E-01  0.9638E-01  0.1817E+02  0.1817E+02
      8.140  0.9167E-01  0.9167E-01  0.1818E+02  0.1818E+02
      8.246  0.1025E+00  0.1025E+00  0.1819E+02  0.1819E+02
      8.352  0.9587E-01  0.9587E-01  0.1820E+02  0.1820E+02
      8.457  0.8124E-01  0.8124E-01  0.1821E+02  0.1821E+02
      8.563  0.9598E-01  0.9598E-01  0.1822E+02  0.1822E+02
      8.669  0.1032E+00  0.1032E+00  0.1823E+02  0.1823E+02
      8.774  0.8098E-01  0.8098E-01  0.1824E+02  0.1824E+02
      8.880  0.8465E-01  0.8465E-01  0.1825E+02  0.1825E+02
      8.986  0.1059E+00  0.1059E+00  0.1826E+02  0.1826E+02
      9.091  0.9138E-01  0.9138E-01  0.1827E+02  0.1827E+02
      9.197  0.8062E-01  0.8062E-01  0.1828E+02  0.1828E+02
      9.303  0.1026E+00  0.1026E+00  0.1829E+02  0.1829E+02
      9.408  0.9936E-01  0.9936E-01  0.1830E+02  0.1830E+02
      9.514  0.8049E-01  0.8049E-01  0.1831E+02  0.1831E+02
      9.620  0.1126E+00  0.1126E+00  0.1832E+02  0.1832E+02
      9.725  0.1811E+00  0.1811E+00  0.1834E+02  0.1834E+02
      9.831  0.2528E+00  0.2528E+00  0.1836E+02  0.1836E+02
      9.937  0.3097E+00  0.3097E+00  0.1840E+02  0.1840E+02
     10.042  0.2954E+00  0.2954E+00  0.1843E+02  0.1843E+02
     10.148  0.2390E+00  0.2390E+00  0.1845E+02  0.1845E+02
     10.254  0.2209E+00  0.2209E+00  0.1848E+02  0.1848E+02
     10.359  0.2190E+00  0.2190E+00  0.1850E+02  0.1850E+02
     10.465  0.2177E+00  0.2177E+00  0.1852E+02  0.1852E+02
     10.571  0.2263E+00  0.2263E+00  0.1855E+02  0.1855E+02
     10.676  0.2254E+00  0.2254E+00  0.1857E+02  0.1857E+02
     10.782  0.2899E+00  0.2899E+00  0.1860E+02  0.1860E+02
     10.888  0.5858E+00  0.5858E+00  0.1866E+02  0.1866E+02
     10.993  0.1014E+01  0.1014E+01  0.1877E+02  0.1877E+02
     11.099  0.1082E+01  0.1082E+01  0.1889E+02  0.1889E+02
     11.205  0.7347E+00  0.7347E+00  0.1896E+02  0.1896E+02
     11.310  0.4609E+00  0.4609E+00  0.1901E+02  0.1901E+02
     11.416  0.5149E+00  0.5149E+00  0.1907E+02  0.1907E+02
     11.522  0.8365E+00  0.8365E+00  0.1915E+02  0.1915E+02
     11.627  0.1107E+01  0.1107E+01  0.1927E+02  0.1927E+02
     11.733  0.1086E+01  0.1086E+01  0.1939E+02  0.1939E+02
     11.839  0.8871E+00  0.8871E+00  0.1948E+02  0.1948E+02
     11.944  0.6579E+00  0.6579E+00  0.1955E+02  0.1955E+02
     12.050  0.4920E+00  0.4920E+00  0.1960E+02  0.1960E+02
     12.156  0.4640E+00  0.4640E+00  0.1965E+02  0.1965E+02
     12.261  0.4960E+00  0.4961E+00  0.1970E+02  0.1970E+02
     12.367  0.4499E+00  0.4499E+00  0.1975E+02  0.1975E+02
     12.473  0.3559E+00  0.3559E+00  0.1979E+02  0.1979E+02
     12.578  0.3206E+00  0.3206E+00  0.1982E+02  0.1982E+02
     12.684  0.3551E+00  0.3550E+00  0.1986E+02  0.1986E+02
     12.790  0.4229E+00  0.4229E+00  0.1990E+02  0.1990E+02
     12.895  0.4379E+00  0.4379E+00  0.1995E+02  0.1995E+02
     13.001  0.3240E+00  0.3240E+00  0.1998E+02  0.1998E+02
     13.107  0.1453E+00  0.1453E+00  0.2000E+02  0.2000E+02
     13.212  0.2247E-01  0.2248E-01  0.2000E+02  0.2000E+02
     13.318 -0.1172E-01 -0.1172E-01  0.2000E+02  0.2000E+02
     13.424 -0.6915E-02 -0.6916E-02  0.2000E+02  0.2000E+02
     13.529 -0.1489E-02 -0.1489E-02  0.2000E+02  0.2000E+02
     13.635 -0.1607E-03 -0.1608E-03  0.2000E+02  0.2000E+02
     13.741 -0.9325E-05 -0.9331E-05  0.2000E+02  0.2000E+02
     13.846 -0.2985E-06 -0.2987E-06  0.2000E+02  0.2000E+02
     13.952 -0.5337E-08 -0.5342E-08  0.2000E+02  0.2000E+02
     14.058 -0.5370E-10 -0.5376E-10  0.2000E+02  0.2000E+02
     14.164 -0.3054E-12 -0.3057E-12  0.2000E+02  0.2000E+02
     14.269 -0.9631E-15 -0.9806E-15  0.2000E+02  0.2000E+02
     14.375  0.0000E+00  0.0000E+00  0.2000E+02  0.2000E+02
     14.481  0.0000E+00  0.0000E+00  0.2000E+02  0.2000E+02
     14.586  0.0000E+00  0.0000E+00  0.2000E+02  0.2000E+02
     14.692  0.0000E+00  0.0000E+00  0.2000E+02  0.2000E+02
     14.798  0.0000E+00  0.0000E+00  0.2000E+02  0.2000E+02
     14.903  0.0000E+00  0.0000E+00  0.2000E+02  0.2000E+02
     15.009  0.0000E+00  0.0000E+00  0.2000E+02  0.2000E+02
     15.00887442    -16.69226838  301      3.76651729      1.00000000
    -16.692  0.0000E+00  0.0000E+00  0.0000E+00  0.0000E+00  0.0000E+00  0.0000E+00  0.0000E+00  0.0000E+00  0.0000E+00  0.0000E+00  0.0000E+00  0.0000E+00  0.0000E+00  0.0000E+00  0.0000E+00  0.0000E+00  0.0000E+00  0.0000E+00
    -16.587  0.0000E+00  0.0000E+00  0.0000E+00  0.0000E+00  0.0000E+00  0.0000E+00  0.0000E+00  0.0000E+00  0.0000E+00  0.0000E+00  0.0000E+00  0.0000E+00  0.0000E+00  0.0000E+00  0.0000E+00  0.0000E+00  0.0000E+00  0.0000E+00
    -16.481  0.0000E+00  0.0000E+00  0.0000E+00  0.0000E+00  0.0000E+00  0.0000E+00  0.0000E+00  0.0000E+00  0.0000E+00  0.0000E+00  0.0000E+00  0.0000E+00  0.0000E+00  0.0000E+00  0.0000E+00  0.0000E+00  0.0000E+00  0.0000E+00
    -16.375 -0.1172E-31 -0.1142E-31 -0.3675E-35 -0.3675E-35 -0.4544E-35 -0.4602E-35 -0.4544E-35 -0.4602E-35 -0.5882E-38 -0.4655E-38 -0.5876E-38 -0.4606E-38 -0.2499E-39 -0.1776E-39 -0.7478E-38 -0.3452E-38 -0.7471E-39 -0.5286E-39
    -16.270 -0.6482E-28 -0.6311E-28 -0.2934E-31 -0.2922E-31 -0.3903E-31 -0.3945E-31 -0.3903E-31 -0.3945E-31 -0.3543E-34 -0.2910E-34 -0.3540E-34 -0.2885E-34 -0.8388E-35 -0.5914E-35 -0.5273E-34 -0.1893E-34 -0.2518E-34 -0.1772E-34
    -16.164 -0.1954E-24 -0.1902E-24 -0.9562E-28 -0.9523E-28 -0.1272E-27 -0.1286E-27 -0.1272E-27 -0.1286E-27 -0.1099E-30 -0.8954E-31 -0.1098E-30 -0.8882E-31 -0.2929E-31 -0.2064E-31 -0.1668E-30 -0.5695E-31 -0.8795E-31 -0.6187E-31
    -16.058 -0.3361E-21 -0.3272E-21 -0.1787E-24 -0.1780E-24 -0.2377E-24 -0.2403E-24 -0.2377E-24 -0.2403E-24 -0.1953E-27 -0.1578E-27 -0.1952E-27 -0.1566E-27 -0.5895E-28 -0.4151E-28 -0.3028E-27 -0.9804E-28 -0.1770E-27 -0.1244E-27
    -15.953 -0.3295E-18 -0.3208E-18 -0.1916E-21 -0.1909E-21 -0.2549E-21 -0.2577E-21 -0.2549E-21 -0.2577E-21 -0.1993E-24 -0.1595E-24 -0.1992E-24 -0.1584E-24 -0.6845E-25 -0.4817E-25 -0.3160E-24 -0.9678E-25 -0.2055E-24 -0.1444E-24
    -15.847 -0.1785E-15 -0.1738E-15 -0.1157E-18 -0.1152E-18 -0.1534E-18 -0.1551E-18 -0.1534E-18 -0.1551E-18 -0.1142E-21 -0.9014E-22 -0.1141E-21 -0.8954E-22 -0.4493E-22 -0.3159E-22 -0.1853E-21 -0.5339E-22 -0.1349E-21 -0.9472E-22
    -15.741 -0.5644E-13 -0.5494E-13 -0.4027E-16 -0.4012E-16 -0.5356E-16 -0.5414E-16 -0.5356E-16 -0.5414E-16 -0.3812E-19 -0.2979E-19 -0.3810E-19 -0.2960E-19 -0.1726E-19 -0.1213E-19 -0.6338E-19 -0.1732E-19 -0.5182E-19 -0.3636E-19
    -15.636 -0.1011E-10 -0.9843E-11 -0.8113E-14 -0.8083E-14 -0.1079E-13 -0.1091E-13 -0.1079E-13 -0.1091E-13 -0.7369E-17 -0.5675E-17 -0.7366E-17 -0.5644E-17 -0.3856E-17 -0.2706E-17 -0.1255E-16 -0.3257E-17 -0.1158E-16 -0.8115E-17
    -15.530 -0.1024E-08 -0.9967E-09 -0.9365E-12 -0.9332E-12 -0.1245E-11 -0.1259E-11 -0.1245E-11 -0.1259E-11 -0.8220E-15 -0.6227E-15 -0.8217E-15 -0.6197E-15 -0.4999E-15 -0.3503E-15 -0.1434E-14 -0.3567E-15 -0.1501E-14 -0.1051E-14
    -15.424 -0.5830E-07 -0.5675E-07 -0.6187E-10 -0.6166E-10 -0.8227E-10 -0.8316E-10 -0.8227E-10 -0.8316E-10 -0.5305E-13 -0.3945E-13 -0.5303E-13 -0.3928E-13 -0.3764E-13 -0.2633E-13 -0.9462E-13 -0.2295E-13 -0.1130E-12 -0.7896E-13
    -15.319 -0.1850E-05 -0.1800E-05 -0.2332E-08 -0.2325E-08 -0.3101E-08 -0.3135E-08 -0.3101E-08 -0.3135E-08 -0.1986E-11 -0.1447E-11 -0.1986E-11 -0.1442E-11 -0.1649E-11 -0.1151E-11 -0.3610E-11 -0.8778E-12 -0.4949E-11 -0.3451E-11
    -15.213 -0.3213E-04 -0.3127E-04 -0.4985E-07 -0.4971E-07 -0.6627E-07 -0.6700E-07 -0.6627E-07 -0.6700E-07 -0.4328E-10 -0.3085E-10 -0.4326E-10 -0.3076E-10 -0.4206E-10 -0.2927E-10 -0.7962E-10 -0.2019E-10 -0.1262E-09 -0.8778E-10
    -15.107 -0.2941E-03 -0.2862E-03 -0.5956E-06 -0.5942E-06 -0.7916E-06 -0.8004E-06 -0.7917E-06 -0.8004E-06 -0.5489E-09 -0.3827E-09 -0.5487E-09 -0.3819E-09 -0.6241E-09 -0.4325E-09 -0.1012E-08 -0.2813E-09 -0.1873E-08 -0.1297E-08
    -15.002 -0.1274E-02 -0.1239E-02 -0.3835E-05 -0.3829E-05 -0.5096E-05 -0.5153E-05 -0.5096E-05 -0.5153E-05 -0.4019E-08 -0.2744E-08 -0.4017E-08 -0.2740E-08 -0.5346E-08 -0.3681E-08 -0.7312E-08 -0.2364E-08 -0.1604E-07 -0.1104E-07
    -14.896 -0.1380E-02 -0.1340E-02 -0.1176E-04 -0.1177E-04 -0.1562E-04 -0.1580E-04 -0.1562E-04 -0.1580E-04 -0.1628E-07 -0.1092E-07 -0.1628E-07 -0.1091E-07 -0.2570E-07 -0.1750E-07 -0.2848E-07 -0.1156E-07 -0.7709E-07 -0.5249E-07
    -14.790  0.7428E-02  0.7235E-02 -0.5427E-05 -0.5578E-05 -0.7155E-05 -0.7304E-05 -0.7155E-05 -0.7304E-05 -0.2928E-07 -0.1924E-07 -0.2928E-07 -0.1924E-07 -0.6140E-07 -0.4067E-07 -0.4545E-07 -0.2855E-07 -0.1840E-06 -0.1219E-06
    -14.685  0.2808E-01  0.2733E-01  0.7151E-04  0.7097E-04  0.9513E-04  0.9597E-04  0.9514E-04  0.9597E-04  0.2723E-07  0.1951E-07  0.2722E-07  0.1945E-07 -0.1614E-07 -0.5261E-08  0.6809E-07 -0.5259E-08 -0.4242E-07 -0.1076E-07
    -14.579  0.4143E-01  0.4028E-01  0.2449E-03  0.2438E-03  0.3256E-03  0.3285E-03  0.3256E-03  0.3285E-03  0.2807E-06  0.1925E-06  0.2812E-06  0.1926E-06  0.3048E-06  0.2169E-06  0.5118E-06  0.1846E-06  0.1070E-05  0.7718E-06
    -14.473  0.3474E-01  0.3373E-01  0.4423E-03  0.4397E-03  0.5900E-03  0.5937E-03  0.5901E-03  0.5938E-03  0.7607E-06  0.5272E-06  0.7684E-06  0.5317E-06  0.4477E-06  0.2959E-06  0.1318E-05  0.6259E-06  0.3650E-05  0.2525E-05
    -14.368  0.2233E-01  0.2160E-01  0.5661E-03  0.5654E-03  0.7689E-03  0.7750E-03  0.7699E-03  0.7759E-03  0.1284E-05  0.8948E-06  0.1340E-05  0.9306E-06 -0.4154E-05 -0.2570E-05  0.2242E-05  0.1198E-05  0.6404E-05  0.4376E-05
    -14.262  0.1579E-01  0.1488E-01  0.6323E-03  0.6772E-03  0.8791E-03  0.9288E-03  0.8816E-03  0.9337E-03  0.2023E-05  0.1278E-05  0.2220E-05  0.1410E-05 -0.2454E-04 -0.1344E-04  0.3422E-05  0.1849E-05  0.5550E-05  0.4382E-05
    -14.156  0.1617E-01  0.1431E-01  0.1053E-02  0.1211E-02  0.1340E-02  0.1499E-02  0.1338E-02  0.1510E-02  0.4902E-05  0.2795E-05  0.5048E-05  0.2901E-05 -0.3760E-04 -0.1385E-04  0.6775E-05  0.3669E-05  0.8496E-05  0.8238E-05
    -14.051  0.2278E-01  0.2078E-01  0.2378E-02  0.2508E-02  0.2708E-02  0.2834E-02  0.2684E-02  0.2824E-02  0.1152E-04  0.7046E-05  0.1037E-04  0.6280E-05  0.1043E-03  0.7791E-04  0.1389E-04  0.8250E-05  0.5905E-04  0.4073E-04
    -13.945  0.2764E-01  0.2783E-01  0.3841E-02  0.3667E-02  0.4231E-02  0.4047E-02  0.4173E-02  0.3951E-02  0.1765E-04  0.1180E-04  0.1340E-04  0.8926E-05  0.5577E-03  0.3240E-03  0.2054E-04  0.1336E-04  0.1455E-03  0.8998E-04
    -13.839  0.2368E-01  0.2569E-01  0.4027E-02  0.3695E-02  0.4544E-02  0.4186E-02  0.4465E-02  0.3958E-02  0.1852E-04  0.1289E-04  0.1106E-04  0.7895E-05  0.1128E-02  0.5982E-03  0.2195E-04  0.1484E-04 -0.8278E-04 -0.5572E-04
    -13.733  0.1640E-01  0.1808E-01  0.3362E-02  0.3281E-02  0.4029E-02  0.3795E-02  0.3939E-02  0.3467E-02  0.1662E-04  0.1129E-04  0.7913E-05  0.5650E-05  0.1488E-02  0.7312E-03  0.2052E-04  0.1366E-04 -0.8450E-03 -0.6081E-03
    -13.628  0.1292E-01  0.1411E-01  0.3393E-02  0.3927E-02  0.3632E-02  0.3593E-02  0.3573E-02  0.3185E-02  0.1566E-04  0.1031E-04  0.7773E-05  0.5509E-05  0.2811E-02  0.1294E-02  0.1932E-04  0.1260E-04  0.1430E-02  0.3171E-03
    -13.522  0.1533E-01  0.1647E-01  0.5427E-02  0.7039E-02  0.4118E-02  0.4628E-02  0.4433E-02  0.3830E-02  0.1669E-04  0.1117E-04  0.1083E-04  0.8297E-05  0.9487E-02  0.4471E-02  0.1891E-04  0.1242E-04  0.1733E-01  0.9250E-02
    -13.416  0.2109E-01  0.2142E-01  0.1146E-01  0.1356E-01  0.8961E-02  0.1021E-01  0.9914E-02  0.8693E-02  0.1950E-04  0.1317E-04  0.1674E-04  0.1339E-04  0.2321E-01  0.1179E-01  0.2167E-04  0.1440E-04  0.4852E-01  0.2852E-01
    -13.311  0.2239E-01  0.2052E-01  0.2198E-01  0.2176E-01  0.2024E-01  0.2060E-01  0.2051E-01  0.1955E-01  0.2063E-04  0.1329E-04  0.2233E-04  0.1647E-04  0.3112E-01  0.1821E-01  0.2695E-04  0.1760E-04  0.6429E-01  0.4003E-01
    -13.205  0.1468E-01  0.1115E-01  0.2642E-01  0.2301E-01  0.2604E-01  0.2426E-01  0.2444E-01  0.2505E-01  0.1508E-04  0.8929E-05  0.1978E-04  0.1239E-04  0.2091E-01  0.1547E-01  0.2423E-04  0.1525E-04  0.4107E-01  0.2710E-01
    -13.099  0.4490E-02  0.2114E-02  0.1572E-01  0.1274E-01  0.1584E-01  0.1392E-01  0.1410E-01  0.1523E-01  0.5538E-05  0.2918E-05  0.8905E-05  0.4445E-05  0.5307E-02  0.6198E-02  0.1099E-04  0.6611E-05  0.9232E-02  0.6867E-02
    -12.994 -0.3305E-03 -0.7632E-03  0.2773E-02  0.2071E-02  0.2848E-02  0.2318E-02  0.2366E-02  0.2745E-02 -0.1468E-07 -0.1441E-06  0.6705E-06 -0.3760E-07 -0.9734E-03  0.2158E-03  0.7819E-06  0.3641E-06 -0.2331E-02 -0.1262E-02
    -12.888 -0.6672E-03 -0.4880E-03 -0.1215E-02 -0.1031E-02 -0.1201E-02 -0.1098E-02 -0.1107E-02 -0.1153E-02 -0.7139E-06 -0.4168E-06 -0.9389E-06 -0.5645E-06 -0.8922E-03 -0.7038E-03 -0.1172E-05 -0.7327E-06 -0.1719E-02 -0.1151E-02
    -12.782 -0.1979E-03 -0.1062E-03 -0.6503E-03 -0.5352E-03 -0.6496E-03 -0.5727E-03 -0.5796E-03 -0.6253E-03 -0.2348E-06 -0.1275E-06 -0.3625E-06 -0.1839E-06 -0.2154E-03 -0.2481E-03 -0.4447E-06 -0.2679E-06 -0.3826E-03 -0.2761E-03
    -12.677 -0.2754E-04 -0.1184E-04 -0.1192E-03 -0.9827E-04 -0.1192E-03 -0.1047E-03 -0.1060E-03 -0.1149E-03 -0.3419E-07 -0.1795E-07 -0.5708E-07 -0.2698E-07 -0.2590E-04 -0.3761E-04 -0.6917E-07 -0.4103E-07 -0.4290E-04 -0.3289E-04
    -12.571 -0.2043E-05 -0.7382E-06 -0.1071E-04 -0.8909E-05 -0.1071E-04 -0.9435E-05 -0.9563E-05 -0.1034E-04 -0.2597E-08 -0.1337E-08 -0.4570E-08 -0.2087E-08 -0.1729E-05 -0.2948E-05 -0.5485E-08 -0.3227E-08 -0.2680E-05 -0.2164E-05
    -12.465 -0.8395E-07 -0.2655E-07 -0.5125E-06 -0.4311E-06 -0.5126E-06 -0.4541E-06 -0.4605E-06 -0.4953E-06 -0.1080E-09 -0.5500E-10 -0.1978E-09 -0.8905E-10 -0.6613E-07 -0.1259E-06 -0.2357E-09 -0.1381E-09 -0.9631E-07 -0.8124E-07
    -12.360 -0.1940E-08 -0.5563E-09 -0.1349E-07 -0.1148E-07 -0.1349E-07 -0.1203E-07 -0.1221E-07 -0.1305E-07 -0.2511E-11 -0.1273E-11 -0.4746E-11 -0.2134E-11 -0.1463E-08 -0.2992E-08 -0.5628E-11 -0.3293E-11 -0.2012E-08 -0.1758E-08
    -12.254 -0.2540E-10 -0.6800E-11 -0.1982E-09 -0.1705E-09 -0.1982E-09 -0.1781E-09 -0.1807E-09 -0.1919E-09 -0.3297E-13 -0.1671E-13 -0.6393E-13 -0.2896E-13 -0.1871E-10 -0.3996E-10 -0.7560E-13 -0.4428E-13 -0.2445E-10 -0.2197E-10
    -12.148 -0.1892E-12 -0.4836E-13 -0.1640E-11 -0.1426E-11 -0.1639E-11 -0.1484E-11 -0.1506E-11 -0.1589E-11 -0.2459E-15 -0.1250E-15 -0.4870E-15 -0.2233E-15 -0.1381E-12 -0.3019E-12 -0.5752E-15 -0.3376E-15 -0.1723E-12 -0.1583E-12
    -12.043 -0.8031E-15 -0.2000E-15 -0.7680E-14 -0.6743E-14 -0.7676E-14 -0.6994E-14 -0.7102E-14 -0.7445E-14 -0.1045E-17 -0.5343E-18 -0.2106E-17 -0.9818E-18 -0.5875E-15 -0.1295E-14 -0.2489E-17 -0.1466E-17 -0.7039E-15 -0.6579E-15
    -11.937 -0.1722E-17 -0.4123E-18 -0.2054E-16 -0.1836E-16 -0.2052E-16 -0.1891E-16 -0.1920E-16 -0.1992E-16 -0.2246E-20 -0.1175E-20 -0.4937E-20 -0.2453E-20 -0.1405E-17 -0.2971E-17 -0.5619E-20 -0.3333E-20 -0.1400E-17 -0.1320E-17
    -11.831  0.0000E+00  0.0000E+00  0.0000E+00  0.0000E+00  0.0000E+00  0.0000E+00  0.0000E+00  0.0000E+00  0.0000E+00  0.0000E+00  0.0000E+00  0.0000E+00  0.0000E+00  0.0000E+00  0.0000E+00  0.0000E+00  0.0000E+00  0.0000E+00
    -11.726  0.0000E+00  0.0000E+00  0.0000E+00  0.0000E+00  0.0000E+00  0.0000E+00  0.0000E+00  0.0000E+00  0.0000E+00  0.0000E+00  0.0000E+00  0.0000E+00  0.0000E+00  0.0000E+00  0.0000E+00  0.0000E+00  0.0000E+00  0.0000E+00
    -11.620  0.0000E+00  0.0000E+00  0.0000E+00  0.0000E+00  0.0000E+00  0.0000E+00  0.0000E+00  0.0000E+00  0.0000E+00  0.0000E+00  0.0000E+00  0.0000E+00  0.0000E+00  0.0000E+00  0.0000E+00  0.0000E+00  0.0000E+00  0.0000E+00
    -11.514  0.0000E+00  0.0000E+00  0.0000E+00  0.0000E+00  0.0000E+00  0.0000E+00  0.0000E+00  0.0000E+00  0.0000E+00  0.0000E+00  0.0000E+00  0.0000E+00  0.0000E+00  0.0000E+00  0.0000E+00  0.0000E+00  0.0000E+00  0.0000E+00
    -11.409  0.0000E+00  0.0000E+00  0.0000E+00  0.0000E+00  0.0000E+00  0.0000E+00  0.0000E+00  0.0000E+00  0.0000E+00  0.0000E+00  0.0000E+00  0.0000E+00  0.0000E+00  0.0000E+00  0.0000E+00  0.0000E+00  0.0000E+00  0.0000E+00