    4    4    1    2
  0.9063964E+01  0.5107186E-09  0.5107186E-09  0.5107186E-09  0.5000000E-15
  1.000000000000000E-004
  CAR 
 NiO_af2                                 
     32    120     20
 
  0.0000000E+00  0.0000000E+00  0.0000000E+00  0.8333333E-02
    1      -14.692268    -14.692268   1.000000   1.000000
    2      -13.228576    -13.228576   1.000000   1.000000
    3       -3.478303     -3.478303   1.000000   1.000000
    4       -2.490903     -2.490903   1.000000   1.000000
    5       -2.490903     -2.490903   1.000000   1.000000
    6       -1.347467     -1.347467   1.000000   1.000000
    7       -1.347466     -1.347466   1.000000   1.000000
    8       -0.571714     -0.571714   1.000000   1.000000
    9        1.300781      1.300781   1.000000   1.000000
   10        1.300781      1.300781   1.000000   1.000000
   11        2.622770      2.622770   1.000000   1.000000
   12        2.622773      2.622773   1.000000   1.000000
   13        2.752075      2.752075   1.000000   1.000000
   14        2.752075      2.752075   1.000000   1.000000
   15        2.754119      2.754119   1.000000   1.000000
   16        2.973810      2.973810   1.000000   1.000000
   17        5.667190      5.667190  -0.000000  -0.000000
   18        5.667191      5.667191  -0.000000  -0.000000
   19        7.060461      7.060461  -0.000000  -0.000000
   20       10.991458     10.991458   0.000000   0.000000
 
  0.2631579E-01  0.0000000E+00  0.2631579E-01  0.8333333E-02
    1      -14.683915    -14.683915   1.000000   1.000000
    2      -13.229637    -13.229637   1.000000   1.000000
    3       -3.464749     -3.464749   1.000000   1.000000
    4       -2.490249     -2.490249   1.000000   1.000000
    5       -2.486271     -2.486271   1.000000   1.000000
    6       -1.351681     -1.351681   1.000000   1.000000
    7       -1.349116     -1.349116   1.000000   1.000000
    8       -0.570341     -0.570341   1.000000   1.000000
    9        1.270263      1.270263   1.000000   1.000000
   10        1.289360      1.289360   1.000000   1.000000
   11        2.542264      2.542264   1.000000   1.000000
   12        2.553293      2.553293   1.000000   1.000000
   13        2.751902      2.751902   1.000000   1.000000
   14        2.791268      2.791268   1.000000   1.000000
   15        2.840445      2.840445   1.000000   1.000000
   16        2.988232      2.988232   1.000000   1.000000
   17        5.643871      5.643871  -0.000000  -0.000000
   18        5.653719      5.653719  -0.000000  -0.000000
   19        7.118414      7.118414  -0.000000  -0.000000
   20       11.036139     11.036139   0.000000   0.000000
 
  0.5263158E-01  0.0000000E+00  0.5263158E-01  0.8333333E-02
    1      -14.658960    -14.658960   1.000000   1.000000
    2      -13.233509    -13.233509   1.000000   1.000000
    3       -3.424644     -3.424644   1.000000   1.000000
    4       -2.488896     -2.488896   1.000000   1.000000
    5       -2.473183     -2.473183   1.000000   1.000000
    6       -1.364688     -1.364688   1.000000   1.000000
    7       -1.353971     -1.353971   1.000000   1.000000
    8       -0.566289     -0.566289   1.000000   1.000000
    9        1.184012      1.184012   1.000000   1.000000
   10        1.255656      1.255656   1.000000   1.000000
   11        2.367308      2.367308   1.000000   1.000000
   12        2.464877      2.464877   1.000000   1.000000
   13        2.747577      2.747577   1.000000   1.000000
   14        2.836163      2.836163   1.000000   1.000000
   15        2.983820      2.983820   1.000000   1.000000
   16        3.037495      3.037496   1.000002   1.000002
   17        5.576789      5.576789  -0.000000  -0.000000
   18        5.613212      5.613212  -0.000000  -0.000000
   19        7.283360      7.283360  -0.000000  -0.000000
   20       11.165898     11.165897   0.000000   0.000000
 
  0.7894737E-01  0.0000000E+00  0.7894737E-01  0.8333333E-02
    1      -14.617957    -14.617957   1.000000   1.000000
    2      -13.238475    -13.238475   1.000000   1.000000
    3       -3.358780     -3.358780   1.000000   1.000000
    4       -2.485478     -2.485478   1.000000   1.000000
    5       -2.451235     -2.451235   1.000000   1.000000
    6       -1.387606     -1.387606   1.000000   1.000000
    7       -1.361706     -1.361706   1.000000   1.000000
    8       -0.558658     -0.558658   1.000000   1.000000
    9        1.056643      1.056643   1.000000   1.000000
   10        1.204425      1.204425   1.000000   1.000000
   11        2.131834      2.131834   1.000000   1.000000
   12        2.396511      2.396511   1.000000   1.000000
   13        2.740508      2.740508   1.000000   1.000000
   14        2.859777      2.859777   1.000000   1.000000
   15        3.122268      3.122268   1.000026   1.000026
   16        3.138090      3.138090   1.000041   1.000041
   17        5.479664      5.479664  -0.000000  -0.000000
   18        5.550559      5.550559  -0.000000  -0.000000
   19        7.533464      7.533464  -0.000000  -0.000000
   20       11.369579     11.369579   0.000000   0.000000
 
  0.1052632E+00  0.0000000E+00  0.1052632E+00  0.8333333E-02
    1      -14.561285    -14.561285   1.000000   1.000000
    2      -13.244361    -13.244361   1.000000   1.000000
    3       -3.268365     -3.268365   1.000000   1.000000
    4       -2.480263     -2.480263   1.000000   1.000000
    5       -2.421866     -2.421866   1.000000   1.000000
    6       -1.421968     -1.421968   1.000000   1.000000
    7       -1.371619     -1.371619   1.000000   1.000000
    8       -0.546636     -0.546636   1.000000   1.000000
    9        0.900173      0.900173   1.000000   1.000000
   10        1.141169      1.141169   1.000000   1.000000
   11        1.860202      1.860202   1.000000   1.000000
   12        2.350298      2.350298   1.000000   1.000000
   13        2.730969      2.730969   1.000000   1.000000
   14        2.869965      2.869965   1.000000   1.000000
   15        3.222419      3.222419   1.000409   1.000409
   16        3.292405      3.292405   1.002024   1.002024
   17        5.367111      5.367111  -0.000000  -0.000000
   18        5.470302      5.470302  -0.000000  -0.000000
   19        7.843645      7.843645  -0.000000  -0.000000
   20       11.631262     11.631263   0.000000   0.000000
 
  0.1315789E+00  0.0000000E+00  0.1315789E+00  0.8333333E-02
    1      -14.489618    -14.489618   1.000000   1.000000
    2      -13.253384    -13.253384   1.000000   1.000000
    3       -3.158125     -3.158125   1.000000   1.000000
    4       -2.474779     -2.474779   1.000000   1.000000
    5       -2.387820     -2.387820   1.000000   1.000000
    6       -1.470660     -1.470660   1.000000   1.000000
    7       -1.382509     -1.382509   1.000000   1.000000
    8       -0.530280     -0.530280   1.000000   1.000000
    9        0.721482      0.721482   1.000000   1.000000
   10        1.072022      1.072022   1.000000   1.000000
   11        1.576145      1.576145   1.000000   1.000000
   12        2.323450      2.323450   1.000000   1.000000
   13        2.719195      2.719195   1.000000   1.000000
   14        2.873822      2.873822   1.000000   1.000000
   15        3.315415      3.315415   1.003217   1.003217
   16        3.437402      3.437402   1.020974   1.020974
   17        5.254787      5.254787  -0.000000  -0.000000
   18        5.378934      5.378934  -0.000000  -0.000000
   19        8.193433      8.193433  -0.000000  -0.000000
   20       11.928195     11.928194   0.000000   0.000000
 
  0.1578947E+00  0.0000000E+00  0.1578947E+00  0.8333333E-02
    1      -14.404607    -14.404607   1.000000   1.000000
    2      -13.262650    -13.262650   1.000000   1.000000
    3       -3.030487     -3.030487   1.000000   1.000000
    4       -2.467691     -2.467691   1.000000   1.000000
    5       -2.350830     -2.350830   1.000000   1.000000
    6       -1.536533     -1.536533   1.000000   1.000000
    7       -1.392201     -1.392201   1.000000   1.000000
    8       -0.507954     -0.507954   1.000000   1.000000
    9        0.527758      0.527758   1.000000   1.000000
   10        1.004844      1.004844   1.000000   1.000000
   11        1.301278      1.301278   1.000000   1.000000
   12        2.311782      2.311782   1.000000   1.000000
   13        2.704098      2.704098   1.000000   1.000000
   14        2.875396      2.875396   1.000000   1.000000
   15        3.382991      3.382991   1.010337   1.010337
   16        3.562274      3.562274   1.027191   1.027191
   17        5.165055      5.165055  -0.000000  -0.000000
   18        5.289021      5.289021  -0.000000  -0.000000
   19        8.563255      8.563255  -0.000000  -0.000000
   20       12.239159     12.239159   0.000000   0.000000
 
  0.1842105E+00  0.0000000E+00  0.1842105E+00  0.8333333E-02
    1      -14.307379    -14.307379   1.000000   1.000000
    2      -13.272241    -13.272241   1.000000   1.000000
    3       -2.890028     -2.890028   1.000000   1.000000
    4       -2.459273     -2.459273   1.000000   1.000000
    5       -2.315456     -2.315456   1.000000   1.000000
    6       -1.623556     -1.623556   1.000000   1.000000
    7       -1.397803     -1.397803   1.000000   1.000000
    8       -0.480976     -0.480976   1.000000   1.000000
    9        0.326324      0.326324   1.000000   1.000000
   10        0.944328      0.944328   1.000000   1.000000
   11        1.052352      1.052352   1.000000   1.000000
   12        2.310722      2.310722   1.000000   1.000000
   13        2.687958      2.687958   1.000000   1.000000
   14        2.875112      2.875112   1.000000   1.000000
   15        3.413737      3.413737   1.015857   1.015857
   16        3.655184      3.655184   0.899620   0.899620
   17        5.114514      5.114514  -0.000000  -0.000000
   18        5.212512      5.212512  -0.000000  -0.000000
   19        8.938432      8.938432  -0.000000  -0.000000
   20       12.533369     12.533369   0.000000   0.000000
 
  0.2105263E+00  0.0000000E+00  0.2105263E+00  0.8333333E-02
    1      -14.201188    -14.201188   1.000000   1.000000
    2      -13.282635    -13.282635   1.000000   1.000000
    3       -2.743295     -2.743295   1.000000   1.000000
    4       -2.449414     -2.449414   1.000000   1.000000
    5       -2.285585     -2.285585   1.000000   1.000000
    6       -1.734922     -1.734922   1.000000   1.000000
    7       -1.395671     -1.395671   1.000000   1.000000
    8       -0.458419     -0.458419   1.000000   1.000000
    9        0.134900      0.134900   1.000000   1.000000
   10        0.837885      0.837885   1.000000   1.000000
   11        0.894222      0.894222   1.000000   1.000000
   12        2.315557      2.315557   1.000000   1.000000
   13        2.670626      2.670626   1.000000   1.000000
   14        2.868435      2.868435   1.000000   1.000000
   15        3.400759      3.400759   1.013349   1.013349
   16        3.699087      3.699087   0.768139   0.768139
   17        5.109129      5.109129  -0.000000  -0.000000
   18        5.166068      5.166068  -0.000000  -0.000000
   19        9.303586      9.303586   0.000000   0.000000
   20       12.770808     12.770807   0.000000   0.000000
 
  0.2368421E+00  0.0000000E+00  0.2368421E+00  0.8333333E-02
    1      -14.087741    -14.087741   1.000000   1.000000
    2      -13.294206    -13.294206   1.000000   1.000000
    3       -2.603477     -2.603477   1.000000   1.000000
    4       -2.433428     -2.433428   1.000000   1.000000
    5       -2.265388     -2.265388   1.000000   1.000000
    6       -1.870559     -1.870559   1.000000   1.000000
    7       -1.382104     -1.382104   1.000000   1.000000
    8       -0.469635     -0.469635   1.000000   1.000000
    9       -0.002260     -0.002260   1.000000   1.000000
   10        0.657046      0.657046   1.000000   1.000000
   11        0.857545      0.857545   1.000000   1.000000
   12        2.321840      2.321840   1.000000   1.000000
   13        2.652309      2.652309   1.000000   1.000000
   14        2.849386      2.849386   1.000000   1.000000
   15        3.355614      3.355614   1.006677   1.006677
   16        3.687344      3.687344   0.807678   0.807678
   17        5.146340      5.146340  -0.000000  -0.000000
   18        5.160268      5.160268  -0.000000  -0.000000
   19        9.649653      9.649653   0.000000   0.000000
   20       12.905956     12.905953   0.000000   0.000000
 
  0.2631579E+00  0.0000000E+00  0.2631579E+00  0.8333333E-02
    1      -13.969251    -13.969251   1.000000   1.000000
    2      -13.305005    -13.305005   1.000000   1.000000
    3       -2.515521     -2.515521   1.000000   1.000000
    4       -2.377461     -2.377461   1.000000   1.000000
    5       -2.256893     -2.256893   1.000000   1.000000
    6       -2.022783     -2.022783   1.000000   1.000000
    7       -1.354556     -1.354556   1.000000   1.000000
    8       -0.552525     -0.552525   1.000000   1.000000
    9       -0.031796     -0.031796   1.000000   1.000000
   10        0.508431      0.508431   1.000000   1.000000
   11        0.837228      0.837228   1.000000   1.000000
   12        2.324470      2.324470   1.000000   1.000000
   13        2.633581      2.633581   1.000000   1.000000
   14        2.810315      2.810315   1.000000   1.000000
   15        3.301584      3.301584   1.002445   1.002445
   16        3.624323      3.624323   0.963646   0.963646
   17        5.194390      5.194390  -0.000000  -0.000000
   18        5.215373      5.215373  -0.000000  -0.000000
   19        9.968159      9.968159   0.000000   0.000000
   20       12.911644     12.911645   0.000000   0.000000
 
  0.2894737E+00  0.0000000E+00  0.2894737E+00  0.8333333E-02
    1      -13.849024    -13.849024   1.000000   1.000000
    2      -13.315395    -13.315395   1.000000   1.000000
    3       -2.525819     -2.525819   1.000000   1.000000
    4       -2.261711     -2.261711   1.000000   1.000000
    5       -2.260340     -2.260340   1.000000   1.000000
    6       -2.166218     -2.166218   1.000000   1.000000
    7       -1.312534     -1.312534   1.000000   1.000000
    8       -0.683230     -0.683230   1.000000   1.000000
    9        0.022569      0.022569   1.000000   1.000000
   10        0.390957      0.390957   1.000000   1.000000
   11        0.833263      0.833263   1.000000   1.000000
   12        2.318373      2.318373   1.000000   1.000000
   13        2.608418      2.608418   1.000000   1.000000
   14        2.747936      2.747936   1.000000   1.000000
   15        3.258746      3.258746   1.000972   1.000972
   16        3.525979      3.525979   1.035381   1.035381
   17        5.258888      5.258888  -0.000000  -0.000000
   18        5.303227      5.303227  -0.000000  -0.000000
   19       10.248484     10.248484   0.000000   0.000000
   20       12.801261     12.801261   0.000000   0.000000
 
  0.3157895E+00  0.0000000E+00  0.3157895E+00  0.8333333E-02
    1      -13.729107    -13.729107   1.000000   1.000000
    2      -13.325322    -13.325322   1.000000   1.000000
    3       -2.621639     -2.621639   1.000000   1.000000
    4       -2.276899     -2.276899   1.000000   1.000000
    5       -2.263259     -2.263259   1.000000   1.000000
    6       -2.126271     -2.126271   1.000000   1.000000
    7       -1.258979     -1.258979   1.000000   1.000000
    8       -0.817608     -0.817608   1.000000   1.000000
    9        0.082287      0.082287   1.000000   1.000000
   10        0.337476      0.337476   1.000000   1.000000
   11        0.847672      0.847672   1.000000   1.000000
   12        2.296160      2.296160   1.000000   1.000000
   13        2.559610      2.559610   1.000000   1.000000
   14        2.682066      2.682066   1.000000   1.000000
   15        3.237041      3.237041   1.000585   1.000585
   16        3.413087      3.413087   1.015726   1.015726
   17        5.340742      5.340742  -0.000000  -0.000000
   18        5.399579      5.399579  -0.000000  -0.000000
   19       10.485375     10.485375   0.000000   0.000000
   20       12.614700     12.614716   0.000000   0.000000
 
  0.3421053E+00  0.0000000E+00  0.3421053E+00  0.8333333E-02
    1      -13.613981    -13.613981   1.000000   1.000000
    2      -13.333584    -13.333584   1.000000   1.000000
    3       -2.781910     -2.781910   1.000000   1.000000
    4       -2.299252     -2.299252   1.000000   1.000000
    5       -2.294182     -2.294182   1.000000   1.000000
    6       -2.004632     -2.004632   1.000000   1.000000
    7       -1.198152     -1.198152   1.000000   1.000000
    8       -0.938363     -0.938363   1.000000   1.000000
    9        0.056259      0.056259   1.000000   1.000000
   10        0.414795      0.414795   1.000000   1.000000
   11        0.880561      0.880561   1.000000   1.000000
   12        2.250290      2.250290   1.000000   1.000000
   13        2.464077      2.464077   1.000000   1.000000
   14        2.644295      2.644295   1.000000   1.000000
   15        3.232908      3.232908   1.000529   1.000529
   16        3.303606      3.303606   1.002547   1.002547
   17        5.427208      5.427208  -0.000000  -0.000000
   18        5.494826      5.494826  -0.000000  -0.000000
   19       10.671375     10.671375   0.000000   0.000000
   20       12.393571     12.393565   0.000000   0.000000
 
  0.3684211E+00  0.0000000E+00  0.3684211E+00  0.8333333E-02
    1      -13.506415    -13.506415   1.000000   1.000000
    2      -13.341060    -13.341060   1.000000   1.000000
    3       -2.959782     -2.959782   1.000000   1.000000
    4       -2.324646     -2.324646   1.000000   1.000000
    5       -2.299252     -2.299252   1.000000   1.000000
    6       -1.891737     -1.891737   1.000000   1.000000
    7       -1.135438     -1.135438   1.000000   1.000000
    8       -1.043243     -1.043243   1.000000   1.000000
    9       -0.018663     -0.018663   1.000000   1.000000
   10        0.571523      0.571523   1.000000   1.000000
   11        0.932565      0.932565   1.000000   1.000000
   12        2.175084      2.175084   1.000000   1.000000
   13        2.339504      2.339504   1.000000   1.000000
   14        2.625824      2.625824   1.000000   1.000000
   15        3.212244      3.212244   1.000317   1.000317
   16        3.239988      3.239988   1.000627   1.000627
   17        5.511338      5.511338  -0.000000  -0.000000
   18        5.584116      5.584116  -0.000000  -0.000000
   19       10.809551     10.809551   0.000000   0.000000
   20       12.166450     12.166451   0.000000   0.000000
 
  0.3947368E+00  0.0000000E+00  0.3947368E+00  0.8333333E-02
    1      -13.413247    -13.413247   1.000000   1.000000
    2      -13.346933    -13.346933   1.000000   1.000000
    3       -3.127471     -3.127471   1.000000   1.000000
    4       -2.351374     -2.351374   1.000000   1.000000
    5       -2.297124     -2.297124   1.000000   1.000000
    6       -1.788280     -1.788280   1.000000   1.000000
    7       -1.134456     -1.134456   1.000000   1.000000
    8       -1.076157     -1.076157   1.000000   1.000000
    9       -0.098954     -0.098954   1.000000   1.000000
   10        0.755442      0.755442   1.000000   1.000000
   11        1.002535      1.002535   1.000000   1.000000
   12        2.069571      2.069572   1.000000   1.000000
   13        2.203937      2.203937   1.000000   1.000000
   14        2.612267      2.612267   1.000000   1.000000
   15        3.144887      3.144887   1.000050   1.000050
   16        3.251605      3.251605   1.000825   1.000825
   17        5.584353      5.584353  -0.000000  -0.000000
   18        5.660290      5.660290  -0.000000  -0.000000
   19       10.898788     10.898787   0.000000   0.000000
   20       11.954448     11.954449   0.000000   0.000000
 
  0.4210526E+00  0.0000000E+00  0.4210526E+00  0.8333333E-02
    1      -13.352334    -13.352334   1.000000   1.000000
    2      -13.335055    -13.335055   1.000000   1.000000
    3       -3.269107     -3.269107   1.000000   1.000000
    4       -2.374271     -2.374271   1.000000   1.000000
    5       -2.292245     -2.292245   1.000000   1.000000
    6       -1.693863     -1.693863   1.000000   1.000000
    7       -1.214209     -1.214209   1.000000   1.000000
    8       -1.025094     -1.025094   1.000000   1.000000
    9       -0.171167     -0.171167   1.000000   1.000000
   10        0.946518      0.946518   1.000000   1.000000
   11        1.090794      1.090794   1.000000   1.000000
   12        1.940620      1.940620   1.000000   1.000000
   13        2.063787      2.063787   1.000000   1.000000
   14        2.602091      2.602091   1.000000   1.000000
   15        3.101243      3.101243   1.000013   1.000013
   16        3.264535      3.264535   1.001108   1.001108
   17        5.645658      5.645658  -0.000000  -0.000000
   18        5.723372      5.723372  -0.000000  -0.000000
   19       10.951314     10.951314   0.000000   0.000000
   20       11.773265     11.773263   0.000000   0.000000
 
  0.4473684E+00  0.0000000E+00  0.4473684E+00  0.8333333E-02
    1      -13.356876    -13.356876   1.000000   1.000000
    2      -13.277364    -13.277364   1.000000   1.000000
    3       -3.378316     -3.378316   1.000000   1.000000
    4       -2.391565     -2.391565   1.000000   1.000000
    5       -2.287362     -2.287362   1.000000   1.000000
    6       -1.609063     -1.609063   1.000000   1.000000
    7       -1.285489     -1.285489   1.000000   1.000000
    8       -0.985905     -0.985905   1.000000   1.000000
    9       -0.229572     -0.229572   1.000000   1.000000
   10        1.131529      1.131529   1.000000   1.000000
   11        1.194424      1.194424   1.000000   1.000000
   12        1.800036      1.800036   1.000000   1.000000
   13        1.922049      1.922049   1.000000   1.000000
   14        2.594421      2.594421   1.000000   1.000000
   15        3.075750      3.075750   1.000006   1.000006
   16        3.275510      3.275510   1.001412   1.001412
   17        5.691672      5.691672  -0.000000  -0.000000
   18        5.770315      5.770315  -0.000000  -0.000000
   19       10.978179     10.978180   0.000000   0.000000
   20       11.634627     11.634628   0.000000   0.000000
 
  0.4736842E+00  0.0000000E+00  0.4736842E+00  0.8333333E-02
    1      -13.359489    -13.359489   1.000000   1.000000
    2      -13.241163    -13.241163   1.000000   1.000000
    3       -3.444879     -3.444879   1.000000   1.000000
    4       -2.402830     -2.402830   1.000000   1.000000
    5       -2.284434     -2.284434   1.000000   1.000000
    6       -1.536715     -1.536715   1.000000   1.000000
    7       -1.347840     -1.347840   1.000000   1.000000
    8       -0.961202     -0.961202   1.000000   1.000000
    9       -0.266919     -0.266919   1.000000   1.000000
   10        1.293823      1.293822   1.000000   1.000000
   11        1.304859      1.304859   1.000000   1.000000
   12        1.664040      1.664040   1.000000   1.000000
   13        1.790142      1.790142   1.000000   1.000000
   14        2.589439      2.589439   1.000000   1.000000
   15        3.062825      3.062825   1.000004   1.000004
   16        3.283131      3.283131   1.001665   1.001665
   17        5.719697      5.719697  -0.000000  -0.000000
   18        5.798850      5.798850  -0.000000  -0.000000
   19       10.989683     10.989684   0.000000   0.000000
   20       11.547896     11.547896   0.000000   0.000000
 
  0.5000000E+00  0.0000000E+00  0.5000000E+00  0.8333333E-02
    1      -13.361190    -13.361190   1.000000   1.000000
    2      -13.228410    -13.228410   1.000000   1.000000
    3       -3.467354     -3.467354   1.000000   1.000000
    4       -2.406655     -2.406655   1.000000   1.000000
    5       -2.283406     -2.283406   1.000000   1.000000
    6       -1.498884     -1.498884   1.000000   1.000000
    7       -1.383245     -1.383245   1.000000   1.000000
    8       -0.952819     -0.952819   1.000000   1.000000
    9       -0.279337     -0.279337   1.000000   1.000000
   10        1.372910      1.372910   1.000000   1.000000
   11        1.374101      1.374101   1.000000   1.000000
   12        1.586700      1.586700   1.000000   1.000000
   13        1.720368      1.720368   1.000000   1.000000
   14        2.587920      2.587920   1.000000   1.000000
   15        3.058852      3.058852   1.000003   1.000003
   16        3.286436      3.286436   1.001786   1.001786
   17        5.729201      5.729201  -0.000000  -0.000000
   18        5.808510      5.808510  -0.000000  -0.000000
   19       10.992719     10.992719   0.000000   0.000000
   20       11.518367     11.518367   0.000000   0.000000
 
  0.5000000E+00  0.0000000E+00  0.5000000E+00  0.8333333E-02
    1      -13.361190    -13.361190   1.000000   1.000000
    2      -13.228410    -13.228410   1.000000   1.000000
    3       -3.467354     -3.467354   1.000000   1.000000
    4       -2.406655     -2.406655   1.000000   1.000000
    5       -2.283406     -2.283406   1.000000   1.000000
    6       -1.498884     -1.498884   1.000000   1.000000
    7       -1.383245     -1.383245   1.000000   1.000000
    8       -0.952819     -0.952819   1.000000   1.000000
    9       -0.279337     -0.279337   1.000000   1.000000
   10        1.372909      1.372909   1.000000   1.000000
   11        1.374101      1.374101   1.000000   1.000000
   12        1.586700      1.586700   1.000000   1.000000
   13        1.720368      1.720368   1.000000   1.000000
   14        2.587920      2.587920   1.000000   1.000000
   15        3.058852      3.058852   1.000003   1.000003
   16        3.286436      3.286436   1.001786   1.001786
   17        5.729201      5.729201  -0.000000  -0.000000
   18        5.808510      5.808510  -0.000000  -0.000000
   19       10.992719     10.992720   0.000000   0.000000
   20       11.518367     11.518367   0.000000   0.000000
 
  0.5065789E+00  0.1315789E-01  0.5065789E+00  0.8333333E-02
    1      -13.361593    -13.361593   1.000000   1.000000
    2      -13.228678    -13.228678   1.000000   1.000000
    3       -3.466071     -3.466071   1.000000   1.000000
    4       -2.406490     -2.406490   1.000000   1.000000
    5       -2.284449     -2.284449   1.000000   1.000000
    6       -1.504272     -1.504272   1.000000   1.000000
    7       -1.377146     -1.377146   1.000000   1.000000
    8       -0.953300     -0.953300   1.000000   1.000000
    9       -0.279791     -0.279791   1.000000   1.000000
   10        1.372487      1.372487   1.000000   1.000000
   11        1.374457      1.374457   1.000000   1.000000
   12        1.587472      1.587472   1.000000   1.000000
   13        1.721211      1.721211   1.000000   1.000000
   14        2.588385      2.588385   1.000000   1.000000
   15        3.058951      3.058951   1.000003   1.000003
   16        3.286521      3.286521   1.001789   1.001789
   17        5.729018      5.729018  -0.000000  -0.000000
   18        5.805792      5.805792  -0.000000  -0.000000
   19       10.995487     10.995487   0.000000   0.000000
   20       11.519775     11.519775   0.000000   0.000000
 
  0.5131579E+00  0.2631579E-01  0.5131579E+00  0.8333333E-02
    1      -13.360842    -13.360842   1.000000   1.000000
    2      -13.229477    -13.229477   1.000000   1.000000
    3       -3.462215     -3.462215   1.000000   1.000000
    4       -2.405985     -2.405985   1.000000   1.000000
    5       -2.287483     -2.287483   1.000000   1.000000
    6       -1.517355     -1.517355   1.000000   1.000000
    7       -1.358866     -1.358866   1.000000   1.000000
    8       -0.954643     -0.954643   1.000000   1.000000
    9       -0.281046     -0.281046   1.000000   1.000000
   10        1.371909      1.371909   1.000000   1.000000
   11        1.376206      1.376206   1.000000   1.000000
   12        1.589852      1.589852   1.000000   1.000000
   13        1.723761      1.723761   1.000000   1.000000
   14        2.589780      2.589780   1.000000   1.000000
   15        3.059414      3.059414   1.000003   1.000003
   16        3.286924      3.286924   1.001805   1.001805
   17        5.728501      5.728501  -0.000000  -0.000000
   18        5.797667      5.797667  -0.000000  -0.000000
   19       11.003768     11.003768   0.000000   0.000000
   20       11.524154     11.524154   0.000000   0.000000
 
  0.5197368E+00  0.3947368E-01  0.5197368E+00  0.8333333E-02
    1      -13.362929    -13.362929   1.000000   1.000000
    2      -13.230981    -13.230981   1.000000   1.000000
    3       -3.455883     -3.455883   1.000000   1.000000
    4       -2.405165     -2.405165   1.000000   1.000000
    5       -2.293035     -2.293035   1.000000   1.000000
    6       -1.534722     -1.534722   1.000000   1.000000
    7       -1.338055     -1.338055   1.000000   1.000000
    8       -0.957040     -0.957040   1.000000   1.000000
    9       -0.283243     -0.283243   1.000000   1.000000
   10        1.369905      1.369905   1.000000   1.000000
   11        1.377887      1.377887   1.000000   1.000000
   12        1.593539      1.593539   1.000000   1.000000
   13        1.727595      1.727595   1.000000   1.000000
   14        2.591951      2.591951   1.000000   1.000000
   15        3.059936      3.059936   1.000003   1.000003
   16        3.287394      3.287394   1.001823   1.001823
   17        5.727593      5.727593  -0.000000  -0.000000
   18        5.783595      5.783595  -0.000000  -0.000000
   19       11.017448     11.017448   0.000000   0.000000
   20       11.531188     11.531188   0.000000   0.000000
 
  0.5263158E+00  0.5263158E-01  0.5263158E+00  0.8333333E-02
    1      -13.365814    -13.365814   1.000000   1.000000
    2      -13.232841    -13.232841   1.000000   1.000000
    3       -3.447030     -3.447030   1.000000   1.000000
    4       -2.404023     -2.404023   1.000000   1.000000
    5       -2.300237     -2.300237   1.000000   1.000000
    6       -1.553514     -1.553514   1.000000   1.000000