 vasp.5.4.4.18Apr17-6-g9f103f2a35 (build May 20 2018 16:52:39) complex          
  
 executed on             LinuxIFC date 2022.10.29  11:00:00
 running on    1 total cores
 distrk:  each k-point on    1 cores,    1 groups
 distr:  one band on NCORES_PER_BAND=   1 cores,    1 groups


--------------------------------------------------------------------------------------------------------


 INCAR:
 POTCAR:    PAW Ni                                
 POTCAR:    PAW O                                 
 POTCAR:    PAW Ni                                
   VRHFIN =Ni:                                                                  
   LEXCH  = 91                                                                  
   EATOM  =  1079.4692 eV,   79.3388 Ry                                         
                                                                                
   TITEL  = PAW Ni                                                              
   LULTRA =        F    use ultrasoft PP ?                                      
   IUNSCR =        1    unscreen: 0-lin 1-nonlin 2-no                           
   RPACOR =    2.000    partial core radius                                     
   POMASS =   58.690; ZVAL   =   10.000    mass and valenz                      
   RCORE  =    2.300    outmost cutoff radius                                   
   RWIGS  =    2.430; RWIGS  =    1.286    wigner-seitz radius (au A)           
   ENMAX  =  269.561; ENMIN  =  202.171 eV                                      
   RCLOC  =    1.681    cutoff for local pot                                    
   LCOR   =        T    correct aug charges                                     
   LPAW   =        T    paw PP                                                  
   EAUG   =  544.565                                                            
   DEXC   =    -.002                                                            
   RMAX   =    2.808    core radius for proj-oper                               
   RAUG   =    1.300    factor for augmentation sphere                          
   RDEP   =    2.390    core radius for depl-charge                             
   QCUT   =   -4.451; QGAM   =    8.902    optimization parameters              
                                                                                
   Description                                                                  
     l     E      TYP  RCUT    TYP  RCUT                                        
     2   .000     23  2.300                                                     
     2   .000     23  2.300                                                     
     0   .000     23  2.300                                                     
     0   .000     23  2.300                                                     
     1  -.200     23  2.300                                                     
     1   .000     23  2.300                                                     
     3   .000      7   .000                                                     
  local pseudopotential read in
  partial core-charges read in
  atomic valenz-charges read in
  non local Contribution for L=           2  read in
    real space projection operators read in
  non local Contribution for L=           2  read in
    real space projection operators read in
  non local Contribution for L=           0  read in
    real space projection operators read in
  non local Contribution for L=           0  read in
    real space projection operators read in
  non local Contribution for L=           1  read in
    real space projection operators read in
  non local Contribution for L=           1  read in
    real space projection operators read in
    PAW grid and wavefunctions read in
 
   number of l-projection  operators is LMAX  =           6
   number of lm-projection operators is LMMAX =          18
 
 POTCAR:    PAW O                                 
   VRHFIN =O: s2p4                                                              
   LEXCH  = 91                                                                  
   EATOM  =   433.0277 eV,   31.8266 Ry                                         
                                                                                
   TITEL  = PAW O                                                               
   LULTRA =        F    use ultrasoft PP ?                                      
   IUNSCR =        0    unscreen: 0-lin 1-nonlin 2-no                           
   RPACOR =     .000    partial core radius                                     
   POMASS =   16.000; ZVAL   =    6.000    mass and valenz                      
   RCORE  =    1.520    outmost cutoff radius                                   
   RWIGS  =    1.550; RWIGS  =     .820    wigner-seitz radius (au A)           
   ENMAX  =  400.000; ENMIN  =  300.000 eV                                      
   ICORE  =        2    local potential                                         
   LCOR   =        T    correct aug charges                                     
   LPAW   =        T    paw PP                                                  
   EAUG   =  605.392                                                            
   DEXC   =     .000                                                            
   RMAX   =    2.264    core radius for proj-oper                               
   RAUG   =    1.300    factor for augmentation sphere                          
   RDEP   =    1.550    radius for radial grids                                 
   QCUT   =   -5.520; QGAM   =   11.040    optimization parameters              
                                                                                
   Description                                                                  
     l     E      TYP  RCUT    TYP  RCUT                                        
     0   .000     23  1.200                                                     
     0  -.700     23  1.200                                                     
     1   .000     23  1.520                                                     
     1   .600     23  1.520                                                     
     2   .000      7  1.500                                                     
  local pseudopotential read in
  atomic valenz-charges read in
  non local Contribution for L=           0  read in
    real space projection operators read in
  non local Contribution for L=           0  read in
    real space projection operators read in
  non local Contribution for L=           1  read in
    real space projection operators read in
  non local Contribution for L=           1  read in
    real space projection operators read in
    PAW grid and wavefunctions read in
 
   number of l-projection  operators is LMAX  =           4
   number of lm-projection operators is LMMAX =           8
 
  PAW Ni                                :
 energy of atom  1       EATOM=-1079.4692
 kinetic energy error for atom=    0.0101 (will be added to EATOM!!)
  PAW O                                 :
 energy of atom  2       EATOM= -433.0277
 kinetic energy error for atom=    0.1156 (will be added to EATOM!!)
 
 
 POSCAR: NiO AFM                                 
  positions in cartesian coordinates
  velocities in cartesian coordinates
  No initial velocities read in
 exchange correlation table for  LEXCH =        7
   RHO(1)=    0.500       N(1)  =     2000
   RHO(2)=  100.500       N(2)  =     4000
 


--------------------------------------------------------------------------------------------------------


 ion  position               nearest neighbor table
   1  0.000  0.000  0.000-   4 2.08   4 2.08   4 2.08   3 2.08   3 2.08   3 2.08   2 2.95   2 2.95
                             2 2.95   2 2.95   2 2.95   2 2.95
   2  0.500  0.500  0.500-   3 2.08   3 2.08   3 2.08   4 2.08   4 2.08   4 2.08   1 2.95   1 2.95
                             1 2.95   1 2.95   1 2.95   1 2.95
   3  0.250  0.250  0.250-   1 2.08   1 2.08   1 2.08   2 2.08   2 2.08   2 2.08
   4  0.750  0.750  0.750-   2 2.08   2 2.08   2 2.08   1 2.08   1 2.08   1 2.08
 
  LATTYP: Found a trigonal (rhomboedric) cell.
 ALAT       =     5.1071861137
 COS(alpha) =     0.8333333333
  
  Lattice vectors:
  
 A1 = (   4.1700000000,   2.0850000000,   2.0850000000)
 A2 = (   2.0850000000,   4.1700000000,   2.0850000000)
 A3 = (   2.0850000000,   2.0850000000,   4.1700000000)


Analysis of symmetry for initial positions (statically):
=====================================================================
 Subroutine PRICEL returns following result:
 
  LATTYP: Found a face centered cubic cell.
 ALAT       =     4.1700000000
  
  Lattice vectors:
  
 A1 = (   2.0850000000,   0.0000000000,  -2.0850000000)
 A2 = (   0.0000000000,   2.0850000000,  -2.0850000000)
 A3 = (   2.0850000000,   2.0850000000,   0.0000000000)
 
   2 primitive cells build up your supercell.
 

 Routine SETGRP: Setting up the symmetry group for a 
 trigonal (rhombohedral) supercell.


 Subroutine GETGRP returns: Found 12 space group operations
 (whereof 12 operations were pure point group operations)
 out of a pool of 12 trial point group operations.


The static configuration has the point symmetry D_3d.


Analysis of symmetry for dynamics (positions and initial velocities):
=====================================================================
 Subroutine PRICEL returns following result:
 
  LATTYP: Found a face centered cubic cell.
 ALAT       =     4.1700000000
  
  Lattice vectors:
  
 A1 = (   2.0850000000,   0.0000000000,  -2.0850000000)
 A2 = (   0.0000000000,   2.0850000000,  -2.0850000000)
 A3 = (   2.0850000000,   2.0850000000,   0.0000000000)
 
   2 primitive cells build up your supercell.
 

 Routine SETGRP: Setting up the symmetry group for a 
 trigonal (rhombohedral) supercell.


 Subroutine GETGRP returns: Found 12 space group operations
 (whereof 12 operations were pure point group operations)
 out of a pool of 12 trial point group operations.


The dynamic configuration has the point symmetry D_3d.


Analysis of structural, dynamic, and magnetic symmetry:
=====================================================================
 Subroutine PRICEL returns following result:
 
  LATTYP: Found a face centered cubic cell.
 ALAT       =     4.1700000000
  
  Lattice vectors:
  
 A1 = (   2.0850000000,   0.0000000000,  -2.0850000000)
 A2 = (   0.0000000000,   2.0850000000,  -2.0850000000)
 A3 = (   2.0850000000,   2.0850000000,   0.0000000000)
 
   2 primitive cells build up your supercell.
 

 Routine SETGRP: Setting up the symmetry group for a 
 trigonal (rhombohedral) supercell.


 Subroutine GETGRP returns: Found 12 space group operations
 (whereof 12 operations were pure point group operations)
 out of a pool of 12 trial point group operations.


The magnetic configuration has the point symmetry D_3d.


 Subroutine INISYM returns: Found 12 space group operations
 (whereof 12 operations are pure point group operations),
 and found     2 'primitive' translations

 
 
 KPOINTS: K-points                                
  interpolating k-points between supplied coordinates
  k-points in reciprocal lattice
Space group operators:
 irot       det(A)        alpha          n_x          n_y          n_z        tau_x        tau_y        tau_z
    1     1.000000     0.000000     1.000000     0.000000     0.000000     0.000000     0.000000     0.000000
    2    -1.000000     0.000000     1.000000     0.000000     0.000000     0.000000     0.000000     0.000000
    3     1.000000   180.000000     0.000000     0.707107    -0.707107     0.000000     0.000000     0.000000
    4    -1.000000   180.000000     0.000000     0.707107    -0.707107     0.000000     0.000000     0.000000
    5     1.000000   120.000000    -0.577350    -0.577350    -0.577350     0.000000     0.000000     0.000000
    6    -1.000000   120.000000    -0.577350    -0.577350    -0.577350     0.000000     0.000000     0.000000
    7     1.000000   180.000000     0.707107    -0.707107     0.000000     0.000000     0.000000     0.000000
    8    -1.000000   180.000000     0.707107    -0.707107     0.000000     0.000000     0.000000     0.000000
    9     1.000000   120.000000     0.577350     0.577350     0.577350     0.000000     0.000000     0.000000
   10    -1.000000   120.000000     0.577350     0.577350     0.577350     0.000000     0.000000     0.000000
   11     1.000000   180.000000     0.707107     0.000000    -0.707107     0.000000     0.000000     0.000000
   12    -1.000000   180.000000     0.707107     0.000000    -0.707107     0.000000     0.000000     0.000000


--------------------------------------------------------------------------------------------------------




 Dimension of arrays:
   k-points           NKPTS =    120   k-points in BZ     NKDIM =    120   number of bands    NBANDS=     20
   number of dos      NEDOS =    301   number of ions     NIONS =      4
   non local maximal  LDIM  =      6   non local SUM 2l+1 LMDIM =     18
   total plane-waves  NPLWV =  21952
   max r-space proj   IRMAX =      1   max aug-charges    IRDMAX=  19824
   dimension x,y,z NGX =    28 NGY =   28 NGZ =   28
   dimension x,y,z NGXF=    56 NGYF=   56 NGZF=   56
   support grid    NGXF=    56 NGYF=   56 NGZF=   56
   ions per type =               2   2
   NGX,Y,Z   is equivalent  to a cutoff of   9.11,  9.11,  9.11 a.u.
   NGXF,Y,Z  is equivalent  to a cutoff of  18.23, 18.23, 18.23 a.u.

 SYSTEM =  NiO_af2                                 
 POSCAR =  NiO AFM                                 

 Startparameter for this run:
   NWRITE =      2    write-flag & timer
   PREC   = normal    normal or accurate (medium, high low for compatibility)
   ISTART =      0    job   : 0-new  1-cont  2-samecut
   ICHARG =     11    charge: 1-file 2-atom 10-const
   ISPIN  =      2    spin polarized calculation?
   LNONCOLLINEAR =      F non collinear calculations
   LSORBIT =      F    spin-orbit coupling
   INIWAV =      1    electr: 0-lowe 1-rand  2-diag
   LASPH  =      F    aspherical Exc in radial PAW
   METAGGA=      F    non-selfconsistent MetaGGA calc.

 Electronic Relaxation 1
   ENCUT  =  400.0 eV  29.40 Ry    5.42 a.u.   8.33  8.33  8.33*2*pi/ulx,y,z
   ENINI  =  400.0     initial cutoff
   ENAUG  =  605.4 eV  augmentation charge cutoff
   NELM   =     60;   NELMIN=  2; NELMDL= -5     # of ELM steps 
   EDIFF  = 0.1E-03   stopping-criterion for ELM
   LREAL  =      F    real-space projection
   NLSPLINE    = F    spline interpolate recip. space projectors
   LCOMPAT=      F    compatible to vasp.4.4
   GGA_COMPAT  = T    GGA compatible to vasp.4.4-vasp.4.6
   LMAXPAW     = -100 max onsite density
   LMAXMIX     =    2 max onsite mixed and CHGCAR
   VOSKOWN=      0    Vosko Wilk Nusair interpolation
   ROPT   =    0.00000   0.00000
 Ionic relaxation
   EDIFFG = 0.1E-02   stopping-criterion for IOM
   NSW    =      0    number of steps for IOM
   NBLOCK =      1;   KBLOCK =      1    inner block; outer block 
   IBRION =     -1    ionic relax: 0-MD 1-quasi-New 2-CG
   NFREE  =      0    steps in history (QN), initial steepest desc. (CG)
   ISIF   =      2    stress and relaxation
   IWAVPR =     10    prediction:  0-non 1-charg 2-wave 3-comb
   ISYM   =      2    0-nonsym 1-usesym 2-fastsym
   LCORR  =      T    Harris-Foulkes like correction to forces

   POTIM  = 0.5000    time-step for ionic-motion
   TEIN   =    0.0    initial temperature
   TEBEG  =    0.0;   TEEND  =   0.0 temperature during run
   SMASS  =  -3.00    Nose mass-parameter (am)
   estimated Nose-frequenzy (Omega)   =  0.10E-29 period in steps =****** mass=  -0.596E-27a.u.
   SCALEE = 1.0000    scale energy and forces
   NPACO  =    256;   APACO  = 16.0  distance and # of slots for P.C.
   PSTRESS=    0.0 pullay stress

  Mass of Ions in am
   POMASS =  58.69 16.00
  Ionic Valenz
   ZVAL   =  10.00  6.00
  Atomic Wigner-Seitz radii
   RWIGS  =   1.29  0.82
  virtual crystal weights 
   VCA    =   1.00  1.00
   NELECT =      32.0000    total number of electrons
   NUPDOWN=      -1.0000    fix difference up-down

 DOS related values:
   EMIN   =  10.00;   EMAX   =-10.00  energy-range for DOS
   EFERMI =   0.00
   ISMEAR =     1;   SIGMA  =   0.20  broadening in eV -4-tet -1-fermi 0-gaus

 Electronic relaxation 2 (details)
   IALGO  =     38    algorithm
   LDIAG  =      T    sub-space diagonalisation (order eigenvalues)
   LSUBROT=      F    optimize rotation matrix (better conditioning)
   TURBO    =      0    0=normal 1=particle mesh
   IRESTART =      0    0=no restart 2=restart with 2 vectors
   NREBOOT  =      0    no. of reboots
   NMIN     =      0    reboot dimension
   EREF     =   0.00    reference energy to select bands
   IMIX   =      4    mixing-type and parameters
     AMIX     =   0.40;   BMIX     =  1.00
     AMIX_MAG =   1.60;   BMIX_MAG =  1.00
     AMIN     =   0.10
     WC   =   100.;   INIMIX=   1;  MIXPRE=   1;  MAXMIX= -45

 Intra band minimization:
   WEIMIN = 0.0000     energy-eigenvalue tresh-hold
   EBREAK =  0.13E-05  absolut break condition
   DEPER  =   0.30     relativ break condition  

   TIME   =   0.40     timestep for ELM

  volume/ion in A,a.u.               =       9.06        61.17
  Fermi-wavevector in a.u.,A,eV,Ry     =   1.570358  2.967547 33.552312  2.466025
  Thomas-Fermi vector in A             =   2.672104
 
 Write flags
   LWAVE        =      F    write WAVECAR
   LDOWNSAMPLE  =      F    k-point downsampling of WAVECAR
   LCHARG       =      F    write CHGCAR
   LVTOT        =      F    write LOCPOT, total local potential
   LVHAR        =      F    write LOCPOT, Hartree potential only
   LELF         =      F    write electronic localiz. function (ELF)
   LORBIT       =     11    0 simple, 1 ext, 2 COOP (PROOUT), +10 PAW based schemes


 Dipole corrections
   LMONO  =      F    monopole corrections only (constant potential shift)
   LDIPOL =      F    correct potential (dipole corrections)
   IDIPOL =      0    1-x, 2-y, 3-z, 4-all directions 
   EPSILON=  1.0000000 bulk dielectric constant

 LDA+U is selected, type is set to LDAUTYPE =  2
   angular momentum for each species LDAUL =     2   -1
   U (eV)           for each species LDAUU =   7.0  0.0
   J (eV)           for each species LDAUJ =   0.0  0.0
 Exchange correlation treatment:
   GGA     =    --    GGA type
   LEXCH   =     7    internal setting for exchange type
   VOSKOWN=      0    Vosko Wilk Nusair interpolation
   LHFCALC =     F    Hartree Fock is set to
   LHFONE  =     F    Hartree Fock one center treatment
   AEXX    =    0.0000 exact exchange contribution

 Linear response parameters
   LEPSILON=     F    determine dielectric tensor
   LRPA    =     F    only Hartree local field effects (RPA)
   LNABLA  =     F    use nabla operator in PAW spheres
   LVEL    =     F    velocity operator in full k-point grid
   LINTERFAST=   F  fast interpolation
   KINTER  =     0    interpolate to denser k-point grid
   CSHIFT  =0.1000    complex shift for real part using Kramers Kronig
   OMEGAMAX=  -1.0    maximum frequency
   DEG_THRESHOLD= 0.2000000E-02 threshold for treating states as degnerate
   RTIME   =   -0.100 relaxation time in fs
  (WPLASMAI=    0.000 imaginary part of plasma frequency in eV, 0.658/RTIME)
   DFIELD  = 0.0000000 0.0000000 0.0000000 field for delta impulse in time
 
 Orbital magnetization related:
   ORBITALMAG=     F  switch on orbital magnetization
   LCHIMAG   =     F  perturbation theory with respect to B field
   DQ        =  0.001000  dq finite difference perturbation B field
   LLRAUG    =     F  two centre corrections for induced B field



--------------------------------------------------------------------------------------------------------


 Static calculation
 charge density and potential remain constant during run
 spin polarized calculation
 Variant of blocked Davidson
 Davidson routine will perform the subspace rotation
 perform sub-space diagonalisation
    after iterative eigenvector-optimisation
 no mixing
 using additional bands            4
 reciprocal scheme for non local part
 use partial core corrections
 calculate Harris-corrections to forces 
   (improved forces if not selfconsistent)
 use gradient corrections 
 WARNING: stress and forces are not correct
  (second derivative of E(xc) not defined)
 use of overlap-Matrix (Vanderbilt PP)
 Methfessel and Paxton  Order N= 1 SIGMA  =   0.20


--------------------------------------------------------------------------------------------------------


  energy-cutoff  :      400.00
  volume of cell :       36.26
      direct lattice vectors                 reciprocal lattice vectors
     4.170000000  2.085000000  2.085000000     0.359712230 -0.119904077 -0.119904077
     2.085000000  4.170000000  2.085000000    -0.119904077  0.359712230 -0.119904077
     2.085000000  2.085000000  4.170000000    -0.119904077 -0.119904077  0.359712230

  length of vectors
     5.107186114  5.107186114  5.107186114     0.397676833  0.397676833  0.397676833


 
 k-points in units of 2pi/SCALE and weight: K-points                                
   0.00000000  0.00000000  0.00000000       0.008
   0.02631579 -0.02631579  0.02631579       0.008
   0.05263158 -0.05263158  0.05263158       0.008
   0.07894737 -0.07894737  0.07894737       0.008
   0.10526316 -0.10526316  0.10526316       0.008
   0.13157895 -0.13157895  0.13157895       0.008
   0.15789474 -0.15789474  0.15789474       0.008
   0.18421053 -0.18421053  0.18421053       0.008
   0.21052632 -0.21052632  0.21052632       0.008
   0.23684211 -0.23684211  0.23684211       0.008
   0.26315789 -0.26315789  0.26315789       0.008
   0.28947368 -0.28947368  0.28947368       0.008
   0.31578947 -0.31578947  0.31578947       0.008
   0.34210526 -0.34210526  0.34210526       0.008
   0.36842105 -0.36842105  0.36842105       0.008
   0.39473684 -0.39473684  0.39473684       0.008
   0.42105263 -0.42105263  0.42105263       0.008
   0.44736842 -0.44736842  0.44736842       0.008
   0.47368421 -0.47368421  0.47368421       0.008
   0.50000000 -0.50000000  0.50000000       0.008
   0.50000000 -0.50000000  0.50000000       0.008
   0.50000000 -0.48684211  0.50000000       0.008
   0.50000000 -0.47368421  0.50000000       0.008
   0.50000000 -0.46052632  0.50000000       0.008
   0.50000000 -0.44736842  0.50000000       0.008
   0.50000000 -0.43421053  0.50000000       0.008
   0.50000000 -0.42105263  0.50000000       0.008
   0.50000000 -0.40789474  0.50000000       0.008
   0.50000000 -0.39473684  0.50000000       0.008
   0.50000000 -0.38157895  0.50000000       0.008
   0.50000000 -0.36842105  0.50000000       0.008
   0.50000000 -0.35526316  0.50000000       0.008
   0.50000000 -0.34210526  0.50000000       0.008
   0.50000000 -0.32894737  0.50000000       0.008
   0.50000000 -0.31578947  0.50000000       0.008
   0.50000000 -0.30263158  0.50000000       0.008
   0.50000000 -0.28947368  0.50000000       0.008
   0.50000000 -0.27631579  0.50000000       0.008
   0.50000000 -0.26315789  0.50000000       0.008
   0.50000000 -0.25000000  0.50000000       0.008
   0.50000000 -0.25000000  0.50000000       0.008
   0.47368421 -0.23684211  0.47368421       0.008
   0.44736842 -0.22368421  0.44736842       0.008
   0.42105263 -0.21052632  0.42105263       0.008
   0.39473684 -0.19736842  0.39473684       0.008
   0.36842105 -0.18421053  0.36842105       0.008
   0.34210526 -0.17105263  0.34210526       0.008
   0.31578947 -0.15789474  0.31578947       0.008
   0.28947368 -0.14473684  0.28947368       0.008
   0.26315789 -0.13157895  0.26315789       0.008
   0.23684211 -0.11842105  0.23684211       0.008
   0.21052632 -0.10526316  0.21052632       0.008
   0.18421053 -0.09210526  0.18421053       0.008
   0.15789474 -0.07894737  0.15789474       0.008
   0.13157895 -0.06578947  0.13157895       0.008
   0.10526316 -0.05263158  0.10526316       0.008
   0.07894737 -0.03947368  0.07894737       0.008
   0.05263158 -0.02631579  0.05263158       0.008
   0.02631579 -0.01315789  0.02631579       0.008
   0.00000000  0.00000000  0.00000000       0.008
   0.00000000  0.00000000  0.00000000       0.008
   0.01315789  0.01315789  0.01315789       0.008
   0.02631579  0.02631579  0.02631579       0.008
   0.03947368  0.03947368  0.03947368       0.008
   0.05263158  0.05263158  0.05263158       0.008
   0.06578947  0.06578947  0.06578947       0.008
   0.07894737  0.07894737  0.07894737       0.008
   0.09210526  0.09210526  0.09210526       0.008
   0.10526316  0.10526316  0.10526316       0.008
   0.11842105  0.11842105  0.11842105       0.008
   0.13157895  0.13157895  0.13157895       0.008
   0.14473684  0.14473684  0.14473684       0.008
   0.15789474  0.15789474  0.15789474       0.008
   0.17105263  0.17105263  0.17105263       0.008
   0.18421053  0.18421053  0.18421053       0.008
   0.19736842  0.19736842  0.19736842       0.008
   0.21052632  0.21052632  0.21052632       0.008
   0.22368421  0.22368421  0.22368421       0.008
   0.23684211  0.23684211  0.23684211       0.008
   0.25000000  0.25000000  0.25000000       0.008
   0.25000000  0.25000000  0.25000000       0.008
   0.25000000  0.22368421  0.27631579       0.008
   0.25000000  0.19736842  0.30263158       0.008
   0.25000000  0.17105263  0.32894737       0.008
   0.25000000  0.14473684  0.35526316       0.008
   0.25000000  0.11842105  0.38157895       0.008
   0.25000000  0.09210526  0.40789474       0.008
   0.25000000  0.06578947  0.43421053       0.008
   0.25000000  0.03947368  0.46052632       0.008
   0.25000000  0.01315789  0.48684211       0.008
   0.25000000 -0.01315789  0.51315789       0.008
   0.25000000 -0.03947368  0.53947368       0.008
   0.25000000 -0.06578947  0.56578947       0.008
   0.25000000 -0.09210526  0.59210526       0.008
   0.25000000 -0.11842105  0.61842105       0.008
   0.25000000 -0.14473684  0.64473684       0.008
   0.25000000 -0.17105263  0.67105263       0.008
   0.25000000 -0.19736842  0.69736842       0.008
   0.25000000 -0.22368421  0.72368421       0.008
   0.25000000 -0.25000000  0.75000000       0.008
   0.25000000 -0.25000000  0.75000000       0.008
   0.26315789 -0.26315789  0.73684211       0.008
   0.27631579 -0.27631579  0.72368421       0.008
   0.28947368 -0.28947368  0.71052632       0.008
   0.30263158 -0.30263158  0.69736842       0.008
   0.31578947 -0.31578947  0.68421053       0.008
   0.32894737 -0.32894737  0.67105263       0.008
   0.34210526 -0.34210526  0.65789474       0.008
   0.35526316 -0.35526316  0.64473684       0.008
   0.36842105 -0.36842105  0.63157895       0.008
   0.38157895 -0.38157895  0.61842105       0.008
   0.39473684 -0.39473684  0.60526316       0.008
   0.40789474 -0.40789474  0.59210526       0.008
   0.42105263 -0.42105263  0.57894737       0.008
   0.43421053 -0.43421053  0.56578947       0.008
   0.44736842 -0.44736842  0.55263158       0.008
   0.46052632 -0.46052632  0.53947368       0.008
   0.47368421 -0.47368421  0.52631579       0.008
   0.48684211 -0.48684211  0.51315789       0.008
   0.50000000 -0.50000000  0.50000000       0.008
 
 k-points in reciprocal lattice and weights: K-points                                
   0.00000000  0.00000000  0.00000000       0.008
   0.02631579  0.00000000  0.02631579       0.008
   0.05263158  0.00000000  0.05263158       0.008
   0.07894737  0.00000000  0.07894737       0.008
   0.10526316  0.00000000  0.10526316       0.008
   0.13157895  0.00000000  0.13157895       0.008
   0.15789474  0.00000000  0.15789474       0.008
   0.18421053  0.00000000  0.18421053       0.008
   0.21052632  0.00000000  0.21052632       0.008
   0.23684211  0.00000000  0.23684211       0.008
   0.26315789  0.00000000  0.26315789       0.008
   0.28947368  0.00000000  0.28947368       0.008
   0.31578947  0.00000000  0.31578947       0.008
   0.34210526  0.00000000  0.34210526       0.008
   0.36842105  0.00000000  0.36842105       0.008
   0.39473684  0.00000000  0.39473684       0.008
   0.42105263  0.00000000  0.42105263       0.008
   0.44736842  0.00000000  0.44736842       0.008
   0.47368421  0.00000000  0.47368421       0.008
   0.50000000  0.00000000  0.50000000       0.008
   0.50000000  0.00000000  0.50000000       0.008
   0.50657895  0.01315789  0.50657895       0.008
   0.51315789  0.02631579  0.51315789       0.008
   0.51973684  0.03947368  0.51973684       0.008
   0.52631579  0.05263158  0.52631579       0.008
   0.53289474  0.06578947  0.53289474       0.008
   0.53947368  0.07894737  0.53947368       0.008
   0.54605263  0.09210526  0.54605263       0.008
   0.55263158  0.10526316  0.55263158       0.008
   0.55921053  0.11842105  0.55921053       0.008
   0.56578947  0.13157895  0.56578947       0.008
   0.57236842  0.14473684  0.57236842       0.008
   0.57894737  0.15789474  0.57894737       0.008
   0.58552632  0.17105263  0.58552632       0.008
   0.59210526  0.18421053  0.59210526       0.008
   0.59868421  0.19736842  0.59868421       0.008
   0.60526316  0.21052632  0.60526316       0.008
   0.61184211  0.22368421  0.61184211       0.008
   0.61842105  0.23684211  0.61842105       0.008
   0.62500000  0.25000000  0.62500000       0.008
   0.62500000  0.25000000  0.62500000       0.008
   0.59210526  0.23684211  0.59210526       0.008
   0.55921053  0.22368421  0.55921053       0.008
   0.52631579  0.21052632  0.52631579       0.008
   0.49342105  0.19736842  0.49342105       0.008
   0.46052632  0.18421053  0.46052632       0.008
   0.42763158  0.17105263  0.42763158       0.008
   0.39473684  0.15789474  0.39473684       0.008
   0.36184211  0.14473684  0.36184211       0.008
   0.32894737  0.13157895  0.32894737       0.008
   0.29605263  0.11842105  0.29605263       0.008
   0.26315789  0.10526316  0.26315789       0.008
   0.23026316  0.09210526  0.23026316       0.008
   0.19736842  0.07894737  0.19736842       0.008
   0.16447368  0.06578947  0.16447368       0.008
   0.13157895  0.05263158  0.13157895       0.008
   0.09868421  0.03947368  0.09868421       0.008
   0.06578947  0.02631579  0.06578947       0.008
   0.03289474  0.01315789  0.03289474       0.008
   0.00000000  0.00000000  0.00000000       0.008
   0.00000000  0.00000000  0.00000000       0.008
   0.02631579  0.02631579  0.02631579       0.008
   0.05263158  0.05263158  0.05263158       0.008
   0.07894737  0.07894737  0.07894737       0.008
   0.10526316  0.10526316  0.10526316       0.008
   0.13157895  0.13157895  0.13157895       0.008
   0.15789474  0.15789474  0.15789474       0.008
   0.18421053  0.18421053  0.18421053       0.008
   0.21052632  0.21052632  0.21052632       0.008
   0.23684211  0.23684211  0.23684211       0.008
   0.26315789  0.26315789  0.26315789       0.008
   0.28947368  0.28947368  0.28947368       0.008
   0.31578947  0.31578947  0.31578947       0.008
   0.34210526  0.34210526  0.34210526       0.008
   0.36842105  0.36842105  0.36842105       0.008
   0.39473684  0.39473684  0.39473684       0.008
   0.42105263  0.42105263  0.42105263       0.008
   0.44736842  0.44736842  0.44736842       0.008
   0.47368421  0.47368421  0.47368421       0.008
   0.50000000  0.50000000  0.50000000       0.008
   0.50000000  0.50000000  0.50000000       0.008
   0.50000000  0.48684211  0.51315789       0.008
   0.50000000  0.47368421  0.52631579       0.008
   0.50000000  0.46052632  0.53947368       0.008
   0.50000000  0.44736842  0.55263158       0.008
   0.50000000  0.43421053  0.56578947       0.008
   0.50000000  0.42105263  0.57894737       0.008
   0.50000000  0.40789474  0.59210526       0.008
   0.50000000  0.39473684  0.60526316       0.008
   0.50000000  0.38157895  0.61842105       0.008
   0.50000000  0.36842105  0.63157895       0.008
   0.50000000  0.35526316  0.64473684       0.008
   0.50000000  0.34210526  0.65789474       0.008
   0.50000000  0.32894737  0.67105263       0.008
   0.50000000  0.31578947  0.68421053       0.008
   0.50000000  0.30263158  0.69736842       0.008
   0.50000000  0.28947368  0.71052632       0.008
   0.50000000  0.27631579  0.72368421       0.008
   0.50000000  0.26315789  0.73684211       0.008
   0.50000000  0.25000000  0.75000000       0.008
   0.50000000  0.25000000  0.75000000       0.008
   0.50000000  0.23684211  0.73684211       0.008
   0.50000000  0.22368421  0.72368421       0.008
   0.50000000  0.21052632  0.71052632       0.008
   0.50000000  0.19736842  0.69736842       0.008
   0.50000000  0.18421053  0.68421053       0.008
   0.50000000  0.17105263  0.67105263       0.008
   0.50000000  0.15789474  0.65789474       0.008
   0.50000000  0.14473684  0.64473684       0.008
   0.50000000  0.13157895  0.63157895       0.008
   0.50000000  0.11842105  0.61842105       0.008
   0.50000000  0.10526316  0.60526316       0.008
   0.50000000  0.09210526  0.59210526       0.008
   0.50000000  0.07894737  0.57894737       0.008
   0.50000000  0.06578947  0.56578947       0.008
   0.50000000  0.05263158  0.55263158       0.008
   0.50000000  0.03947368  0.53947368       0.008
   0.50000000  0.02631579  0.52631579       0.008
   0.50000000  0.01315789  0.51315789       0.008
   0.50000000  0.00000000  0.50000000       0.008
 
 position of ions in fractional coordinates (direct lattice) 
   0.00000000  0.00000000  0.00000000
   0.50000000  0.50000000  0.50000000
   0.25000000  0.25000000  0.25000000
   0.75000000  0.75000000  0.75000000
 
 position of ions in cartesian coordinates  (Angst):
   0.00000000  0.00000000  0.00000000
   4.17000000  4.17000000  4.17000000
   2.08500000  2.08500000  2.08500000
   6.25500000  6.25500000  6.25500000
 


--------------------------------------------------------------------------------------------------------


 k-point  1 :   0.0000 0.0000 0.0000  plane waves:     663
 k-point  2 :   0.0263 0.0000 0.0263  plane waves:     663
 k-point  3 :   0.0526 0.0000 0.0526  plane waves:     667
 k-point  4 :   0.0789 0.0000 0.0789  plane waves:     667
 k-point  5 :   0.1053 0.0000 0.1053  plane waves:     661
 k-point  6 :   0.1316 0.0000 0.1316  plane waves:     662
 k-point  7 :   0.1579 0.0000 0.1579  plane waves:     657
 k-point  8 :   0.1842 0.0000 0.1842  plane waves:     647
 k-point  9 :   0.2105 0.0000 0.2105  plane waves:     645
 k-point 10 :   0.2368 0.0000 0.2368  plane waves:     652
 k-point 11 :   0.2632 0.0000 0.2632  plane waves:     655
 k-point 12 :   0.2895 0.0000 0.2895  plane waves:     662
 k-point 13 :   0.3158 0.0000 0.3158  plane waves:     664
 k-point 14 :   0.3421 0.0000 0.3421  plane waves:     662
 k-point 15 :   0.3684 0.0000 0.3684  plane waves:     656
 k-point 16 :   0.3947 0.0000 0.3947  plane waves:     660
 k-point 17 :   0.4211 0.0000 0.4211  plane waves:     662
 k-point 18 :   0.4474 0.0000 0.4474  plane waves:     671
 k-point 19 :   0.4737 0.0000 0.4737  plane waves:     673
 k-point 20 :   0.5000 0.0000 0.5000  plane waves:     674
 k-point 21 :   0.5000 0.0000 0.5000  plane waves:     674
 k-point 22 :   0.5066 0.0132 0.5066  plane waves:     674
 k-point 23 :   0.5132 0.0263 0.5132  plane waves:     666
 k-point 24 :   0.5197 0.0395 0.5197  plane waves:     667
 k-point 25 :   0.5263 0.0526 0.5263  plane waves:     667
 k-point 26 :   0.5329 0.0658 0.5329  plane waves:     669
 k-point 27 :   0.5395 0.0789 0.5395  plane waves:     669
 k-point 28 :   0.5461 0.0921 0.5461  plane waves:     669
 k-point 29 :   0.5526 0.1053 0.5526  plane waves:     670
 k-point 30 :   0.5592 0.1184 0.5592  plane waves:     668
 k-point 31 :   0.5658 0.1316 0.5658  plane waves:     660
 k-point 32 :   0.5724 0.1447 0.5724  plane waves:     658
 k-point 33 :   0.5789 0.1579 0.5789  plane waves:     658
 k-point 34 :   0.5855 0.1711 0.5855  plane waves:     657
 k-point 35 :   0.5921 0.1842 0.5921  plane waves:     659
 k-point 36 :   0.5987 0.1974 0.5987  plane waves:     661
 k-point 37 :   0.6053 0.2105 0.6053  plane waves:     654
 k-point 38 :   0.6118 0.2237 0.6118  plane waves:     654
 k-point 39 :   0.6184 0.2368 0.6184  plane waves:     656
 k-point 40 :   0.6250 0.2500 0.6250  plane waves:     656
 k-point 41 :   0.6250 0.2500 0.6250  plane waves:     656
 k-point 42 :   0.5921 0.2368 0.5921  plane waves:     653
 k-point 43 :   0.5592 0.2237 0.5592  plane waves:     653
 k-point 44 :   0.5263 0.2105 0.5263  plane waves:     653
 k-point 45 :   0.4934 0.1974 0.4934  plane waves:     660
 k-point 46 :   0.4605 0.1842 0.4605  plane waves:     658
 k-point 47 :   0.4276 0.1711 0.4276  plane waves:     656
 k-point 48 :   0.3947 0.1579 0.3947  plane waves:     656
 k-point 49 :   0.3618 0.1447 0.3618  plane waves:     650
 k-point 50 :   0.3289 0.1316 0.3289  plane waves:     650
 k-point 51 :   0.2961 0.1184 0.2961  plane waves:     653
 k-point 52 :   0.2632 0.1053 0.2632  plane waves:     653
 k-point 53 :   0.2303 0.0921 0.2303  plane waves:     656
 k-point 54 :   0.1974 0.0789 0.1974  plane waves:     661
 k-point 55 :   0.1645 0.0658 0.1645  plane waves:     665
 k-point 56 :   0.1316 0.0526 0.1316  plane waves:     665
 k-point 57 :   0.0987 0.0395 0.0987  plane waves:     669
 k-point 58 :   0.0658 0.0263 0.0658  plane waves:     667
 k-point 59 :   0.0329 0.0132 0.0329  plane waves:     663
 k-point 60 :   0.0000 0.0000 0.0000  plane waves:     663
 k-point 61 :   0.0000 0.0000 0.0000  plane waves:     663
 k-point 62 :   0.0263 0.0263 0.0263  plane waves:     663
 k-point 63 :   0.0526 0.0526 0.0526  plane waves:     666
 k-point 64 :   0.0789 0.0789 0.0789  plane waves:     666
 k-point 65 :   0.1053 0.1053 0.1053  plane waves:     666
 k-point 66 :   0.1316 0.1316 0.1316  plane waves:     666
 k-point 67 :   0.1579 0.1579 0.1579  plane waves:     664
 k-point 68 :   0.1842 0.1842 0.1842  plane waves:     664
 k-point 69 :   0.2105 0.2105 0.2105  plane waves:     664
 k-point 70 :   0.2368 0.2368 0.2368  plane waves:     661
 k-point 71 :   0.2632 0.2632 0.2632  plane waves:     655
 k-point 72 :   0.2895 0.2895 0.2895  plane waves:     658
 k-point 73 :   0.3158 0.3158 0.3158  plane waves:     658
 k-point 74 :   0.3421 0.3421 0.3421  plane waves:     658
 k-point 75 :   0.3684 0.3684 0.3684  plane waves:     652
 k-point 76 :   0.3947 0.3947 0.3947  plane waves:     652
 k-point 77 :   0.4211 0.4211 0.4211  plane waves:     652
 k-point 78 :   0.4474 0.4474 0.4474  plane waves:     649
 k-point 79 :   0.4737 0.4737 0.4737  plane waves:     649
 k-point 80 :   0.5000 0.5000 0.5000  plane waves:     652
 k-point 81 :   0.5000 0.5000 0.5000  plane waves:     652
 k-point 82 :   0.5000 0.4868 0.5132  plane waves:     650
 k-point 83 :   0.5000 0.4737 0.5263  plane waves:     650
 k-point 84 :   0.5000 0.4605 0.5395  plane waves:     648
 k-point 85 :   0.5000 0.4474 0.5526  plane waves:     652
 k-point 86 :   0.5000 0.4342 0.5658  plane waves:     658
 k-point 87 :   0.5000 0.4211 0.5789  plane waves:     658
 k-point 88 :   0.5000 0.4079 0.5921  plane waves:     654
 k-point 89 :   0.5000 0.3947 0.6053  plane waves:     652
 k-point 90 :   0.5000 0.3816 0.6184  plane waves:     652
 k-point 91 :   0.5000 0.3684 0.6316  plane waves:     652
 k-point 92 :   0.5000 0.3553 0.6447  plane waves:     656
 k-point 93 :   0.5000 0.3421 0.6579  plane waves:     654
 k-point 94 :   0.5000 0.3289 0.6711  plane waves:     650
 k-point 95 :   0.5000 0.3158 0.6842  plane waves:     652
 k-point 96 :   0.5000 0.3026 0.6974  plane waves:     654
 k-point 97 :   0.5000 0.2895 0.7105  plane waves:     660
 k-point 98 :   0.5000 0.2763 0.7237  plane waves:     658
 k-point 99 :   0.5000 0.2632 0.7368  plane waves:     660
 k-point ** :   0.5000 0.2500 0.7500  plane waves:     662
 k-point ** :   0.5000 0.2500 0.7500  plane waves:     662
 k-point ** :   0.5000 0.2368 0.7368  plane waves:     658
 k-point ** :   0.5000 0.2237 0.7237  plane waves:     659
 k-point ** :   0.5000 0.2105 0.7105  plane waves:     655
 k-point ** :   0.5000 0.1974 0.6974  plane waves:     654
 k-point ** :   0.5000 0.1842 0.6842  plane waves:     659
 k-point ** :   0.5000 0.1711 0.6711  plane waves:     661
 k-point ** :   0.5000 0.1579 0.6579  plane waves:     661
 k-point ** :   0.5000 0.1447 0.6447  plane waves:     663
 k-point ** :   0.5000 0.1316 0.6316  plane waves:     663
 k-point ** :   0.5000 0.1184 0.6184  plane waves:     661
 k-point ** :   0.5000 0.1053 0.6053  plane waves:     657
 k-point ** :   0.5000 0.0921 0.5921  plane waves:     661
 k-point ** :   0.5000 0.0789 0.5789  plane waves:     665
 k-point ** :   0.5000 0.0658 0.5658  plane waves:     667
 k-point ** :   0.5000 0.0526 0.5526  plane waves:     672
 k-point ** :   0.5000 0.0395 0.5395  plane waves:     672
 k-point ** :   0.5000 0.0263 0.5263  plane waves:     670
 k-point ** :   0.5000 0.0132 0.5132  plane waves:     672
 k-point ** :   0.5000 0.0000 0.5000  plane waves:     674

 maximum and minimum number of plane-waves per node :       674      645

 maximum number of plane-waves:       674
 maximum index in each direction: 
   IXMAX=    8   IYMAX=    8   IZMAX=    8
   IXMIN=   -8   IYMIN=   -8   IZMIN=   -9


 serial   3D FFT for wavefunctions
 parallel 3D FFT for charge:
    minimum data exchange during FFTs selected (reduces bandwidth)


 total amount of memory used by VASP MPI-rank0   147841. kBytes
=======================================================================

   base      :      30000. kBytes
   nonl-proj :      23336. kBytes
   fftplans  :      11932. kBytes
   grid      :      26693. kBytes
   one-center:        124. kBytes
   wavefun   :      55756. kBytes
 
     INWAV:  cpu time    0.0001: real time    0.0105
 initial charge density was supplied:
 number of electron      32.0000048 magnetization       0.0000000
 keeping initial charge density in first step


--------------------------------------------------------------------------------------------------------


 Maximum index for augmentation-charges        19063 (set IRDMAX)


--------------------------------------------------------------------------------------------------------


 First call to EWALD:  gamma=   0.536
 Maximum number of real-space cells 3x 3x 3
 Maximum number of reciprocal cells 4x 4x 4

    FEWALD:  cpu time    0.0015: real time    0.0165


--------------------------------------- Iteration      1(   1)  ---------------------------------------


    POTLOK:  cpu time    0.8947: real time    1.6785
    SETDIJ:  cpu time    0.0384: real time    0.0385
     EDDAV:  cpu time   11.8559: real time   19.2463
       DOS:  cpu time    0.0145: real time    0.0276
    --------------------------------------------
      LOOP:  cpu time   12.8036: real time   20.9910

 eigenvalue-minimisations  :  9768
 total energy-change (2. order) : 0.2140880E+03  (-0.1462041E+04)
 number of electron      32.0000048 magnetization       0.0000000
 augmentation part       32.0000048 magnetization       0.0000000

 Free energy of the ion-electron system (eV)
  ---------------------------------------------------
  alpha Z        PSCENC =       217.71629331
  Ewald energy   TEWEN  =     -2604.77031634
  -Hartree energ DENC   =      -632.55112854
  -exchange      EXHF   =         0.00000000
  -V(xc)+E(xc)   XCENC  =       119.27466708
  PAW double counting   =      2354.03358362    -2448.00643139
  entropy T*S    EENTRO =        -0.00022571
  eigenvalues    EBANDS =       183.64900291
  atomic energy  EATOM  =      3024.74254395
  Solvation  Ediel_sol  =         0.00000000
  ---------------------------------------------------
  free energy    TOTEN  =       214.08798889 eV

  energy without entropy =      214.08821460  energy(sigma->0) =      214.08806413


--------------------------------------------------------------------------------------------------------




--------------------------------------- Iteration      1(   2)  ---------------------------------------


     EDDAV:  cpu time   12.1417: real time   18.2876
       DOS:  cpu time    0.0181: real time    0.0181
    --------------------------------------------
      LOOP:  cpu time   12.1597: real time   18.3058

 eigenvalue-minimisations  : 10256
 total energy-change (2. order) :-0.2086768E+03  (-0.1984752E+03)
 number of electron      32.0000048 magnetization       0.0000000
 augmentation part       32.0000048 magnetization       0.0000000

 Free energy of the ion-electron system (eV)
  ---------------------------------------------------
  alpha Z        PSCENC =       217.71629331
  Ewald energy   TEWEN  =     -2604.77031634
  -Hartree energ DENC   =      -632.55112854
  -exchange      EXHF   =         0.00000000
  -V(xc)+E(xc)   XCENC  =       119.27466708
  PAW double counting   =      2354.03358362    -2448.00643139
  entropy T*S    EENTRO =         0.00063881
  eigenvalues    EBANDS =       -25.02866708
  atomic energy  EATOM  =      3024.74254395
  Solvation  Ediel_sol  =         0.00000000
  ---------------------------------------------------
  free energy    TOTEN  =         5.41118342 eV

  energy without entropy =        5.41054461  energy(sigma->0) =        5.41097048


--------------------------------------------------------------------------------------------------------




--------------------------------------- Iteration      1(   3)  ---------------------------------------


     EDDAV:  cpu time   12.4004: real time   18.3820
       DOS:  cpu time    0.0193: real time    0.0323
    --------------------------------------------
      LOOP:  cpu time   12.4197: real time   18.4143

 eigenvalue-minimisations  : 10676
 total energy-change (2. order) :-0.1934133E+02  (-0.1841592E+02)
 number of electron      32.0000048 magnetization       0.0000000
 augmentation part       32.0000048 magnetization       0.0000000

 Free energy of the ion-electron system (eV)
  ---------------------------------------------------
  alpha Z        PSCENC =       217.71629331
  Ewald energy   TEWEN  =     -2604.77031634
  -Hartree energ DENC   =      -632.55112854
  -exchange      EXHF   =         0.00000000
  -V(xc)+E(xc)   XCENC  =       119.27466708
  PAW double counting   =      2354.03358362    -2448.00643139
  entropy T*S    EENTRO =         0.00802246
  eigenvalues    EBANDS =       -44.37738291
  atomic energy  EATOM  =      3024.74254395
  Solvation  Ediel_sol  =         0.00000000
  ---------------------------------------------------
  free energy    TOTEN  =       -13.93014876 eV

  energy without entropy =      -13.93817122  energy(sigma->0) =      -13.93282291


--------------------------------------------------------------------------------------------------------




--------------------------------------- Iteration      1(   4)  ---------------------------------------


     EDDAV:  cpu time   12.1724: real time   21.3828
       DOS:  cpu time    0.0205: real time    0.0465
    --------------------------------------------
      LOOP:  cpu time   12.1928: real time   21.4293

 eigenvalue-minimisations  : 10264
 total energy-change (2. order) :-0.3772499E+00  (-0.3760904E+00)
 number of electron      32.0000048 magnetization       0.0000000
 augmentation part       32.0000048 magnetization       0.0000000

 Free energy of the ion-electron system (eV)
  ---------------------------------------------------
  alpha Z        PSCENC =       217.71629331
  Ewald energy   TEWEN  =     -2604.77031634
  -Hartree energ DENC   =      -632.55112854
  -exchange      EXHF   =         0.00000000
  -V(xc)+E(xc)   XCENC  =       119.27466708
  PAW double counting   =      2354.03358362    -2448.00643139
  entropy T*S    EENTRO =         0.00834177
  eigenvalues    EBANDS =       -44.75495214
  atomic energy  EATOM  =      3024.74254395
  Solvation  Ediel_sol  =         0.00000000
  ---------------------------------------------------
  free energy    TOTEN  =       -14.30739867 eV

  energy without entropy =      -14.31574044  energy(sigma->0) =      -14.31017926


--------------------------------------------------------------------------------------------------------




--------------------------------------- Iteration      1(   5)  ---------------------------------------


     EDDAV:  cpu time   12.4600: real time   17.6761
       DOS:  cpu time    0.0201: real time    0.0201
    --------------------------------------------
      LOOP:  cpu time   12.4801: real time   17.6962

 eigenvalue-minimisations  : 10636
 total energy-change (2. order) :-0.4932728E-02  (-0.4931962E-02)
 number of electron      32.0000048 magnetization       0.0000000
 augmentation part       32.0000048 magnetization       0.0000000

 Free energy of the ion-electron system (eV)
  ---------------------------------------------------
  alpha Z        PSCENC =       217.71629331
  Ewald energy   TEWEN  =     -2604.77031634
  -Hartree energ DENC   =      -632.55112854
  -exchange      EXHF   =         0.00000000
  -V(xc)+E(xc)   XCENC  =       119.27466708
  PAW double counting   =      2354.03358362    -2448.00643139
  entropy T*S    EENTRO =         0.00834134
  eigenvalues    EBANDS =       -44.75988444
  atomic energy  EATOM  =      3024.74254395
  Solvation  Ediel_sol  =         0.00000000
  ---------------------------------------------------
  free energy    TOTEN  =       -14.31233140 eV

  energy without entropy =      -14.32067274  energy(sigma->0) =      -14.31511185


--------------------------------------------------------------------------------------------------------




--------------------------------------- Iteration      1(   6)  ---------------------------------------


     EDDAV:  cpu time   12.0321: real time   18.6274
       DOS:  cpu time    0.0202: real time    0.0203
    --------------------------------------------
      LOOP:  cpu time   12.0523: real time   18.6477

 eigenvalue-minimisations  : 10200
 total energy-change (2. order) :-0.1281795E-03  (-0.1281792E-03)
 number of electron      32.0000048 magnetization       0.0000000
 augmentation part       32.0000048 magnetization       0.0000000

 Free energy of the ion-electron system (eV)
  ---------------------------------------------------
  alpha Z        PSCENC =       217.71629331
  Ewald energy   TEWEN  =     -2604.77031634
  -Hartree energ DENC   =      -632.55112854
  -exchange      EXHF   =         0.00000000
  -V(xc)+E(xc)   XCENC  =       119.27466708
  PAW double counting   =      2354.03358362    -2448.00643139
  entropy T*S    EENTRO =         0.00834138
  eigenvalues    EBANDS =       -44.76001265
  atomic energy  EATOM  =      3024.74254395
  Solvation  Ediel_sol  =         0.00000000
  ---------------------------------------------------
  free energy    TOTEN  =       -14.31245958 eV

  energy without entropy =      -14.32080096  energy(sigma->0) =      -14.31524004


--------------------------------------------------------------------------------------------------------




--------------------------------------- Iteration      1(   7)  ---------------------------------------


     EDDAV:  cpu time    8.9248: real time   17.1009
       DOS:  cpu time    0.0189: real time    0.0190
    --------------------------------------------
      LOOP:  cpu time    8.9438: real time   17.1199

 eigenvalue-minimisations  :  6200
 total energy-change (2. order) :-0.3827895E-05  (-0.3827481E-05)
 number of electron      32.0000048 magnetization       0.0000000
 augmentation part       32.0000048 magnetization       0.0000000

 Free energy of the ion-electron system (eV)
  ---------------------------------------------------
  alpha Z        PSCENC =       217.71629331
  Ewald energy   TEWEN  =     -2604.77031634
  -Hartree energ DENC   =      -632.55112854
  -exchange      EXHF   =         0.00000000
  -V(xc)+E(xc)   XCENC  =       119.27466708
  PAW double counting   =      2354.03358362    -2448.00643139
  entropy T*S    EENTRO =         0.00834139
  eigenvalues    EBANDS =       -44.76001648
  atomic energy  EATOM  =      3024.74254395
  Solvation  Ediel_sol  =         0.00000000
  ---------------------------------------------------
  free energy    TOTEN  =       -14.31246341 eV

  energy without entropy =      -14.32080479  energy(sigma->0) =      -14.31524387


--------------------------------------------------------------------------------------------------------




 average (electrostatic) potential at core
  the test charge radii are     0.9791  0.7215
  (the norm of the test charge is              1.0000)
       1 -43.1214       2 -43.1214       3 -71.0731       4 -71.0731
 
 
 
 E-fermi :   3.7665     XC(G=0): -12.7202     alpha+bet :-11.2748


 spin component 1

 k-point     1 :       0.0000    0.0000    0.0000
  band No.  band energies     occupation 
      1     -14.6923      1.00000
      2     -13.2286      1.00000
      3      -3.4783      1.00000
      4      -2.4909      1.00000
      5      -2.4909      1.00000
      6      -1.3475      1.00000
      7      -1.3475      1.00000
      8      -0.5717      1.00000
      9       1.3008      1.00000
     10       1.3008      1.00000
     11       2.6228      1.00000
     12       2.6228      1.00000
     13       2.7521      1.00000
     14       2.7521      1.00000
     15       2.7541      1.00000
     16       2.9738      1.00000
     17       5.6672     -0.00000
     18       5.6672     -0.00000
     19       7.0605     -0.00000
     20      10.9915      0.00000

 k-point     2 :       0.0263    0.0000    0.0263
  band No.  band energies     occupation 
      1     -14.6839      1.00000
      2     -13.2296      1.00000
      3      -3.4647      1.00000
      4      -2.4902      1.00000
      5      -2.4863      1.00000
      6      -1.3517      1.00000
      7      -1.3491      1.00000
      8      -0.5703      1.00000
      9       1.2703      1.00000
     10       1.2894      1.00000
     11       2.5423      1.00000
     12       2.5533      1.00000
     13       2.7519      1.00000
     14       2.7913      1.00000
     15       2.8404      1.00000
     16       2.9882      1.00000
     17       5.6439     -0.00000
     18       5.6537     -0.00000
     19       7.1184     -0.00000
     20      11.0361      0.00000

 k-point     3 :       0.0526    0.0000    0.0526
  band No.  band energies     occupation 
      1     -14.6590      1.00000
      2     -13.2335      1.00000
      3      -3.4246      1.00000
      4      -2.4889      1.00000
      5      -2.4732      1.00000
      6      -1.3647      1.00000
      7      -1.3540      1.00000
      8      -0.5663      1.00000
      9       1.1840      1.00000
     10       1.2557      1.00000
     11       2.3673      1.00000
     12       2.4649      1.00000
     13       2.7476      1.00000
     14       2.8362      1.00000
     15       2.9838      1.00000
     16       3.0375      1.00000
     17       5.5768     -0.00000
     18       5.6132     -0.00000
     19       7.2834     -0.00000
     20      11.1659      0.00000

 k-point     4 :       0.0789    0.0000    0.0789
  band No.  band energies     occupation 
      1     -14.6180      1.00000
      2     -13.2385      1.00000
      3      -3.3588      1.00000
      4      -2.4855      1.00000
      5      -2.4512      1.00000
      6      -1.3876      1.00000
      7      -1.3617      1.00000
      8      -0.5587      1.00000
      9       1.0566      1.00000
     10       1.2044      1.00000
     11       2.1318      1.00000
     12       2.3965      1.00000
     13       2.7405      1.00000
     14       2.8598      1.00000
     15       3.1223      1.00003
     16       3.1381      1.00004
     17       5.4797     -0.00000
     18       5.5506     -0.00000
     19       7.5335     -0.00000
     20      11.3696      0.00000

 k-point     5 :       0.1053    0.0000    0.1053
  band No.  band energies     occupation 
      1     -14.5613      1.00000
      2     -13.2444      1.00000
      3      -3.2684      1.00000
      4      -2.4803      1.00000
      5      -2.4219      1.00000
      6      -1.4220      1.00000
      7      -1.3716      1.00000
      8      -0.5466      1.00000
      9       0.9002      1.00000
     10       1.1412      1.00000
     11       1.8602      1.00000
     12       2.3503      1.00000
     13       2.7310      1.00000
     14       2.8700      1.00000
     15       3.2224      1.00041
     16       3.2924      1.00202
     17       5.3671     -0.00000
     18       5.4703     -0.00000
     19       7.8436     -0.00000
     20      11.6313      0.00000

 k-point     6 :       0.1316    0.0000    0.1316
  band No.  band energies     occupation 
      1     -14.4896      1.00000
      2     -13.2534      1.00000
      3      -3.1581      1.00000
      4      -2.4748      1.00000
      5      -2.3878      1.00000
      6      -1.4707      1.00000
      7      -1.3825      1.00000
      8      -0.5303      1.00000
      9       0.7215      1.00000
     10       1.0720      1.00000
     11       1.5761      1.00000
     12       2.3234      1.00000
     13       2.7192      1.00000
     14       2.8738      1.00000
     15       3.3154      1.00322
     16       3.4374      1.02097
     17       5.2548     -0.00000
     18       5.3789     -0.00000
     19       8.1934     -0.00000
     20      11.9282      0.00000

 k-point     7 :       0.1579    0.0000    0.1579
  band No.  band energies     occupation 
      1     -14.4046      1.00000
      2     -13.2627      1.00000
      3      -3.0305      1.00000
      4      -2.4677      1.00000
      5      -2.3508      1.00000
      6      -1.5365      1.00000
      7      -1.3922      1.00000
      8      -0.5080      1.00000
      9       0.5278      1.00000
     10       1.0048      1.00000
     11       1.3013      1.00000
     12       2.3118      1.00000
     13       2.7041      1.00000
     14       2.8754      1.00000
     15       3.3830      1.01034
     16       3.5623      1.02719
     17       5.1651     -0.00000
     18       5.2890     -0.00000
     19       8.5633     -0.00000
     20      12.2392      0.00000

 k-point     8 :       0.1842    0.0000    0.1842
  band No.  band energies     occupation 
      1     -14.3074      1.00000
      2     -13.2722      1.00000
      3      -2.8900      1.00000
      4      -2.4593      1.00000
      5      -2.3155      1.00000
      6      -1.6236      1.00000
      7      -1.3978      1.00000
      8      -0.4810      1.00000
      9       0.3263      1.00000
     10       0.9443      1.00000
     11       1.0524      1.00000
     12       2.3107      1.00000
     13       2.6880      1.00000
     14       2.8751      1.00000
     15       3.4137      1.01586
     16       3.6552      0.89962
     17       5.1145     -0.00000
     18       5.2125     -0.00000
     19       8.9384     -0.00000
     20      12.5334      0.00000

 k-point     9 :       0.2105    0.0000    0.2105
  band No.  band energies     occupation 
      1     -14.2012      1.00000
      2     -13.2826      1.00000
      3      -2.7433      1.00000
      4      -2.4494      1.00000
      5      -2.2856      1.00000
      6      -1.7349      1.00000
      7      -1.3957      1.00000
      8      -0.4584      1.00000
      9       0.1349      1.00000
     10       0.8379      1.00000
     11       0.8942      1.00000
     12       2.3156      1.00000
     13       2.6706      1.00000
     14       2.8684      1.00000
     15       3.4008      1.01335
     16       3.6991      0.76814
     17       5.1091     -0.00000
     18       5.1661     -0.00000
     19       9.3036      0.00000
     20      12.7708      0.00000

 k-point    10 :       0.2368    0.0000    0.2368
  band No.  band energies     occupation 
      1     -14.0877      1.00000
      2     -13.2942      1.00000
      3      -2.6035      1.00000
      4      -2.4334      1.00000
      5      -2.2654      1.00000
      6      -1.8706      1.00000
      7      -1.3821      1.00000
      8      -0.4696      1.00000
      9      -0.0023      1.00000
     10       0.6570      1.00000
     11       0.8575      1.00000
     12       2.3218      1.00000
     13       2.6523      1.00000
     14       2.8494      1.00000
     15       3.3556      1.00668
     16       3.6873      0.80768
     17       5.1463     -0.00000
     18       5.1603     -0.00000
     19       9.6497      0.00000
     20      12.9060      0.00000

 k-point    11 :       0.2632    0.0000    0.2632
  band No.  band energies     occupation 
      1     -13.9693      1.00000
      2     -13.3050      1.00000
      3      -2.5155      1.00000
      4      -2.3775      1.00000
      5      -2.2569      1.00000
      6      -2.0228      1.00000
      7      -1.3546      1.00000
      8      -0.5525      1.00000
      9      -0.0318      1.00000
     10       0.5084      1.00000
     11       0.8372      1.00000
     12       2.3245      1.00000
     13       2.6336      1.00000
     14       2.8103      1.00000
     15       3.3016      1.00244
     16       3.6243      0.96365
     17       5.1944     -0.00000
     18       5.2154     -0.00000
     19       9.9682      0.00000
     20      12.9116      0.00000

 k-point    12 :       0.2895    0.0000    0.2895
  band No.  band energies     occupation 
      1     -13.8490      1.00000
      2     -13.3154      1.00000
      3      -2.5258      1.00000
      4      -2.2617      1.00000
      5      -2.2603      1.00000
      6      -2.1662      1.00000
      7      -1.3125      1.00000
      8      -0.6832      1.00000
      9       0.0226      1.00000
     10       0.3910      1.00000
     11       0.8333      1.00000
     12       2.3184      1.00000
     13       2.6084      1.00000
     14       2.7479      1.00000
     15       3.2587      1.00097
     16       3.5260      1.03538
     17       5.2589     -0.00000
     18       5.3032     -0.00000
     19      10.2485      0.00000
     20      12.8013      0.00000

 k-point    13 :       0.3158    0.0000    0.3158
  band No.  band energies     occupation 
      1     -13.7291      1.00000
      2     -13.3253      1.00000
      3      -2.6216      1.00000
      4      -2.2769      1.00000
      5      -2.2633      1.00000
      6      -2.1263      1.00000
      7      -1.2590      1.00000
      8      -0.8176      1.00000
      9       0.0823      1.00000
     10       0.3375      1.00000
     11       0.8477      1.00000
     12       2.2962      1.00000
     13       2.5596      1.00000
     14       2.6821      1.00000
     15       3.2370      1.00058
     16       3.4131      1.01573
     17       5.3407     -0.00000
     18       5.3996     -0.00000
     19      10.4854      0.00000
     20      12.6147      0.00000

 k-point    14 :       0.3421    0.0000    0.3421
  band No.  band energies     occupation 
      1     -13.6140      1.00000
      2     -13.3336      1.00000
      3      -2.7819      1.00000
      4      -2.2993      1.00000
      5      -2.2942      1.00000
      6      -2.0046      1.00000
      7      -1.1982      1.00000
      8      -0.9384      1.00000
      9       0.0563      1.00000
     10       0.4148      1.00000
     11       0.8806      1.00000
     12       2.2503      1.00000
     13       2.4641      1.00000
     14       2.6443      1.00000
     15       3.2329      1.00053
     16       3.3036      1.00255
     17       5.4272     -0.00000
     18       5.4948     -0.00000
     19      10.6714      0.00000
     20      12.3936      0.00000

 k-point    15 :       0.3684    0.0000    0.3684
  band No.  band energies     occupation 
      1     -13.5064      1.00000
      2     -13.3411      1.00000
      3      -2.9598      1.00000
      4      -2.3246      1.00000
      5      -2.2993      1.00000
      6      -1.8917      1.00000
      7      -1.1354      1.00000
      8      -1.0432      1.00000
      9      -0.0187      1.00000
     10       0.5715      1.00000
     11       0.9326      1.00000
     12       2.1751      1.00000
     13       2.3395      1.00000
     14       2.6258      1.00000
     15       3.2122      1.00032
     16       3.2400      1.00063
     17       5.5113     -0.00000
     18       5.5841     -0.00000
     19      10.8096      0.00000
     20      12.1665      0.00000

 k-point    16 :       0.3947    0.0000    0.3947
  band No.  band energies     occupation 
      1     -13.4132      1.00000
      2     -13.3469      1.00000
      3      -3.1275      1.00000
      4      -2.3514      1.00000
      5      -2.2971      1.00000
      6      -1.7883      1.00000
      7      -1.1345      1.00000
      8      -1.0762      1.00000
      9      -0.0990      1.00000
     10       0.7554      1.00000
     11       1.0025      1.00000
     12       2.0696      1.00000
     13       2.2039      1.00000
     14       2.6123      1.00000
     15       3.1449      1.00005
     16       3.2516      1.00082
     17       5.5844     -0.00000
     18       5.6603     -0.00000
     19      10.8988      0.00000
     20      11.9544      0.00000

 k-point    17 :       0.4211    0.0000    0.4211
  band No.  band energies     occupation 
      1     -13.3523      1.00000
      2     -13.3351      1.00000
      3      -3.2691      1.00000
      4      -2.3743      1.00000
      5      -2.2922      1.00000
      6      -1.6939      1.00000
      7      -1.2142      1.00000
      8      -1.0251      1.00000
      9      -0.1712      1.00000
     10       0.9465      1.00000
     11       1.0908      1.00000
     12       1.9406      1.00000
     13       2.0638      1.00000
     14       2.6021      1.00000
     15       3.1012      1.00001
     16       3.2645      1.00111
     17       5.6457     -0.00000
     18       5.7234     -0.00000
     19      10.9513      0.00000
     20      11.7733      0.00000

 k-point    18 :       0.4474    0.0000    0.4474
  band No.  band energies     occupation 
      1     -13.3569      1.00000
      2     -13.2774      1.00000
      3      -3.3783      1.00000
      4      -2.3916      1.00000
      5      -2.2874      1.00000
      6      -1.6091      1.00000
      7      -1.2855      1.00000
      8      -0.9859      1.00000
      9      -0.2296      1.00000
     10       1.1315      1.00000
     11       1.1944      1.00000
     12       1.8000      1.00000
     13       1.9220      1.00000
     14       2.5944      1.00000
     15       3.0757      1.00001
     16       3.2755      1.00141
     17       5.6917     -0.00000
     18       5.7703     -0.00000
     19      10.9782      0.00000
     20      11.6346      0.00000

 k-point    19 :       0.4737    0.0000    0.4737
  band No.  band energies     occupation 
      1     -13.3595      1.00000
      2     -13.2412      1.00000
      3      -3.4449      1.00000
      4      -2.4028      1.00000
      5      -2.2844      1.00000
      6      -1.5367      1.00000
      7      -1.3478      1.00000
      8      -0.9612      1.00000
      9      -0.2669      1.00000
     10       1.2938      1.00000
     11       1.3049      1.00000
     12       1.6640      1.00000
     13       1.7901      1.00000
     14       2.5894      1.00000
     15       3.0628      1.00000
     16       3.2831      1.00166
     17       5.7197     -0.00000
     18       5.7989     -0.00000
     19      10.9897      0.00000
     20      11.5479      0.00000

 k-point    20 :       0.5000    0.0000    0.5000
  band No.  band energies     occupation 
      1     -13.3612      1.00000
      2     -13.2284      1.00000
      3      -3.4674      1.00000
      4      -2.4067      1.00000
      5      -2.2834      1.00000
      6      -1.4989      1.00000
      7      -1.3832      1.00000
      8      -0.9528      1.00000
      9      -0.2793      1.00000
     10       1.3729      1.00000
     11       1.3741      1.00000
     12       1.5867      1.00000
     13       1.7204      1.00000
     14       2.5879      1.00000
     15       3.0589      1.00000
     16       3.2864      1.00179
     17       5.7292     -0.00000
     18       5.8085     -0.00000
     19      10.9927      0.00000
     20      11.5184      0.00000

 k-point    21 :       0.5000    0.0000    0.5000
  band No.  band energies     occupation 
      1     -13.3612      1.00000
      2     -13.2284      1.00000
      3      -3.4674      1.00000
      4      -2.4067      1.00000
      5      -2.2834      1.00000
      6      -1.4989      1.00000
      7      -1.3832      1.00000
      8      -0.9528      1.00000
      9      -0.2793      1.00000
     10       1.3729      1.00000
     11       1.3741      1.00000
     12       1.5867      1.00000
     13       1.7204      1.00000
     14       2.5879      1.00000
     15       3.0589      1.00000
     16       3.2864      1.00179
     17       5.7292     -0.00000
     18       5.8085     -0.00000
     19      10.9927      0.00000
     20      11.5184      0.00000

 k-point    22 :       0.5066    0.0132    0.5066
  band No.  band energies     occupation 
      1     -13.3616      1.00000
      2     -13.2287      1.00000
      3      -3.4661      1.00000
      4      -2.4065      1.00000
      5      -2.2844      1.00000
      6      -1.5043      1.00000
      7      -1.3771      1.00000
      8      -0.9533      1.00000
      9      -0.2798      1.00000
     10       1.3725      1.00000
     11       1.3745      1.00000
     12       1.5875      1.00000
     13       1.7212      1.00000
     14       2.5884      1.00000
     15       3.0590      1.00000
     16       3.2865      1.00179
     17       5.7290     -0.00000
     18       5.8058     -0.00000
     19      10.9955      0.00000
     20      11.5198      0.00000

 k-point    23 :       0.5132    0.0263    0.5132
  band No.  band energies     occupation 
      1     -13.3608      1.00000
      2     -13.2295      1.00000
      3      -3.4622      1.00000
      4      -2.4060      1.00000
      5      -2.2875      1.00000
      6      -1.5174      1.00000
      7      -1.3589      1.00000
      8      -0.9546      1.00000
      9      -0.2810      1.00000
     10       1.3719      1.00000
     11       1.3762      1.00000
     12       1.5899      1.00000
     13       1.7238      1.00000
     14       2.5898      1.00000
     15       3.0594      1.00000
     16       3.2869      1.00180
     17       5.7285     -0.00000
     18       5.7977     -0.00000
     19      11.0038      0.00000
     20      11.5242      0.00000

 k-point    24 :       0.5197    0.0395    0.5197
  band No.  band energies     occupation 
      1     -13.3629      1.00000
      2     -13.2310      1.00000
      3      -3.4559      1.00000
      4      -2.4052      1.00000
      5      -2.2930      1.00000
      6      -1.5347      1.00000
      7      -1.3381      1.00000
      8      -0.9570      1.00000
      9      -0.2832      1.00000
     10       1.3699      1.00000
     11       1.3779      1.00000
     12       1.5935      1.00000
     13       1.7276      1.00000
     14       2.5920      1.00000
     15       3.0599      1.00000
     16       3.2874      1.00182
     17       5.7276     -0.00000
     18       5.7836     -0.00000
     19      11.0174      0.00000
     20      11.5312      0.00000

 k-point    25 :       0.5263    0.0526    0.5263
  band No.  band energies     occupation 
      1     -13.3658      1.00000
      2     -13.2328      1.00000
      3      -3.4470      1.00000
      4      -2.4040      1.00000
      5      -2.3002      1.00000
      6      -1.5535      1.00000
      7      -1.3143      1.00000
      8      -0.9604      1.00000
      9      -0.2862      1.00000
     10       1.3673      1.00000
     11       1.3802      1.00000
     12       1.5984      1.00000
     13       1.7333      1.00000
     14       2.5951      1.00000
     15       3.0607      1.00000
     16       3.2881      1.00185
     17       5.7263     -0.00000
     18       5.7649     -0.00000
     19      11.0365      0.00000
     20      11.5409      0.00000

 k-point    26 :       0.5329    0.0658    0.5329
  band No.  band energies     occupation 
      1     -13.3695      1.00000
      2     -13.2355      1.00000
      3      -3.4358      1.00000
      4      -2.4026      1.00000
      5      -2.3094      1.00000
      6      -1.5724      1.00000
      7      -1.2889      1.00000
      8      -0.9646      1.00000
      9      -0.2902      1.00000
     10       1.3644      1.00000
     11       1.3830      1.00000
     12       1.6043      1.00000
     13       1.7403      1.00000
     14       2.5989      1.00000
     15       3.0616      1.00000
     16       3.2886      1.00187
     17       5.7247     -0.00000
     18       5.7412     -0.00000
     19      11.0607      0.00000
     20      11.5532      0.00000

 k-point    27 :       0.5395    0.0789    0.5395
  band No.  band energies     occupation 
      1     -13.3740      1.00000
      2     -13.2384      1.00000
      3      -3.4222      1.00000
      4      -2.4008      1.00000
      5      -2.3205      1.00000
      6      -1.5906      1.00000
      7      -1.2627      1.00000
      8      -0.9698      1.00000
      9      -0.2942      1.00000
     10       1.3612      1.00000
     11       1.3863      1.00000
     12       1.6111      1.00000
     13       1.7487      1.00000
     14       2.6035      1.00000
     15       3.0629      1.00000
     16       3.2899      1.00192
     17       5.7127     -0.00000
     18       5.7227     -0.00000
     19      11.0898      0.00000
     20      11.5679      0.00000

 k-point    28 :       0.5461    0.0921    0.5461
  band No.  band energies     occupation 
      1     -13.3792      1.00000
      2     -13.2418      1.00000
      3      -3.4065      1.00000
      4      -2.3988      1.00000
      5      -2.3334      1.00000
      6      -1.6076      1.00000
      7      -1.2360      1.00000
      8      -0.9758      1.00000
      9      -0.2986      1.00000
     10       1.3581      1.00000
     11       1.3898      1.00000
     12       1.6184      1.00000
     13       1.7583      1.00000
     14       2.6088      1.00000
     15       3.0644      1.00000
     16       3.2917      1.00199
     17       5.6797     -0.00000
     18       5.7205     -0.00000
     19      11.1236      0.00000
     20      11.5848      0.00000

 k-point    29 :       0.5526    0.1053    0.5526
  band No.  band energies     occupation 
      1     -13.3853      1.00000
      2     -13.2459      1.00000
      3      -3.3886      1.00000
      4      -2.3964      1.00000
      5      -2.3479      1.00000
      6      -1.6234      1.00000
      7      -1.2092      1.00000
      8      -0.9827      1.00000
      9      -0.3031      1.00000
     10       1.3550      1.00000
     11       1.3936      1.00000
     12       1.6260      1.00000
     13       1.7689      1.00000
     14       2.6143      1.00000
     15       3.0662      1.00000
     16       3.2937      1.00208
     17       5.6424     -0.00000
     18       5.7179     -0.00000
     19      11.1617      0.00000
     20      11.6037      0.00000

 k-point    30 :       0.5592    0.1184    0.5592
  band No.  band energies     occupation 
      1     -13.3921      1.00000
      2     -13.2499      1.00000
      3      -3.3688      1.00000
      4      -2.3938      1.00000
      5      -2.3633      1.00000
      6      -1.6376      1.00000
      7      -1.1822      1.00000
      8      -0.9903      1.00000
      9      -0.3072      1.00000
     10       1.3523      1.00000
     11       1.3974      1.00000
     12       1.6339      1.00000
     13       1.7808      1.00000
     14       2.6205      1.00000
     15       3.0684      1.00000
     16       3.2967      1.00221
     17       5.6018     -0.00000
     18       5.7151     -0.00000
     19      11.2044      0.00000
     20      11.6244      0.00000

 k-point    31 :       0.5658    0.1316    0.5658
  band No.  band energies     occupation 
      1     -13.3986      1.00000
      2     -13.2547      1.00000
      3      -3.3473      1.00000
      4      -2.3909      1.00000
      5      -2.3803      1.00000
      6      -1.6499      1.00000
      7      -1.1542      1.00000
      8      -0.9984      1.00000
      9      -0.3105      1.00000
     10       1.3514      1.00000
     11       1.4027      1.00000
     12       1.6419      1.00000
     13       1.7933      1.00000
     14       2.6270      1.00000
     15       3.0708      1.00001
     16       3.3002      1.00238
     17       5.5572     -0.00000
     18       5.7120     -0.00000
     19      11.2505      0.00000
     20      11.6468      0.00000

 k-point    32 :       0.5724    0.1447    0.5724
  band No.  band energies     occupation 
      1     -13.4070      1.00000
      2     -13.2596      1.00000
      3      -3.3237      1.00000
      4      -2.3981      1.00000
      5      -2.3878      1.00000
      6      -1.6611      1.00000
      7      -1.1281      1.00000
      8      -1.0076      1.00000
      9      -0.3131      1.00000
     10       1.3495      1.00000
     11       1.4060      1.00000
     12       1.6496      1.00000
     13       1.8062      1.00000
     14       2.6332      1.00000
     15       3.0737      1.00001
     16       3.3046      1.00260
     17       5.5095     -0.00000
     18       5.7087     -0.00000
     19      11.3000      0.00000
     20      11.6700      0.00000

 k-point    33 :       0.5789    0.1579    0.5789
  band No.  band energies     occupation 
      1     -13.4161      1.00000
      2     -13.2653      1.00000
      3      -3.2996      1.00000
      4      -2.4164      1.00000
      5      -2.3845      1.00000
      6      -1.6709      1.00000
      7      -1.1028      1.00000
      8      -1.0174      1.00000
      9      -0.3145      1.00000
     10       1.3482      1.00000
     11       1.4089      1.00000
     12       1.6570      1.00000
     13       1.8193      1.00000
     14       2.6394      1.00000
     15       3.0769      1.00001
     16       3.3097      1.00288
     17       5.4587     -0.00000
     18       5.7051     -0.00000
     19      11.3527      0.00000
     20      11.6939      0.00000

 k-point    34 :       0.5855    0.1711    0.5855
  band No.  band energies     occupation 
      1     -13.4260      1.00000
      2     -13.2711      1.00000
      3      -3.2745      1.00000
      4      -2.4344      1.00000
      5      -2.3810      1.00000
      6      -1.6794      1.00000
      7      -1.0782      1.00000
      8      -1.0278      1.00000
      9      -0.3141      1.00000
     10       1.3476      1.00000
     11       1.4112      1.00000
     12       1.6638      1.00000
     13       1.8329      1.00000
     14       2.6453      1.00000
     15       3.0806      1.00001
     16       3.3158      1.00324
     17       5.4060     -0.00000
     18       5.7013     -0.00000
     19      11.4085      0.00000
     20      11.7179      0.00000

 k-point    35 :       0.5921    0.1842    0.5921
  band No.  band energies     occupation 
      1     -13.4367      1.00000
      2     -13.2779      1.00000
      3      -3.2490      1.00000
      4      -2.4522      1.00000
      5      -2.3780      1.00000
      6      -1.6867      1.00000
      7      -1.0551      1.00000
      8      -1.0388      1.00000
      9      -0.3116      1.00000
     10       1.3476      1.00000
     11       1.4127      1.00000
     12       1.6697      1.00000
     13       1.8463      1.00000
     14       2.6507      1.00000
     15       3.0847      1.00001
     16       3.3229      1.00372
     17       5.3506     -0.00000
     18       5.6964     -0.00000
     19      11.4662      0.00000
     20      11.7416      0.00000

 k-point    36 :       0.5987    0.1974    0.5987
  band No.  band energies     occupation 
      1     -13.4482      1.00000
      2     -13.2849      1.00000
      3      -3.2231      1.00000
      4      -2.4690      1.00000
      5      -2.3742      1.00000
      6      -1.6931      1.00000
      7      -1.0503      1.00000
      8      -1.0333      1.00000
[...]
      9      -0.2843      1.00000
     10       1.2072      1.00000
     11       1.3167      1.00000
     12       1.7176      1.00000
     13       1.7719      1.00000
     14       2.6276      1.00000
     15       3.0654      1.00000
     16       3.2823      1.00163
     17       5.6796     -0.00000
     18       5.7712     -0.00000
     19      11.0924      0.00000
     20      11.5839      0.00000

 k-point   118 :       0.5000    0.0263    0.5263
  band No.  band energies     occupation 
      1     -13.3597      1.00000
      2     -13.2292      1.00000
      3      -3.4538      1.00000
      4      -2.4062      1.00000
      5      -2.2843      1.00000
      6      -1.5226      1.00000
      7      -1.3739      1.00000
      8      -0.9392      1.00000
      9      -0.2815      1.00000
     10       1.2806      1.00000
     11       1.3473      1.00000
     12       1.6796      1.00000
     13       1.7286      1.00000
     14       2.6061      1.00000
     15       3.0618      1.00000
     16       3.2847      1.00172
     17       5.7075     -0.00000
     18       5.7920     -0.00000
     19      11.0375      0.00000
     20      11.5477      0.00000

 k-point   119 :       0.5000    0.0132    0.5132
  band No.  band energies     occupation 
      1     -13.3606      1.00000
      2     -13.2286      1.00000
      3      -3.4640      1.00000
      4      -2.4065      1.00000
      5      -2.2836      1.00000
      6      -1.5055      1.00000
      7      -1.3798      1.00000
      8      -0.9494      1.00000
      9      -0.2799      1.00000
     10       1.3441      1.00000
     11       1.3666      1.00000
     12       1.6171      1.00000
     13       1.7218      1.00000
     14       2.5926      1.00000
     15       3.0596      1.00000
     16       3.2860      1.00177
     17       5.7238     -0.00000
     18       5.8043     -0.00000
     19      11.0040      0.00000
     20      11.5257      0.00000

 k-point   120 :       0.5000    0.0000    0.5000
  band No.  band energies     occupation 
      1     -13.3612      1.00000
      2     -13.2284      1.00000
      3      -3.4674      1.00000
      4      -2.4067      1.00000
      5      -2.2834      1.00000
      6      -1.4989      1.00000
      7      -1.3832      1.00000
      8      -0.9528      1.00000
      9      -0.2793      1.00000
     10       1.3729      1.00000
     11       1.3741      1.00000
     12       1.5867      1.00000
     13       1.7204      1.00000
     14       2.5879      1.00000
     15       3.0589      1.00000
     16       3.2864      1.00179
     17       5.7292     -0.00000
     18       5.8085     -0.00000
     19      10.9927      0.00000
     20      11.5184      0.00000


--------------------------------------------------------------------------------------------------------


 soft charge-density along one line, spin component           1
         0         1         2         3         4         5         6         7         8         9
 total charge-density along one line
 
 soft charge-density along one line, spin component           2
         0         1         2         3         4         5         6         7         8         9
 total charge-density along one line
 
 pseudopotential strength for first ion, spin component:           1
 -9.366  -0.000  -0.001   0.000   0.001  -0.000  -0.001   0.000  -0.000   0.000   0.401   0.000   0.000  -0.000  -0.001   0.000
 -0.001  -0.000  -9.366  -0.000  -0.001   0.000  -0.001   0.000   0.001  -0.000   0.000   0.000   0.401   0.000   0.000  -0.000
  0.001   0.000  -0.001  -0.000  -9.504  -0.000  -0.001   0.000  -0.000   0.000  -0.001  -0.000   0.000   0.000   0.443   0.000
 -0.001  -0.000  -0.001  -0.000  -0.001  -0.000  -9.366  -0.000  -0.001   0.000   0.000   0.000   0.000   0.000   0.000   0.000
 -0.000   0.000   0.001   0.000  -0.000  -0.000  -0.001  -0.000  -9.504  -0.000   0.000   0.000  -0.000  -0.000   0.000   0.000
  0.401   0.000   0.000  -0.000  -0.001   0.000   0.000  -0.000   0.000   0.000   0.785  -0.000  -0.000   0.000   0.000  -0.000
  0.000   0.000   0.401   0.000   0.000  -0.000   0.000  -0.000  -0.000   0.000  -0.000  -0.000   0.785  -0.000  -0.000   0.000
 -0.001  -0.000   0.000   0.000   0.443   0.000   0.000  -0.000   0.000  -0.000   0.000   0.000  -0.000  -0.000   0.774  -0.000
  0.000   0.000   0.000   0.000   0.000   0.000   0.401   0.000   0.000  -0.000  -0.000  -0.000  -0.000  -0.000  -0.000  -0.000
  0.000   0.000  -0.000  -0.000   0.000   0.000   0.000   0.000   0.443   0.000  -0.000   0.000   0.000   0.000  -0.000  -0.000
  0.000   0.000   0.000   0.000  -0.000   0.000   0.000   0.000  -0.000   0.000  -0.000   0.000  -0.000   0.000  -0.000   0.000
 -0.000   0.000  -0.000   0.000   0.000   0.000  -0.000   0.000   0.000   0.000   0.000   0.000   0.000   0.000  -0.000   0.000
 -0.000   0.000  -0.000   0.000  -0.000   0.000  -0.000   0.000  -0.000   0.000   0.000   0.000  -0.000   0.000   0.000   0.000
 -0.000   0.000   0.000   0.000  -0.000   0.000  -0.000   0.000   0.000   0.000  -0.000   0.000  -0.000   0.000   0.000   0.000
  0.000   0.000  -0.000   0.000   0.000   0.000   0.000   0.000  -0.000   0.000  -0.000   0.000  -0.000   0.000  -0.000   0.000
  0.000   0.000   0.000   0.000   0.000   0.000   0.000   0.000   0.000   0.000  -0.000   0.000  -0.000   0.000  -0.000   0.000
  0.000   0.000  -0.000   0.000  -0.000   0.000   0.000   0.000  -0.000   0.000  -0.000   0.000   0.000   0.000   0.000   0.000
 -0.000   0.000   0.000   0.000  -0.000   0.000  -0.000   0.000   0.000   0.000   0.000   0.000  -0.000   0.000   0.000   0.000
 pseudopotential strength for first ion, spin component:           2
 -5.832   0.000   0.002   0.000  -0.003  -0.000   0.002   0.000   0.000   0.000  -0.717  -0.000  -0.000  -0.000   0.001   0.000
  0.002  -0.000  -5.832   0.000   0.001   0.000   0.002   0.000  -0.002  -0.000  -0.000   0.000  -0.717  -0.000  -0.000  -0.000
 -0.003   0.000   0.001  -0.000  -5.405   0.000   0.001   0.000  -0.000  -0.000   0.001  -0.000  -0.000   0.000  -0.847  -0.000
  0.002  -0.000   0.002  -0.000   0.001  -0.000  -5.832   0.000   0.002   0.000  -0.000   0.000  -0.000   0.000  -0.000   0.000
  0.000   0.000  -0.002   0.000  -0.000   0.000   0.002  -0.000  -5.405   0.000  -0.000   0.000   0.000  -0.000   0.000  -0.000
 -0.717  -0.000  -0.000  -0.000   0.001   0.000  -0.000  -0.000  -0.000   0.000   1.512   0.000   0.000   0.000  -0.001  -0.000
 -0.000   0.000  -0.717  -0.000  -0.000  -0.000  -0.000  -0.000   0.000   0.000   0.000  -0.000   1.512   0.000   0.000   0.000
  0.001  -0.000  -0.000   0.000  -0.847  -0.000  -0.000  -0.000   0.000   0.000  -0.001   0.000   0.000  -0.000   1.543   0.000
 -0.000   0.000  -0.000   0.000  -0.000   0.000  -0.717  -0.000  -0.000  -0.000   0.000  -0.000   0.000  -0.000   0.000  -0.000
 -0.000   0.000   0.000  -0.000   0.000  -0.000  -0.000   0.000  -0.847  -0.000   0.000   0.000  -0.000   0.000  -0.000   0.000
  0.000   0.000   0.000   0.000   0.000   0.000   0.000   0.000   0.000   0.000  -0.000   0.000  -0.000   0.000   0.000   0.000
 -0.000   0.000  -0.000   0.000  -0.000   0.000  -0.000   0.000  -0.000   0.000   0.000   0.000   0.000   0.000   0.000   0.000
 -0.000   0.000   0.000   0.000  -0.000   0.000  -0.000   0.000  -0.000   0.000   0.000   0.000  -0.000   0.000   0.000   0.000
 -0.000   0.000   0.000   0.000   0.000   0.000  -0.000   0.000   0.000   0.000  -0.000   0.000  -0.000   0.000  -0.000   0.000
  0.000   0.000  -0.000   0.000   0.000   0.000   0.000   0.000  -0.000   0.000  -0.000   0.000  -0.000   0.000  -0.000   0.000
  0.000   0.000  -0.000   0.000  -0.000   0.000   0.000   0.000   0.000   0.000  -0.000   0.000   0.000   0.000  -0.000   0.000
  0.000   0.000  -0.000   0.000  -0.000   0.000   0.000   0.000  -0.000   0.000  -0.000   0.000   0.000   0.000   0.000   0.000
 -0.000   0.000   0.000   0.000  -0.000   0.000  -0.000   0.000   0.000   0.000   0.000   0.000  -0.000   0.000   0.000   0.000
 total augmentation occupancy for first ion, spin component:           1
  1.800   0.000   0.000   0.000   0.000   0.000   0.000   0.000   0.000   0.000   0.000   0.000   0.000   0.000   0.000   0.000
  0.000   1.800   0.000   0.000   0.000   0.000   0.000   0.000   0.000   0.000   0.000   0.000   0.000   0.000   0.000   0.000
  0.000   0.000   1.800   0.000   0.000   0.000   0.000   0.000   0.000   0.000   0.000   0.000   0.000   0.000   0.000   0.000
  0.000   0.000   0.000   1.800   0.000   0.000   0.000   0.000   0.000   0.000   0.000   0.000   0.000   0.000   0.000   0.000
  0.000   0.000   0.000   0.000   1.800   0.000   0.000   0.000   0.000   0.000   0.000   0.000   0.000   0.000   0.000   0.000
  0.000   0.000   0.000   0.000   0.000   0.000   0.000   0.000   0.000   0.000   0.000   0.000   0.000   0.000   0.000   0.000
  0.000   0.000   0.000   0.000   0.000   0.000   0.000   0.000   0.000   0.000   0.000   0.000   0.000   0.000   0.000   0.000
  0.000   0.000   0.000   0.000   0.000   0.000   0.000   0.000   0.000   0.000   0.000   0.000   0.000   0.000   0.000   0.000
  0.000   0.000   0.000   0.000   0.000   0.000   0.000   0.000   0.000   0.000   0.000   0.000   0.000   0.000   0.000   0.000
  0.000   0.000   0.000   0.000   0.000   0.000   0.000   0.000   0.000   0.000   0.000   0.000   0.000   0.000   0.000   0.000
  0.000   0.000   0.000   0.000   0.000   0.000   0.000   0.000   0.000   0.000   1.000   0.000   0.000   0.000   0.000   0.000
  0.000   0.000   0.000   0.000   0.000   0.000   0.000   0.000   0.000   0.000   0.000   0.000   0.000   0.000   0.000   0.000
  0.000   0.000   0.000   0.000   0.000   0.000   0.000   0.000   0.000   0.000   0.000   0.000   0.000   0.000   0.000   0.000
  0.000   0.000   0.000   0.000   0.000   0.000   0.000   0.000   0.000   0.000   0.000   0.000   0.000   0.000   0.000   0.000
  0.000   0.000   0.000   0.000   0.000   0.000   0.000   0.000   0.000   0.000   0.000   0.000   0.000   0.000   0.000   0.000
  0.000   0.000   0.000   0.000   0.000   0.000   0.000   0.000   0.000   0.000   0.000   0.000   0.000   0.000   0.000   0.000
  0.000   0.000   0.000   0.000   0.000   0.000   0.000   0.000   0.000   0.000   0.000   0.000   0.000   0.000   0.000   0.000
  0.000   0.000   0.000   0.000   0.000   0.000   0.000   0.000   0.000   0.000   0.000   0.000   0.000   0.000   0.000   0.000
 total augmentation occupancy for first ion, spin component:           2
  0.360   0.000   0.000   0.000   0.000   0.000   0.000   0.000   0.000   0.000   0.000   0.000   0.000   0.000   0.000   0.000
  0.000   0.360   0.000   0.000   0.000   0.000   0.000   0.000   0.000   0.000   0.000   0.000   0.000   0.000   0.000   0.000
  0.000   0.000   0.360   0.000   0.000   0.000   0.000   0.000   0.000   0.000   0.000   0.000   0.000   0.000   0.000   0.000
  0.000   0.000   0.000   0.360   0.000   0.000   0.000   0.000   0.000   0.000   0.000   0.000   0.000   0.000   0.000   0.000
  0.000   0.000   0.000   0.000   0.360   0.000   0.000   0.000   0.000   0.000   0.000   0.000   0.000   0.000   0.000   0.000
  0.000   0.000   0.000   0.000   0.000   0.000   0.000   0.000   0.000   0.000   0.000   0.000   0.000   0.000   0.000   0.000
  0.000   0.000   0.000   0.000   0.000   0.000   0.000   0.000   0.000   0.000   0.000   0.000   0.000   0.000   0.000   0.000
  0.000   0.000   0.000   0.000   0.000   0.000   0.000   0.000   0.000   0.000   0.000   0.000   0.000   0.000   0.000   0.000
  0.000   0.000   0.000   0.000   0.000   0.000   0.000   0.000   0.000   0.000   0.000   0.000   0.000   0.000   0.000   0.000
  0.000   0.000   0.000   0.000   0.000   0.000   0.000   0.000   0.000   0.000   0.000   0.000   0.000   0.000   0.000   0.000
  0.000   0.000   0.000   0.000   0.000   0.000   0.000   0.000   0.000   0.000   0.200   0.000   0.000   0.000   0.000   0.000
  0.000   0.000   0.000   0.000   0.000   0.000   0.000   0.000   0.000   0.000   0.000   0.000   0.000   0.000   0.000   0.000
  0.000   0.000   0.000   0.000   0.000   0.000   0.000   0.000   0.000   0.000   0.000   0.000   0.000   0.000   0.000   0.000
  0.000   0.000   0.000   0.000   0.000   0.000   0.000   0.000   0.000   0.000   0.000   0.000   0.000   0.000   0.000   0.000
  0.000   0.000   0.000   0.000   0.000   0.000   0.000   0.000   0.000   0.000   0.000   0.000   0.000   0.000   0.000   0.000
  0.000   0.000   0.000   0.000   0.000   0.000   0.000   0.000   0.000   0.000   0.000   0.000   0.000   0.000   0.000   0.000
  0.000   0.000   0.000   0.000   0.000   0.000   0.000   0.000   0.000   0.000   0.000   0.000   0.000   0.000   0.000   0.000
  0.000   0.000   0.000   0.000   0.000   0.000   0.000   0.000   0.000   0.000   0.000   0.000   0.000   0.000   0.000   0.000


------------------------ aborting loop because EDIFF is reached ----------------------------------------


 


 total charge     
 
# of ion       s       p       d       tot
------------------------------------------
    1        0.351   0.339   8.736   9.426
    2        0.351   0.339   8.736   9.426
    3        1.545   3.203   0.000   4.748
    4        1.545   3.203   0.000   4.748
--------------------------------------------------
tot          3.792   7.084  17.473  28.349
 


 magnetization (x)
 
# of ion       s       p       d       tot
------------------------------------------
    1        0.004  -0.013   1.116   1.106
    2       -0.004   0.013  -1.116  -1.106
    3       -0.000  -0.000   0.000  -0.000
    4       -0.000   0.000   0.000   0.000
--------------------------------------------------
tot         -0.000   0.000  -0.000  -0.000
 
    CHARGE:  cpu time    1.4810: real time    3.0004
    FORLOC:  cpu time    0.0157: real time    0.0417
    FORNL :  cpu time    1.3920: real time    2.7405
    STRESS:  cpu time    1.6237: real time    2.2597
    FORCOR:  cpu time    0.8576: real time    1.7178
    FORHAR:  cpu time    0.0397: real time    0.0918
    OFIELD:  cpu time    0.0013: real time    0.0013

  FORCE on cell =-STRESS in cart. coord.  units (eV):
  Direction    XX          YY          ZZ          XY          YZ          ZX
  --------------------------------------------------------------------------------------
  Alpha Z   217.71629   217.71629   217.71629
  Ewald    -868.25805  -868.25805  -868.25805     0.00000    -0.00000    -0.00000
  Hartree   225.06288   225.06288   225.06288    -0.21740    -0.21740    -0.21740
  E(xc)    -171.06591  -171.06591  -171.06591    -0.00926    -0.00926    -0.00926
  Local     196.81682   196.81682   196.81682     0.14799     0.14799     0.14799
  n-local  -102.53919   -98.58138  -101.93106    -0.05455     0.08073    -0.72357
  augment   124.66712   124.66712   124.66712     0.11711     0.11711     0.11711
  Kinetic   408.26751   402.18036   408.16265    -0.36453    -0.45602     1.12668
  Fock        0.00000     0.00000     0.00000     0.00000     0.00000     0.00000
  -------------------------------------------------------------------------------------
  Total      30.12545    30.12545    30.12545    -0.09021    -0.09021    -0.09021
  in kB    1331.26953  1331.26953  1331.26953    -3.98659    -3.98659    -3.98659
  external pressure =     1331.27 kB  Pullay stress =        0.00 kB


 VOLUME and BASIS-vectors are now :
 -----------------------------------------------------------------------------
  energy-cutoff  :      400.00
  volume of cell :       36.26
      direct lattice vectors                 reciprocal lattice vectors
     4.170000000  2.085000000  2.085000000     0.359712230 -0.119904077 -0.119904077
     2.085000000  4.170000000  2.085000000    -0.119904077  0.359712230 -0.119904077
     2.085000000  2.085000000  4.170000000    -0.119904077 -0.119904077  0.359712230

  length of vectors
     5.107186114  5.107186114  5.107186114     0.397676833  0.397676833  0.397676833


 FORCES acting on ions
    electron-ion (+dipol)            ewald-force                    non-local-force                 convergence-correction
 -----------------------------------------------------------------------------------------------
   -.154E-12 -.386E-13 0.240E-13   0.000E+00 -.284E-13 -.568E-13   0.635E-21 0.000E+00 0.000E+00   0.889E-12 -.658E-12 -.343E-12
   0.929E-12 0.217E-11 0.230E-11   0.568E-13 0.284E-13 0.000E+00   0.000E+00 0.000E+00 0.212E-21   -.593E-12 -.554E-12 -.601E-12
   -.510E-12 0.632E-12 0.630E-12   -.426E-13 -.131E-13 0.169E-13   -.159E-21 -.476E-21 0.529E-21   0.272E-12 0.304E-12 0.246E-12
   0.248E-11 -.109E-11 -.109E-11   -.152E-13 0.134E-13 0.426E-13   0.000E+00 0.212E-21 0.212E-21   -.428E-12 -.126E-12 -.891E-13
 -----------------------------------------------------------------------------------------------
   0.275E-11 0.168E-11 0.186E-11   -.869E-15 0.280E-15 0.262E-14   0.476E-21 -.265E-21 0.953E-21   0.141E-12 -.103E-11 -.787E-12
 
 
 POSITION                                       TOTAL-FORCE (eV/Angst)
 -----------------------------------------------------------------------------------
      0.00000      0.00000      0.00000        -0.000000     -0.000000     -0.000000
      4.17000      4.17000      4.17000         0.000000     -0.000000     -0.000000
      2.08500      2.08500      2.08500         0.000000      0.000000      0.000000
      6.25500      6.25500      6.25500         0.000000      0.000000      0.000000
 -----------------------------------------------------------------------------------
    total drift:                                0.000000      0.000000      0.000000


--------------------------------------------------------------------------------------------------------



  FREE ENERGIE OF THE ION-ELECTRON SYSTEM (eV)
  ---------------------------------------------------
  free  energy   TOTEN  =       -14.31246341 eV

  energy  without entropy=      -14.32080479  energy(sigma->0) =      -14.31524387
 


--------------------------------------------------------------------------------------------------------


    POTLOK:  cpu time    0.8951: real time    1.4973


--------------------------------------------------------------------------------------------------------


     LOOP+:  cpu time   89.4742: real time  144.0950
    4ORBIT:  cpu time    0.0000: real time    0.0000
 


 total charge     
 
# of ion       s       p       d       tot
------------------------------------------
    1        0.351   0.339   8.736   9.426
    2        0.351   0.339   8.736   9.426
    3        1.545   3.203   0.000   4.748
    4        1.545   3.203   0.000   4.748
--------------------------------------------------
tot          3.792   7.084  17.473  28.349
 


 magnetization (x)
 
# of ion       s       p       d       tot
------------------------------------------
    1        0.004  -0.013   1.116   1.106
    2       -0.004   0.013  -1.116  -1.106
    3       -0.000  -0.000   0.000  -0.000
    4       -0.000   0.000   0.000   0.000
--------------------------------------------------
tot         -0.000   0.000  -0.000  -0.000
 

 total amount of memory used by VASP MPI-rank0   147841. kBytes
=======================================================================

   base      :      30000. kBytes
   nonl-proj :      23336. kBytes
   fftplans  :      11932. kBytes
   grid      :      26693. kBytes
   one-center:        124. kBytes
   wavefun   :      55756. kBytes
 
  
  
 General timing and accounting informations for this job:
 ========================================================
  
                  Total CPU time used (sec):       91.926
                            User time (sec):       90.750
                          System time (sec):        1.176
                         Elapsed time (sec):      148.559
  
                   Maximum memory used (kb):      199932.
                   Average memory used (kb):           0.
  
                          Minor page faults:        47393
                          Major page faults:            0
                 Voluntary context switches:          262
