 running on    1 total cores
 distrk:  each k-point on    1 cores,    1 groups
 distr:  one band on    1 cores,    1 groups
 using from now: INCAR     
 vasp.5.4.4.18Apr17-6-g9f103f2a35 (build May 20 2018 16:52:39) complex          
  
 POSCAR found type information on POSCAR  Ni O 
 POSCAR found :  2 types and       4 ions
 scaLAPACK will be used
 LDA part: xc-table for Ceperly-Alder, standard interpolation
 WARNING: stress and forces are not correct
 POSCAR, INCAR and KPOINTS ok, starting setup
 FFT: planning ...
 WAVECAR not read
 reading imaginary part of occupancies ...
 charge-density read from file: NiO_af2                                 
 reading imaginary part of occupancies ...
 magnetization density read from file 1
 entering main loop
       N       E                     dE             d eps       ncg     rms          rms(c)
DAV:   1     0.214087988888E+03    0.21409E+03   -0.14620E+04  9768   0.191E+03
DAV:   2     0.541118342119E+01   -0.20868E+03   -0.19848E+03 10256   0.371E+02
DAV:   3    -0.139301487573E+02   -0.19341E+02   -0.18416E+02 10676   0.129E+02
DAV:   4    -0.143073986726E+02   -0.37725E+00   -0.37609E+00 10264   0.183E+01
DAV:   5    -0.143123314009E+02   -0.49327E-02   -0.49320E-02 10636   0.193E+00
DAV:   6    -0.143124595804E+02   -0.12818E-03   -0.12818E-03 10200   0.258E-01
DAV:   7    -0.143124634083E+02   -0.38279E-05   -0.38275E-05  6200   0.409E-02
   1 F= -.14312463E+02 E0= -.14315244E+02  d E =0.834139E-02  mag=     0.0000
