<?xml version="1.0" encoding="ISO-8859-1"?>
<modeling>
 <generator>
  <i name="program" type="string">vasp </i>
  <i name="version" type="string">5.4.4.18Apr17-6-g9f103f2a35  </i>
  <i name="subversion" type="string">(build May 20 2018 16:52:39) complex            parallel </i>
  <i name="platform" type="string">LinuxIFC </i>
  <i name="date" type="string">2022 10 29 </i>
  <i name="time" type="string">11:00:00 </i>
 </generator>
 <incar>
  <i type="string" name="SYSTEM"> NiO_af2</i>
  <i type="string" name="PREC">normal</i>
  <i type="int" name="ISPIN">     2</i>
  <i type="int" name="ICHARG">    11</i>
  <v name="RWIGS">      1.28600000      0.82000000</v>
  <v name="MAGMOM">      2.00000000     -2.00000000      0.00000000      0.00000000</v>
  <i type="logical" name="LWAVE"> F  </i>
  <i type="logical" name="LCHARG"> F  </i>
  <i type="int" name="LORBIT">    11</i>
  <v type="int" name="KPOINT_BSE">    -1     0     0     0</v>
  <i type="logical" name="LDAU"> T  </i>
  <v type="int" name="LDAUTYPE">     2</v>
  <v type="int" name="LDAUL">     2    -1</v>
  <v name="LDAUU">      7.00000000      0.00000000</v>
 </incar>
 <structure name="primitive_cell" >
  <crystal>
   <varray name="basis" >
    <v>       2.08500000       0.00000000      -2.08500000 </v>
    <v>       0.00000000       2.08500000      -2.08500000 </v>
    <v>       2.08500000       2.08500000       0.00000000 </v>
   </varray>
   <i name="volume">     18.12792825 </i>
   <varray name="rec_basis" >
    <v>       0.23980815      -0.23980815      -0.23980815 </v>
    <v>      -0.23980815       0.23980815      -0.23980815 </v>
    <v>       0.23980815       0.23980815       0.23980815 </v>
   </varray>
  </crystal>
  <varray name="positions" >
   <v>       0.00000000       0.00000000       0.00000000 </v>
   <v>      -0.50000000      -0.50000000      -0.50000000 </v>
  </varray>
 </structure>
 <varray name="primitive_index" >
  <v type="int" >        1 </v>
  <v type="int" >        3 </v>
 </varray>
 <kpoints>
  <generation param="listgenerated">
   <i name="divisions" type="int">      20 </i>
   <v>       0.00000000       0.00000000       0.00000000 </v>
   <v>       0.50000000       0.00000000       0.50000000 </v>
   <v>       0.62500000       0.25000000       0.62500000 </v>
   <v>       0.00000000       0.00000000       0.00000000 </v>
   <v>       0.50000000       0.50000000       0.50000000 </v>
   <v>       0.50000000       0.25000000       0.75000000 </v>
   <v>       0.50000000       0.00000000       0.50000000 </v>
  </generation>
  <varray name="kpointlist" >
   <v>       0.00000000       0.00000000       0.00000000 </v>
   <v>       0.02631579       0.00000000       0.02631579 </v>
   <v>       0.05263158       0.00000000       0.05263158 </v>
   <v>       0.07894737       0.00000000       0.07894737 </v>
   <v>       0.10526316       0.00000000       0.10526316 </v>
   <v>       0.13157895       0.00000000       0.13157895 </v>
   <v>       0.15789474       0.00000000       0.15789474 </v>
   <v>       0.18421053       0.00000000       0.18421053 </v>
   <v>       0.21052632       0.00000000       0.21052632 </v>
   <v>       0.23684211       0.00000000       0.23684211 </v>
   <v>       0.26315789       0.00000000       0.26315789 </v>
   <v>       0.28947368       0.00000000       0.28947368 </v>
   <v>       0.31578947       0.00000000       0.31578947 </v>
   <v>       0.34210526       0.00000000       0.34210526 </v>
   <v>       0.36842105       0.00000000       0.36842105 </v>
   <v>       0.39473684       0.00000000       0.39473684 </v>
   <v>       0.42105263       0.00000000       0.42105263 </v>
   <v>       0.44736842       0.00000000       0.44736842 </v>
   <v>       0.47368421       0.00000000       0.47368421 </v>
   <v>       0.50000000       0.00000000       0.50000000 </v>
   <v>       0.50000000       0.00000000       0.50000000 </v>
   <v>       0.50657895       0.01315789       0.50657895 </v>
   <v>       0.51315789       0.02631579       0.51315789 </v>
   <v>       0.51973684       0.03947368       0.51973684 </v>
   <v>       0.52631579       0.05263158       0.52631579 </v>
   <v>       0.53289474       0.06578947       0.53289474 </v>
   <v>       0.53947368       0.07894737       0.53947368 </v>
   <v>       0.54605263       0.09210526       0.54605263 </v>
   <v>       0.55263158       0.10526316       0.55263158 </v>
   <v>       0.55921053       0.11842105       0.55921053 </v>
   <v>       0.56578947       0.13157895       0.56578947 </v>
   <v>       0.57236842       0.14473684       0.57236842 </v>
   <v>       0.57894737       0.15789474       0.57894737 </v>
   <v>       0.58552632       0.17105263       0.58552632 </v>
   <v>       0.59210526       0.18421053       0.59210526 </v>
   <v>       0.59868421       0.19736842       0.59868421 </v>
   <v>       0.60526316       0.21052632       0.60526316 </v>
   <v>       0.61184211       0.22368421       0.61184211 </v>
   <v>       0.61842105       0.23684211       0.61842105 </v>
   <v>       0.62500000       0.25000000       0.62500000 </v>
   <v>       0.62500000       0.25000000       0.62500000 </v>
   <v>       0.59210526       0.23684211       0.59210526 </v>
   <v>       0.55921053       0.22368421       0.55921053 </v>
   <v>       0.52631579       0.21052632       0.52631579 </v>
   <v>       0.49342105       0.19736842       0.49342105 </v>
   <v>       0.46052632       0.18421053       0.46052632 </v>
   <v>       0.42763158       0.17105263       0.42763158 </v>
   <v>       0.39473684       0.15789474       0.39473684 </v>
   <v>       0.36184211       0.14473684       0.36184211 </v>
   <v>       0.32894737       0.13157895       0.32894737 </v>
   <v>       0.29605263       0.11842105       0.29605263 </v>
   <v>       0.26315789       0.10526316       0.26315789 </v>
   <v>       0.23026316       0.09210526       0.23026316 </v>
   <v>       0.19736842       0.07894737       0.19736842 </v>
   <v>       0.16447368       0.06578947       0.16447368 </v>
   <v>       0.13157895       0.05263158       0.13157895 </v>
   <v>       0.09868421       0.03947368       0.09868421 </v>
   <v>       0.06578947       0.02631579       0.06578947 </v>
   <v>       0.03289474       0.01315789       0.03289474 </v>
   <v>       0.00000000       0.00000000       0.00000000 </v>
   <v>       0.00000000       0.00000000       0.00000000 </v>
   <v>       0.02631579       0.02631579       0.02631579 </v>
   <v>       0.05263158       0.05263158       0.05263158 </v>
   <v>       0.07894737       0.07894737       0.07894737 </v>
   <v>       0.10526316       0.10526316       0.10526316 </v>
   <v>       0.13157895       0.13157895       0.13157895 </v>
   <v>       0.15789474       0.15789474       0.15789474 </v>
   <v>       0.18421053       0.18421053       0.18421053 </v>
   <v>       0.21052632       0.21052632       0.21052632 </v>
   <v>       0.23684211       0.23684211       0.23684211 </v>
   <v>       0.26315789       0.26315789       0.26315789 </v>
   <v>       0.28947368       0.28947368       0.28947368 </v>
   <v>       0.31578947       0.31578947       0.31578947 </v>
   <v>       0.34210526       0.34210526       0.34210526 </v>
   <v>       0.36842105       0.36842105       0.36842105 </v>
   <v>       0.39473684       0.39473684       0.39473684 </v>
   <v>       0.42105263       0.42105263       0.42105263 </v>
   <v>       0.44736842       0.44736842       0.44736842 </v>
   <v>       0.47368421       0.47368421       0.47368421 </v>
   <v>       0.50000000       0.50000000       0.50000000 </v>
   <v>       0.50000000       0.50000000       0.50000000 </v>
   <v>       0.50000000       0.48684211       0.51315789 </v>
   <v>       0.50000000       0.47368421       0.52631579 </v>
   <v>       0.50000000       0.46052632       0.53947368 </v>
   <v>       0.50000000       0.44736842       0.55263158 </v>
   <v>       0.50000000       0.43421053       0.56578947 </v>
   <v>       0.50000000       0.42105263       0.57894737 </v>
   <v>       0.50000000       0.40789474       0.59210526 </v>
   <v>       0.50000000       0.39473684       0.60526316 </v>
   <v>       0.50000000       0.38157895       0.61842105 </v>
   <v>       0.50000000       0.36842105       0.63157895 </v>
   <v>       0.50000000       0.35526316       0.64473684 </v>
   <v>       0.50000000       0.34210526       0.65789474 </v>
   <v>       0.50000000       0.32894737       0.67105263 </v>
   <v>       0.50000000       0.31578947       0.68421053 </v>
   <v>       0.50000000       0.30263158       0.69736842 </v>
   <v>       0.50000000       0.28947368       0.71052632 </v>
   <v>       0.50000000       0.27631579       0.72368421 </v>
   <v>       0.50000000       0.26315789       0.73684211 </v>
   <v>       0.50000000       0.25000000       0.75000000 </v>
   <v>       0.50000000       0.25000000       0.75000000 </v>
   <v>       0.50000000       0.23684211       0.73684211 </v>
   <v>       0.50000000       0.22368421       0.72368421 </v>
   <v>       0.50000000       0.21052632       0.71052632 </v>
   <v>       0.50000000       0.19736842       0.69736842 </v>
   <v>       0.50000000       0.18421053       0.68421053 </v>
   <v>       0.50000000       0.17105263       0.67105263 </v>
   <v>       0.50000000       0.15789474       0.65789474 </v>
   <v>       0.50000000       0.14473684       0.64473684 </v>
   <v>       0.50000000       0.13157895       0.63157895 </v>
   <v>       0.50000000       0.11842105       0.61842105 </v>
   <v>       0.50000000       0.10526316       0.60526316 </v>
   <v>       0.50000000       0.09210526       0.59210526 </v>
   <v>       0.50000000       0.07894737       0.57894737 </v>
   <v>       0.50000000       0.06578947       0.56578947 </v>
   <v>       0.50000000       0.05263158       0.55263158 </v>
   <v>       0.50000000       0.03947368       0.53947368 </v>
   <v>       0.50000000       0.02631579       0.52631579 </v>
   <v>       0.50000000       0.01315789       0.51315789 </v>
   <v>       0.50000000       0.00000000       0.50000000 </v>
  </varray>
  <varray name="weights" >
   <v>       0.00833333 </v>
   <v>       0.00833333 </v>
   <v>       0.00833333 </v>
   <v>       0.00833333 </v>
   <v>       0.00833333 </v>
   <v>       0.00833333 </v>
   <v>       0.00833333 </v>
   <v>       0.00833333 </v>
   <v>       0.00833333 </v>
   <v>       0.00833333 </v>
   <v>       0.00833333 </v>
   <v>       0.00833333 </v>
   <v>       0.00833333 </v>
   <v>       0.00833333 </v>
   <v>       0.00833333 </v>
   <v>       0.00833333 </v>
   <v>       0.00833333 </v>
   <v>       0.00833333 </v>
   <v>       0.00833333 </v>
   <v>       0.00833333 </v>
   <v>       0.00833333 </v>
   <v>       0.00833333 </v>
   <v>       0.00833333 </v>
   <v>       0.00833333 </v>
   <v>       0.00833333 </v>
   <v>       0.00833333 </v>
   <v>       0.00833333 </v>
   <v>       0.00833333 </v>
   <v>       0.00833333 </v>
   <v>       0.00833333 </v>
   <v>       0.00833333 </v>
   <v>       0.00833333 </v>
   <v>       0.00833333 </v>
   <v>       0.00833333 </v>
   <v>       0.00833333 </v>
   <v>       0.00833333 </v>
   <v>       0.00833333 </v>
   <v>       0.00833333 </v>
   <v>       0.00833333 </v>
   <v>       0.00833333 </v>
   <v>       0.00833333 </v>
   <v>       0.00833333 </v>
   <v>       0.00833333 </v>
   <v>       0.00833333 </v>
   <v>       0.00833333 </v>
   <v>       0.00833333 </v>
   <v>       0.00833333 </v>
   <v>       0.00833333 </v>
   <v>       0.00833333 </v>
   <v>       0.00833333 </v>
   <v>       0.00833333 </v>
   <v>       0.00833333 </v>
   <v>       0.00833333 </v>
   <v>       0.00833333 </v>
   <v>       0.00833333 </v>
   <v>       0.00833333 </v>
   <v>       0.00833333 </v>
   <v>       0.00833333 </v>
   <v>       0.00833333 </v>
   <v>       0.00833333 </v>
   <v>       0.00833333 </v>
   <v>       0.00833333 </v>
   <v>       0.00833333 </v>
   <v>       0.00833333 </v>
   <v>       0.00833333 </v>
   <v>       0.00833333 </v>
   <v>       0.00833333 </v>
   <v>       0.00833333 </v>
   <v>       0.00833333 </v>
   <v>       0.00833333 </v>
   <v>       0.00833333 </v>
   <v>       0.00833333 </v>
   <v>       0.00833333 </v>
   <v>       0.00833333 </v>
   <v>       0.00833333 </v>
   <v>       0.00833333 </v>
   <v>       0.00833333 </v>
   <v>       0.00833333 </v>
   <v>       0.00833333 </v>
   <v>       0.00833333 </v>
   <v>       0.00833333 </v>
   <v>       0.00833333 </v>
   <v>       0.00833333 </v>
   <v>       0.00833333 </v>
   <v>       0.00833333 </v>
   <v>       0.00833333 </v>
   <v>       0.00833333 </v>
   <v>       0.00833333 </v>
   <v>       0.00833333 </v>
   <v>       0.00833333 </v>
   <v>       0.00833333 </v>
   <v>       0.00833333 </v>
   <v>       0.00833333 </v>
   <v>       0.00833333 </v>
   <v>       0.00833333 </v>
   <v>       0.00833333 </v>
   <v>       0.00833333 </v>
   <v>       0.00833333 </v>
   <v>       0.00833333 </v>
   <v>       0.00833333 </v>
   <v>       0.00833333 </v>
   <v>       0.00833333 </v>
   <v>       0.00833333 </v>
   <v>       0.00833333 </v>
   <v>       0.00833333 </v>
   <v>       0.00833333 </v>
   <v>       0.00833333 </v>
   <v>       0.00833333 </v>
   <v>       0.00833333 </v>
   <v>       0.00833333 </v>
   <v>       0.00833333 </v>
   <v>       0.00833333 </v>
   <v>       0.00833333 </v>
   <v>       0.00833333 </v>
   <v>       0.00833333 </v>
   <v>       0.00833333 </v>
   <v>       0.00833333 </v>
   <v>       0.00833333 </v>
   <v>       0.00833333 </v>
   <v>       0.00833333 </v>
  </varray>
 </kpoints>
 <parameters>
  <separator name="general" >
   <i type="string" name="SYSTEM">NiO_af2</i>
   <i type="logical" name="LCOMPAT"> F  </i>
  </separator>
  <separator name="electronic" >
   <i type="string" name="PREC">normal</i>
   <i name="ENMAX">    400.00000000</i>
   <i name="ENAUG">    605.39200000</i>
   <i name="EDIFF">      0.00010000</i>
   <i type="int" name="IALGO">    38</i>
   <i type="int" name="IWAVPR">    10</i>
   <i type="int" name="NBANDS">    20</i>
   <i name="NELECT">     32.00000000</i>
   <i type="int" name="TURBO">     0</i>
   <i type="int" name="IRESTART">     0</i>
   <i type="int" name="NREBOOT">     0</i>
   <i type="int" name="NMIN">     0</i>
   <i name="EREF">      0.00000000</i>
   <separator name="electronic smearing" >
    <i type="int" name="ISMEAR">     1</i>
    <i name="SIGMA">      0.20000000</i>
    <i name="KSPACING">      0.50000000</i>
    <i type="logical" name="KGAMMA"> T  </i>
   </separator>
   <separator name="electronic projectors" >
    <i type="logical" name="LREAL"> F  </i>
    <v name="ROPT">      0.00000000      0.00000000</v>
    <i type="int" name="LMAXPAW">  -100</i>
    <i type="int" name="LMAXMIX">     2</i>
    <i type="logical" name="NLSPLINE"> F  </i>
   </separator>
   <separator name="electronic startup" >
    <i type="int" name="ISTART">     0</i>
    <i type="int" name="ICHARG">    11</i>
    <i type="int" name="INIWAV">     1</i>
   </separator>
   <separator name="electronic spin" >
    <i type="int" name="ISPIN">     2</i>
    <i type="logical" name="LNONCOLLINEAR"> F  </i>
    <v name="MAGMOM">      2.00000000     -2.00000000      0.00000000      0.00000000</v>
    <i name="NUPDOWN">     -1.00000000</i>
    <i type="logical" name="LSORBIT"> F  </i>
    <v name="SAXIS">      0.00000000      0.00000000      1.00000000</v>
    <i type="logical" name="LSPIRAL"> F  </i>
    <v name="QSPIRAL">      0.00000000      0.00000000      0.00000000</v>
    <i type="logical" name="LZEROZ"> F  </i>
   </separator>
   <separator name="electronic exchange-correlation" >
    <i type="logical" name="LASPH"> F  </i>
    <i type="logical" name="LMETAGGA"> F  </i>
   </separator>
   <separator name="electronic convergence" >
    <i type="int" name="NELM">    60</i>
    <i type="int" name="NELMDL">    -5</i>
    <i type="int" name="NELMIN">     2</i>
    <i name="ENINI">    400.00000000</i>
    <separator name="electronic convergence detail" >
     <i type="logical" name="LDIAG"> T  </i>
     <i type="logical" name="LSUBROT"> F  </i>
     <i name="WEIMIN">      0.00000000</i>
     <i name="EBREAK">      0.00000125</i>
     <i name="DEPER">      0.30000000</i>
     <i type="int" name="NRMM">     4</i>
     <i name="TIME">      0.40000000</i>
    </separator>
   </separator>
   <separator name="electronic mixer" >
    <i name="AMIX">      0.40000000</i>
    <i name="BMIX">      1.00000000</i>
    <i name="AMIN">      0.10000000</i>
    <i name="AMIX_MAG">      1.60000000</i>
    <i name="BMIX_MAG">      1.00000000</i>
    <separator name="electronic mixer details" >
     <i type="int" name="IMIX">     4</i>
     <i type="logical" name="MIXFIRST"> F  </i>
     <i type="int" name="MAXMIX">   -45</i>
     <i name="WC">    100.00000000</i>
     <i type="int" name="INIMIX">     1</i>
     <i type="int" name="MIXPRE">     1</i>
     <i type="int" name="MREMOVE">     5</i>
    </separator>
   </separator>
   <separator name="electronic dipolcorrection" >
    <i type="logical" name="LDIPOL"> F  </i>
    <i type="logical" name="LMONO"> F  </i>
    <i type="int" name="IDIPOL">     0</i>
    <i name="EPSILON">      1.00000000</i>
    <v name="DIPOL">   -100.00000000   -100.00000000   -100.00000000</v>
    <i name="EFIELD">      0.00000000</i>
   </separator>
  </separator>
  <separator name="grids" >
   <i type="int" name="NGX">    28</i>
   <i type="int" name="NGY">    28</i>
   <i type="int" name="NGZ">    28</i>
   <i type="int" name="NGXF">    56</i>
   <i type="int" name="NGYF">    56</i>
   <i type="int" name="NGZF">    56</i>
   <i type="logical" name="ADDGRID"> F  </i>
  </separator>
  <separator name="ionic" >
   <i type="int" name="NSW">     0</i>
   <i type="int" name="IBRION">    -1</i>
   <i type="int" name="MDALGO">     0</i>
   <i type="int" name="ISIF">     2</i>
   <i name="PSTRESS">      0.00000000</i>
   <i name="EDIFFG">      0.00100000</i>
   <i type="int" name="NFREE">     0</i>
   <i name="POTIM">      0.50000000</i>
   <i name="SMASS">     -3.00000000</i>
   <i name="SCALEE">      1.00000000</i>
  </separator>
  <separator name="ionic md" >
   <i name="TEBEG">      0.00010000</i>
   <i name="TEEND">      0.00010000</i>
   <i type="int" name="NBLOCK">     1</i>
   <i type="int" name="KBLOCK">     1</i>
   <i type="int" name="NPACO">   256</i>
   <i name="APACO">     16.00000000</i>
  </separator>
  <separator name="symmetry" >
   <i type="int" name="ISYM">     2</i>
   <i name="SYMPREC">      0.00001000</i>
  </separator>
  <separator name="dos" >
   <i type="int" name="LORBIT">    11</i>
   <v name="RWIGS">      1.28600000      0.82000000</v>
   <i type="int" name="NEDOS">   301</i>
   <i name="EMIN">     10.00000000</i>
   <i name="EMAX">    -10.00000000</i>
   <i name="EFERMI">      0.00000000</i>
  </separator>
  <separator name="writing" >
   <i type="int" name="NWRITE">     2</i>
   <i type="logical" name="LWAVE"> F  </i>
   <i type="logical" name="LDOWNSAMPLE"> F  </i>
   <i type="logical" name="LCHARG"> F  </i>
   <i type="logical" name="LPARD"> F  </i>
   <i type="logical" name="LVTOT"> F  </i>
   <i type="logical" name="LVHAR"> F  </i>
   <i type="logical" name="LELF"> F  </i>
   <i type="logical" name="LOPTICS"> F  </i>
   <v name="STM">      0.00000000      0.00000000      0.00000000      0.00000000      0.00000000      0.00000000      0.00000000</v>
  </separator>
  <separator name="performance" >
   <i type="int" name="NPAR">     1</i>
   <i type="int" name="NSIM">     4</i>
   <i type="int" name="NBLK">    -1</i>
   <i type="logical" name="LPLANE"> T  </i>
   <i type="logical" name="LSCALAPACK"> T  </i>
   <i type="logical" name="LSCAAWARE"> F  </i>
   <i type="logical" name="LSCALU"> F  </i>
   <i type="logical" name="LASYNC"> F  </i>
   <i type="logical" name="LORBITALREAL"> F  </i>
  </separator>
  <separator name="miscellaneous" >
   <i type="int" name="IDIOT">     3</i>
   <i type="int" name="ISPECIAL">     0</i>
   <i type="logical" name="LMUSIC"> F  </i>
   <v name="POMASS">     58.69000000     16.00000000</v>
   <v name="DARWINR">      0.00000000      0.00000000</v>
   <v name="DARWINV">      1.00000000      1.00000000</v>
   <i type="logical" name="LCORR"> T  </i>
  </separator>
  <i type="logical" name="GGA_COMPAT"> T  </i>
  <i type="logical" name="LBERRY"> F  </i>
  <i type="int" name="ICORELEVEL">     0</i>
  <i type="logical" name="LDAU"> T  </i>
  <v type="int" name="LDAUTYPE">     2</v>
  <v type="int" name="LDAUL">     2</v>
  <v name="LDAUU">      7.00000000</v>
  <v name="LDAUJ">      0.00000000</v>
  <i type="int" name="LDAUPRINT">     0</i>
  <i type="int" name="I_CONSTRAINED_M">     0</i>
  <separator name="electronic exchange-correlation" >
   <i type="string" name="GGA">--</i>
   <i type="int" name="VOSKOWN">     0</i>
   <i type="logical" name="LHFCALC"> F  </i>
   <i type="string" name="PRECFOCK"></i>
   <i type="logical" name="LSYMGRAD"> F  </i>
   <i type="logical" name="LHFONE"> F  </i>
   <i type="logical" name="LRHFCALC"> F  </i>
   <i type="logical" name="LTHOMAS"> F  </i>
   <i type="logical" name="LMODELHF"> F  </i>
   <i name="ENCUT4O">     -1.00000000</i>
   <i type="int" name="EXXOEP">     0</i>
   <i type="int" name="FOURORBIT">     0</i>
   <i name="AEXX">      0.00000000</i>
   <i name="HFALPHA">      0.00000000</i>
   <i name="MCALPHA">      0.00000000</i>
   <i name="ALDAX">      1.00000000</i>
   <i name="AGGAX">      1.00000000</i>
   <i name="ALDAC">      1.00000000</i>
   <i name="AGGAC">      1.00000000</i>
   <i type="int" name="NKREDX">     1</i>
   <i type="int" name="NKREDY">     1</i>
   <i type="int" name="NKREDZ">     1</i>
   <i type="logical" name="SHIFTRED"> F  </i>
   <i type="logical" name="ODDONLY"> F  </i>
   <i type="logical" name="EVENONLY"> F  </i>
   <i type="int" name="LMAXFOCK">     0</i>
   <i type="int" name="NMAXFOCKAE">     0</i>
   <i type="logical" name="LFOCKAEDFT"> F  </i>
   <i name="HFSCREEN">      0.00000000</i>
   <i name="HFSCREENC">      0.00000000</i>
   <i type="int" name="NBANDSGWLOW">     0</i>
  </separator>
  <separator name="vdW DFT" >
   <i type="logical" name="LUSE_VDW"> F  </i>
   <i name="Zab_VDW">     -0.84910000</i>
   <i name="PARAM1">      0.12340000</i>
   <i name="PARAM2">      1.00000000</i>
   <i name="PARAM3">      0.00000000</i>
  </separator>
  <separator name="model GW" >
   <i type="int" name="MODEL_GW">     0</i>
   <i name="MODEL_EPS0">      5.43837847</i>
   <i name="MODEL_ALPHA">      1.00000000</i>
  </separator>
  <separator name="linear response parameters" >
   <i type="logical" name="LEPSILON"> F  </i>
   <i type="logical" name="LRPA"> F  </i>
   <i type="logical" name="LNABLA"> F  </i>
   <i type="logical" name="LVEL"> F  </i>
   <i type="int" name="KINTER">     0</i>
   <i name="CSHIFT">      0.10000000</i>
   <i name="OMEGAMAX">     -1.00000000</i>
   <i name="DEG_THRESHOLD">      0.00200000</i>
   <i name="RTIME">     -0.10000000</i>
   <i name="WPLASMAI">      0.00000000</i>
   <v name="DFIELD">      0.00000000      0.00000000      0.00000000</v>
   <v name="WPLASMA">      0.00000000      0.00000000      0.00000000      0.00000000      0.00000000      0.00000000      0.00000000      0.00000000      0.00000000</v>
  </separator>
  <separator name="orbital magnetization" >
   <i type="logical" name="NUCIND"> F  </i>
   <v name="MAGPOS">      0.00000000      0.00000000      0.00000000</v>
   <i type="logical" name="LNICSALL"> T  </i>
   <i type="logical" name="ORBITALMAG"> F  </i>
   <i type="logical" name="LMAGBLOCH"> F  </i>
   <i type="logical" name="LCHIMAG"> F  </i>
   <i type="logical" name="LGAUGE"> T  </i>
   <i type="int" name="MAGATOM">     0</i>
   <v name="MAGDIPOL">      0.00000000      0.00000000      0.00000000</v>
   <v name="AVECCONST">      0.00000000      0.00000000      0.00000000</v>
  </separator>
  <separator name="response functions" >
   <i type="logical" name="LADDER"> F  </i>
   <i type="logical" name="LRPAFORCE"> F  </i>
   <i type="logical" name="LFXC"> F  </i>
   <i type="logical" name="LHARTREE"> T  </i>
   <i type="int" name="IBSE">     0</i>
   <v type="int" name="KPOINT">    -1     0     0     0</v>
   <i type="logical" name="LTCTE"> F  </i>
   <i type="logical" name="LTETE"> F  </i>
   <i type="logical" name="LTRIPLET"> F  </i>
   <i type="logical" name="LFXCEPS"> F  </i>
   <i type="logical" name="LFXHEG"> F  </i>
   <i type="int" name="NATURALO">     2</i>
   <i type="logical" name="L2ORDER"> F  </i>
   <i type="logical" name="LMP2LT"> F  </i>
   <i type="logical" name="LUSEW"> F  </i>
   <i name="ENCUTGW">     -2.00000000</i>
   <i name="ENCUTGWSOFT">     -2.00000000</i>
   <i name="ENCUTLF">     -1.00000000</i>
   <i type="int" name="LMAXMP2">    -1</i>
   <i name="SCISSOR">      0.00000000</i>
   <i type="int" name="NOMEGA">     0</i>
   <i type="int" name="NOMEGAR">     0</i>
   <i type="int" name="NBANDSGW">    -1</i>
   <i type="int" name="NBANDSO">    -1</i>
   <i type="int" name="NBANDSV">    -1</i>
   <i type="int" name="NELM">     1</i>
   <i type="int" name="NELMHF">     1</i>
   <i type="int" name="DIM">     3</i>
   <i type="int" name="ANTIRES">     0</i>
   <i name="OMEGAMAX">    -30.00000000</i>
   <i name="OMEGAMIN">    -30.00000000</i>
   <i name="OMEGATL">   -200.00000000</i>
   <i type="int" name="OMEGAGRID">   140</i>
   <i name="CSHIFT">     -0.10000000</i>
   <i type="logical" name="SELFENERGY"> F  </i>
   <i type="logical" name="LSPECTRAL"> F  </i>
   <i type="logical" name="LSPECTRALGW"> F  </i>
   <i type="logical" name="LSINGLES"> F  </i>
   <i type="logical" name="LFERMIGW"> F  </i>
   <i type="logical" name="ODDONLYGW"> F  </i>
   <i type="logical" name="EVENONLYGW"> F  </i>
   <i type="int" name="NKREDLFX">     1</i>
   <i type="int" name="NKREDLFY">     1</i>
   <i type="int" name="NKREDLFZ">     1</i>
   <i type="int" name="MAXMEM">  2800</i>
   <i type="int" name="TELESCOPE">     0</i>
   <i type="int" name="TAUPAR">     1</i>
   <i type="int" name="OMEGAPAR">    -1</i>
   <i name="LAMBDA">      1.00000000</i>
  </separator>
  <separator name="External order field" >
   <i name="OFIELD_KAPPA">      0.00000000</i>
   <v name="OFIELD_K">      0.00000000      0.00000000      0.00000000</v>
   <i name="OFIELD_Q6_NEAR">      0.00000000</i>
   <i name="OFIELD_Q6_FAR">      0.00000000</i>
   <i name="OFIELD_A">      0.00000000</i>
  </separator>
 </parameters>
 <atominfo>
  <atoms>       4 </atoms>
  <types>       2 </types>
  <array name="atoms" >
   <dimension dim="1">ion</dimension>
   <field type="string">element</field>
   <field type="int">atomtype</field>
   <set>
    <rc><c>Ni</c><c>   1</c></rc>
    <rc><c>Ni</c><c>   1</c></rc>
    <rc><c>O </c><c>   2</c></rc>
    <rc><c>O </c><c>   2</c></rc>
   </set>
  </array>
  <array name="atomtypes" >
   <dimension dim="1">type</dimension>
   <field type="int">atomspertype</field>
   <field type="string">element</field>
   <field>mass</field>
   <field>valence</field>
   <field type="string">pseudopotential</field>
   <set>
    <rc><c>   2</c><c>Ni</c><c>     58.69000000</c><c>     10.00000000</c><c>  PAW Ni                                </c></rc>
    <rc><c>   2</c><c>O </c><c>     16.00000000</c><c>      6.00000000</c><c>  PAW O                                 </c></rc>
   </set>
  </array>
 </atominfo>
 <structure name="initialpos" >
  <crystal>
   <varray name="basis" >
    <v>       4.17000000       2.08500000       2.08500000 </v>
    <v>       2.08500000       4.17000000       2.08500000 </v>
    <v>       2.08500000       2.08500000       4.17000000 </v>
   </varray>
   <i name="volume">     36.25585650 </i>
   <varray name="rec_basis" >
    <v>       0.35971223      -0.11990408      -0.11990408 </v>
    <v>      -0.11990408       0.35971223      -0.11990408 </v>
    <v>      -0.11990408      -0.11990408       0.35971223 </v>
   </varray>
  </crystal>
  <varray name="positions" >
   <v>       0.00000000       0.00000000       0.00000000 </v>
   <v>       0.50000000       0.50000000       0.50000000 </v>
   <v>       0.25000000       0.25000000       0.25000000 </v>
   <v>       0.75000000       0.75000000       0.75000000 </v>
  </varray>
 </structure>
 <calculation>
  <scstep>
   <time name="dav">   11.86   19.25</time>
   <time name="total">   12.80   20.99</time>
   <energy>
    <i name="alphaZ">    217.71629331 </i>
    <i name="ewald">  -2604.77031634 </i>
    <i name="hartreedc">   -632.55112854 </i>
    <i name="XCdc">    119.27466708 </i>
    <i name="pawpsdc">   2354.03358362 </i>
    <i name="pawaedc">  -2448.00643139 </i>
    <i name="eentropy">     -0.00022571 </i>
    <i name="bandstr">    183.64900291 </i>
    <i name="atom">   3024.74254395 </i>
    <i name="e_fr_energy">    214.08798889 </i>
    <i name="e_wo_entrp">    214.08821460 </i>
    <i name="e_0_energy">    214.08806413 </i>
   </energy>
  </scstep>
  <scstep>
   <time name="dav">   12.14   18.29</time>
   <time name="total">   12.16   18.31</time>
   <energy>
    <i name="e_fr_energy">      5.41118342 </i>
    <i name="e_wo_entrp">      5.41054461 </i>
    <i name="e_0_energy">      5.41097048 </i>
   </energy>
  </scstep>
  <scstep>
   <time name="dav">   12.40   18.38</time>
   <time name="total">   12.42   18.41</time>
   <energy>
    <i name="e_fr_energy">    -13.93014876 </i>
    <i name="e_wo_entrp">    -13.93817122 </i>
    <i name="e_0_energy">    -13.93282291 </i>
   </energy>
  </scstep>
  <scstep>
   <time name="dav">   12.17   21.38</time>
   <time name="total">   12.19   21.43</time>
   <energy>
    <i name="e_fr_energy">    -14.30739867 </i>
    <i name="e_wo_entrp">    -14.31574044 </i>
    <i name="e_0_energy">    -14.31017926 </i>
   </energy>
  </scstep>
  <scstep>
   <time name="dav">   12.46   17.68</time>
   <time name="total">   12.48   17.70</time>
   <energy>
    <i name="e_fr_energy">    -14.31233140 </i>
    <i name="e_wo_entrp">    -14.32067274 </i>
    <i name="e_0_energy">    -14.31511185 </i>
   </energy>
  </scstep>
  <scstep>
   <time name="dav">   12.03   18.63</time>
   <time name="total">   12.05   18.65</time>
   <energy>
    <i name="e_fr_energy">    -14.31245958 </i>
    <i name="e_wo_entrp">    -14.32080096 </i>
    <i name="e_0_energy">    -14.31524004 </i>
   </energy>
  </scstep>
  <scstep>
   <time name="dav">    8.92   17.10</time>
   <time name="total">    8.94   17.12</time>
   <energy>
    <i name="alphaZ">    217.71629331 </i>
    <i name="ewald">  -2604.77031634 </i>
    <i name="hartreedc">   -632.55112854 </i>
    <i name="XCdc">    119.27466708 </i>
    <i name="pawpsdc">   2354.03358362 </i>
    <i name="pawaedc">  -2448.00643139 </i>
    <i name="eentropy">      0.00834139 </i>
    <i name="bandstr">    -44.76001648 </i>
    <i name="atom">   3024.74254395 </i>
    <i name="e_fr_energy">    -14.31246341 </i>
    <i name="e_wo_entrp">    -14.32080479 </i>
    <i name="e_0_energy">    -14.31524387 </i>
   </energy>
  </scstep>
  <structure>
   <crystal>
    <varray name="basis" >
     <v>       4.17000000       2.08500000       2.08500000 </v>
     <v>       2.08500000       4.17000000       2.08500000 </v>
     <v>       2.08500000       2.08500000       4.17000000 </v>
    </varray>
    <i name="volume">     36.25585650 </i>
    <varray name="rec_basis" >
     <v>       0.35971223      -0.11990408      -0.11990408 </v>
     <v>      -0.11990408       0.35971223      -0.11990408 </v>
     <v>      -0.11990408      -0.11990408       0.35971223 </v>
    </varray>
   </crystal>
   <varray name="positions" >
    <v>       0.00000000       0.00000000       0.00000000 </v>
    <v>       0.50000000       0.50000000       0.50000000 </v>
    <v>       0.25000000       0.25000000       0.25000000 </v>
    <v>       0.75000000       0.75000000       0.75000000 </v>
   </varray>
  </structure>
  <varray name="forces" >
   <v>      -0.00000000      -0.00000000      -0.00000000 </v>
   <v>       0.00000000      -0.00000000      -0.00000000 </v>
   <v>       0.00000000       0.00000000       0.00000000 </v>
   <v>       0.00000000       0.00000000       0.00000000 </v>
  </varray>
  <varray name="stress" >
   <v>    1331.26952954      -3.98658855      -3.98658855 </v>
   <v>      -3.98658855    1331.26952954      -3.98658855 </v>
   <v>      -3.98658855      -3.98658855    1331.26952954 </v>
  </varray>
  <energy>
   <i name="e_fr_energy">    -14.31246341 </i>
   <i name="e_wo_entrp">    -14.31524387 </i>
   <i name="e_0_energy">      0.00834139 </i>
  </energy>
  <time name="totalsc">   89.47  144.10</time>
  <eigenvalues>
   <array>
    <dimension dim="1">band</dimension>
    <dimension dim="2">kpoint</dimension>
    <dimension dim="3">spin</dimension>
    <field>eigene</field>
    <field>occ</field>
    <set>
     <set comment="spin 1">
      <set comment="kpoint 1">
       <r>  -14.6923    1.0000 </r>
       <r>  -13.2286    1.0000 </r>
       <r>   -3.4783    1.0000 </r>
       <r>   -2.4909    1.0000 </r>
       <r>   -2.4909    1.0000 </r>
       <r>   -1.3475    1.0000 </r>
       <r>   -1.3475    1.0000 </r>
       <r>   -0.5717    1.0000 </r>
       <r>    1.3008    1.0000 </r>
       <r>    1.3008    1.0000 </r>
       <r>    2.6228    1.0000 </r>
       <r>    2.6228    1.0000 </r>
       <r>    2.7521    1.0000 </r>
       <r>    2.7521    1.0000 </r>
       <r>    2.7541    1.0000 </r>
       <r>    2.9738    1.0000 </r>
       <r>    5.6672   -0.0000 </r>
       <r>    5.6672   -0.0000 </r>
       <r>    7.0605   -0.0000 </r>
       <r>   10.9915    0.0000 </r>
      </set>
      <set comment="kpoint 2">
       <r>  -14.6839    1.0000 </r>
       <r>  -13.2296    1.0000 </r>
       <r>   -3.4647    1.0000 </r>
       <r>   -2.4902    1.0000 </r>
       <r>   -2.4863    1.0000 </r>
       <r>   -1.3517    1.0000 </r>
       <r>   -1.3491    1.0000 </r>
       <r>   -0.5703    1.0000 </r>
       <r>    1.2703    1.0000 </r>
       <r>    1.2894    1.0000 </r>
       <r>    2.5423    1.0000 </r>
       <r>    2.5533    1.0000 </r>
       <r>    2.7519    1.0000 </r>
       <r>    2.7913    1.0000 </r>
       <r>    2.8404    1.0000 </r>
       <r>    2.9882    1.0000 </r>
       <r>    5.6439   -0.0000 </r>
       <r>    5.6537   -0.0000 </r>
       <r>    7.1184   -0.0000 </r>
       <r>   11.0361    0.0000 </r>
      </set>
      <set comment="kpoint 3">
       <r>  -14.6590    1.0000 </r>
       <r>  -13.2335    1.0000 </r>
       <r>   -3.4246    1.0000 </r>
       <r>   -2.4889    1.0000 </r>
       <r>   -2.4732    1.0000 </r>
       <r>   -1.3647    1.0000 </r>
       <r>   -1.3540    1.0000 </r>
       <r>   -0.5663    1.0000 </r>
       <r>    1.1840    1.0000 </r>
       <r>    1.2557    1.0000 </r>
       <r>    2.3673    1.0000 </r>
       <r>    2.4649    1.0000 </r>
       <r>    2.7476    1.0000 </r>
       <r>    2.8362    1.0000 </r>
       <r>    2.9838    1.0000 </r>
       <r>    3.0375    1.0000 </r>
       <r>    5.5768   -0.0000 </r>
       <r>    5.6132   -0.0000 </r>
       <r>    7.2834   -0.0000 </r>
       <r>   11.1659    0.0000 </r>
      </set>
      <set comment="kpoint 4">
       <r>  -14.6180    1.0000 </r>
       <r>  -13.2385    1.0000 </r>
       <r>   -3.3588    1.0000 </r>
       <r>   -2.4855    1.0000 </r>
       <r>   -2.4512    1.0000 </r>
       <r>   -1.3876    1.0000 </r>
       <r>   -1.3617    1.0000 </r>
       <r>   -0.5587    1.0000 </r>
       <r>    1.0566    1.0000 </r>
       <r>    1.2044    1.0000 </r>
       <r>    2.1318    1.0000 </r>
       <r>    2.3965    1.0000 </r>
       <r>    2.7405    1.0000 </r>
       <r>    2.8598    1.0000 </r>
       <r>    3.1223    1.0000 </r>
       <r>    3.1381    1.0000 </r>
       <r>    5.4797   -0.0000 </r>
       <r>    5.5506   -0.0000 </r>
       <r>    7.5335   -0.0000 </r>
       <r>   11.3696    0.0000 </r>
      </set>
      <set comment="kpoint 5">
       <r>  -14.5613    1.0000 </r>
       <r>  -13.2444    1.0000 </r>
       <r>   -3.2684    1.0000 </r>
       <r>   -2.4803    1.0000 </r>
       <r>   -2.4219    1.0000 </r>
       <r>   -1.4220    1.0000 </r>
       <r>   -1.3716    1.0000 </r>
       <r>   -0.5466    1.0000 </r>
       <r>    0.9002    1.0000 </r>
       <r>    1.1412    1.0000 </r>
       <r>    1.8602    1.0000 </r>
       <r>    2.3503    1.0000 </r>
       <r>    2.7310    1.0000 </r>
       <r>    2.8700    1.0000 </r>
       <r>    3.2224    1.0004 </r>
       <r>    3.2924    1.0020 </r>
       <r>    5.3671   -0.0000 </r>
       <r>    5.4703   -0.0000 </r>
       <r>    7.8436   -0.0000 </r>
       <r>   11.6313    0.0000 </r>
      </set>
      <set comment="kpoint 6">
       <r>  -14.4896    1.0000 </r>
       <r>  -13.2534    1.0000 </r>
       <r>   -3.1581    1.0000 </r>
       <r>   -2.4748    1.0000 </r>
       <r>   -2.3878    1.0000 </r>
       <r>   -1.4707    1.0000 </r>
       <r>   -1.3825    1.0000 </r>
       <r>   -0.5303    1.0000 </r>
       <r>    0.7215    1.0000 </r>
       <r>    1.0720    1.0000 </r>
       <r>    1.5761    1.0000 </r>
       <r>    2.3234    1.0000 </r>
       <r>    2.7192    1.0000 </r>
       <r>    2.8738    1.0000 </r>
       <r>    3.3154    1.0032 </r>
       <r>    3.4374    1.0210 </r>
       <r>    5.2548   -0.0000 </r>
       <r>    5.3789   -0.0000 </r>
       <r>    8.1934   -0.0000 </r>
       <r>   11.9282    0.0000 </r>
      </set>
      <set comment="kpoint 7">
       <r>  -14.4046    1.0000 </r>
       <r>  -13.2627    1.0000 </r>
       <r>   -3.0305    1.0000 </r>
       <r>   -2.4677    1.0000 </r>
       <r>   -2.3508    1.0000 </r>
       <r>   -1.5365    1.0000 </r>
       <r>   -1.3922    1.0000 </r>
       <r>   -0.5080    1.0000 </r>
       <r>    0.5278    1.0000 </r>
       <r>    1.0048    1.0000 </r>
       <r>    1.3013    1.0000 </r>
       <r>    2.3118    1.0000 </r>
       <r>    2.7041    1.0000 </r>
       <r>    2.8754    1.0000 </r>
       <r>    3.3830    1.0103 </r>
       <r>    3.5623    1.0272 </r>
       <r>    5.1651   -0.0000 </r>
       <r>    5.2890   -0.0000 </r>
       <r>    8.5633   -0.0000 </r>
       <r>   12.2392    0.0000 </r>
      </set>
      <set comment="kpoint 8">
       <r>  -14.3074    1.0000 </r>
       <r>  -13.2722    1.0000 </r>
       <r>   -2.8900    1.0000 </r>
       <r>   -2.4593    1.0000 </r>
       <r>   -2.3155    1.0000 </r>
       <r>   -1.6236    1.0000 </r>
       <r>   -1.3978    1.0000 </r>
       <r>   -0.4810    1.0000 </r>
       <r>    0.3263    1.0000 </r>
       <r>    0.9443    1.0000 </r>
       <r>    1.0524    1.0000 </r>
       <r>    2.3107    1.0000 </r>
       <r>    2.6880    1.0000 </r>
       <r>    2.8751    1.0000 </r>
       <r>    3.4137    1.0159 </r>
       <r>    3.6552    0.8996 </r>
       <r>    5.1145   -0.0000 </r>
       <r>    5.2125   -0.0000 </r>
       <r>    8.9384   -0.0000 </r>
       <r>   12.5334    0.0000 </r>
      </set>
      <set comment="kpoint 9">
       <r>  -14.2012    1.0000 </r>
       <r>  -13.2826    1.0000 </r>
       <r>   -2.7433    1.0000 </r>
       <r>   -2.4494    1.0000 </r>
       <r>   -2.2856    1.0000 </r>
       <r>   -1.7349    1.0000 </r>
       <r>   -1.3957    1.0000 </r>
       <r>   -0.4584    1.0000 </r>
       <r>    0.1349    1.0000 </r>
       <r>    0.8379    1.0000 </r>
       <r>    0.8942    1.0000 </r>
       <r>    2.3156    1.0000 </r>
       <r>    2.6706    1.0000 </r>
       <r>    2.8684    1.0000 </r>
       <r>    3.4008    1.0133 </r>
       <r>    3.6991    0.7681 </r>
       <r>    5.1091   -0.0000 </r>
       <r>    5.1661   -0.0000 </r>
       <r>    9.3036    0.0000 </r>
       <r>   12.7708    0.0000 </r>
      </set>
      <set comment="kpoint 10">
       <r>  -14.0877    1.0000 </r>
       <r>  -13.2942    1.0000 </r>
       <r>   -2.6035    1.0000 </r>
       <r>   -2.4334    1.0000 </r>
       <r>   -2.2654    1.0000 </r>
       <r>   -1.8706    1.0000 </r>
       <r>   -1.3821    1.0000 </r>
       <r>   -0.4696    1.0000 </r>
       <r>   -0.0023    1.0000 </r>
       <r>    0.6570    1.0000 </r>
       <r>    0.8575    1.0000 </r>
       <r>    2.3218    1.0000 </r>
       <r>    2.6523    1.0000 </r>
       <r>    2.8494    1.0000 </r>
       <r>    3.3556    1.0067 </r>
       <r>    3.6873    0.8077 </r>
       <r>    5.1463   -0.0000 </r>
       <r>    5.1603   -0.0000 </r>
       <r>    9.6497    0.0000 </r>
       <r>   12.9060    0.0000 </r>
      </set>
      <set comment="kpoint 11">
       <r>  -13.9693    1.0000 </r>
       <r>  -13.3050    1.0000 </r>
       <r>   -2.5155    1.0000 </r>
       <r>   -2.3775    1.0000 </r>
       <r>   -2.2569    1.0000 </r>
       <r>   -2.0228    1.0000 </r>
       <r>   -1.3546    1.0000 </r>
       <r>   -0.5525    1.0000 </r>
       <r>   -0.0318    1.0000 </r>
       <r>    0.5084    1.0000 </r>
       <r>    0.8372    1.0000 </r>
       <r>    2.3245    1.0000 </r>
       <r>    2.6336    1.0000 </r>
       <r>    2.8103    1.0000 </r>
       <r>    3.3016    1.0024 </r>
       <r>    3.6243    0.9636 </r>
       <r>    5.1944   -0.0000 </r>
       <r>    5.2154   -0.0000 </r>
       <r>    9.9682    0.0000 </r>
       <r>   12.9116    0.0000 </r>
      </set>
      <set comment="kpoint 12">
       <r>  -13.8490    1.0000 </r>
       <r>  -13.3154    1.0000 </r>
       <r>   -2.5258    1.0000 </r>
       <r>   -2.2617    1.0000 </r>
       <r>   -2.2603    1.0000 </r>
       <r>   -2.1662    1.0000 </r>
       <r>   -1.3125    1.0000 </r>
       <r>   -0.6832    1.0000 </r>
       <r>    0.0226    1.0000 </r>
       <r>    0.3910    1.0000 </r>
       <r>    0.8333    1.0000 </r>
       <r>    2.3184    1.0000 </r>
       <r>    2.6084    1.0000 </r>
       <r>    2.7479    1.0000 </r>
       <r>    3.2587    1.0010 </r>
       <r>    3.5260    1.0354 </r>
       <r>    5.2589   -0.0000 </r>
       <r>    5.3032   -0.0000 </r>
       <r>   10.2485    0.0000 </r>
       <r>   12.8013    0.0000 </r>
      </set>
      <set comment="kpoint 13">
       <r>  -13.7291    1.0000 </r>
       <r>  -13.3253    1.0000 </r>
       <r>   -2.6216    1.0000 </r>
       <r>   -2.2769    1.0000 </r>
       <r>   -2.2633    1.0000 </r>
       <r>   -2.1263    1.0000 </r>
       <r>   -1.2590    1.0000 </r>
       <r>   -0.8176    1.0000 </r>
       <r>    0.0823    1.0000 </r>
       <r>    0.3375    1.0000 </r>
       <r>    0.8477    1.0000 </r>
       <r>    2.2962    1.0000 </r>
       <r>    2.5596    1.0000 </r>
       <r>    2.6821    1.0000 </r>
       <r>    3.2370    1.0006 </r>
       <r>    3.4131    1.0157 </r>
       <r>    5.3407   -0.0000 </r>
       <r>    5.3996   -0.0000 </r>
       <r>   10.4854    0.0000 </r>
       <r>   12.6147    0.0000 </r>
      </set>
      <set comment="kpoint 14">
       <r>  -13.6140    1.0000 </r>
       <r>  -13.3336    1.0000 </r>
       <r>   -2.7819    1.0000 </r>
       <r>   -2.2993    1.0000 </r>
       <r>   -2.2942    1.0000 </r>
       <r>   -2.0046    1.0000 </r>
       <r>   -1.1982    1.0000 </r>
       <r>   -0.9384    1.0000 </r>
       <r>    0.0563    1.0000 </r>
       <r>    0.4148    1.0000 </r>
       <r>    0.8806    1.0000 </r>
       <r>    2.2503    1.0000 </r>
       <r>    2.4641    1.0000 </r>
       <r>    2.6443    1.0000 </r>
       <r>    3.2329    1.0005 </r>
       <r>    3.3036    1.0025 </r>
       <r>    5.4272   -0.0000 </r>
       <r>    5.4948   -0.0000 </r>
       <r>   10.6714    0.0000 </r>
       <r>   12.3936    0.0000 </r>
      </set>
      <set comment="kpoint 15">
       <r>  -13.5064    1.0000 </r>
       <r>  -13.3411    1.0000 </r>
       <r>   -2.9598    1.0000 </r>
       <r>   -2.3246    1.0000 </r>
       <r>   -2.2993    1.0000 </r>
       <r>   -1.8917    1.0000 </r>
       <r>   -1.1354    1.0000 </r>
       <r>   -1.0432    1.0000 </r>
       <r>   -0.0187    1.0000 </r>
       <r>    0.5715    1.0000 </r>
       <r>    0.9326    1.0000 </r>
       <r>    2.1751    1.0000 </r>
       <r>    2.3395    1.0000 </r>
       <r>    2.6258    1.0000 </r>
       <r>    3.2122    1.0003 </r>
       <r>    3.2400    1.0006 </r>
       <r>    5.5113   -0.0000 </r>
       <r>    5.5841   -0.0000 </r>
       <r>   10.8096    0.0000 </r>
       <r>   12.1665    0.0000 </r>
      </set>
      <set comment="kpoint 16">
       <r>  -13.4132    1.0000 </r>
       <r>  -13.3469    1.0000 </r>
       <r>   -3.1275    1.0000 </r>
       <r>   -2.3514    1.0000 </r>
       <r>   -2.2971    1.0000 </r>
       <r>   -1.7883    1.0000 </r>
       <r>   -1.1345    1.0000 </r>
       <r>   -1.0762    1.0000 </r>
       <r>   -0.0990    1.0000 </r>
       <r>    0.7554    1.0000 </r>
       <r>    1.0025    1.0000 </r>
       <r>    2.0696    1.0000 </r>
       <r>    2.2039    1.0000 </r>
       <r>    2.6123    1.0000 </r>
       <r>    3.1449    1.0001 </r>
       <r>    3.2516    1.0008 </r>
       <r>    5.5844   -0.0000 </r>
       <r>    5.6603   -0.0000 </r>
       <r>   10.8988    0.0000 </r>
       <r>   11.9544    0.0000 </r>
      </set>
      <set comment="kpoint 17">
       <r>  -13.3523    1.0000 </r>
       <r>  -13.3351    1.0000 </r>
       <r>   -3.2691    1.0000 </r>
       <r>   -2.3743    1.0000 </r>
       <r>   -2.2922    1.0000 </r>
       <r>   -1.6939    1.0000 </r>
       <r>   -1.2142    1.0000 </r>
       <r>   -1.0251    1.0000 </r>
       <r>   -0.1712    1.0000 </r>
       <r>    0.9465    1.0000 </r>
       <r>    1.0908    1.0000 </r>
       <r>    1.9406    1.0000 </r>
       <r>    2.0638    1.0000 </r>
       <r>    2.6021    1.0000 </r>
       <r>    3.1012    1.0000 </r>
       <r>    3.2645    1.0011 </r>
       <r>    5.6457   -0.0000 </r>
       <r>    5.7234   -0.0000 </r>
       <r>   10.9513    0.0000 </r>
       <r>   11.7733    0.0000 </r>
      </set>
      <set comment="kpoint 18">
       <r>  -13.3569    1.0000 </r>
       <r>  -13.2774    1.0000 </r>
       <r>   -3.3783    1.0000 </r>
       <r>   -2.3916    1.0000 </r>
       <r>   -2.2874    1.0000 </r>
       <r>   -1.6091    1.0000 </r>
       <r>   -1.2855    1.0000 </r>
       <r>   -0.9859    1.0000 </r>
       <r>   -0.2296    1.0000 </r>
       <r>    1.1315    1.0000 </r>
       <r>    1.1944    1.0000 </r>
       <r>    1.8000    1.0000 </r>
       <r>    1.9220    1.0000 </r>
       <r>    2.5944    1.0000 </r>
       <r>    3.0757    1.0000 </r>
       <r>    3.2755    1.0014 </r>
       <r>    5.6917   -0.0000 </r>
       <r>    5.7703   -0.0000 </r>
       <r>   10.9782    0.0000 </r>
       <r>   11.6346    0.0000 </r>
      </set>
      <set comment="kpoint 19">
       <r>  -13.3595    1.0000 </r>
       <r>  -13.2412    1.0000 </r>
       <r>   -3.4449    1.0000 </r>
       <r>   -2.4028    1.0000 </r>
       <r>   -2.2844    1.0000 </r>
       <r>   -1.5367    1.0000 </r>
       <r>   -1.3478    1.0000 </r>
       <r>   -0.9612    1.0000 </r>
       <r>   -0.2669    1.0000 </r>
       <r>    1.2938    1.0000 </r>
       <r>    1.3049    1.0000 </r>
       <r>    1.6640    1.0000 </r>
       <r>    1.7901    1.0000 </r>
       <r>    2.5894    1.0000 </r>
       <r>    3.0628    1.0000 </r>
       <r>    3.2831    1.0017 </r>
       <r>    5.7197   -0.0000 </r>
       <r>    5.7989   -0.0000 </r>
       <r>   10.9897    0.0000 </r>
       <r>   11.5479    0.0000 </r>
      </set>
      <set comment="kpoint 20">
       <r>  -13.3612    1.0000 </r>
       <r>  -13.2284    1.0000 </r>
       <r>   -3.4674    1.0000 </r>
       <r>   -2.4067    1.0000 </r>
       <r>   -2.2834    1.0000 </r>
       <r>   -1.4989    1.0000 </r>
       <r>   -1.3832    1.0000 </r>
       <r>   -0.9528    1.0000 </r>
       <r>   -0.2793    1.0000 </r>
       <r>    1.3729    1.0000 </r>
       <r>    1.3741    1.0000 </r>
       <r>    1.5867    1.0000 </r>
       <r>    1.7204    1.0000 </r>
       <r>    2.5879    1.0000 </r>
       <r>    3.0589    1.0000 </r>
       <r>    3.2864    1.0018 </r>
       <r>    5.7292   -0.0000 </r>
       <r>    5.8085   -0.0000 </r>
       <r>   10.9927    0.0000 </r>
       <r>   11.5184    0.0000 </r>
      </set>
      <set comment="kpoint 21">
       <r>  -13.3612    1.0000 </r>
       <r>  -13.2284    1.0000 </r>
       <r>   -3.4674    1.0000 </r>
       <r>   -2.4067    1.0000 </r>
       <r>   -2.2834    1.0000 </r>
       <r>   -1.4989    1.0000 </r>
       <r>   -1.3832    1.0000 </r>
       <r>   -0.9528    1.0000 </r>
       <r>   -0.2793    1.0000 </r>
       <r>    1.3729    1.0000 </r>
       <r>    1.3741    1.0000 </r>
       <r>    1.5867    1.0000 </r>
       <r>    1.7204    1.0000 </r>
       <r>    2.5879    1.0000 </r>
       <r>    3.0589    1.0000 </r>
       <r>    3.2864    1.0018 </r>
       <r>    5.7292   -0.0000 </r>
       <r>    5.8085   -0.0000 </r>
       <r>   10.9927    0.0000 </r>
       <r>   11.5184    0.0000 </r>
      </set>
      <set comment="kpoint 22">
       <r>  -13.3616    1.0000 </r>
       <r>  -13.2287    1.0000 </r>
       <r>   -3.4661    1.0000 </r>
       <r>   -2.4065    1.0000 </r>
       <r>   -2.2844    1.0000 </r>
       <r>   -1.5043    1.0000 </r>
       <r>   -1.3771    1.0000 </r>
       <r>   -0.9533    1.0000 </r>
       <r>   -0.2798    1.0000 </r>
       <r>    1.3725    1.0000 </r>
       <r>    1.3745    1.0000 </r>
       <r>    1.5875    1.0000 </r>
       <r>    1.7212    1.0000 </r>
       <r>    2.5884    1.0000 </r>
       <r>    3.0590    1.0000 </r>
       <r>    3.2865    1.0018 </r>
       <r>    5.7290   -0.0000 </r>
       <r>    5.8058   -0.0000 </r>
       <r>   10.9955    0.0000 </r>
       <r>   11.5198    0.0000 </r>
      </set>
      <set comment="kpoint 23">
       <r>  -13.3608    1.0000 </r>
       <r>  -13.2295    1.0000 </r>
       <r>   -3.4622    1.0000 </r>
       <r>   -2.4060    1.0000 </r>
       <r>   -2.2875    1.0000 </r>
       <r>   -1.5174    1.0000 </r>
       <r>   -1.3589    1.0000 </r>
       <r>   -0.9546    1.0000 </r>
       <r>   -0.2810    1.0000 </r>
       <r>    1.3719    1.0000 </r>
       <r>    1.3762    1.0000 </r>
       <r>    1.5899    1.0000 </r>
       <r>    1.7238    1.0000 </r>
       <r>    2.5898    1.0000 </r>
       <r>    3.0594    1.0000 </r>
       <r>    3.2869    1.0018 </r>
       <r>    5.7285   -0.0000 </r>
       <r>    5.7977   -0.0000 </r>
       <r>   11.0038    0.0000 </r>
       <r>   11.5242    0.0000 </r>
      </set>
      <set comment="kpoint 24">
       <r>  -13.3629    1.0000 </r>
       <r>  -13.2310    1.0000 </r>
       <r>   -3.4559    1.0000 </r>
       <r>   -2.4052    1.0000 </r>
       <r>   -2.2930    1.0000 </r>
       <r>   -1.5347    1.0000 </r>
       <r>   -1.3381    1.0000 </r>
       <r>   -0.9570    1.0000 </r>
       <r>   -0.2832    1.0000 </r>
       <r>    1.3699    1.0000 </r>
       <r>    1.3779    1.0000 </r>
       <r>    1.5935    1.0000 </r>
       <r>    1.7276    1.0000 </r>
       <r>    2.5920    1.0000 </r>
       <r>    3.0599    1.0000 </r>
       <r>    3.2874    1.0018 </r>
       <r>    5.7276   -0.0000 </r>
       <r>    5.7836   -0.0000 </r>
       <r>   11.0174    0.0000 </r>
       <r>   11.5312    0.0000 </r>
      </set>
      <set comment="kpoint 25">
       <r>  -13.3658    1.0000 </r>
       <r>  -13.2328    1.0000 </r>
       <r>   -3.4470    1.0000 </r>
       <r>   -2.4040    1.0000 </r>
       <r>   -2.3002    1.0000 </r>
       <r>   -1.5535    1.0000 </r>
       <r>   -1.3143    1.0000 </r>
       <r>   -0.9604    1.0000 </r>
       <r>   -0.2862    1.0000 </r>
       <r>    1.3673    1.0000 </r>
       <r>    1.3802    1.0000 </r>
       <r>    1.5984    1.0000 </r>
       <r>    1.7333    1.0000 </r>
       <r>    2.5951    1.0000 </r>
       <r>    3.0607    1.0000 </r>
       <r>    3.2881    1.0018 </r>
       <r>    5.7263   -0.0000 </r>
       <r>    5.7649   -0.0000 </r>
       <r>   11.0365    0.0000 </r>
       <r>   11.5409    0.0000 </r>
      </set>
      <set comment="kpoint 26">
       <r>  -13.3695    1.0000 </r>
       <r>  -13.2355    1.0000 </r>
       <r>   -3.4358    1.0000 </r>
       <r>   -2.4026    1.0000 </r>
       <r>   -2.3094    1.0000 </r>
       <r>   -1.5724    1.0000 </r>
       <r>   -1.2889    1.0000 </r>
       <r>   -0.9646    1.0000 </r>
       <r>   -0.2902    1.0000 </r>
       <r>    1.3644    1.0000 </r>
       <r>    1.3830    1.0000 </r>
       <r>    1.6043    1.0000 </r>
       <r>    1.7403    1.0000 </r>
       <r>    2.5989    1.0000 </r>
       <r>    3.0616    1.0000 </r>
       <r>    3.2886    1.0019 </r>
       <r>    5.7247   -0.0000 </r>
       <r>    5.7412   -0.0000 </r>
       <r>   11.0607    0.0000 </r>
       <r>   11.5532    0.0000 </r>
      </set>
      <set comment="kpoint 27">
       <r>  -13.3740    1.0000 </r>
       <r>  -13.2384    1.0000 </r>
       <r>   -3.4222    1.0000 </r>
       <r>   -2.4008    1.0000 </r>
       <r>   -2.3205    1.0000 </r>
       <r>   -1.5906    1.0000 </r>
       <r>   -1.2627    1.0000 </r>
       <r>   -0.9698    1.0000 </r>
       <r>   -0.2942    1.0000 </r>
       <r>    1.3612    1.0000 </r>
       <r>    1.3863    1.0000 </r>
       <r>    1.6111    1.0000 </r>
       <r>    1.7487    1.0000 </r>
       <r>    2.6035    1.0000 </r>
       <r>    3.0629    1.0000 </r>
       <r>    3.2899    1.0019 </r>
       <r>    5.7127   -0.0000 </r>
       <r>    5.7227   -0.0000 </r>
       <r>   11.0898    0.0000 </r>
       <r>   11.5679    0.0000 </r>
      </set>
      <set comment="kpoint 28">
       <r>  -13.3792    1.0000 </r>
       <r>  -13.2418    1.0000 </r>
       <r>   -3.4065    1.0000 </r>
       <r>   -2.3988    1.0000 </r>
       <r>   -2.3334    1.0000 </r>
       <r>   -1.6076    1.0000 </r>
       <r>   -1.2360    1.0000 </r>
       <r>   -0.9758    1.0000 </r>
       <r>   -0.2986    1.0000 </r>
       <r>    1.3581    1.0000 </r>
       <r>    1.3898    1.0000 </r>
       <r>    1.6184    1.0000 </r>
       <r>    1.7583    1.0000 </r>
       <r>    2.6088    1.0000 </r>
       <r>    3.0644    1.0000 </r>
       <r>    3.2917    1.0020 </r>
       <r>    5.6797   -0.0000 </r>
       <r>    5.7205   -0.0000 </r>
       <r>   11.1236    0.0000 </r>
       <r>   11.5848    0.0000 </r>
      </set>
      <set comment="kpoint 29">
       <r>  -13.3853    1.0000 </r>
       <r>  -13.2459    1.0000 </r>
       <r>   -3.3886    1.0000 </r>
       <r>   -2.3964    1.0000 </r>
       <r>   -2.3479    1.0000 </r>
       <r>   -1.6234    1.0000 </r>
       <r>   -1.2092    1.0000 </r>
       <r>   -0.9827    1.0000 </r>
       <r>   -0.3031    1.0000 </r>
       <r>    1.3550    1.0000 </r>
       <r>    1.3936    1.0000 </r>
       <r>    1.6260    1.0000 </r>
       <r>    1.7689    1.0000 </r>
       <r>    2.6143    1.0000 </r>
       <r>    3.0662    1.0000 </r>
       <r>    3.2937    1.0021 </r>
       <r>    5.6424   -0.0000 </r>
       <r>    5.7179   -0.0000 </r>
       <r>   11.1617    0.0000 </r>
       <r>   11.6037    0.0000 </r>
      </set>
      <set comment="kpoint 30">
       <r>  -13.3921    1.0000 </r>
       <r>  -13.2499    1.0000 </r>
       <r>   -3.3688    1.0000 </r>
       <r>   -2.3938    1.0000 </r>
       <r>   -2.3633    1.0000 </r>
       <r>   -1.6376    1.0000 </r>
       <r>   -1.1822    1.0000 </r>
       <r>   -0.9903    1.0000 </r>
       <r>   -0.3072    1.0000 </r>
       <r>    1.3523    1.0000 </r>
       <r>    1.3974    1.0000 </r>
       <r>    1.6339    1.0000 </r>
       <r>    1.7808    1.0000 </r>
       <r>    2.6205    1.0000 </r>
       <r>    3.0684    1.0000 </r>
       <r>    3.2967    1.0022 </r>
       <r>    5.6018   -0.0000 </r>
       <r>    5.7151   -0.0000 </r>
       <r>   11.2044    0.0000 </r>
       <r>   11.6244    0.0000 </r>
      </set>
      <set comment="kpoint 31">
       <r>  -13.3986    1.0000 </r>
       <r>  -13.2547    1.0000 </r>
       <r>   -3.3473    1.0000 </r>
       <r>   -2.3909    1.0000 </r>
       <r>   -2.3803    1.0000 </r>
       <r>   -1.6499    1.0000 </r>
       <r>   -1.1542    1.0000 </r>
       <r>   -0.9984    1.0000 </r>
       <r>   -0.3105    1.0000 </r>
       <r>    1.3514    1.0000 </r>
       <r>    1.4027    1.0000 </r>
       <r>    1.6419    1.0000 </r>
       <r>    1.7933    1.0000 </r>
       <r>    2.6270    1.0000 </r>
       <r>    3.0708    1.0000 </r>
       <r>    3.3002    1.0024 </r>
       <r>    5.5572   -0.0000 </r>
       <r>    5.7120   -0.0000 </r>
       <r>   11.2505    0.0000 </r>
       <r>   11.6468    0.0000 </r>
      </set>
      <set comment="kpoint 32">
       <r>  -13.4070    1.0000 </r>
       <r>  -13.2596    1.0000 </r>
       <r>   -3.3237    1.0000 </r>
       <r>   -2.3981    1.0000 </r>
       <r>   -2.3878    1.0000 </r>
       <r>   -1.6611    1.0000 </r>
       <r>   -1.1281    1.0000 </r>
       <r>   -1.0076    1.0000 </r>
       <r>   -0.3131    1.0000 </r>
       <r>    1.3495    1.0000 </r>
       <r>    1.4060    1.0000 </r>
       <r>    1.6496    1.0000 </r>
       <r>    1.8062    1.0000 </r>
       <r>    2.6332    1.0000 </r>
       <r>    3.0737    1.0000 </r>
       <r>    3.3046    1.0026 </r>
       <r>    5.5095   -0.0000 </r>
       <r>    5.7087   -0.0000 </r>
       <r>   11.3000    0.0000 </r>
       <r>   11.6700    0.0000 </r>
      </set>
      <set comment="kpoint 33">
       <r>  -13.4161    1.0000 </r>
       <r>  -13.2653    1.0000 </r>
       <r>   -3.2996    1.0000 </r>
       <r>   -2.4164    1.0000 </r>
       <r>   -2.3845    1.0000 </r>
       <r>   -1.6709    1.0000 </r>
       <r>   -1.1028    1.0000 </r>
       <r>   -1.0174    1.0000 </r>
       <r>   -0.3145    1.0000 </r>
       <r>    1.3482    1.0000 </r>
       <r>    1.4089    1.0000 </r>
       <r>    1.6570    1.0000 </r>
       <r>    1.8193    1.0000 </r>
       <r>    2.6394    1.0000 </r>
       <r>    3.0769    1.0000 </r>
       <r>    3.3097    1.0029 </r>
       <r>    5.4587   -0.0000 </r>
       <r>    5.7051   -0.0000 </r>
       <r>   11.3527    0.0000 </r>
       <r>   11.6939    0.0000 </r>
      </set>
      <set comment="kpoint 34">
       <r>  -13.4260    1.0000 </r>
       <r>  -13.2711    1.0000 </r>
       <r>   -3.2745    1.0000 </r>
       <r>   -2.4344    1.0000 </r>
       <r>   -2.3810    1.0000 </r>
       <r>   -1.6794    1.0000 </r>
       <r>   -1.0782    1.0000 </r>
       <r>   -1.0278    1.0000 </r>
       <r>   -0.3141    1.0000 </r>
       <r>    1.3476    1.0000 </r>
       <r>    1.4112    1.0000 </r>
       <r>    1.6638    1.0000 </r>
       <r>    1.8329    1.0000 </r>
       <r>    2.6453    1.0000 </r>
       <r>    3.0806    1.0000 </r>
       <r>    3.3158    1.0032 </r>
       <r>    5.4060   -0.0000 </r>
       <r>    5.7013   -0.0000 </r>
       <r>   11.4085    0.0000 </r>
       <r>   11.7179    0.0000 </r>
      </set>
      <set comment="kpoint 35">
       <r>  -13.4367    1.0000 </r>
       <r>  -13.2779    1.0000 </r>
       <r>   -3.2490    1.0000 </r>
       <r>   -2.4522    1.0000 </r>
       <r>   -2.3780    1.0000 </r>
       <r>   -1.6867    1.0000 </r>
       <r>   -1.0551    1.0000 </r>
       <r>   -1.0388    1.0000 </r>
       <r>   -0.3116    1.0000 </r>
       <r>    1.3476    1.0000 </r>
       <r>    1.4127    1.0000 </r>
       <r>    1.6697    1.0000 </r>
       <r>    1.8463    1.0000 </r>
       <r>    2.6507    1.0000 </r>
       <r>    3.0847    1.0000 </r>
       <r>    3.3229    1.0037 </r>
       <r>    5.3506   -0.0000 </r>
       <r>    5.6964   -0.0000 </r>
       <r>   11.4662    0.0000 </r>
       <r>   11.7416    0.0000 </r>
      </set>
      <set comment="kpoint 36">
       <r>  -13.4482    1.0000 </r>
       <r>  -13.2849    1.0000 </r>
       <r>   -3.2231    1.0000 </r>
       <r>   -2.4690    1.0000 </r>
       <r>   -2.3742    1.0000 </r>
       <r>   -1.6931    1.0000 </r>
       <r>   -1.0503    1.0000 </r>
       <r>   -1.0333    1.0000 </r>
       <r>   -0.3066    1.0000 </r>
       <r>    1.3485    1.0000 </r>
       <r>    1.4131    1.0000 </r>
       <r>    1.6753    1.0000 </r>
       <r>    1.8597    1.0000 </r>
       <r>    2.6554    1.0000 </r>
       <r>    3.0892    1.0000 </r>
       <r>    3.3306    1.0043 </r>
       <r>    5.2935   -0.0000 </r>
       <r>    5.6922   -0.0000 </r>
       <r>   11.5258    0.0000 </r>
       <r>   11.7644    0.0000 </r>
      </set>
      <set comment="kpoint 37">
       <r>  -13.4597    1.0000 </r>
       <r>  -13.2912    1.0000 </r>
       <r>   -3.1967    1.0000 </r>
       <r>   -2.4840    1.0000 </r>
       <r>   -2.3699    1.0000 </r>
       <r>   -1.6986    1.0000 </r>
       <r>   -1.0620    1.0000 </r>
       <r>   -1.0132    1.0000 </r>
       <r>   -0.2978    1.0000 </r>
       <r>    1.3516    1.0000 </r>
       <r>    1.4135    1.0000 </r>
       <r>    1.6809    1.0000 </r>
       <r>    1.8739    1.0000 </r>
       <r>    2.6596    1.0000 </r>
       <r>    3.0942    1.0000 </r>
       <r>    3.3400    1.0051 </r>
       <r>    5.2358   -0.0000 </r>
       <r>    5.6893   -0.0000 </r>
       <r>   11.5874    0.0000 </r>
       <r>   11.7854    0.0000 </r>
      </set>
      <set comment="kpoint 38">
       <r>  -13.4727    1.0000 </r>
       <r>  -13.2985    1.0000 </r>
       <r>   -3.1717    1.0000 </r>
       <r>   -2.4968    1.0000 </r>
       <r>   -2.3659    1.0000 </r>
       <r>   -1.7035    1.0000 </r>
       <r>   -1.0744    1.0000 </r>
       <r>   -0.9951    1.0000 </r>
       <r>   -0.2857    1.0000 </r>
       <r>    1.3542    1.0000 </r>
       <r>    1.4113    1.0000 </r>
       <r>    1.6850    1.0000 </r>
       <r>    1.8875    1.0000 </r>
       <r>    2.6629    1.0000 </r>
       <r>    3.0996    1.0000 </r>
       <r>    3.3502    1.0061 </r>
       <r>    5.1772   -0.0000 </r>
       <r>    5.6849   -0.0000 </r>
       <r>   11.6498    0.0000 </r>
       <r>   11.8046    0.0000 </r>
      </set>
      <set comment="kpoint 39">
       <r>  -13.4864    1.0000 </r>
       <r>  -13.3062    1.0000 </r>
       <r>   -3.1478    1.0000 </r>
       <r>   -2.5068    1.0000 </r>
       <r>   -2.3619    1.0000 </r>
       <r>   -1.7081    1.0000 </r>
       <r>   -1.0871    1.0000 </r>
       <r>   -0.9791    1.0000 </r>
       <r>   -0.2697    1.0000 </r>
       <r>    1.3576    1.0000 </r>
       <r>    1.4075    1.0000 </r>
       <r>    1.6880    1.0000 </r>
       <r>    1.9007    1.0000 </r>
       <r>    2.6653    1.0000 </r>
       <r>    3.1055    1.0000 </r>
       <r>    3.3613    1.0073 </r>
       <r>    5.1177   -0.0000 </r>
       <r>    5.6798   -0.0000 </r>
       <r>   11.7128    0.0000 </r>
       <r>   11.8209    0.0000 </r>
      </set>
      <set comment="kpoint 40">
       <r>  -13.5009    1.0000 </r>
       <r>  -13.3137    1.0000 </r>
       <r>   -3.1256    1.0000 </r>
       <r>   -2.5134    1.0000 </r>
       <r>   -2.3578    1.0000 </r>
       <r>   -1.7125    1.0000 </r>
       <r>   -1.1001    1.0000 </r>
       <r>   -0.9654    1.0000 </r>
       <r>   -0.2493    1.0000 </r>
       <r>    1.3620    1.0000 </r>
       <r>    1.4021    1.0000 </r>
       <r>    1.6902    1.0000 </r>
       <r>    1.9141    1.0000 </r>
       <r>    2.6669    1.0000 </r>
       <r>    3.1117    1.0000 </r>
       <r>    3.3734    1.0089 </r>
       <r>    5.0587   -0.0000 </r>
       <r>    5.6752   -0.0000 </r>
       <r>   11.7762    0.0000 </r>
       <r>   11.8339    0.0000 </r>
      </set>
      <set comment="kpoint 41">
       <r>  -13.5009    1.0000 </r>
       <r>  -13.3137    1.0000 </r>
       <r>   -3.1256    1.0000 </r>
       <r>   -2.5134    1.0000 </r>
       <r>   -2.3578    1.0000 </r>
       <r>   -1.7125    1.0000 </r>
       <r>   -1.1001    1.0000 </r>
       <r>   -0.9654    1.0000 </r>
       <r>   -0.2493    1.0000 </r>
       <r>    1.3620    1.0000 </r>
       <r>    1.4021    1.0000 </r>
       <r>    1.6902    1.0000 </r>
       <r>    1.9141    1.0000 </r>
       <r>    2.6669    1.0000 </r>
       <r>    3.1117    1.0000 </r>
       <r>    3.3734    1.0089 </r>
       <r>    5.0587   -0.0000 </r>
       <r>    5.6752   -0.0000 </r>
       <r>   11.7762    0.0000 </r>
       <r>   11.8339    0.0000 </r>
      </set>
      <set comment="kpoint 42">
       <r>  -13.5137    1.0000 </r>
       <r>  -13.3736    1.0000 </r>
       <r>   -3.0701    1.0000 </r>
       <r>   -2.4773    1.0000 </r>
       <r>   -2.3446    1.0000 </r>
       <r>   -1.7588    1.0000 </r>
       <r>   -1.1424    1.0000 </r>
       <r>   -0.9630    1.0000 </r>
       <r>   -0.1185    1.0000 </r>
       <r>    1.2290    1.0000 </r>
       <r>    1.4779    1.0000 </r>
       <r>    1.5876    1.0000 </r>
       <r>    2.0903    1.0000 </r>
       <r>    2.6724    1.0000 </r>
       <r>    3.1309    1.0000 </r>
       <r>    3.3626    1.0075 </r>
       <r>    5.0255   -0.0000 </r>
       <r>    5.6801   -0.0000 </r>
       <r>   11.6267    0.0000 </r>
       <r>   11.8612    0.0000 </r>
      </set>
      <set comment="kpoint 43">
       <r>  -13.5244    1.0000 </r>
       <r>  -13.4430    1.0000 </r>
       <r>   -3.0021    1.0000 </r>
       <r>   -2.4275    1.0000 </r>
       <r>   -2.3285    1.0000 </r>
       <r>   -1.8125    1.0000 </r>
       <r>   -1.1865    1.0000 </r>
       <r>   -0.9484    1.0000 </r>
       <r>    0.0188    1.0000 </r>
       <r>    1.0433    1.0000 </r>
       <r>    1.3699    1.0000 </r>
       <r>    1.7152    1.0000 </r>
       <r>    2.2526    1.0000 </r>
       <r>    2.6745    1.0000 </r>
       <r>    3.1583    1.0001 </r>
       <r>    3.3516    1.0062 </r>
       <r>    4.9947   -0.0000 </r>
       <r>    5.6641   -0.0000 </r>
       <r>   11.4574    0.0000 </r>
       <r>   11.9159    0.0000 </r>
      </set>
      <set comment="kpoint 44">
       <r>  -13.5512    1.0000 </r>
       <r>  -13.5013    1.0000 </r>
       <r>   -2.9295    1.0000 </r>
       <r>   -2.3626    1.0000 </r>
       <r>   -2.3102    1.0000 </r>
       <r>   -1.8712    1.0000 </r>
       <r>   -1.2307    1.0000 </r>
       <r>   -0.9183    1.0000 </r>
       <r>    0.1569    1.0000 </r>
       <r>    0.8553    1.0000 </r>
       <r>    1.2426    1.0000 </r>
       <r>    1.8661    1.0000 </r>
       <r>    2.3929    1.0000 </r>
       <r>    2.6736    1.0000 </r>
       <r>    3.1980    1.0002 </r>
       <r>    3.3450    1.0056 </r>
       <r>    4.9681   -0.0000 </r>
       <r>    5.6289   -0.0000 </r>
       <r>   11.2643    0.0000 </r>
       <r>   11.9908    0.0000 </r>
      </set>
      <set comment="kpoint 45">
       <r>  -13.6311    1.0000 </r>
       <r>  -13.5106    1.0000 </r>
       <r>   -2.8606    1.0000 </r>
       <r>   -2.2920    1.0000 </r>
       <r>   -2.2845    1.0000 </r>
       <r>   -1.9318    1.0000 </r>
       <r>   -1.2736    1.0000 </r>
       <r>   -0.8706    1.0000 </r>
       <r>    0.2842    1.0000 </r>
       <r>    0.6801    1.0000 </r>
       <r>    1.1280    1.0000 </r>
       <r>    2.0017    1.0000 </r>
       <r>    2.5053    1.0000 </r>
       <r>    2.6710    1.0000 </r>
       <r>    3.2536    1.0009 </r>
       <r>    3.3470    1.0058 </r>
       <r>    4.9467   -0.0000 </r>
       <r>    5.5742   -0.0000 </r>
       <r>   11.0441    0.0000 </r>
       <r>   12.0768    0.0000 </r>
      </set>
      <set comment="kpoint 46">
       <r>  -13.7258    1.0000 </r>
       <r>  -13.5048    1.0000 </r>
       <r>   -2.8018    1.0000 </r>
       <r>   -2.2749    1.0000 </r>
       <r>   -2.2056    1.0000 </r>
       <r>   -1.9810    1.0000 </r>
       <r>   -1.3128    1.0000 </r>
       <r>   -0.8031    1.0000 </r>
       <r>    0.3403    1.0000 </r>
       <r>    0.5863    1.0000 </r>
       <r>    1.0307    1.0000 </r>
       <r>    2.1158    1.0000 </r>
       <r>    2.5861    1.0000 </r>
       <r>    2.6691    1.0000 </r>
       <r>    3.3265    1.0040 </r>
       <r>    3.3606    1.0073 </r>
       <r>    4.9337   -0.0000 </r>
       <r>    5.5083   -0.0000 </r>
       <r>   10.8002    0.0000 </r>
       <r>   12.1630    0.0000 </r>
      </set>
      <set comment="kpoint 47">
       <r>  -13.8264    1.0000 </r>
       <r>  -13.4920    1.0000 </r>
       <r>   -2.7581    1.0000 </r>
       <r>   -2.2626    1.0000 </r>
       <r>   -2.1794    1.0000 </r>
       <r>   -1.9716    1.0000 </r>
       <r>   -1.3465    1.0000 </r>
       <r>   -0.7145    1.0000 </r>
       <r>    0.2383    1.0000 </r>
       <r>    0.6662    1.0000 </r>
       <r>    0.9518    1.0000 </r>
       <r>    2.2045    1.0000 </r>
       <r>    2.6278    1.0000 </r>
       <r>    2.6780    1.0000 </r>
       <r>    3.3831    1.0104 </r>
       <r>    3.4157    1.0163 </r>
       <r>    4.9315   -0.0000 </r>
       <r>    5.4309   -0.0000 </r>
       <r>   10.5339    0.0000 </r>
       <r>   12.2375    0.0000 </r>
      </set>
      <set comment="kpoint 48">
       <r>  -13.9293    1.0000 </r>
       <r>  -13.4745    1.0000 </r>
       <r>   -2.7322    1.0000 </r>
       <r>   -2.2572    1.0000 </r>
       <r>   -2.2273    1.0000 </r>
       <r>   -1.8884    1.0000 </r>
       <r>   -1.3726    1.0000 </r>
       <r>   -0.6066    1.0000 </r>
       <r>    0.1061    1.0000 </r>
       <r>    0.8017    1.0000 </r>
       <r>    0.8925    1.0000 </r>
       <r>    2.2686    1.0000 </r>
       <r>    2.6341    1.0000 </r>
       <r>    2.6986    1.0000 </r>
       <r>    3.4076    1.0146 </r>
       <r>    3.5129    1.0352 </r>
       <r>    4.9424   -0.0000 </r>
       <r>    5.3498   -0.0000 </r>
       <r>   10.2455    0.0000 </r>
       <r>   12.2868    0.0000 </r>
      </set>
      <set comment="kpoint 49">
       <r>  -14.0308    1.0000 </r>
       <r>  -13.4534    1.0000 </r>
       <r>   -2.7282    1.0000 </r>
       <r>   -2.2969    1.0000 </r>
       <r>   -2.2598    1.0000 </r>
       <r>   -1.7874    1.0000 </r>
       <r>   -1.3898    1.0000 </r>
       <r>   -0.4927    1.0000 </r>
       <r>    0.0075    1.0000 </r>
       <r>    0.8545    1.0000 </r>
       <r>    0.9509    1.0000 </r>
       <r>    2.3129    1.0000 </r>
       <r>    2.6302    1.0000 </r>
       <r>    2.7148    1.0000 </r>
       <r>    3.4278    1.0188 </r>
       <r>    3.6047    0.9923 </r>
       <r>    4.9701   -0.0000 </r>
       <r>    5.2763   -0.0000 </r>
       <r>    9.9412    0.0000 </r>
       <r>   12.2969    0.0000 </r>
      </set>
      <set comment="kpoint 50">
       <r>  -14.1308    1.0000 </r>
       <r>  -13.4292    1.0000 </r>
       <r>   -2.7524    1.0000 </r>
       <r>   -2.3618    1.0000 </r>
       <r>   -2.2719    1.0000 </r>
       <r>   -1.6928    1.0000 </r>
       <r>   -1.3982    1.0000 </r>
       <r>   -0.4166    1.0000 </r>
       <r>   -0.0069    1.0000 </r>
       <r>    0.8369    1.0000 </r>
       <r>    1.1045    1.0000 </r>
       <r>    2.3419    1.0000 </r>
       <r>    2.6233    1.0000 </r>
       <r>    2.7255    1.0000 </r>
       <r>    3.4344    1.0203 </r>
       <r>    3.6741    0.8486 </r>
       <r>    5.0138   -0.0000 </r>
       <r>    5.2211   -0.0000 </r>
       <r>    9.6205    0.0000 </r>
       <r>   12.2618    0.0000 </r>
      </set>
      <set comment="kpoint 51">
       <r>  -14.2268    1.0000 </r>
       <r>  -13.4029    1.0000 </r>
       <r>   -2.8093    1.0000 </r>
       <r>   -2.4103    1.0000 </r>
       <r>   -2.2925    1.0000 </r>
       <r>   -1.6108    1.0000 </r>
       <r>   -1.3991    1.0000 </r>
       <r>   -0.4178    1.0000 </r>
       <r>    0.0998    1.0000 </r>
       <r>    0.8398    1.0000 </r>
       <r>    1.2636    1.0000 </r>
       <r>    2.3606    1.0000 </r>
       <r>    2.6165    1.0000 </r>
       <r>    2.7346    1.0000 </r>
       <r>    3.4242    1.0181 </r>
       <r>    3.7042    0.7499 </r>
       <r>    5.0740   -0.0000 </r>
       <r>    5.1965   -0.0000 </r>
       <r>    9.2883    0.0000 </r>
       <r>   12.1770    0.0000 </r>
      </set>
      <set comment="kpoint 52">
       <r>  -14.3170    1.0000 </r>
       <r>  -13.3750    1.0000 </r>
       <r>   -2.8946    1.0000 </r>
       <r>   -2.4402    1.0000 </r>
       <r>   -2.3190    1.0000 </r>
       <r>   -1.5429    1.0000 </r>
       <r>   -1.3944    1.0000 </r>
       <r>   -0.4555    1.0000 </r>
       <r>    0.2781    1.0000 </r>
       <r>    0.8635    1.0000 </r>
       <r>    1.4287    1.0000 </r>
       <r>    2.3735    1.0000 </r>
       <r>    2.6117    1.0000 </r>
       <r>    2.7445    1.0000 </r>
       <r>    3.3968    1.0126 </r>
       <r>    3.6852    0.8146 </r>
       <r>    5.1474   -0.0000 </r>
       <r>    5.2100   -0.0000 </r>
       <r>    8.9509   -0.0000 </r>
       <r>   12.0489    0.0000 </r>
      </set>
      <set comment="kpoint 53">
       <r>  -14.3999    1.0000 </r>
       <r>  -13.3473    1.0000 </r>
       <r>   -2.9969    1.0000 </r>
       <r>   -2.4578    1.0000 </r>
       <r>   -2.3491    1.0000 </r>
       <r>   -1.4882    1.0000 </r>
       <r>   -1.3864    1.0000 </r>
       <r>   -0.4946    1.0000 </r>
       <r>    0.4783    1.0000 </r>
       <r>    0.9058    1.0000 </r>
       <r>    1.6011    1.0000 </r>
       <r>    2.3840    1.0000 </r>
       <r>    2.6097    1.0000 </r>
       <r>    2.7555    1.0000 </r>
       <r>    3.3539    1.0065 </r>
       <r>    3.6182    0.9735 </r>
       <r>    5.2304   -0.0000 </r>
       <r>    5.2588   -0.0000 </r>
       <r>    8.6135   -0.0000 </r>
       <r>   11.8878    0.0000 </r>
      </set>
      <set comment="kpoint 54">
       <r>  -14.4744    1.0000 </r>
       <r>  -13.3204    1.0000 </r>
       <r>   -3.1038    1.0000 </r>
       <r>   -2.4690    1.0000 </r>
       <r>   -2.3804    1.0000 </r>
       <r>   -1.4453    1.0000 </r>
       <r>   -1.3773    1.0000 </r>
       <r>   -0.5250    1.0000 </r>
       <r>    0.6764    1.0000 </r>
       <r>    0.9639    1.0000 </r>
       <r>    1.7808    1.0000 </r>
       <r>    2.3953    1.0000 </r>
       <r>    2.6129    1.0000 </r>
       <r>    2.7674    1.0000 </r>
       <r>    3.2983    1.0023 </r>
       <r>    3.5127    1.0352 </r>
       <r>    5.3185   -0.0000 </r>
       <r>    5.3312   -0.0000 </r>
       <r>    8.2821   -0.0000 </r>
       <r>   11.7067    0.0000 </r>
      </set>
      <set comment="kpoint 55">
       <r>  -14.5393    1.0000 </r>
       <r>  -13.2954    1.0000 </r>
       <r>   -3.2070    1.0000 </r>
       <r>   -2.4765    1.0000 </r>
       <r>   -2.4108    1.0000 </r>
       <r>   -1.4119    1.0000 </r>
       <r>   -1.3686    1.0000 </r>
       <r>   -0.5459    1.0000 </r>
       <r>    0.8585    1.0000 </r>
       <r>    1.0329    1.0000 </r>
       <r>    1.9665    1.0000 </r>
       <r>    2.4103    1.0000 </r>
       <r>    2.6234    1.0000 </r>
       <r>    2.7797    1.0000 </r>
       <r>    3.2326    1.0005 </r>
       <r>    3.3811    1.0101 </r>
       <r>    5.4076   -0.0000 </r>
       <r>    5.4132   -0.0000 </r>
       <r>    7.9659   -0.0000 </r>
       <r>   11.5238    0.0000 </r>
      </set>
      <set comment="kpoint 56">
       <r>  -14.5936    1.0000 </r>
       <r>  -13.2726    1.0000 </r>
       <r>   -3.2985    1.0000 </r>
       <r>   -2.4817    1.0000 </r>
       <r>   -2.4379    1.0000 </r>
       <r>   -1.3869    1.0000 </r>
       <r>   -1.3610    1.0000 </r>
       <r>   -0.5588    1.0000 </r>
       <r>    1.0148    1.0000 </r>
       <r>    1.1079    1.0000 </r>
       <r>    2.1513    1.0000 </r>
       <r>    2.4325    1.0000 </r>
       <r>    2.6418    1.0000 </r>
       <r>    2.7892    1.0000 </r>
       <r>    3.1629    1.0001 </r>
       <r>    3.2361    1.0006 </r>
       <r>    5.4919   -0.0000 </r>
       <r>    5.4945   -0.0000 </r>
       <r>    7.6759   -0.0000 </r>
       <r>   11.3519    0.0000 </r>
      </set>
      <set comment="kpoint 57">
       <r>  -14.6363    1.0000 </r>
       <r>  -13.2549    1.0000 </r>
       <r>   -3.3752    1.0000 </r>
       <r>   -2.4862    1.0000 </r>
       <r>   -2.4608    1.0000 </r>
       <r>   -1.3688    1.0000 </r>
       <r>   -1.3550    1.0000 </r>
       <r>   -0.5665    1.0000 </r>
       <r>    1.1387    1.0000 </r>
       <r>    1.1807    1.0000 </r>
       <r>    2.3251    1.0000 </r>
       <r>    2.4656    1.0000 </r>
       <r>    2.6702    1.0000 </r>
       <r>    2.7934    1.0000 </r>
       <r>    3.0879    1.0000 </r>
       <r>    3.0934    1.0000 </r>
       <r>    5.5628   -0.0000 </r>
       <r>    5.5652   -0.0000 </r>
       <r>    7.4260   -0.0000 </r>
       <r>   11.2028    0.0000 </r>
      </set>
      <set comment="kpoint 58">
       <r>  -14.6673    1.0000 </r>
       <r>  -13.2407    1.0000 </r>
       <r>   -3.4318    1.0000 </r>
       <r>   -2.4891    1.0000 </r>
       <r>   -2.4776    1.0000 </r>
       <r>   -1.3567    1.0000 </r>
       <r>   -1.3508    1.0000 </r>
       <r>   -0.5698    1.0000 </r>
       <r>    1.2282    1.0000 </r>
       <r>    1.2430    1.0000 </r>
       <r>    2.4712    1.0000 </r>
       <r>    2.5133    1.0000 </r>
       <r>    2.7057    1.0000 </r>
       <r>    2.7881    1.0000 </r>
       <r>    2.9458    1.0000 </r>
       <r>    3.0322    1.0000 </r>
       <r>    5.6187   -0.0000 </r>
       <r>    5.6200   -0.0000 </r>
       <r>    7.2301   -0.0000 </r>
       <r>   11.0884    0.0000 </r>
      </set>
      <set comment="kpoint 59">
       <r>  -14.6860    1.0000 </r>
       <r>  -13.2315    1.0000 </r>
       <r>   -3.4665    1.0000 </r>
       <r>   -2.4903    1.0000 </r>
       <r>   -2.4874    1.0000 </r>
       <r>   -1.3497    1.0000 </r>
       <r>   -1.3483    1.0000 </r>
       <r>   -0.5713    1.0000 </r>
       <r>    1.2828    1.0000 </r>
       <r>    1.2858    1.0000 </r>
       <r>    2.5756    1.0000 </r>
       <r>    2.5773    1.0000 </r>
       <r>    2.7393    1.0000 </r>
       <r>    2.7694    1.0000 </r>
       <r>    2.8211    1.0000 </r>
       <r>    2.9893    1.0000 </r>
       <r>    5.6551   -0.0000 </r>
       <r>    5.6555   -0.0000 </r>
       <r>    7.1041   -0.0000 </r>
       <r>   11.0162    0.0000 </r>
      </set>
      <set comment="kpoint 60">
       <r>  -14.6923    1.0000 </r>
       <r>  -13.2286    1.0000 </r>
       <r>   -3.4783    1.0000 </r>
       <r>   -2.4909    1.0000 </r>
       <r>   -2.4909    1.0000 </r>
       <r>   -1.3475    1.0000 </r>
       <r>   -1.3475    1.0000 </r>
       <r>   -0.5717    1.0000 </r>
       <r>    1.3008    1.0000 </r>
       <r>    1.3008    1.0000 </r>
       <r>    2.6228    1.0000 </r>
       <r>    2.6228    1.0000 </r>
       <r>    2.7521    1.0000 </r>
       <r>    2.7521    1.0000 </r>
       <r>    2.7541    1.0000 </r>
       <r>    2.9738    1.0000 </r>
       <r>    5.6672   -0.0000 </r>
       <r>    5.6672   -0.0000 </r>
       <r>    7.0605   -0.0000 </r>
       <r>   10.9915    0.0000 </r>
      </set>
      <set comment="kpoint 61">
       <r>  -14.6923    1.0000 </r>
       <r>  -13.2286    1.0000 </r>
       <r>   -3.4783    1.0000 </r>
       <r>   -2.4909    1.0000 </r>
       <r>   -2.4909    1.0000 </r>
       <r>   -1.3475    1.0000 </r>
       <r>   -1.3475    1.0000 </r>
       <r>   -0.5717    1.0000 </r>
       <r>    1.3008    1.0000 </r>
       <r>    1.3008    1.0000 </r>
       <r>    2.6228    1.0000 </r>
       <r>    2.6228    1.0000 </r>
       <r>    2.7521    1.0000 </r>
       <r>    2.7521    1.0000 </r>
       <r>    2.7541    1.0000 </r>
       <r>    2.9738    1.0000 </r>
       <r>    5.6672   -0.0000 </r>
       <r>    5.6672   -0.0000 </r>
       <r>    7.0605   -0.0000 </r>
       <r>   10.9915    0.0000 </r>
      </set>
      <set comment="kpoint 62">
       <r>  -14.6902    1.0000 </r>
       <r>  -13.2317    1.0000 </r>
       <r>   -3.4727    1.0000 </r>
       <r>   -2.4901    1.0000 </r>
       <r>   -2.4901    1.0000 </r>
       <r>   -1.3473    1.0000 </r>
       <r>   -1.3473    1.0000 </r>
       <r>   -0.5722    1.0000 </r>
       <r>    1.2946    1.0000 </r>
       <r>    1.2946    1.0000 </r>
       <r>    2.6219    1.0000 </r>
[...]
        <r>  0.0101  0.0617  0.0036  0.0213  0.0000  0.0000  0.0000  0.0000  0.0000 </r>
       </set>
       <set comment="band 14">
        <r>  0.0028  0.0002  0.0006  0.0004  0.0034  0.0023  0.0523  0.5031  0.1533 </r>
        <r>  0.0045  0.0000  0.0001  0.0002  0.0001  0.0001  0.0132  0.0457  0.0388 </r>
        <r>  0.0061  0.0141  0.0224  0.0216  0.0000  0.0000  0.0000  0.0000  0.0000 </r>
        <r>  0.0061  0.0141  0.0224  0.0216  0.0000  0.0000  0.0000  0.0000  0.0000 </r>
       </set>
       <set comment="band 15">
        <r>  0.0000  0.0000  0.0000  0.0001  0.4371  0.4356  0.0714  0.0000  0.0243 </r>
        <r>  0.0000  0.0001  0.0000  0.0001  0.0002  0.0001  0.0009  0.0000  0.0003 </r>
        <r>  0.0000  0.0002  0.0032  0.0041  0.0000  0.0000  0.0000  0.0000  0.0000 </r>
        <r>  0.0000  0.0002  0.0032  0.0041  0.0000  0.0000  0.0000  0.0000  0.0000 </r>
       </set>
       <set comment="band 16">
        <r>  0.0099  0.0000  0.0000  0.0000  0.4235  0.4304  0.0050  0.0188  0.0144 </r>
        <r>  0.0107  0.0000  0.0001  0.0000  0.0006  0.0006  0.0003  0.0034  0.0007 </r>
        <r>  0.0004  0.0166  0.0062  0.0065  0.0000  0.0000  0.0000  0.0000  0.0000 </r>
        <r>  0.0004  0.0166  0.0062  0.0065  0.0000  0.0000  0.0000  0.0000  0.0000 </r>
       </set>
       <set comment="band 17">
        <r>  0.0000  0.0000  0.0003  0.0001  0.0103  0.0091  0.3836  0.0000  0.0990 </r>
        <r>  0.0000  0.0000  0.0007  0.0004  0.0021  0.0018  0.0535  0.0000  0.0145 </r>
        <r>  0.0004  0.0003  0.0972  0.0877  0.0000  0.0000  0.0000  0.0000  0.0000 </r>
        <r>  0.0004  0.0003  0.0972  0.0877  0.0000  0.0000  0.0000  0.0000  0.0000 </r>
       </set>
       <set comment="band 18">
        <r>  0.0000  0.0001  0.0001  0.0000  0.0024  0.0034  0.1086  0.0067  0.4109 </r>
        <r>  0.0000  0.0004  0.0002  0.0001  0.0005  0.0007  0.0103  0.0037  0.0412 </r>
        <r>  0.0043  0.1179  0.0236  0.0347  0.0000  0.0000  0.0000  0.0000  0.0000 </r>
        <r>  0.0043  0.1179  0.0236  0.0347  0.0000  0.0000  0.0000  0.0000  0.0000 </r>
       </set>
       <set comment="band 19">
        <r>  0.0001  0.0578  0.0570  0.0577  0.0003  0.0000  0.0006  0.0000  0.0000 </r>
        <r>  0.0003  0.0593  0.0589  0.0595  0.0002  0.0000  0.0005  0.0000  0.0000 </r>
        <r>  0.0579  0.0001  0.0024  0.0001  0.0000  0.0000  0.0000  0.0000  0.0000 </r>
        <r>  0.0579  0.0001  0.0024  0.0001  0.0000  0.0000  0.0000  0.0000  0.0000 </r>
       </set>
       <set comment="band 20">
        <r>  0.3342  0.0001  0.0003  0.0002  0.0000  0.0000  0.0008  0.0000  0.0025 </r>
        <r>  0.3707  0.0001  0.0002  0.0003  0.0000  0.0000  0.0006  0.0000  0.0017 </r>
        <r>  0.0217  0.0007  0.0006  0.0007  0.0000  0.0000  0.0000  0.0000  0.0000 </r>
        <r>  0.0217  0.0007  0.0006  0.0007  0.0000  0.0000  0.0000  0.0000  0.0000 </r>
       </set>
      </set>
      <set comment="kpoint 119">
       <set comment="band 1">
        <r>  0.0070  0.0000  0.0000  0.0000  0.0000  0.0000  0.0083  0.0000  0.0249 </r>
        <r>  0.0072  0.0000  0.0000  0.0000  0.0000  0.0000  0.0136  0.0000  0.0407 </r>
        <r>  0.3782  0.0000  0.0000  0.0000  0.0000  0.0000  0.0000  0.0000  0.0000 </r>
        <r>  0.3782  0.0000  0.0000  0.0000  0.0000  0.0000  0.0000  0.0000  0.0000 </r>
       </set>
       <set comment="band 2">
        <r>  0.0000  0.0104  0.0104  0.0105  0.0000  0.0000  0.0001  0.0000  0.0000 </r>
        <r>  0.0000  0.0107  0.0107  0.0107  0.0000  0.0000  0.0001  0.0000  0.0000 </r>
        <r>  0.3870  0.0000  0.0000  0.0000  0.0000  0.0000  0.0000  0.0000  0.0000 </r>
        <r>  0.3870  0.0000  0.0000  0.0000  0.0000  0.0000  0.0000  0.0000  0.0000 </r>
       </set>
       <set comment="band 3">
        <r>  0.0707  0.0000  0.0000  0.0000  0.0186  0.0186  0.0000  0.0115  0.0000 </r>
        <r>  0.0734  0.0000  0.0000  0.0000  0.0909  0.0908  0.0000  0.1411  0.0000 </r>
        <r>  0.0000  0.0396  0.0416  0.0415  0.0000  0.0000  0.0000  0.0000  0.0000 </r>
        <r>  0.0000  0.0396  0.0416  0.0415  0.0000  0.0000  0.0000  0.0000  0.0000 </r>
       </set>
       <set comment="band 4">
        <r>  0.0000  0.0000  0.0001  0.0000  0.0039  0.0038  0.0240  0.0000  0.0080 </r>
        <r>  0.0000  0.0000  0.0000  0.0000  0.0380  0.0379  0.5065  0.0000  0.1698 </r>
        <r>  0.0000  0.0000  0.0350  0.0351  0.0000  0.0000  0.0000  0.0000  0.0000 </r>
        <r>  0.0000  0.0000  0.0350  0.0351  0.0000  0.0000  0.0000  0.0000  0.0000 </r>
       </set>
       <set comment="band 5">
        <r>  0.0002  0.0003  0.0000  0.0000  0.0025  0.0024  0.0134  0.0000  0.0400 </r>
        <r>  0.0010  0.0001  0.0000  0.0000  0.0274  0.0278  0.1244  0.1614  0.3696 </r>
        <r>  0.0062  0.0542  0.0083  0.0081  0.0000  0.0000  0.0000  0.0000  0.0000 </r>
        <r>  0.0062  0.0542  0.0083  0.0081  0.0000  0.0000  0.0000  0.0000  0.0000 </r>
       </set>
       <set comment="band 6">
        <r>  0.0045  0.0045  0.0001  0.0000  0.0009  0.0011  0.0017  0.0445  0.0050 </r>
        <r>  0.0031  0.0046  0.0000  0.0000  0.0415  0.0335  0.0456  0.5538  0.1279 </r>
        <r>  0.0025  0.0108  0.0076  0.0073  0.0000  0.0000  0.0000  0.0000  0.0000 </r>
        <r>  0.0025  0.0108  0.0076  0.0073  0.0000  0.0000  0.0000  0.0000  0.0000 </r>
       </set>
       <set comment="band 7">
        <r>  0.0000  0.0982  0.0000  0.0000  0.0001  0.0000  0.0005  0.0025  0.0018 </r>
        <r>  0.0005  0.1002  0.0000  0.0000  0.0013  0.0095  0.0004  0.0207  0.0124 </r>
        <r>  0.0003  0.2203  0.0005  0.0008  0.0000  0.0000  0.0000  0.0000  0.0000 </r>
        <r>  0.0003  0.2203  0.0005  0.0008  0.0000  0.0000  0.0000  0.0000  0.0000 </r>
       </set>
       <set comment="band 8">
        <r>  0.0000  0.0011  0.0000  0.0000  0.0006  0.0006  0.0004  0.0000  0.0002 </r>
        <r>  0.0000  0.0011  0.0000  0.0000  0.4356  0.4340  0.0801  0.0000  0.0254 </r>
        <r>  0.0000  0.0026  0.0000  0.0001  0.0000  0.0000  0.0000  0.0000  0.0000 </r>
        <r>  0.0000  0.0026  0.0000  0.0001  0.0000  0.0000  0.0000  0.0000  0.0000 </r>
       </set>
       <set comment="band 9">
        <r>  0.0254  0.0000  0.0000  0.0000  0.0101  0.0102  0.0000  0.0498  0.0000 </r>
        <r>  0.0279  0.0000  0.0000  0.0000  0.3308  0.3327  0.0039  0.0278  0.0117 </r>
        <r>  0.0003  0.0164  0.0181  0.0180  0.0000  0.0000  0.0000  0.0000  0.0000 </r>
        <r>  0.0003  0.0164  0.0181  0.0180  0.0000  0.0000  0.0000  0.0000  0.0000 </r>
       </set>
       <set comment="band 10">
        <r>  0.0000  0.0000  0.0331  0.0137  0.0025  0.0055  0.0398  0.0004  0.0132 </r>
        <r>  0.0000  0.0000  0.0354  0.0147  0.0029  0.0014  0.0111  0.0001  0.0052 </r>
        <r>  0.0000  0.0000  0.2108  0.0921  0.0000  0.0000  0.0000  0.0000  0.0000 </r>
        <r>  0.0000  0.0000  0.2108  0.0921  0.0000  0.0000  0.0000  0.0000  0.0000 </r>
       </set>
       <set comment="band 11">
        <r>  0.0004  0.0000  0.0161  0.0376  0.0001  0.0001  0.0000  0.0002  0.0024 </r>
        <r>  0.0001  0.0000  0.0168  0.0389  0.0002  0.0001  0.0000  0.0012  0.0002 </r>
        <r>  0.0001  0.0001  0.0981  0.2283  0.0000  0.0000  0.0000  0.0000  0.0000 </r>
        <r>  0.0001  0.0001  0.0981  0.2282  0.0000  0.0000  0.0000  0.0000  0.0000 </r>
       </set>
       <set comment="band 12">
        <r>  0.0000  0.0000  0.0050  0.0027  0.0411  0.0334  0.2717  0.0005  0.0814 </r>
        <r>  0.0000  0.0000  0.0034  0.0019  0.0138  0.0136  0.1293  0.0000  0.0353 </r>
        <r>  0.0000  0.0001  0.0760  0.0619  0.0000  0.0000  0.0000  0.0000  0.0000 </r>
        <r>  0.0000  0.0001  0.0760  0.0619  0.0000  0.0000  0.0000  0.0000  0.0000 </r>
       </set>
       <set comment="band 13">
        <r>  0.0020  0.0001  0.0000  0.0001  0.0259  0.0299  0.0396  0.2875  0.1444 </r>
        <r>  0.0012  0.0000  0.0000  0.0001  0.0077  0.0089  0.0453  0.0052  0.1552 </r>
        <r>  0.0109  0.0656  0.0049  0.0075  0.0000  0.0000  0.0000  0.0000  0.0000 </r>
        <r>  0.0109  0.0656  0.0049  0.0075  0.0000  0.0000  0.0000  0.0000  0.0000 </r>
       </set>
       <set comment="band 14">
        <r>  0.0031  0.0000  0.0002  0.0001  0.0031  0.0028  0.0527  0.5058  0.1572 </r>
        <r>  0.0042  0.0000  0.0000  0.0000  0.0001  0.0001  0.0129  0.0476  0.0386 </r>
        <r>  0.0062  0.0140  0.0206  0.0204  0.0000  0.0000  0.0000  0.0000  0.0000 </r>
        <r>  0.0062  0.0140  0.0206  0.0204  0.0000  0.0000  0.0000  0.0000  0.0000 </r>
       </set>
       <set comment="band 15">
        <r>  0.0000  0.0000  0.0000  0.0000  0.4383  0.4378  0.0713  0.0000  0.0239 </r>
        <r>  0.0000  0.0000  0.0000  0.0000  0.0002  0.0001  0.0008  0.0000  0.0003 </r>
        <r>  0.0000  0.0000  0.0031  0.0034  0.0000  0.0000  0.0000  0.0000  0.0000 </r>
        <r>  0.0000  0.0000  0.0031  0.0034  0.0000  0.0000  0.0000  0.0000  0.0000 </r>
       </set>
       <set comment="band 16">
        <r>  0.0099  0.0000  0.0000  0.0000  0.4265  0.4282  0.0048  0.0189  0.0144 </r>
        <r>  0.0108  0.0000  0.0000  0.0000  0.0006  0.0007  0.0003  0.0034  0.0007 </r>
        <r>  0.0004  0.0165  0.0062  0.0063  0.0000  0.0000  0.0000  0.0000  0.0000 </r>
        <r>  0.0004  0.0165  0.0062  0.0063  0.0000  0.0000  0.0000  0.0000  0.0000 </r>
       </set>
       <set comment="band 17">
        <r>  0.0000  0.0000  0.0001  0.0000  0.0098  0.0095  0.3660  0.0000  0.1141 </r>
        <r>  0.0000  0.0000  0.0002  0.0001  0.0020  0.0019  0.0525  0.0000  0.0166 </r>
        <r>  0.0001  0.0000  0.0949  0.0923  0.0000  0.0000  0.0000  0.0000  0.0000 </r>
        <r>  0.0001  0.0000  0.0949  0.0923  0.0000  0.0000  0.0000  0.0000  0.0000 </r>
       </set>
       <set comment="band 18">
        <r>  0.0000  0.0000  0.0000  0.0000  0.0028  0.0030  0.1237  0.0067  0.3943 </r>
        <r>  0.0000  0.0001  0.0000  0.0000  0.0006  0.0006  0.0123  0.0037  0.0398 </r>
        <r>  0.0042  0.1188  0.0277  0.0307  0.0000  0.0000  0.0000  0.0000  0.0000 </r>
        <r>  0.0042  0.1188  0.0277  0.0307  0.0000  0.0000  0.0000  0.0000  0.0000 </r>
       </set>
       <set comment="band 19">
        <r>  0.0000  0.0579  0.0577  0.0578  0.0001  0.0000  0.0002  0.0000  0.0000 </r>
        <r>  0.0001  0.0596  0.0596  0.0597  0.0001  0.0000  0.0001  0.0000  0.0000 </r>
        <r>  0.0584  0.0000  0.0006  0.0000  0.0000  0.0000  0.0000  0.0000  0.0000 </r>
        <r>  0.0584  0.0000  0.0006  0.0000  0.0000  0.0000  0.0000  0.0000  0.0000 </r>
       </set>
       <set comment="band 20">
        <r>  0.3356  0.0000  0.0001  0.0001  0.0000  0.0000  0.0008  0.0000  0.0025 </r>
        <r>  0.3722  0.0000  0.0001  0.0001  0.0000  0.0000  0.0006  0.0000  0.0017 </r>
        <r>  0.0217  0.0002  0.0003  0.0003  0.0000  0.0000  0.0000  0.0000  0.0000 </r>
        <r>  0.0217  0.0002  0.0003  0.0003  0.0000  0.0000  0.0000  0.0000  0.0000 </r>
       </set>
      </set>
      <set comment="kpoint 120">
       <set comment="band 1">
        <r>  0.0070  0.0000  0.0000  0.0000  0.0000  0.0000  0.0083  0.0000  0.0249 </r>
        <r>  0.0072  0.0000  0.0000  0.0000  0.0000  0.0000  0.0136  0.0000  0.0408 </r>
        <r>  0.3780  0.0000  0.0000  0.0000  0.0000  0.0000  0.0000  0.0000  0.0000 </r>
        <r>  0.3780  0.0000  0.0000  0.0000  0.0000  0.0000  0.0000  0.0000  0.0000 </r>
       </set>
       <set comment="band 2">
        <r>  0.0000  0.0104  0.0105  0.0105  0.0000  0.0000  0.0000  0.0000  0.0000 </r>
        <r>  0.0000  0.0107  0.0107  0.0107  0.0000  0.0000  0.0000  0.0000  0.0000 </r>
        <r>  0.3870  0.0000  0.0000  0.0000  0.0000  0.0000  0.0000  0.0000  0.0000 </r>
        <r>  0.3870  0.0000  0.0000  0.0000  0.0000  0.0000  0.0000  0.0000  0.0000 </r>
       </set>
       <set comment="band 3">
        <r>  0.0708  0.0000  0.0000  0.0000  0.0186  0.0186  0.0000  0.0115  0.0000 </r>
        <r>  0.0735  0.0000  0.0000  0.0000  0.0908  0.0908  0.0000  0.1409  0.0000 </r>
        <r>  0.0000  0.0397  0.0415  0.0415  0.0000  0.0000  0.0000  0.0000  0.0000 </r>
        <r>  0.0000  0.0397  0.0415  0.0415  0.0000  0.0000  0.0000  0.0000  0.0000 </r>
       </set>
       <set comment="band 4">
        <r>  0.0000  0.0000  0.0000  0.0000  0.0038  0.0038  0.0242  0.0000  0.0081 </r>
        <r>  0.0000  0.0000  0.0000  0.0000  0.0379  0.0379  0.5074  0.0000  0.1691 </r>
        <r>  0.0000  0.0000  0.0350  0.0350  0.0000  0.0000  0.0000  0.0000  0.0000 </r>
        <r>  0.0000  0.0000  0.0350  0.0350  0.0000  0.0000  0.0000  0.0000  0.0000 </r>
       </set>
       <set comment="band 5">
        <r>  0.0002  0.0000  0.0000  0.0000  0.0025  0.0025  0.0135  0.0000  0.0404 </r>
        <r>  0.0009  0.0000  0.0000  0.0000  0.0277  0.0277  0.1233  0.1628  0.3699 </r>
        <r>  0.0062  0.0539  0.0082  0.0082  0.0000  0.0000  0.0000  0.0000  0.0000 </r>
        <r>  0.0062  0.0539  0.0082  0.0082  0.0000  0.0000  0.0000  0.0000  0.0000 </r>
       </set>
       <set comment="band 6">
        <r>  0.0045  0.0000  0.0000  0.0000  0.0010  0.0010  0.0021  0.0470  0.0062 </r>
        <r>  0.0034  0.0000  0.0000  0.0000  0.0381  0.0381  0.0464  0.5738  0.1392 </r>
        <r>  0.0027  0.0010  0.0080  0.0080  0.0000  0.0000  0.0000  0.0000  0.0000 </r>
        <r>  0.0027  0.0010  0.0080  0.0080  0.0000  0.0000  0.0000  0.0000  0.0000 </r>
       </set>
       <set comment="band 7">
        <r>  0.0000  0.1044  0.0000  0.0000  0.0000  0.0000  0.0000  0.0000  0.0000 </r>
        <r>  0.0000  0.1061  0.0000  0.0000  0.0000  0.0000  0.0000  0.0000  0.0000 </r>
        <r>  0.0000  0.2331  0.0000  0.0000  0.0000  0.0000  0.0000  0.0000  0.0000 </r>
        <r>  0.0000  0.2331  0.0000  0.0000  0.0000  0.0000  0.0000  0.0000  0.0000 </r>
       </set>
       <set comment="band 8">
        <r>  0.0000  0.0000  0.0000  0.0000  0.0005  0.0005  0.0004  0.0000  0.0001 </r>
        <r>  0.0000  0.0000  0.0000  0.0000  0.4396  0.4396  0.0800  0.0000  0.0267 </r>
        <r>  0.0000  0.0000  0.0000  0.0000  0.0000  0.0000  0.0000  0.0000  0.0000 </r>
        <r>  0.0000  0.0000  0.0000  0.0000  0.0000  0.0000  0.0000  0.0000  0.0000 </r>
       </set>
       <set comment="band 9">
        <r>  0.0254  0.0000  0.0000  0.0000  0.0101  0.0101  0.0000  0.0499  0.0000 </r>
        <r>  0.0279  0.0000  0.0000  0.0000  0.3320  0.3320  0.0039  0.0279  0.0117 </r>
        <r>  0.0003  0.0164  0.0180  0.0180  0.0000  0.0000  0.0000  0.0000  0.0000 </r>
        <r>  0.0003  0.0164  0.0180  0.0180  0.0000  0.0000  0.0000  0.0000  0.0000 </r>
       </set>
       <set comment="band 10">
        <r>  0.0000  0.0000  0.0271  0.0271  0.0000  0.0000  0.0000  0.0000  0.0000 </r>
        <r>  0.0000  0.0000  0.0280  0.0280  0.0000  0.0000  0.0000  0.0000  0.0000 </r>
        <r>  0.0000  0.0000  0.1641  0.1641  0.0000  0.0000  0.0000  0.0000  0.0000 </r>
        <r>  0.0000  0.0000  0.1641  0.1641  0.0000  0.0000  0.0000  0.0000  0.0000 </r>
       </set>
       <set comment="band 11">
        <r>  0.0000  0.0000  0.0273  0.0273  0.0000  0.0000  0.0000  0.0000  0.0000 </r>
        <r>  0.0000  0.0000  0.0278  0.0278  0.0000  0.0000  0.0000  0.0000  0.0000 </r>
        <r>  0.0000  0.0000  0.1641  0.1641  0.0000  0.0000  0.0000  0.0000  0.0000 </r>
        <r>  0.0000  0.0000  0.1641  0.1641  0.0000  0.0000  0.0000  0.0000  0.0000 </r>
       </set>
       <set comment="band 12">
        <r>  0.0000  0.0000  0.0000  0.0000  0.0407  0.0407  0.3056  0.0000  0.1019 </r>
        <r>  0.0000  0.0000  0.0000  0.0000  0.0158  0.0158  0.1354  0.0000  0.0451 </r>
        <r>  0.0000  0.0000  0.0566  0.0566  0.0000  0.0000  0.0000  0.0000  0.0000 </r>
        <r>  0.0000  0.0000  0.0566  0.0566  0.0000  0.0000  0.0000  0.0000  0.0000 </r>
       </set>
       <set comment="band 13">
        <r>  0.0019  0.0000  0.0000  0.0000  0.0280  0.0280  0.0464  0.2874  0.1391 </r>
        <r>  0.0012  0.0000  0.0000  0.0000  0.0083  0.0083  0.0503  0.0051  0.1508 </r>
        <r>  0.0110  0.0656  0.0059  0.0059  0.0000  0.0000  0.0000  0.0000  0.0000 </r>
        <r>  0.0110  0.0656  0.0059  0.0059  0.0000  0.0000  0.0000  0.0000  0.0000 </r>
       </set>
       <set comment="band 14">
        <r>  0.0032  0.0000  0.0000  0.0000  0.0030  0.0030  0.0528  0.5067  0.1585 </r>
        <r>  0.0042  0.0000  0.0000  0.0000  0.0001  0.0001  0.0128  0.0483  0.0385 </r>
        <r>  0.0063  0.0140  0.0200  0.0200  0.0000  0.0000  0.0000  0.0000  0.0000 </r>
        <r>  0.0063  0.0139  0.0200  0.0200  0.0000  0.0000  0.0000  0.0000  0.0000 </r>
       </set>
       <set comment="band 15">
        <r>  0.0000  0.0000  0.0000  0.0000  0.4386  0.4386  0.0713  0.0000  0.0238 </r>
        <r>  0.0000  0.0000  0.0000  0.0000  0.0001  0.0001  0.0008  0.0000  0.0003 </r>
        <r>  0.0000  0.0000  0.0031  0.0031  0.0000  0.0000  0.0000  0.0000  0.0000 </r>
        <r>  0.0000  0.0000  0.0031  0.0031  0.0000  0.0000  0.0000  0.0000  0.0000 </r>
       </set>
       <set comment="band 16">
        <r>  0.0099  0.0000  0.0000  0.0000  0.4275  0.4275  0.0048  0.0189  0.0144 </r>
        <r>  0.0108  0.0000  0.0000  0.0000  0.0007  0.0007  0.0002  0.0034  0.0007 </r>
        <r>  0.0004  0.0165  0.0062  0.0062  0.0000  0.0000  0.0000  0.0000  0.0000 </r>
        <r>  0.0004  0.0165  0.0062  0.0062  0.0000  0.0000  0.0000  0.0000  0.0000 </r>
       </set>
       <set comment="band 17">
        <r>  0.0000  0.0000  0.0000  0.0000  0.0096  0.0096  0.3596  0.0000  0.1199 </r>
        <r>  0.0000  0.0000  0.0000  0.0000  0.0020  0.0020  0.0521  0.0000  0.0174 </r>
        <r>  0.0000  0.0000  0.0939  0.0939  0.0000  0.0000  0.0000  0.0000  0.0000 </r>
        <r>  0.0000  0.0000  0.0939  0.0939  0.0000  0.0000  0.0000  0.0000  0.0000 </r>
       </set>
       <set comment="band 18">
        <r>  0.0000  0.0000  0.0000  0.0000  0.0029  0.0029  0.1294  0.0068  0.3881 </r>
        <r>  0.0000  0.0000  0.0000  0.0000  0.0006  0.0006  0.0131  0.0037  0.0393 </r>
        <r>  0.0042  0.1190  0.0293  0.0293  0.0000  0.0000  0.0000  0.0000  0.0000 </r>
        <r>  0.0042  0.1190  0.0293  0.0293  0.0000  0.0000  0.0000  0.0000  0.0000 </r>
       </set>
       <set comment="band 19">
        <r>  0.0000  0.0580  0.0579  0.0579  0.0000  0.0000  0.0000  0.0000  0.0000 </r>
        <r>  0.0000  0.0596  0.0598  0.0598  0.0000  0.0000  0.0000  0.0000  0.0000 </r>
        <r>  0.0586  0.0000  0.0000  0.0000  0.0000  0.0000  0.0000  0.0000  0.0000 </r>
        <r>  0.0586  0.0000  0.0000  0.0000  0.0000  0.0000  0.0000  0.0000  0.0000 </r>
       </set>
       <set comment="band 20">
        <r>  0.3365  0.0000  0.0000  0.0000  0.0000  0.0000  0.0008  0.0000  0.0025 </r>
        <r>  0.3723  0.0000  0.0000  0.0000  0.0000  0.0000  0.0006  0.0000  0.0017 </r>
        <r>  0.0217  0.0001  0.0002  0.0002  0.0000  0.0000  0.0000  0.0000  0.0000 </r>
        <r>  0.0217  0.0001  0.0002  0.0002  0.0000  0.0000  0.0000  0.0000  0.0000 </r>
       </set>
      </set>
     </set>
    </set>
   </array>
  </projected>
 </calculation>
 <structure name="finalpos" >
  <crystal>
   <varray name="basis" >
    <v>       4.17000000       2.08500000       2.08500000 </v>
    <v>       2.08500000       4.17000000       2.08500000 </v>
    <v>       2.08500000       2.08500000       4.17000000 </v>
   </varray>
   <i name="volume">     36.25585650 </i>
   <varray name="rec_basis" >
    <v>       0.35971223      -0.11990408      -0.11990408 </v>
    <v>      -0.11990408       0.35971223      -0.11990408 </v>
    <v>      -0.11990408      -0.11990408       0.35971223 </v>
   </varray>
  </crystal>
  <varray name="positions" >
   <v>       0.00000000       0.00000000       0.00000000 </v>
   <v>       0.50000000       0.50000000       0.50000000 </v>
   <v>       0.25000000       0.25000000       0.25000000 </v>
   <v>       0.75000000       0.75000000       0.75000000 </v>
  </varray>
 </structure>
</modeling>
