graphene (single layer)                 
   2.46000000000000     
     0.866000   -0.500000    0.000000
     0.866000    0.500000    0.000000
     0.000000    0.000000   20.000000
   C 
     2
Direct
  0.000000  0.000000  0.000000
  0.666700  0.666700  0.000000
 
   20   20  420
  352.26      384.00      447.20      481.43      458.03      396.59      331.04      281.15      249.25      229.46    
  221.76      228.36      247.73      280.14      331.12      397.59      459.24      482.14      447.26      383.81    
  384.00      419.19      448.42      432.24      372.02      298.17      236.33      196.28      172.15      158.88    
  158.15      171.13      196.81      238.42      300.04      372.69      432.94      450.74      422.44      385.58    
  447.20      448.42      420.91      358.63      280.98      211.19      162.55      133.56      116.75      110.52    
  116.52      134.27      164.48      212.71      280.51      356.94      420.46      450.24      449.38      443.00    
  481.43      432.24      358.63      275.74      200.96      145.66      111.23      91.045      81.014      81.275    
  91.696      111.82      145.48      199.51      273.29      356.15      430.63      480.82      503.50      503.60    
  458.03      372.02      280.98      200.96      140.76      101.38      77.393      64.074      59.961      64.600    
  77.395      100.26      139.29      200.23      280.88      371.42      456.45      517.45      540.20      518.95    
  396.59      298.17      211.19      145.66      101.38      73.091      56.260      48.594      48.859      56.356    
  72.172      100.28      146.34      214.13      301.34      397.62      484.60      537.84      538.63      485.60    
  331.04      236.33      162.55      111.23      77.393      56.260      44.972      41.629      45.124      56.017    
  76.809      111.39      164.37      239.15      333.10      431.90      509.92      540.24      510.42      431.55    
  281.15      196.28      133.56      91.045      64.074      48.594      41.629      41.555      48.569      64.298    
  91.172      132.93      194.79      279.55      379.88      473.81      531.48      531.34      473.81      380.71    
  249.25      172.15      116.75      81.014      59.961      48.859      45.124      48.569      60.313      82.022    
  116.76      169.70      245.25      340.18      438.89      515.34      543.80      514.48      439.25      343.08    
  229.46      158.88      110.52      81.275      64.600      56.356      56.017      64.298      82.022      111.90    
  159.34      228.40      315.71      410.09      491.68      538.57      537.71      490.20      409.87      316.96    
  221.76      158.15      116.52      91.696      77.395      72.172      76.809      91.172      116.76      159.34    
  223.57      304.34      389.42      461.38      506.66      521.34      505.82      459.92      387.59      302.37    
  228.36      171.13      134.27      111.82      100.26      100.28      111.39      132.93      169.70      228.40    
  304.34      381.36      437.44      461.78      465.79      466.64      463.16      437.33      379.48      302.52    
  247.73      196.81      164.48      145.48      139.29      146.34      164.37      194.79      245.25      315.71    
  389.42      437.44      439.81      412.89      397.90      415.81      442.88      438.50      389.34      316.72    
  280.14      238.42      212.71      199.51      200.23      214.13      239.15      279.55      340.18      410.09    
  461.38      461.78      412.89      362.96      363.48      414.09      463.05      462.59      411.45      341.55    
  331.12      300.04      280.51      273.29      280.88      301.34      333.10      379.88      438.89      491.68    
  506.66      465.79      397.90      363.48      395.34      463.17      506.10      492.64      439.25      378.60    
  397.59      372.69      356.94      356.15      371.42      397.62      431.90      473.81      515.34      538.57    
  521.34      466.64      415.81      414.09      463.17      519.12      538.48      515.65      472.96      430.62    
  459.24      432.94      420.46      430.63      456.45      484.60      509.92      531.48      543.80      537.71    
  505.82      463.16      442.88      463.05      506.10      538.48      544.45      531.60      510.20      486.16    
  482.14      450.74      450.24      480.82      517.45      537.84      540.24      531.34      514.48      490.20    
  459.92      437.33      438.50      462.59      492.64      515.65      531.60      540.66      538.99      519.04    
  447.26      422.44      449.38      503.50      540.20      538.63      510.42      473.81      439.25      409.87    
  387.59      379.48      389.34      411.45      439.25      472.96      510.20      538.99      539.62      501.36    
  383.81      385.58      443.00      503.60      518.95      485.60      431.55      380.71      343.08      316.96    
  302.37      302.52      316.72      341.55      378.60      430.62      486.16      519.04      501.36      439.42    
  361.74      389.14      442.64      468.44      441.79      381.30      318.02      270.41      240.27      221.76    
  214.62      220.76      238.89      269.50      318.09      382.21      442.88      469.09      442.71      388.96    
  389.14      418.04      439.47      418.97      358.93      287.36      227.88      189.56      166.61      154.09    
  153.42      165.68      190.06      229.81      289.08      359.54      419.59      441.59      421.04      390.59    
  442.64      439.47      408.89      346.78      271.43      204.14      157.44      129.61      113.57      107.66    
  113.35      130.26      159.20      205.54      271.01      345.24      408.48      441.13      444.64      440.45    
  468.44      418.97      346.78      266.58      194.49      141.36      108.23      88.799      79.178      79.412    
  89.381      108.75      141.18      193.16      264.34      344.51      417.49      467.87      491.38      491.47    
  441.79      358.93      271.43      194.49      136.68      98.775      75.612      62.737      58.754      63.220    
  75.613      97.753      135.33      193.81      271.33      358.38      440.33      499.35      521.38      500.72    
  381.30      287.36      204.14      141.36      98.775      71.449      55.120      47.654      47.904      55.224    
  70.621      97.775      141.97      206.82      290.25      382.25      465.18      515.89      516.60      466.09    
  318.02      227.88      157.44      108.23      75.612      55.120      44.100      40.815      44.250      54.910    
  75.083      108.38      159.10      230.45      319.90      413.81      487.81      516.52      488.27      413.49    
  270.41      189.56      129.61      88.799      62.737      47.654      40.815      40.744      47.624      62.935    
  88.913      129.04      188.19      268.94      364.24      453.32      507.96      507.83      453.33      365.01    
  240.27      166.61      113.57      79.178      58.754      47.904      44.250      47.624      59.057      80.090    
  113.57      164.36      236.61      327.21      421.15      493.79      520.84      493.02      421.50      329.87    
  221.76      154.09      107.66      79.412      63.220      55.224      54.910      62.935      80.090      108.92    
  154.51      220.79      304.60      395.07      473.35      518.45      517.67      472.01      394.88      305.75    
  214.62      153.42      113.35      89.381      75.613      70.621      75.083      88.913      113.57      154.51    
  216.26      294.13      376.46      446.89      491.90      506.70      491.12      445.54      374.79      292.33    
  220.76      165.68      130.26      108.75      97.753      97.775      108.38      129.04      164.36      220.79    
  294.13      369.21      425.74      452.90      459.59      460.37      454.17      425.65      367.51      292.49    
  238.89      190.06      159.20      141.18      135.33      141.97      159.10      188.19      236.61      304.60    
  376.46      425.74      433.57      413.41      401.43      416.11      436.40      426.72      376.40      305.54    
  269.50      229.81      205.54      193.16      193.81      206.82      230.45      268.94      327.21      395.07    
  446.89      452.90      413.41      370.94      371.43      414.54      454.08      447.99      396.32      328.46    
  318.09      289.08      271.01      264.34      271.33      290.25      319.90      364.24      421.15      473.35    
  491.90      459.59      401.43      371.43      399.08      457.20      491.40      474.25      421.50      363.07    
  382.21      359.54      345.24      344.51      358.38      382.25      413.81      453.32      493.79      518.45    
  506.70      460.37      416.11      414.54      457.20      504.68      518.39      494.10      452.56      412.63    
  442.88      419.59      408.48      417.49      440.33      465.18      487.81      507.96      520.84      517.67    
  491.12      454.17      436.40      454.08      491.40      518.39      521.45      508.08      488.08      466.62    
  469.09      441.59      441.13      467.87      499.35      515.89      516.52      507.83      493.02      472.01    
  445.54      425.65      426.72      447.99      474.25      494.10      508.08      516.91      516.95      500.81    
  442.71      421.04      444.64      491.38      521.38      516.60      488.27      453.33      421.50      394.88    
  374.79      367.51      376.40      396.32      421.50      452.56      488.08      516.95      520.86      489.42    
  388.96      390.59      440.45      491.47      500.72      466.09      413.49      365.01      329.87      305.75    
  292.33      292.49      305.54      328.46      363.07      412.63      466.62      500.81      489.42      437.16    
  376.46      393.40      423.75      429.88      396.44      339.34      282.53      241.16      215.61      200.35    
  194.59      199.62      214.61      240.51      282.59      340.03      397.27      430.38      423.81      393.28    
  393.40      407.44      410.68      380.85      322.50      257.50      204.75      171.18      151.33      140.75    
  140.24      150.62      171.60      206.28      258.84      322.95      381.32      412.33      409.78      394.54    
  423.75      410.68      373.83      313.43      244.77      184.65      143.36      118.73      104.69      99.617    
  104.50      119.19      144.70      185.73      244.48      312.27      373.53      411.96      425.28      426.16    
  429.88      380.85      313.43      240.89      176.44      129.39      99.871      82.501      73.969      74.136    
  82.913      100.23      129.22      175.43      239.21      311.72      379.72      429.42      454.27      454.35    
  396.44      322.50      244.77      176.44      125.29      91.481      70.582      58.917      55.282      59.289    
  70.581      90.689      124.24      175.91      244.69      322.07      395.32      448.53      468.44      449.58    
  339.34      257.50      184.65      129.39      91.481      66.795      51.852      44.936      45.144      51.968    
  66.193      90.720      129.84      186.66      259.69      340.07      412.06      455.88      456.42      412.75    
  282.53      204.75      143.36      99.871      70.582      51.852      41.580      38.457      41.719      51.720    
  70.189      99.976      144.61      206.71      283.96      364.63      427.87      452.28      428.21      364.37    
  241.16      171.18      118.73      82.501      58.917      44.936      38.457      38.394      44.894      59.052    
  82.581      118.29      170.13      240.03      321.80      397.79      444.26      444.17      397.81      322.40    
  215.61      151.33      104.69      73.969      55.282      45.144      41.719      44.894      55.468      74.638    
  104.70      149.62      212.81      291.58      372.75      435.16      458.40      434.59      373.05      293.63    
  200.35      140.75      99.617      74.136      59.289      51.968      51.720      59.052      74.638      100.58    
  141.08      199.61      273.76      353.49      422.58      462.60      462.01      421.57      353.36      274.64    
  194.59      140.24      104.50      82.913      70.581      66.193      70.189      82.581      104.70      141.08    
  195.82      265.55      339.98      405.40      448.80      463.54      448.20      404.37      338.73      264.21    
  199.62      150.62      119.19      100.23      90.689      90.720      99.976      118.29      149.62      199.61    
  265.55      334.71      391.04      423.98      436.60      437.20      424.96      391.00      333.45      264.34    
  214.61      171.60      144.70      129.22      124.24      129.84      144.61      170.13      212.81      273.76    
  339.98      391.04      411.05      406.70      401.78      408.81      413.27      391.83      339.95      274.50    
  240.51      206.28      185.73      175.43      175.91      186.66      206.71      240.03      291.58      353.49    
  405.40      423.98      406.70      382.09      382.49      407.61      424.92      406.25      354.45      292.56    
  282.59      258.84      244.48      239.21      244.69      259.69      283.96      321.80      372.75      422.58    
  448.80      436.60      401.78      382.49      399.98      434.78      448.45      423.31      373.04      320.91    
  340.03      322.95      312.27      311.72      322.07      340.07      364.63      397.79      435.16      462.60    
  463.54      437.20      408.81      407.61      434.78      462.03      462.60      435.44      397.23      363.72    
  397.27      381.32      373.53      379.72      395.32      412.06      427.87      444.26      458.40      462.01    
  448.20      424.96      413.27      424.92      448.45      462.60      458.90      444.39      428.10      413.17    
  430.38      412.33      411.96      429.42      448.53      455.88      452.28      444.17      434.59      421.57    
  404.37      391.00      391.83      406.25      423.31      435.44      444.39      452.60      456.72      449.68    
  423.81      409.78      425.28      454.27      468.44      456.42      428.21      397.81      373.05      353.36    
  338.73      333.45      339.95      354.45      373.04      397.23      428.10      456.72      468.07      452.78    
  393.28      394.54      426.16      454.35      449.58      412.75      364.37      322.40      293.63      274.64    
  264.21      264.34      274.50      292.56      320.91      363.72      413.17      449.68      452.78      423.62    
  368.82      374.77      381.31      368.61      331.03      280.59      233.70      200.97      181.20      169.77    
  165.60      169.36      180.63      200.60      233.76      281.02      331.54      368.93      381.35      374.71    
  374.77      373.87      359.82      323.24      270.16      215.39      172.64      145.62      129.76      121.56    
  121.24      129.33      145.93      173.65      216.26      270.42      323.51      360.88      375.40      375.52    
  381.31      359.82      319.52      264.55      206.29      157.04      123.50      103.28      91.858      87.826    
  91.704      103.54      124.33      157.74      206.13      263.84      319.35      360.64      382.28      387.87    
  368.61      323.24      264.55      203.52      150.54      112.23      87.820      73.281      66.179      66.272    
  73.505      87.994      112.09      149.91      202.49      263.50      322.52      368.29      392.72      392.79    
  331.03      270.16      206.29      150.54      108.84      80.817      63.116      53.121      49.960      53.356    
  63.113      80.309      108.17      150.19      206.22      269.88      330.32      374.56      391.14      375.23    
  280.59      215.39      157.04      112.23      80.817      59.845      46.863      40.728      40.876      46.976    
  59.500      80.343      112.48      158.27      216.75      281.05      338.17      372.62      372.95      338.58    
  233.70      172.64      123.50      87.820      63.116      46.863      37.681      34.807      37.794      46.811    
  62.881      87.873      124.27      173.85      234.60      297.30      346.06      364.77      346.28      297.14    
  200.97      145.62      103.28      73.281      53.121      40.728      34.807      34.758      40.680      53.187    
  73.323      103.01      144.96      200.24      263.81      322.24      357.77      357.71      322.27      264.21    
  181.20      129.76      91.858      66.179      49.960      40.876      37.794      40.680      50.025      66.567    
  91.858      128.70      179.45      241.86      305.70      354.42      372.54      354.09      305.92      243.16    
  169.77      121.56      87.826      66.272      53.356      46.976      46.811      53.187      66.567      88.423    
  121.77      169.31      229.58      294.34      350.34      382.93      382.57      349.73      294.29      230.14    
  165.60      121.24      91.704      73.505      63.113      59.500      62.881      73.323      91.858      121.77    
  166.35      224.00      286.52      343.02      382.03      395.73      381.65      342.38      285.77      223.22    
  169.36      129.33      103.54      87.994      80.309      80.343      87.873      103.01      128.70      169.31    
  224.00      283.42      335.95      372.12      389.45      389.83      372.75      335.97      282.69      223.31    
  180.63      145.93      124.33      112.09      108.17      112.48      124.27      144.96      179.45      229.58    
  286.52      335.95      366.04      376.84      378.90      378.23      367.51      336.49      286.52      230.09    
  200.60      173.65      157.74      149.91      150.19      158.27      173.85      200.24      241.86      294.34    
  343.02      372.12      376.84      370.71      370.99      377.47      372.77      343.58      294.95      242.51    
  233.76      216.26      206.13      202.49      206.22      216.75      234.60      263.81      305.70      350.34    
  382.03      389.45      378.90      370.99      377.76      388.32      381.85      350.85      305.92      263.27    
  281.02      270.42      263.84      263.50      269.88      281.05      297.30      322.24      354.42      382.93    
  395.73      389.83      378.23      377.47      388.32      394.81      382.99      354.66      321.93      296.74    
  331.54      323.51      319.35      322.52      330.32      338.17      346.06      357.77      372.54      382.57    
  381.65      372.75      367.51      372.77      381.85      382.99      372.90      357.89      346.24      338.88    
  368.93      360.88      360.64      368.29      374.56      372.62      364.77      357.71      354.09      349.73    
  342.38      335.97      336.49      343.58      350.85      354.66      357.89      365.00      373.18      375.32    
  381.35      375.40      382.28      392.72      391.14      372.95      346.28      322.27      305.92      294.29    
  285.77      282.69      286.52      294.95      305.92      321.93      346.24      373.18      390.93      391.80    
  374.71      375.52      387.87      392.79      375.23      338.58      297.14      264.21      243.16      230.14    
  223.22      223.31      230.09      242.51      263.27      296.74      338.88      375.32      391.80      386.24    
  323.73      322.57      314.58      292.80      257.56      217.07      182.24      158.52      144.16      135.96    
  133.06      135.79      143.93      158.39      182.29      217.28      257.82      292.96      314.62      322.55    
  322.57      313.16      290.97      255.13      211.41      169.68      138.21      118.06      106.05      99.956    
  99.796      105.84      118.25      138.75      170.13      211.53      255.25      291.52      313.97      322.97    
  314.58      290.97      253.69      208.38      163.30      126.72      101.64      86.068      77.191      74.120    
  77.092      86.169      102.04      127.07      163.24      208.05      253.62      291.39      315.07      322.69    
  292.80      255.13      208.38      161.29      121.65      92.922      74.066      62.519      56.842      56.880    
  62.604      74.114      92.820      121.33      160.80      207.88      254.76      292.62      313.72      313.77    
  257.56      211.41      163.30      121.65      90.195      68.438      54.231      46.030      43.374      46.146    
  54.226      68.175      89.842      121.46      163.25      211.26      257.21      290.85      303.41      291.18    
  217.07      169.68      126.72      92.922      68.438      51.510      40.714      35.471      35.556      40.797    
  51.361      68.203      93.022      127.29      170.33      217.30      258.79      283.59      283.75      258.98    
  182.24      138.21      101.64      74.066      54.231      40.714      32.819      30.269      32.894      40.709    
  54.119      74.078      102.00      138.79      182.68      227.09      261.15      274.10      261.26      227.01    
  158.52      118.06      86.068      62.519      46.030      35.471      30.269      30.237      35.429      46.046    
  62.531      85.926      117.72      158.15      203.36      244.13      268.68      268.66      244.16      203.57    
  144.16      106.05      77.191      56.842      43.374      35.556      32.894      35.429      43.367      57.009    
  77.188      105.53      143.29      188.62      234.32      268.97      281.86      268.83      234.46      189.29    
  135.96      99.956      74.120      56.880      46.146      40.797      40.709      46.046      57.009      74.407    
  100.06      135.73      180.54      228.84      270.57      294.86      294.69      270.30      228.84      180.84    
  133.06      99.796      77.092      62.604      54.226      51.361      54.119      62.531      77.188      100.06    
  133.41      176.83      225.20      269.79      301.43      312.80      301.23      269.49      224.86      176.49    
  135.79      105.84      86.169      74.114      68.175      68.203      74.078      85.926      105.53      135.73    
  176.83      223.66      267.67      301.18      319.02      319.22      301.51      267.72      223.36      176.55    
  143.93      118.25      102.04      92.820      89.842      93.022      102.00      117.72      143.29      180.54    
  225.20      267.67      299.74      317.89      323.71      318.64      300.55      267.98      225.23      180.84    
  158.39      138.75      127.07      121.33      121.46      127.29      138.79      158.15      188.62      228.84    
  269.79      301.18      317.89      323.21      323.37      318.26      301.55      270.10      229.17      188.98    
  182.29      170.13      163.24      160.80      163.25      170.33      182.68      203.36      234.32      270.57    
  301.43      319.02      323.71      323.37      323.14      318.47      301.38      270.88      234.47      203.11    
  217.28      211.53      208.05      207.88      211.26      217.30      227.09      244.13      268.97      294.86    
  312.80      319.22      318.64      318.26      318.47      312.38      294.95      269.15      244.02      226.83    
  257.82      255.25      253.62      254.76      257.21      258.79      261.15      268.68      281.86      294.69    
  301.23      301.51      300.55      301.55      301.38      294.95      282.08      268.79      261.28      259.17    
  292.96      291.52      291.39      292.62      290.85      283.59      274.10      268.66      268.83      270.30    
  269.49      267.72      267.98      270.10      270.88      269.15      268.79      274.24      283.89      291.26    
  314.62      313.97      315.07      313.72      303.41      283.75      261.26      244.16      234.46      228.84    
  224.86      223.36      225.23      229.17      234.47      244.02      261.28      283.89      303.34      313.27    
  322.55      322.97      322.69      313.77      291.18      258.98      227.01      203.57      189.29      180.84    
  176.49      176.55      180.84      188.98      203.11      226.83      259.17      291.26      313.27      321.86    
  251.48      247.90      236.16      215.37      187.82      159.50      136.35      120.37      110.20      104.17    
  102.07      104.14      110.15      120.36      136.39      159.59      187.92      215.44      236.18      247.90    
  247.90      237.17      216.29      187.54      155.95      127.74      106.58      92.427      83.536      78.980    
  78.920      83.468      92.520      106.82      127.92      155.99      187.59      216.52      237.51      248.07    
  236.16      216.29      187.12      153.97      122.92      98.195      80.745      69.284      62.516      60.184    
  62.468      69.307      80.885      98.331      122.91      153.86      187.11      216.46      236.35      243.26    
  215.37      187.54      153.97      121.28      94.147      74.078      60.266      51.413      46.964      46.974    
  51.431      60.260      74.018      94.027      121.12      153.80      187.41      215.29      231.14      231.17    
  187.82      155.95      122.92      94.147      71.873      55.816      44.867      38.351      36.185      38.393    
  44.863      55.714      71.733      94.061      122.88      155.89      187.69      211.08      219.77      211.20    
  159.50      127.74      98.195      74.078      55.816      42.666      34.013      29.701      29.738      34.057    
  42.622      55.727      74.094      98.378      127.96      159.59      187.16      203.47      203.52      187.22    
  136.35      106.58      80.745      60.266      44.867      34.013      27.504      25.351      27.542      34.021    
  44.825      60.256      80.855      106.78      136.50      165.66      187.55      195.77      187.59      165.63    
  120.37      92.427      69.284      51.413      38.351      29.701      25.351      25.334      29.673      38.346    
  51.410      69.227      92.294      120.22      150.22      176.52      192.11      192.11      176.55      150.31    
  110.20      83.536      62.516      46.964      36.185      29.738      27.542      29.673      36.158      47.007    
  62.511      83.349      109.88      140.55      170.71      193.26      201.65      193.23      170.79      140.81    
  104.17      78.980      60.184      46.974      38.393      34.057      34.021      38.346      47.007      60.277    
  79.014      104.09      134.87      167.74      196.14      212.73      212.68      196.07      167.76      134.98    
  102.07      78.920      62.468      51.431      44.863      42.622      44.825      51.410      62.511      79.014    
  102.17      132.02      165.78      197.68      220.67      229.03      220.60      197.58      165.69      131.93    
  104.14      83.468      69.307      60.260      55.714      55.727      60.256      69.227      83.349      104.09    
  132.02      164.92      197.61      223.82      238.43      238.51      223.96      197.67      164.87      131.96    
  110.15      92.520      80.885      74.018      71.733      74.094      80.855      92.294      109.88      134.87    
  165.78      197.61      224.29      241.64      247.72      241.96      224.65      197.77      165.82      135.01    
  120.36      106.82      98.331      94.027      94.061      98.378      106.78      120.22      140.55      167.74    
  197.68      223.82      241.64      250.16      250.24      241.82      224.00      197.82      167.88      140.72    
  136.39      127.92      122.91      121.12      122.88      127.96      136.50      150.22      170.71      196.14    
  220.67      238.43      247.72      250.24      247.50      238.24      220.69      196.31      170.81      150.16    
  159.59      155.99      153.86      153.80      155.89      159.59      165.66      176.52      193.26      212.73    
  229.03      238.51      241.96      241.82      238.24      228.90      212.81      193.39      176.53      165.59    
  187.92      187.59      187.11      187.41      187.69      187.16      187.55      192.11      201.65      212.68    
  220.60      223.96      224.65      224.00      220.69      212.81      201.76      192.19      187.63      187.32    
  215.44      216.52      216.46      215.29      211.08      203.47      195.77      192.11      193.23      196.07    
  197.58      197.67      197.77      197.82      196.31      193.39      192.19      195.85      203.61      211.25    
  236.18      237.51      236.35      231.14      219.77      203.52      187.59      176.55      170.79      167.76    
  165.69      164.87      165.82      167.88      170.81      176.53      187.63      203.61      219.76      230.99    
  247.90      248.07      243.26      231.17      211.20      187.22      165.63      150.31      140.81      134.98    
  131.93      131.96      135.01      140.72      150.16      165.59      187.32      211.25      230.99      242.94    
  176.22      173.02      163.52      148.64      130.86      113.67      99.655      89.372      82.113      77.467    
  75.812      77.474      82.127      89.394      99.684      113.71      130.90      148.67      163.54      173.03    
  173.02      164.76      149.65      130.42      110.66      93.470      80.193      70.570      63.992      60.488    
  60.474      63.981      70.606      80.268      93.526      110.68      130.43      149.72      164.87      173.07    
  163.52      149.65      130.08      108.85      89.515      73.962      62.361      54.127      48.987      47.193    