graphene (single layer)                 
   2.46000000000000     
     0.866000   -0.500000    0.000000
     0.866000    0.500000    0.000000
     0.000000    0.000000   20.000000
   C 
     2
Direct
  0.000000  0.000000  0.000000
  0.666700  0.666700  0.000000
 
   20   20  420
 0.35226489415E+03 0.38400319098E+03 0.44719894243E+03 0.48142781313E+03 0.45803203625E+03
 0.39658544818E+03 0.33104312378E+03 0.28114995640E+03 0.24925448729E+03 0.22946444773E+03
 0.22176145084E+03 0.22835564999E+03 0.24772729224E+03 0.28013970258E+03 0.33111814834E+03
 0.39758577474E+03 0.45923720799E+03 0.48214027502E+03 0.44726383440E+03 0.38381309772E+03
 0.38400319098E+03 0.41918557131E+03 0.44842452117E+03 0.43224371110E+03 0.37202356905E+03
 0.29817184818E+03 0.23633156012E+03 0.19627648742E+03 0.17215421866E+03 0.15887522838E+03
 0.15815086217E+03 0.17113072001E+03 0.19680769395E+03 0.23842314772E+03 0.30004494428E+03
 0.37269239429E+03 0.43293678709E+03 0.45073578934E+03 0.42244097754E+03 0.38558340153E+03
 0.44719894243E+03 0.44842452117E+03 0.42091452365E+03 0.35862723789E+03 0.28098008090E+03
 0.21119281911E+03 0.16255221960E+03 0.13355560194E+03 0.11675071258E+03 0.11052040159E+03
 0.11651867839E+03 0.13427226671E+03 0.16447917020E+03 0.21271195021E+03 0.28051057716E+03
 0.35694077736E+03 0.42046375559E+03 0.45023613692E+03 0.44938014686E+03 0.44299635726E+03
 0.48142781313E+03 0.43224371110E+03 0.35862723789E+03 0.27574216811E+03 0.20095817618E+03
 0.14566368400E+03 0.11122907746E+03 0.91044789599E+02 0.81014048918E+02 0.81275111582E+02
 0.91695525607E+02 0.11181585951E+03 0.14548020406E+03 0.19951117383E+03 0.27329456783E+03
 0.35614518716E+03 0.43063280384E+03 0.48082181825E+03 0.50350153443E+03 0.50359736878E+03
 0.45803203625E+03 0.37202356905E+03 0.28098008090E+03 0.20095817618E+03 0.14075836684E+03
 0.10137562696E+03 0.77393073350E+02 0.64074138967E+02 0.59961312308E+02 0.64600380305E+02
 0.77394789619E+02 0.10026492922E+03 0.13929417672E+03 0.20022635274E+03 0.28088116663E+03
 0.37142407216E+03 0.45644744169E+03 0.51744568276E+03 0.54019661629E+03 0.51894825092E+03
 0.39658544818E+03 0.29817184818E+03 0.21119281911E+03 0.14566368400E+03 0.10137562696E+03
 0.73090617896E+02 0.56259707547E+02 0.48593505449E+02 0.48859110630E+02 0.56356331070E+02
 0.72172406930E+02 0.10028128703E+03 0.14633977223E+03 0.21412744908E+03 0.30133542247E+03
 0.39762017350E+03 0.48459532598E+03 0.53784113864E+03 0.53862684287E+03 0.48559636757E+03
 0.33104312378E+03 0.23633156012E+03 0.16255221960E+03 0.11122907746E+03 0.77393073350E+02
 0.56259707547E+02 0.44971625392E+02 0.41628517353E+02 0.45123820134E+02 0.56017412133E+02
 0.76809137210E+02 0.11139388301E+03 0.16437122533E+03 0.23914823384E+03 0.33309767764E+03
 0.43190322629E+03 0.50992240130E+03 0.54024479332E+03 0.51042302095E+03 0.43154942362E+03
 0.28114995640E+03 0.19627648742E+03 0.13355560194E+03 0.91044789599E+02 0.64074138967E+02
 0.48593505449E+02 0.41628517353E+02 0.41555288924E+02 0.48569335178E+02 0.64297986033E+02
 0.91172068724E+02 0.13293152620E+03 0.19478770097E+03 0.27955157351E+03 0.37987717391E+03
 0.47380574059E+03 0.53147990954E+03 0.53134152662E+03 0.47381398575E+03 0.38071000237E+03
 0.24925448729E+03 0.17215421866E+03 0.11675071258E+03 0.81014048918E+02 0.59961312308E+02
 0.48859110630E+02 0.45123820134E+02 0.48569335178E+02 0.60313075154E+02 0.82021962518E+02
 0.11675535210E+03 0.16969632363E+03 0.24525341654E+03 0.34018465243E+03 0.43888538355E+03
 0.51533599431E+03 0.54380092024E+03 0.51447946336E+03 0.43925391817E+03 0.34308073885E+03
 0.22946444773E+03 0.15887522838E+03 0.11052040159E+03 0.81275111582E+02 0.64600380305E+02
 0.56356331070E+02 0.56017412133E+02 0.64297986033E+02 0.82021962518E+02 0.11190079613E+03
 0.15933588736E+03 0.22840061501E+03 0.31571318380E+03 0.41009466601E+03 0.49167767702E+03
 0.53857130796E+03 0.53771111732E+03 0.49020277173E+03 0.40987442007E+03 0.31696145796E+03
 0.22176145084E+03 0.15815086217E+03 0.11651867839E+03 0.91695525607E+02 0.77394789619E+02
 0.72172406930E+02 0.76809137210E+02 0.91172068724E+02 0.11675535210E+03 0.15933588736E+03
 0.22356882247E+03 0.30434247083E+03 0.38941881982E+03 0.46138483464E+03 0.50666368052E+03
 0.52133709984E+03 0.50581876358E+03 0.45991585143E+03 0.38758555018E+03 0.30236570190E+03
 0.22835564999E+03 0.17113072001E+03 0.13427226671E+03 0.11181585951E+03 0.10026492922E+03
 0.10028128703E+03 0.11139388301E+03 0.13293152620E+03 0.16969632363E+03 0.22840061501E+03
 0.30434247083E+03 0.38136159759E+03 0.43743604593E+03 0.46177754017E+03 0.46578716806E+03
 0.46664179273E+03 0.46316140398E+03 0.43732640101E+03 0.37948278354E+03 0.30252429460E+03
 0.24772729224E+03 0.19680769395E+03 0.16447917020E+03 0.14548020406E+03 0.13929417672E+03
 0.14633977223E+03 0.16437122533E+03 0.19478770097E+03 0.24525341654E+03 0.31571318380E+03
 0.38941881982E+03 0.43743604593E+03 0.43981474793E+03 0.41288729172E+03 0.39789520346E+03
 0.41580793148E+03 0.44287787854E+03 0.43849912333E+03 0.38934103511E+03 0.31672263664E+03
 0.28013970258E+03 0.23842314772E+03 0.21271195021E+03 0.19951117383E+03 0.20022635274E+03
 0.21412744908E+03 0.23914823384E+03 0.27955157351E+03 0.34018465243E+03 0.41009466601E+03
 0.46138483464E+03 0.46177754017E+03 0.41288729172E+03 0.36295880822E+03 0.36348078361E+03
 0.41409331677E+03 0.46305474208E+03 0.46258613030E+03 0.41145182970E+03 0.34154576878E+03
 0.33111814834E+03 0.30004494428E+03 0.28051057716E+03 0.27329456783E+03 0.28088116663E+03
 0.30133542247E+03 0.33309767764E+03 0.37987717391E+03 0.43888538355E+03 0.49167767702E+03
 0.50666368052E+03 0.46578716806E+03 0.39789520346E+03 0.36348078361E+03 0.39533590061E+03
 0.46317477117E+03 0.50610085441E+03 0.49264124940E+03 0.43925268840E+03 0.37859972868E+03
 0.39758577474E+03 0.37269239429E+03 0.35694077736E+03 0.35614518716E+03 0.37142407216E+03
 0.39762017350E+03 0.43190322629E+03 0.47380574059E+03 0.51533599431E+03 0.53857130796E+03
 0.52133709984E+03 0.46664179273E+03 0.41580793148E+03 0.41409331677E+03 0.46317477117E+03
 0.51911943107E+03 0.53848295046E+03 0.51564671787E+03 0.47296099283E+03 0.43061710185E+03
 0.45923720799E+03 0.43293678709E+03 0.42046375559E+03 0.43063280384E+03 0.45644744169E+03
 0.48459532598E+03 0.50992240130E+03 0.53147990954E+03 0.54380092024E+03 0.53771111732E+03
 0.50581876358E+03 0.46316140398E+03 0.44287787854E+03 0.46305474208E+03 0.50610085441E+03
 0.53848295046E+03 0.54444952039E+03 0.53160269672E+03 0.51020426952E+03 0.48615693364E+03
 0.48214027502E+03 0.45073578934E+03 0.45023613692E+03 0.48082181825E+03 0.51744568276E+03
 0.53784113864E+03 0.54024479332E+03 0.53134152662E+03 0.51447946336E+03 0.49020277173E+03
 0.45991585143E+03 0.43732640101E+03 0.43849912333E+03 0.46258613030E+03 0.49264124940E+03
 0.51564671787E+03 0.53160269672E+03 0.54065870186E+03 0.53899060411E+03 0.51903571318E+03
 0.44726383440E+03 0.42244097754E+03 0.44938014686E+03 0.50350153443E+03 0.54019661629E+03
 0.53862684287E+03 0.51042302095E+03 0.47381398575E+03 0.43925391817E+03 0.40987442007E+03
 0.38758555018E+03 0.37948278354E+03 0.38934103511E+03 0.41145182970E+03 0.43925268840E+03
 0.47296099283E+03 0.51020426952E+03 0.53899060411E+03 0.53961971478E+03 0.50135796899E+03
 0.38381309772E+03 0.38558340153E+03 0.44299635726E+03 0.50359736878E+03 0.51894825092E+03
 0.48559636757E+03 0.43154942362E+03 0.38071000237E+03 0.34308073885E+03 0.31696145796E+03
 0.30236570190E+03 0.30252429460E+03 0.31672263664E+03 0.34154576878E+03 0.37859972868E+03
 0.43061710185E+03 0.48615693364E+03 0.51903571318E+03 0.50135796899E+03 0.43941894407E+03
 0.36173519046E+03 0.38913507760E+03 0.44264218725E+03 0.46843779235E+03 0.44178527131E+03
 0.38129677682E+03 0.31801677796E+03 0.27040606317E+03 0.24026905443E+03 0.22176375101E+03
 0.21461621767E+03 0.22076355885E+03 0.23889153682E+03 0.26949636839E+03 0.31809007030E+03
 0.38220961370E+03 0.44288494021E+03 0.46909023727E+03 0.44270519781E+03 0.38896441996E+03
 0.38913507760E+03 0.41804335527E+03 0.43946793481E+03 0.41896616261E+03 0.35893035636E+03
 0.28736056994E+03 0.22787656285E+03 0.18955901187E+03 0.16661052558E+03 0.15408859535E+03
 0.15342482188E+03 0.16567725833E+03 0.19006031599E+03 0.22981127300E+03 0.28908481589E+03
 0.35953718278E+03 0.41959446898E+03 0.44159270648E+03 0.42104351999E+03 0.39059227391E+03
 0.44264218725E+03 0.43946793481E+03 0.40889033020E+03 0.34677685019E+03 0.27142848581E+03
 0.20414182808E+03 0.15743971984E+03 0.12961440270E+03 0.11356918098E+03 0.10765946914E+03
 0.11334503898E+03 0.13025811376E+03 0.15920117378E+03 0.20553980423E+03 0.27100830490E+03
 0.34523944916E+03 0.40848179539E+03 0.44113072775E+03 0.44464260056E+03 0.44045086229E+03
 0.46843779235E+03 0.41896616261E+03 0.34677685019E+03 0.26657550726E+03 0.19448575725E+03
 0.14135891180E+03 0.10822757061E+03 0.88798967201E+02 0.79177991090E+02 0.79412056432E+02
 0.89381020410E+02 0.10874714134E+03 0.14117825134E+03 0.19316035372E+03 0.26434363237E+03
 0.34451159795E+03 0.41748768748E+03 0.46787216387E+03 0.49138121958E+03 0.49147478489E+03
 0.44178527131E+03 0.35893035636E+03 0.27142848581E+03 0.19448575725E+03 0.13667883119E+03
 0.98775156714E+02 0.75611964002E+02 0.62737351731E+02 0.58753774574E+02 0.63220472878E+02
 0.75612932797E+02 0.97753360836E+02 0.13533061234E+03 0.19380893124E+03 0.27133386151E+03
 0.35837888680E+03 0.44033178439E+03 0.49934641582E+03 0.52138310837E+03 0.50072426834E+03
 0.38129677682E+03 0.28736056994E+03 0.20414182808E+03 0.14135891180E+03 0.98775156714E+02
 0.71448521628E+02 0.55119812336E+02 0.47653938997E+02 0.47904283256E+02 0.55224200514E+02
 0.70620670674E+02 0.97774768526E+02 0.14196951718E+03 0.20681846206E+03 0.29025241255E+03
 0.38224647103E+03 0.46518109010E+03 0.51588586515E+03 0.51660277999E+03 0.46609255703E+03
 0.31801677796E+03 0.22787656285E+03 0.15743971984E+03 0.10822757061E+03 0.75611964002E+02
 0.55119812336E+02 0.44100320350E+02 0.40814574949E+02 0.44250073397E+02 0.54910177009E+02
 0.75082535320E+02 0.10837533699E+03 0.15909911735E+03 0.23045197679E+03 0.31989797327E+03
 0.41381237811E+03 0.48781191227E+03 0.51652272847E+03 0.48826932064E+03 0.41348699025E+03
 0.27040606317E+03 0.18955901187E+03 0.12961440270E+03 0.88798967201E+02 0.62737351731E+02
 0.47653938997E+02 0.40814574949E+02 0.40743944586E+02 0.47623847122E+02 0.62935480817E+02
 0.88912726276E+02 0.12904250285E+03 0.18819406255E+03 0.26893797050E+03 0.36424344874E+03
 0.45331939047E+03 0.50795733816E+03 0.50783227072E+03 0.45333149093E+03 0.36501183848E+03
 0.24026905443E+03 0.16661052558E+03 0.11356918098E+03 0.79177991090E+02 0.58753774574E+02
 0.47904283256E+02 0.44250073397E+02 0.47623847122E+02 0.59056640436E+02 0.80089588532E+02
 0.11357321642E+03 0.16436420961E+03 0.23660537162E+03 0.32720807408E+03 0.42115421560E+03
 0.49379417818E+03 0.52084363112E+03 0.49301756296E+03 0.42150249527E+03 0.32986742340E+03
 0.22176375101E+03 0.15408859535E+03 0.10765946914E+03 0.79412056432E+02 0.63220472878E+02
 0.55224200514E+02 0.54910177009E+02 0.62935480817E+02 0.80089588532E+02 0.10892274818E+03
 0.15451368246E+03 0.22079153646E+03 0.30460327668E+03 0.39507155324E+03 0.47335197143E+03
 0.51844975242E+03 0.51766528787E+03 0.47200897727E+03 0.39487707308E+03 0.30574916420E+03
 0.21461621767E+03 0.15342482188E+03 0.11334503898E+03 0.89381020410E+02 0.75612932797E+02
 0.70620670674E+02 0.75082535320E+02 0.88912726276E+02 0.11357321642E+03 0.15451368246E+03
 0.21626274602E+03 0.29413007118E+03 0.37646149201E+03 0.44688673444E+03 0.49190178076E+03
 0.50669940650E+03 0.49112454808E+03 0.44554211581E+03 0.37479254511E+03 0.29233430841E+03
 0.22076355885E+03 0.16567725833E+03 0.13025811376E+03 0.10874714134E+03 0.97753360836E+02
 0.97774768526E+02 0.10837533699E+03 0.12904250285E+03 0.16436420961E+03 0.22079153646E+03
 0.29413007118E+03 0.36920786747E+03 0.42573598484E+03 0.45289535482E+03 0.45958985073E+03
 0.46037359396E+03 0.45416755099E+03 0.42564708677E+03 0.36750552704E+03 0.29248503931E+03
 0.23889153682E+03 0.19006031599E+03 0.15920117378E+03 0.14117825134E+03 0.13533061234E+03
 0.14196951718E+03 0.15909911735E+03 0.18819406255E+03 0.23660537162E+03 0.30460327668E+03
 0.37646149201E+03 0.42573598484E+03 0.43356761959E+03 0.41341400419E+03 0.40142651583E+03
 0.41611021541E+03 0.43639732911E+03 0.42672220728E+03 0.37639566578E+03 0.30553993311E+03
 0.26949636839E+03 0.22981127300E+03 0.20553980423E+03 0.19316035372E+03 0.19380893124E+03
 0.20681846206E+03 0.23045197679E+03 0.26893797050E+03 0.32720807408E+03 0.39507155324E+03
 0.44688673444E+03 0.45289535482E+03 0.41341400419E+03 0.37094404376E+03 0.37143169255E+03
 0.41453925416E+03 0.45408131029E+03 0.44799178144E+03 0.39631559467E+03 0.32846416249E+03
 0.31809007030E+03 0.28908481589E+03 0.27100830490E+03 0.26434363237E+03 0.27133386151E+03
 0.29025241255E+03 0.31989797327E+03 0.36424344874E+03 0.42115421560E+03 0.47335197143E+03
 0.49190178076E+03 0.45958985073E+03 0.40142651583E+03 0.37143169255E+03 0.39907972972E+03
 0.45720064226E+03 0.49140002965E+03 0.47425040471E+03 0.42149878396E+03 0.36307487174E+03
 0.38220961370E+03 0.35953718278E+03 0.34523944916E+03 0.34451159795E+03 0.35837888680E+03
 0.38224647103E+03 0.41381237811E+03 0.45331939047E+03 0.49379417818E+03 0.51844975242E+03
 0.50669940650E+03 0.46037359396E+03 0.41611021541E+03 0.41453925416E+03 0.45720064226E+03
 0.50468018659E+03 0.51838905626E+03 0.49409794357E+03 0.45255536423E+03 0.41263291172E+03
 0.44288494021E+03 0.41959446898E+03 0.40848179539E+03 0.41748768748E+03 0.44033178439E+03
 0.46518109010E+03 0.48781191227E+03 0.50795733816E+03 0.52084363112E+03 0.51766528787E+03
 0.49112454808E+03 0.45416755099E+03 0.43639732911E+03 0.45408131029E+03 0.49140002965E+03
 0.51838905626E+03 0.52145265172E+03 0.50808382589E+03 0.48808041329E+03 0.46661537020E+03
 0.46909023727E+03 0.44159270648E+03 0.44113072775E+03 0.46787216387E+03 0.49934641582E+03
 0.51588586515E+03 0.51652272847E+03 0.50783227072E+03 0.49301756296E+03 0.47200897727E+03
 0.44554211581E+03 0.42564708677E+03 0.42672220728E+03 0.44799178144E+03 0.47425040471E+03
 0.49409794357E+03 0.50808382589E+03 0.51691269834E+03 0.51694930243E+03 0.50081448277E+03
 0.44270519781E+03 0.42104351999E+03 0.44464260056E+03 0.49138121958E+03 0.52138310837E+03
 0.51660277999E+03 0.48826932064E+03 0.45333149093E+03 0.42150249527E+03 0.39487707308E+03
 0.37479254511E+03 0.36750552704E+03 0.37639566578E+03 0.39631559467E+03 0.42149878396E+03
 0.45255536423E+03 0.48808041329E+03 0.51694930243E+03 0.52086479161E+03 0.48942252218E+03
 0.38896441996E+03 0.39059227391E+03 0.44045086229E+03 0.49147478489E+03 0.50072426834E+03
 0.46609255703E+03 0.41348699025E+03 0.36501183848E+03 0.32986742340E+03 0.30574916420E+03
 0.29233430841E+03 0.29248503931E+03 0.30553993311E+03 0.32846416249E+03 0.36307487174E+03
 0.41263291172E+03 0.46661537020E+03 0.50081448277E+03 0.48942252218E+03 0.43716341963E+03
 0.37645912615E+03 0.39340207904E+03 0.42374801535E+03 0.42987722995E+03 0.39643618617E+03
 0.33934084372E+03 0.28252536614E+03 0.24116373899E+03 0.21560942402E+03 0.20034836045E+03
 0.19458805460E+03 0.19962091265E+03 0.21460799895E+03 0.24050673274E+03 0.28259354980E+03
 0.34003171506E+03 0.39726778985E+03 0.43037644819E+03 0.42380525676E+03 0.39328016275E+03
 0.39340207904E+03 0.40743867131E+03 0.41068154105E+03 0.38085234186E+03 0.32249951108E+03
 0.25749793134E+03 0.20475079937E+03 0.17118150616E+03 0.15132585578E+03 0.14074851433E+03
 0.14024028470E+03 0.15062242425E+03 0.17160036972E+03 0.20627561404E+03 0.25883674224E+03
 0.32294940957E+03 0.38131745926E+03 0.41232596673E+03 0.40977814978E+03 0.39454043863E+03
 0.42374801535E+03 0.41068154105E+03 0.37383168958E+03 0.31342778210E+03 0.24477338582E+03
 0.18464555842E+03 0.14335836539E+03 0.11872997873E+03 0.10469373126E+03 0.99617329770E+02
 0.10449517286E+03 0.11919206987E+03 0.14469623530E+03 0.18572930490E+03 0.24447561339E+03
 0.31227069885E+03 0.37353090298E+03 0.41196180693E+03 0.42528372879E+03 0.42615717280E+03
 0.42987722995E+03 0.38085234186E+03 0.31342778210E+03 0.24089467412E+03 0.17644284242E+03
 0.12939117063E+03 0.99871214180E+02 0.82500891939E+02 0.73968563800E+02 0.74135899366E+02
 0.82913273529E+02 0.10022588551E+03 0.12922247845E+03 0.17542924188E+03 0.23921276170E+03
 0.31171629842E+03 0.37971506845E+03 0.42941897089E+03 0.45426834527E+03 0.45435408329E+03
 0.39643618617E+03 0.32249951108E+03 0.24477338582E+03 0.17644284242E+03 0.12529096595E+03
 0.91480948975E+02 0.70581876095E+02 0.58917164462E+02 0.55281753927E+02 0.59288821963E+02
 0.70580949437E+02 0.90689265714E+02 0.12424337463E+03 0.17590936371E+03 0.24469046922E+03
 0.32207162825E+03 0.39532004777E+03 0.44852669693E+03 0.46844149265E+03 0.44958353154E+03
 0.33934084372E+03 0.25749793134E+03 0.18464555842E+03 0.12939117063E+03 0.91480948975E+02
 0.66795068541E+02 0.51851692376E+02 0.44936039168E+02 0.45143733106E+02 0.51968271884E+02
 0.66192774429E+02 0.90720356573E+02 0.12983652367E+03 0.18666339839E+03 0.25969350052E+03
 0.34007118831E+03 0.41206292671E+03 0.45587886836E+03 0.45641999706E+03 0.41274621203E+03
 0.28252536614E+03 0.20475079937E+03 0.14335836539E+03 0.99871214180E+02 0.70581876095E+02
 0.51851692376E+02 0.41580008533E+02 0.38456716754E+02 0.41718655857E+02 0.51719894652E+02
 0.70189091262E+02 0.99975559008E+02 0.14460991949E+03 0.20670800855E+03 0.28396129352E+03
 0.36462521696E+03 0.42786699699E+03 0.45227966528E+03 0.42821405695E+03 0.36437361855E+03
 0.24116373899E+03 0.17118150616E+03 0.11872997873E+03 0.82500891939E+02 0.58917164462E+02
 0.44936039168E+02 0.38456716754E+02 0.38394253279E+02 0.44894089875E+02 0.59052137817E+02
 0.82580966215E+02 0.11829173331E+03 0.17013430720E+03 0.24003090399E+03 0.32179724901E+03
 0.39778593641E+03 0.44426232474E+03 0.44417103813E+03 0.39780671456E+03 0.32239881033E+03
 0.21560942402E+03 0.15132585578E+03 0.10469373126E+03 0.73968563800E+02 0.55281753927E+02
 0.45143733106E+02 0.41718655857E+02 0.44894089875E+02 0.55467725459E+02 0.74637878271E+02
 0.10469607631E+03 0.14962028711E+03 0.21281093389E+03 0.29157909480E+03 0.37275491798E+03
 0.43515942954E+03 0.45839714730E+03 0.43458591405E+03 0.37304842546E+03 0.29362915413E+03
 0.20034836045E+03 0.14074851433E+03 0.99617329770E+02 0.74135899366E+02 0.59288821963E+02
 0.51968271884E+02 0.51719894652E+02 0.59052137817E+02 0.74637878271E+02 0.10057948156E+03
 0.14108013998E+03 0.19961009406E+03 0.27375663680E+03 0.35348971316E+03 0.42257994282E+03
 0.46259854353E+03 0.46200780177E+03 0.42157391954E+03 0.35335980435E+03 0.27463952896E+03
 0.19458805460E+03 0.14024028470E+03 0.10449517286E+03 0.82913273529E+02 0.70580949437E+02
 0.66192774429E+02 0.70189091262E+02 0.82580966215E+02 0.10469607631E+03 0.14108013998E+03
 0.19582426958E+03 0.26554808900E+03 0.33998439516E+03 0.40539539026E+03 0.44880251565E+03
 0.46354484963E+03 0.44820067804E+03 0.40437061067E+03 0.33873484449E+03 0.26421297727E+03
 0.19962091265E+03 0.15062242425E+03 0.11919206987E+03 0.10022588551E+03 0.90689265714E+02
 0.90720356573E+02 0.99975559008E+02 0.11829173331E+03 0.14962028711E+03 0.19961009406E+03
 0.26554808900E+03 0.33470506637E+03 0.39104318702E+03 0.42397781843E+03 0.43659750711E+03
 0.43719905868E+03 0.42496230238E+03 0.39100484740E+03 0.33345090571E+03 0.26434156440E+03
 0.21460799895E+03 0.17160036972E+03 0.14469623530E+03 0.12922247845E+03 0.12424337463E+03
 0.12983652367E+03 0.14460991949E+03 0.17013430720E+03 0.21281093389E+03 0.27375663680E+03
 0.33998439516E+03 0.39104318702E+03 0.41104835228E+03 0.40669546150E+03 0.40178358596E+03
 0.40880876726E+03 0.41327162818E+03 0.39182929859E+03 0.33994880141E+03 0.27450315896E+03
 0.24050673274E+03 0.20627561404E+03 0.18572930490E+03 0.17542924188E+03 0.17590936371E+03
 0.18666339839E+03 0.20670800855E+03 0.24003090399E+03 0.29157909480E+03 0.35348971316E+03
 0.40539539026E+03 0.42397781843E+03 0.40669546150E+03 0.38209243329E+03 0.38248864259E+03
 0.40760638041E+03 0.42492469965E+03 0.40625327975E+03 0.35444518058E+03 0.29256414401E+03
 0.28259354980E+03 0.25883674224E+03 0.24447561339E+03 0.23921276170E+03 0.24469046922E+03
 0.25969350052E+03 0.28396129352E+03 0.32179724901E+03 0.37275491798E+03 0.42257994282E+03
 0.44880251565E+03 0.43659750711E+03 0.40178358596E+03 0.38248864259E+03 0.39998236390E+03
 0.43477916341E+03 0.44845316265E+03 0.42330776190E+03 0.37304156626E+03 0.32090995833E+03
 0.34003171506E+03 0.32294940957E+03 0.31227069885E+03 0.31171629842E+03 0.32207162825E+03
 0.34007118831E+03 0.36462521696E+03 0.39778593641E+03 0.43515942954E+03 0.46259854353E+03
 0.46354484963E+03 0.43719905868E+03 0.40880876726E+03 0.40760638041E+03 0.43477916341E+03
 0.46202994344E+03 0.46260182065E+03 0.43544037085E+03 0.39722803352E+03 0.36372272286E+03
 0.39726778985E+03 0.38131745926E+03 0.37353090298E+03 0.37971506845E+03 0.39532004777E+03
 0.41206292671E+03 0.42786699699E+03 0.44426232474E+03 0.45839714730E+03 0.46200780177E+03
 0.44820067804E+03 0.42496230238E+03 0.41327162818E+03 0.42492469965E+03 0.44845316265E+03
 0.46260182065E+03 0.45889908213E+03 0.44439399834E+03 0.42809875153E+03 0.41317055121E+03
 0.43037644819E+03 0.41232596673E+03 0.41196180693E+03 0.42941897089E+03 0.44852669693E+03
 0.45587886836E+03 0.45227966528E+03 0.44417103813E+03 0.43458591405E+03 0.42157391954E+03
 0.40437061067E+03 0.39100484740E+03 0.39182929859E+03 0.40625327975E+03 0.42330776190E+03
 0.43544037085E+03 0.44439399834E+03 0.45260380592E+03 0.45671729093E+03 0.44967783619E+03
 0.42380525676E+03 0.40977814978E+03 0.42528372879E+03 0.45426834527E+03 0.46844149265E+03
 0.45641999706E+03 0.42821405695E+03 0.39780671456E+03 0.37304842546E+03 0.35335980435E+03
 0.33873484449E+03 0.33345090571E+03 0.33994880141E+03 0.35444518058E+03 0.37304156626E+03
 0.39722803352E+03 0.42809875153E+03 0.45671729093E+03 0.46806925961E+03 0.45278218470E+03
 0.39328016275E+03 0.39454043863E+03 0.42615717280E+03 0.45435408329E+03 0.44958353154E+03
 0.41274621203E+03 0.36437361855E+03 0.32239881033E+03 0.29362915413E+03 0.27463952896E+03
 0.26421297727E+03 0.26434156440E+03 0.27450315896E+03 0.29256414401E+03 0.32090995833E+03
 0.36372272286E+03 0.41317055121E+03 0.44967783619E+03 0.45278218470E+03 0.42361715518E+03
 0.36882441296E+03 0.37477386818E+03 0.38130601302E+03 0.36861247657E+03 0.33102622316E+03
 0.28058815524E+03 0.23369973389E+03 0.20096670645E+03 0.18119854106E+03 0.16976957477E+03
 0.16560496526E+03 0.16935685580E+03 0.18063160745E+03 0.20060159635E+03 0.23375987811E+03
 0.28101684066E+03 0.33154020621E+03 0.36892824263E+03 0.38135384289E+03 0.37470802627E+03
 0.37477386818E+03 0.37387134402E+03 0.35982372674E+03 0.32323866286E+03 0.27015604151E+03
 0.21539148636E+03 0.17264127455E+03 0.14562214339E+03 0.12975748276E+03 0.12155780474E+03
 0.12123793481E+03 0.12932779183E+03 0.14592668760E+03 0.17365155229E+03 0.21625550202E+03
 0.27042207218E+03 0.32351417219E+03 0.36088200404E+03 0.37539616791E+03 0.37551802864E+03
 0.38130601302E+03 0.35982372674E+03 0.31951782706E+03 0.26454682204E+03 0.20628856344E+03
 0.15704292507E+03 0.12350411235E+03 0.10328400841E+03 0.91858350926E+02 0.87825845458E+02
 0.91704066449E+02 0.10354046350E+03 0.12433254943E+03 0.15773841408E+03 0.20612844700E+03
 0.26384397215E+03 0.31934537996E+03 0.36063938917E+03 0.38227755191E+03 0.38786764831E+03
 0.36861247657E+03 0.32323866286E+03 0.26454682204E+03 0.20351552144E+03 0.15054374406E+03
 0.11222816802E+03 0.87820040039E+02 0.73281301060E+02 0.66178769366E+02 0.66271626898E+02
 0.73504740067E+02 0.87994366800E+02 0.11208615880E+03 0.14990675616E+03 0.20248931942E+03
 0.26349824058E+03 0.32251763147E+03 0.36829417647E+03 0.39272259322E+03 0.39279349363E+03
 0.33102622316E+03 0.27015604151E+03 0.20628856344E+03 0.15054374406E+03 0.10884409257E+03
 0.80816998171E+02 0.63115914599E+02 0.53121420529E+02 0.49959577394E+02 0.53356316662E+02
 0.63112814197E+02 0.80308574035E+02 0.10816769947E+03 0.15018935222E+03 0.20622185834E+03
 0.26987863940E+03 0.33032040452E+03 0.37456113113E+03 0.39113514714E+03 0.37522727936E+03
 0.28058815524E+03 0.21539148636E+03 0.15704292507E+03 0.11222816802E+03 0.80816998171E+02
 0.59844730468E+02 0.46863383716E+02 0.40728412719E+02 0.40875931827E+02 0.46975626382E+02
 0.59499603258E+02 0.80343288889E+02 0.11248087311E+03 0.15827255615E+03 0.21674787268E+03
 0.28105009084E+03 0.33817047801E+03 0.37262066375E+03 0.37295129036E+03 0.33858249616E+03
 0.23369973389E+03 0.17264127455E+03 0.12350411235E+03 0.87820040039E+02 0.63115914599E+02
 0.46863383716E+02 0.37680815440E+02 0.34806509488E+02 0.37794005581E+02 0.46810963791E+02
 0.62880581062E+02 0.87872925659E+02 0.12426697254E+03 0.17385314850E+03 0.23459606947E+03
 0.29729912873E+03 0.34606101352E+03 0.36476886957E+03 0.34627606180E+03 0.29713903621E+03
 0.20096670645E+03 0.14562214339E+03 0.10328400841E+03 0.73281301060E+02 0.53121420529E+02
 0.40728412719E+02 0.34806509488E+02 0.34757682723E+02 0.40680471011E+02 0.53187071148E+02
 0.73323100576E+02 0.10300683005E+03 0.14495931615E+03 0.20024191693E+03 0.26381373886E+03
 0.32223761484E+03 0.35776505323E+03 0.35771342318E+03 0.32226561003E+03 0.26420953869E+03
 0.18119854106E+03 0.12975748276E+03 0.91858350926E+02 0.66178769366E+02 0.49959577394E+02
 0.40875931827E+02 0.37794005581E+02 0.40680471011E+02 0.50025485679E+02 0.66567166488E+02
 0.91858234858E+02 0.12870036150E+03 0.17944502146E+03 0.24185603353E+03 0.30570233237E+03
 0.35442009680E+03 0.37253931206E+03 0.35408666552E+03 0.30592174761E+03 0.24316352877E+03
 0.16976957477E+03 0.12155780474E+03 0.87825845458E+02 0.66271626898E+02 0.53356316662E+02
 0.46975626382E+02 0.46810963791E+02 0.53187071148E+02 0.66567166488E+02 0.88422526140E+02
 0.12177104886E+03 0.16931123067E+03 0.22958033198E+03 0.29434295336E+03 0.35033744893E+03
 0.38292862990E+03 0.38257041183E+03 0.34973455893E+03 0.29428679477E+03 0.23014407216E+03
 0.16560496526E+03 0.12123793481E+03 0.91704066449E+02 0.73504740067E+02 0.63112814197E+02
 0.59499603258E+02 0.62880581062E+02 0.73323100576E+02 0.91858234858E+02 0.12177104886E+03
 0.16635130756E+03 0.22400381484E+03 0.28652334627E+03 0.34302077905E+03 0.38203015310E+03
 0.39572869862E+03 0.38164504944E+03 0.34238470202E+03 0.28577485568E+03 0.22321542788E+03
 0.16935685580E+03 0.12932779183E+03 0.10354046350E+03 0.87994366800E+02 0.80308574035E+02
 0.80343288889E+02 0.87872925659E+02 0.10300683005E+03 0.12870036150E+03 0.16931123067E+03
 0.22400381484E+03 0.28341620286E+03 0.33595137103E+03 0.37212032075E+03 0.38945211792E+03
 0.38983266628E+03 0.37275395934E+03 0.33596699261E+03 0.28269145715E+03 0.22331224990E+03
 0.18063160745E+03 0.14592668760E+03 0.12433254943E+03 0.11208615880E+03 0.10816769947E+03
 0.11248087311E+03 0.12426697254E+03 0.14495931615E+03 0.17944502146E+03 0.22958033198E+03
 0.28652334627E+03 0.33595137103E+03 0.36604178103E+03 0.37683525705E+03 0.37890312024E+03
 0.37822508031E+03 0.36751182209E+03 0.33648763541E+03 0.28652306908E+03 0.23008797322E+03
 0.20060159635E+03 0.17365155229E+03 0.15773841408E+03 0.14990675616E+03 0.15018935222E+03
 0.15827255615E+03 0.17385314850E+03 0.20024191693E+03 0.24185603353E+03 0.29434295336E+03
 0.34302077905E+03 0.37212032075E+03 0.37683525705E+03 0.37070915548E+03 0.37098611546E+03
 0.37746872873E+03 0.37276526281E+03 0.34357910988E+03 0.29495349010E+03 0.24250753056E+03
 0.23375987811E+03 0.21625550202E+03 0.20612844700E+03 0.20248931942E+03 0.20622185834E+03
 0.21674787268E+03 0.23459606947E+03 0.26381373886E+03 0.30570233237E+03 0.35033744893E+03
 0.38203015310E+03 0.38945211792E+03 0.37890312024E+03 0.37098611546E+03 0.37776333273E+03
 0.38832051145E+03 0.38185419942E+03 0.35084927089E+03 0.30591883942E+03 0.26327107550E+03
 0.28101684066E+03 0.27042207218E+03 0.26384397215E+03 0.26349824058E+03 0.26987863940E+03
 0.28105009084E+03 0.29729912873E+03 0.32223761484E+03 0.35442009680E+03 0.38292862990E+03
 0.39572869862E+03 0.38983266628E+03 0.37822508031E+03 0.37746872873E+03 0.38832051145E+03
 0.39481198641E+03 0.38299157359E+03 0.35466017849E+03 0.32192568251E+03 0.29673927062E+03
 0.33154020621E+03 0.32351417219E+03 0.31934537996E+03 0.32251763147E+03 0.33032040452E+03
 0.33817047801E+03 0.34606101352E+03 0.35776505323E+03 0.37253931206E+03 0.38257041183E+03
 0.38164504944E+03 0.37275395934E+03 0.36751182209E+03 0.37276526281E+03 0.38185419942E+03
 0.38299157359E+03 0.37289830533E+03 0.35789078714E+03 0.34624190350E+03 0.33888291071E+03
 0.36892824263E+03 0.36088200404E+03 0.36063938917E+03 0.36829417647E+03 0.37456113113E+03
 0.37262066375E+03 0.36476886957E+03 0.35771342318E+03 0.35408666552E+03 0.34973455893E+03
 0.34238470202E+03 0.33596699261E+03 0.33648763541E+03 0.34357910988E+03 0.35084927089E+03
 0.35466017849E+03 0.35789078714E+03 0.36500298671E+03 0.37317666816E+03 0.37531874649E+03
 0.38135384289E+03 0.37539616791E+03 0.38227755191E+03 0.39272259322E+03 0.39113514714E+03
 0.37295129036E+03 0.34627606180E+03 0.32226561003E+03 0.30592174761E+03 0.29428679477E+03
 0.28577485568E+03 0.28269145715E+03 0.28652306908E+03 0.29495349010E+03 0.30591883942E+03
 0.32192568251E+03 0.34624190350E+03 0.37317666816E+03 0.39092934040E+03 0.39180362438E+03
 0.37470802627E+03 0.37551802864E+03 0.38786764831E+03 0.39279349363E+03 0.37522727936E+03
 0.33858249616E+03 0.29713903621E+03 0.26420953869E+03 0.24316352877E+03 0.23014407216E+03
 0.22321542788E+03 0.22331224990E+03 0.23008797322E+03 0.24250753056E+03 0.26327107550E+03
 0.29673927062E+03 0.33888291071E+03 0.37531874649E+03 0.39180362438E+03 0.38624115618E+03
 0.32373474999E+03 0.32256938334E+03 0.31458214905E+03 0.29280156008E+03 0.25756111864E+03
 0.21706607881E+03 0.18224248261E+03 0.15852328754E+03 0.14416243744E+03 0.13595556565E+03
 0.13306465467E+03 0.13578784672E+03 0.14393437986E+03 0.15838554439E+03 0.18229263713E+03
 0.21728108485E+03 0.25781507075E+03 0.29296437060E+03 0.31461844606E+03 0.32254691844E+03
 0.32256938334E+03 0.31315894575E+03 0.29097116337E+03 0.25512554487E+03 0.21141221851E+03
 0.16968231265E+03 0.13820523898E+03 0.11805877834E+03 0.10604739168E+03 0.99956168187E+02