   2   2   0   0
  0.1289209E+03  0.2459946E-09  0.2459946E-09  0.4920000E-08  0.5000000E-15
  1.000000000000000E-004
  CAR 
 graphene (single layer)                 
     11.32794422    -25.29424112  301     -4.02285513      1.00000000
    -25.294  0.0000E+00  0.0000E+00
    -25.172  0.0000E+00  0.0000E+00
    -25.050  0.0000E+00  0.0000E+00
    -24.928  0.0000E+00  0.0000E+00
    -24.806  0.0000E+00  0.0000E+00
    -24.684  0.0000E+00  0.0000E+00
    -24.562  0.0000E+00  0.0000E+00
    -24.440  0.0000E+00  0.0000E+00
    -24.318  0.0000E+00  0.0000E+00
    -24.196  0.0000E+00  0.0000E+00
    -24.074  0.0000E+00  0.0000E+00
    -23.951  0.0000E+00  0.0000E+00
    -23.829  0.0000E+00  0.0000E+00
    -23.707  0.0000E+00  0.0000E+00
    -23.585  0.0000E+00  0.0000E+00
    -23.463  0.0000E+00  0.0000E+00
    -23.341  0.0000E+00  0.0000E+00
    -23.219  0.2648E+00  0.1917E-01
    -23.097  0.3204E+00  0.5651E-01
    -22.975  0.3060E+00  0.9288E-01
    -22.853  0.3032E+00  0.1313E+00
    -22.731  0.3024E+00  0.1680E+00
    -22.609  0.3180E+00  0.2059E+00
    -22.487  0.3028E+00  0.2437E+00
    -22.364  0.3058E+00  0.2809E+00
    -22.242  0.3146E+00  0.3187E+00
    -22.120  0.3082E+00  0.3570E+00
    -21.998  0.3065E+00  0.3944E+00
    -21.876  0.3104E+00  0.4320E+00
    -21.754  0.3158E+00  0.4702E+00
    -21.632  0.3098E+00  0.5086E+00
    -21.510  0.3092E+00  0.5464E+00
    -21.388  0.3116E+00  0.5843E+00
    -21.266  0.3152E+00  0.6225E+00
    -21.144  0.3192E+00  0.6612E+00
    -21.022  0.3126E+00  0.6997E+00
    -20.900  0.3134E+00  0.7379E+00
    -20.778  0.3147E+00  0.7762E+00
    -20.655  0.3179E+00  0.8148E+00
    -20.533  0.3210E+00  0.8538E+00
    -20.411  0.3176E+00  0.8928E+00
    -20.289  0.3175E+00  0.9316E+00
    -20.167  0.3191E+00  0.9704E+00
    -20.045  0.3211E+00  0.1010E+01
    -19.923  0.3236E+00  0.1049E+01
    -19.801  0.3266E+00  0.1089E+01
    -19.679  0.3249E+00  0.1128E+01
    -19.557  0.3257E+00  0.1168E+01
    -19.435  0.3276E+00  0.1208E+01
    -19.313  0.3305E+00  0.1248E+01
    -19.191  0.3336E+00  0.1289E+01
    -19.068  0.3371E+00  0.1329E+01
    -18.946  0.3408E+00  0.1371E+01
    -18.824  0.3446E+00  0.1413E+01
    -18.702  0.3503E+00  0.1455E+01
    -18.580  0.3614E+00  0.1498E+01
    -18.458  0.3799E+00  0.1544E+01
    -18.336  0.4051E+00  0.1591E+01
    -18.214  0.4303E+00  0.1642E+01
    -18.092  0.4781E+00  0.1712E+01
    -17.970  0.3415E+00  0.1759E+01
    -17.848  0.2644E+00  0.1814E+01
    -17.726  0.2345E+00  0.1844E+01
    -17.604  0.2046E+00  0.1871E+01
    -17.482  0.1747E+00  0.1894E+01
    -17.359  0.2188E+00  0.1915E+01
    -17.237  0.1333E+00  0.1942E+01
    -17.115  0.1154E+00  0.1957E+01
    -16.993  0.9757E-01  0.1970E+01
    -16.871  0.1396E+00  0.1983E+01
    -16.749  0.3707E+00  0.2010E+01
    -16.627  0.2264E+00  0.2062E+01
    -16.505  0.2593E+00  0.2092E+01
    -16.383  0.3087E+00  0.2141E+01
    -16.261  0.3234E+00  0.2180E+01
    -16.139  0.3415E+00  0.2220E+01
    -16.017  0.5911E+00  0.2281E+01
    -15.895  0.4521E+00  0.2351E+01
    -15.772  0.4067E+00  0.2403E+01
    -15.650  0.3666E+00  0.2450E+01
    -15.528  0.3444E+00  0.2493E+01
    -15.406  0.3372E+00  0.2535E+01
    -15.284  0.3304E+00  0.2576E+01
    -15.162  0.3239E+00  0.2616E+01
    -15.040  0.2959E+00  0.2654E+01
    -14.918  0.2932E+00  0.2690E+01
    -14.796  0.2907E+00  0.2726E+01
    -14.674  0.2882E+00  0.2761E+01
    -14.552  0.2803E+00  0.2796E+01
    -14.430  0.2707E+00  0.2829E+01
    -14.308  0.2611E+00  0.2862E+01
    -14.186  0.2546E+00  0.2893E+01
    -14.063  0.3681E+00  0.2937E+01
    -13.941  0.3527E+00  0.2981E+01
    -13.819  0.3532E+00  0.3024E+01
    -13.697  0.3651E+00  0.3068E+01
    -13.575  0.3675E+00  0.3113E+01
    -13.453  0.3762E+00  0.3158E+01
    -13.331  0.3692E+00  0.3204E+01
    -13.209  0.3667E+00  0.3249E+01
    -13.087  0.3828E+00  0.3295E+01
    -12.965  0.3846E+00  0.3342E+01
    -12.843  0.3830E+00  0.3389E+01
    -12.721  0.3813E+00  0.3435E+01
    -12.599  0.3843E+00  0.3482E+01
    -12.476  0.3961E+00  0.3529E+01
    -12.354  0.4045E+00  0.3578E+01
    -12.232  0.4119E+00  0.3628E+01
    -12.110  0.4144E+00  0.3679E+01
    -11.988  0.4168E+00  0.3729E+01
    -11.866  0.4192E+00  0.3780E+01
    -11.744  0.4246E+00  0.3832E+01
    -11.622  0.4295E+00  0.3884E+01
    -11.500  0.4518E+00  0.3938E+01
    -11.378  0.4622E+00  0.3994E+01
    -11.256  0.8529E+00  0.4063E+01
    -11.134  0.7472E+00  0.4151E+01
    -11.012  0.7328E+00  0.4242E+01
    -10.890  0.7655E+00  0.4334E+01
    -10.767  0.8045E+00  0.4429E+01
    -10.645  0.8388E+00  0.4529E+01
    -10.523  0.8772E+00  0.4634E+01
    -10.401  0.1198E+01  0.4754E+01
    -10.279  0.9267E+00  0.4883E+01
    -10.157  0.1019E+01  0.5004E+01
    -10.035  0.7699E+00  0.5122E+01
     -9.913  0.7550E+00  0.5211E+01
     -9.791  0.1072E+01  0.5317E+01
     -9.669  0.9493E+00  0.5441E+01
     -9.547  0.8051E+00  0.5549E+01
     -9.425  0.7147E+00  0.5639E+01
     -9.303  0.7901E+00  0.5735E+01
     -9.180  0.6620E+00  0.5829E+01
     -9.058  0.5690E+00  0.5893E+01
     -8.936  0.6793E+00  0.5969E+01
     -8.814  0.7422E+00  0.6058E+01
     -8.692  0.6463E+00  0.6142E+01
     -8.570  0.6315E+00  0.6220E+01
     -8.448  0.6168E+00  0.6296E+01
     -8.326  0.6038E+00  0.6371E+01
     -8.204  0.5925E+00  0.6444E+01
     -8.082  0.5995E+00  0.6516E+01
     -7.960  0.5866E+00  0.6588E+01
     -7.838  0.5738E+00  0.6659E+01
     -7.716  0.5625E+00  0.6729E+01
     -7.594  0.5585E+00  0.6797E+01
     -7.471  0.5731E+00  0.6866E+01
     -7.349  0.5636E+00  0.6935E+01
     -7.227  0.5477E+00  0.7003E+01
     -7.105  0.5555E+00  0.7070E+01
     -6.983  0.5492E+00  0.7138E+01
     -6.861  0.5523E+00  0.7206E+01
     -6.739  0.4757E+00  0.7274E+01
     -6.617  0.3607E+00  0.7320E+01
     -6.495  0.3789E+00  0.7365E+01
     -6.373  0.3970E+00  0.7413E+01
     -6.251  0.4416E+00  0.7464E+01
     -6.129  0.5152E+00  0.7521E+01
     -6.007  0.5312E+00  0.7607E+01
     -5.884  0.4068E+00  0.7663E+01
     -5.762  0.3307E+00  0.7707E+01
     -5.640  0.3660E+00  0.7749E+01
     -5.518  0.2839E+00  0.7784E+01
     -5.396  0.2488E+00  0.7817E+01
     -5.274  0.2131E+00  0.7845E+01
     -5.152  0.1775E+00  0.7869E+01
     -5.030  0.1691E+00  0.7890E+01
     -4.908  0.1647E+00  0.7910E+01
     -4.786  0.1442E+00  0.7930E+01
     -4.664  0.1171E+00  0.7944E+01
     -4.542  0.1044E+00  0.7958E+01
     -4.420  0.9069E-01  0.7970E+01
     -4.298  0.7698E-01  0.7980E+01
     -4.175  0.6327E-01  0.7989E+01
     -4.053  0.0000E+00  0.8000E+01
     -3.931  0.0000E+00  0.8000E+01
     -3.809  0.0000E+00  0.8000E+01
     -3.687  0.0000E+00  0.8000E+01
     -3.565  0.0000E+00  0.8000E+01
     -3.443  0.0000E+00  0.8000E+01
     -3.321  0.0000E+00  0.8000E+01
     -3.199  0.0000E+00  0.8000E+01
     -3.077  0.6485E-01  0.8011E+01
     -2.955  0.8144E-01  0.8020E+01
     -2.833  0.9802E-01  0.8031E+01
     -2.711  0.1146E+00  0.8044E+01
     -2.588  0.1303E+00  0.8059E+01
     -2.466  0.2061E+00  0.8078E+01
     -2.344  0.1838E+00  0.8102E+01
     -2.222  0.2204E+00  0.8125E+01
     -2.100  0.2857E+00  0.8156E+01
     -1.978  0.1572E+01  0.8201E+01
     -1.856  0.8267E+00  0.8280E+01
     -1.734  0.5052E+00  0.8360E+01
     -1.612  0.4322E+00  0.8417E+01
     -1.490  0.3756E+00  0.8466E+01
     -1.368  0.3529E+00  0.8510E+01
     -1.246  0.3320E+00  0.8552E+01
     -1.124  0.3130E+00  0.8591E+01
     -1.002  0.2965E+00  0.8628E+01
     -0.879  0.2846E+00  0.8664E+01
     -0.757  0.2691E+00  0.8698E+01
     -0.635  0.2619E+00  0.8730E+01
     -0.513  0.2549E+00  0.8762E+01
     -0.391  0.3065E+00  0.8793E+01
     -0.269  0.4499E+00  0.8848E+01
     -0.147  0.4787E+00  0.8905E+01
     -0.025  0.4488E+00  0.8961E+01
      0.097  0.4588E+00  0.9016E+01
      0.219  0.4406E+00  0.9072E+01
      0.341  0.6233E+00  0.9144E+01
      0.463  0.1085E+01  0.9245E+01
      0.585  0.1086E+01  0.9378E+01
      0.708  0.1077E+01  0.9512E+01
      0.830  0.1075E+01  0.9643E+01
      0.952  0.1092E+01  0.9776E+01
      1.074  0.1074E+01  0.9907E+01
      1.196  0.1076E+01  0.1004E+02
      1.318  0.1070E+01  0.1017E+02
      1.440  0.1062E+01  0.1030E+02
      1.562  0.1055E+01  0.1043E+02
      1.684  0.1093E+01  0.1056E+02
      1.806  0.1134E+01  0.1070E+02
      1.928  0.1244E+01  0.1084E+02
      2.050  0.1375E+01  0.1100E+02
      2.172  0.9956E+00  0.1115E+02
      2.294  0.8365E+00  0.1126E+02
      2.417  0.8315E+00  0.1136E+02
      2.539  0.1289E+01  0.1148E+02
      2.661  0.1036E+01  0.1162E+02
      2.783  0.8652E+00  0.1174E+02
      2.905  0.8049E+00  0.1184E+02
      3.027  0.7376E+00  0.1193E+02
      3.149  0.7248E+00  0.1202E+02
      3.271  0.7189E+00  0.1211E+02
      3.393  0.7122E+00  0.1220E+02
      3.515  0.6996E+00  0.1228E+02
      3.637  0.7153E+00  0.1237E+02
      3.759  0.7372E+00  0.1246E+02
      3.881  0.1203E+01  0.1258E+02
      4.004  0.1277E+01  0.1273E+02
      4.126  0.9141E+00  0.1288E+02
      4.248  0.9020E+00  0.1299E+02
      4.370  0.8865E+00  0.1310E+02
      4.492  0.8608E+00  0.1321E+02
      4.614  0.8349E+00  0.1331E+02
      4.736  0.8100E+00  0.1341E+02
      4.858  0.7554E+00  0.1351E+02
      4.980  0.7377E+00  0.1360E+02
      5.102  0.7297E+00  0.1369E+02
      5.224  0.7176E+00  0.1377E+02
      5.346  0.7052E+00  0.1386E+02
      5.468  0.6946E+00  0.1395E+02
      5.590  0.6872E+00  0.1403E+02
      5.713  0.6800E+00  0.1411E+02
      5.835  0.6727E+00  0.1420E+02
      5.957  0.6678E+00  0.1428E+02
      6.079  0.6599E+00  0.1436E+02
      6.201  0.6474E+00  0.1444E+02
      6.323  0.6548E+00  0.1452E+02
      6.445  0.6521E+00  0.1460E+02
      6.567  0.6485E+00  0.1468E+02
      6.689  0.6671E+00  0.1476E+02
      6.811  0.6633E+00  0.1484E+02
      6.933  0.8806E+00  0.1493E+02
      7.055  0.1280E+01  0.1506E+02
      7.177  0.1055E+01  0.1520E+02
      7.300  0.1651E+01  0.1532E+02
      7.422  0.7323E+00  0.1541E+02
      7.544  0.6399E+00  0.1550E+02
      7.666  0.6914E+00  0.1559E+02
      7.788  0.4505E+00  0.1565E+02
      7.910  0.3377E+00  0.1571E+02
      8.032  0.3033E+00  0.1575E+02
      8.154  0.2706E+00  0.1579E+02
      8.276  0.1975E+00  0.1582E+02
      8.398  0.1828E+00  0.1584E+02
      8.520  0.1833E+00  0.1586E+02
      8.642  0.1837E+00  0.1588E+02
      8.764  0.1548E+00  0.1590E+02
      8.886  0.1479E+00  0.1592E+02
      9.009  0.1410E+00  0.1594E+02
      9.131  0.1342E+00  0.1596E+02
      9.253  0.1044E+00  0.1598E+02
      9.375  0.0000E+00  0.1600E+02
      9.497  0.0000E+00  0.1600E+02
      9.619  0.0000E+00  0.1600E+02
      9.741  0.0000E+00  0.1600E+02
      9.863  0.0000E+00  0.1600E+02
      9.985  0.0000E+00  0.1600E+02
     10.107  0.0000E+00  0.1600E+02
     10.229  0.0000E+00  0.1600E+02
     10.351  0.0000E+00  0.1600E+02
     10.473  0.0000E+00  0.1600E+02
     10.596  0.0000E+00  0.1600E+02
     10.718  0.0000E+00  0.1600E+02
     10.840  0.0000E+00  0.1600E+02
     10.962  0.0000E+00  0.1600E+02
     11.084  0.0000E+00  0.1600E+02
     11.206  0.0000E+00  0.1600E+02
     11.328  0.0000E+00  0.1600E+02
