    2    2    1    1
  0.1289209E+03  0.2459946E-09  0.2459946E-09  0.4920000E-08  0.5000000E-15
  1.000000000000000E-004
  CAR 
 graphene (single layer)                 
      8    222      8
 
  0.0000000E+00  0.0000000E+00  0.0000000E+00  0.1250000E-02
    1      -23.294241   1.000000
    2      -11.318535   1.000000
    3       -6.686326   1.000000
    4       -6.685627   1.000000
    5       -0.403696   0.000000
    6        0.234003   0.000000
    7        0.356031   0.000000
    8        0.449202   0.000000
 
  0.5000000E-01  0.3469447E-17  0.0000000E+00  0.5000000E-02
    1      -23.235097   1.000000
    2      -11.248719   1.000000
    3       -6.927725   1.000000
    4       -6.812236   1.000000
    5       -0.323032   0.000000
    6        0.316213   0.000000
    7        0.438845   0.000000
    8        0.531807   0.000000
 
  0.1000000E+00  0.6938894E-17  0.0000000E+00  0.5000000E-02
    1      -23.057549   1.000000
    2      -11.035927   1.000000
    3       -7.609830   1.000000
    4       -7.161418   1.000000
    5       -0.080955   0.000000
    6        0.562966   0.000000
    7        0.687271   0.000000
    8        0.779684   0.000000
 
  0.1500000E+00  0.0000000E+00  0.0000000E+00  0.5000000E-02
    1      -22.761984   1.000000
    2      -10.682811   1.000000
    3       -8.614363   1.000000
    4       -7.650244   1.000000
    5        0.322603   0.000000
    6        0.973953   0.000000
    7        1.101362   0.000000
    8        1.192729   0.000000
 
  0.2000000E+00  0.0000000E+00  0.0000000E+00  0.5000000E-02
    1      -22.349800   1.000000
    2      -10.194593   1.000000
    3       -9.815439   1.000000
    4       -8.188755   1.000000
    5        0.887208   0.000000
    6        1.548267   0.000000
    7        1.681067   0.000000
    8        1.770664   0.000000
 
  0.2500000E+00  0.0000000E+00  0.0000000E+00  0.5000000E-02
    1      -21.822460   1.000000
    2      -11.115104   1.000000
    3       -9.576450   1.000000
    4       -8.712734   1.000000
    5        1.612101   0.000000
    6        2.281218   0.000000
    7        2.426379   0.000000
    8        2.511969   0.000000
 
  0.3000000E+00  0.0000000E+00  0.0000000E+00  0.5000000E-02
    1      -21.183089   1.000000
    2      -12.451043   1.000000
    3       -9.184982   1.000000
    4       -8.841763   1.000000
    5        2.299919   0.000000
    6        2.495140   0.000000
    7        3.213161   0.000000
    8        3.337237   0.000000
 
  0.3500000E+00  0.0000000E+00  0.0000000E+00  0.5000000E-02
    1      -20.435903   1.000000
    2      -13.773128   1.000000
    3       -9.570713   1.000000
    4       -8.015861   1.000000
    5        0.901707   0.000000
    6        3.523491   0.000000
    7        4.076640   0.000000
    8        4.264717   0.000000
 
  0.4000000E+00  0.0000000E+00  0.0000000E+00  0.5000000E-02
    1      -19.589943   1.000000
    2      -15.043617   1.000000
    3       -9.855617   1.000000
    4       -7.143610   1.000000
    5       -0.416571   0.000000
    6        3.892978   0.000000
    7        4.758604   0.000000
    8        5.486433   0.000000
 
  0.4500000E+00  0.5551115E-16  0.0000000E+00  0.5000000E-02
    1      -18.676527   1.000000
    2      -16.217252   1.000000
    3      -10.031462   1.000000
    4       -6.359779   1.000000
    5       -1.474093   0.000000
    6        3.800987   0.000000
    7        6.099210   0.000000
    8        6.862511   0.000000
 
  0.5000000E+00  0.0000000E+00  0.0000000E+00  0.2500000E-02
    1      -18.017046   1.000000
    2      -16.963227   1.000000
    3      -10.090197   1.000000
    4       -6.005304   1.000000
    5       -1.927923   0.000000
    6        3.768087   0.000000
    7        7.511561   0.000000
    8        7.666709   0.000000
 
  0.5000000E-01  0.5000000E-01  0.0000000E+00  0.2500000E-02
    1      -23.235091   1.000000
    2      -11.248711   1.000000
    3       -6.928174   1.000000
    4       -6.811815   1.000000
    5       -0.323026   0.000000
    6        0.316217   0.000000
    7        0.438848   0.000000
    8        0.531811   0.000000
 
  0.1000000E+00  0.5000000E-01  0.0000000E+00  0.5000000E-02
    1      -23.116677   1.000000
    2      -11.107554   1.000000
    3       -7.375221   1.000000
    4       -7.069777   1.000000
    5       -0.161630   0.000000
    6        0.480695   0.000000
    7        0.604463   0.000000
    8        0.697062   0.000000
 
  0.1500000E+00  0.5000000E-01  0.0000000E+00  0.5000000E-02
    1      -22.880042   1.000000
    2      -10.824475   1.000000
    3       -8.178512   1.000000
    4       -7.527056   1.000000
    5        0.161300   0.000000
    6        0.809595   0.000000
    7        0.935738   0.000000
    8        1.027523   0.000000
 
  0.2000000E+00  0.5000000E-01  0.0000000E+00  0.5000000E-02
    1      -22.526157   1.000000
    2      -10.402331   1.000000
    3       -9.243657   1.000000
    4       -8.075545   1.000000
    5        0.645547   0.000000
    6        1.302453   0.000000
    7        1.432643   0.000000
    8        1.523089   0.000000
 
  0.2500000E+00  0.5000000E-01  0.0000000E+00  0.5000000E-02
    1      -22.056354   1.000000
    2      -10.473371   1.000000
    3       -9.849148   1.000000
    4       -8.632531   1.000000
    5        1.290569   0.000000
    6        1.957489   0.000000
    7        2.095166   0.000000
    8        2.183235   0.000000
 
  0.3000000E+00  0.5000000E-01  0.0000000E+00  0.5000000E-02
    1      -21.473082   1.000000
    2      -11.777371   1.000000
    3       -9.172177   1.000000
    4       -9.145946   1.000000
    5        2.095107   0.000000
    6        2.725267   0.000000
    7        2.923278   0.000000
    8        2.966148   0.000000
 
  0.3500000E+00  0.5000000E-01  0.0000000E+00  0.5000000E-02
    1      -20.779639   1.000000
    2      -13.098705   1.000000
    3       -9.584220   1.000000
    4       -8.388325   1.000000
    5        1.562999   0.000000
    6        3.056133   0.000000
    7        3.773486   0.000000
    8        3.916806   0.000000
 
  0.4000000E+00  0.5000000E-01  0.0000000E+00  0.5000000E-02
    1      -19.981942   1.000000
    2      -14.388691   1.000000
    3       -9.923256   1.000000
    4       -7.525605   1.000000
    5        0.202444   0.000000
    6        4.108983   0.000000
    7        4.326825   0.000000
    8        4.913622   0.000000
 
  0.4500000E+00  0.5000000E-01  0.0000000E+00  0.5000000E-02
    1      -19.096272   1.000000
    2      -15.615185   1.000000
    3      -10.156185   1.000000
    4       -6.675162   1.000000
    5       -1.008680   0.000000
    6        4.114154   0.000000
    7        5.468090   0.000000
    8        6.210640   0.000000
 
  0.5000000E+00  0.5000000E-01  0.0000000E+00  0.5000000E-02
    1      -18.206496   1.000000
    2      -16.677432   1.000000
    3      -10.273244   1.000000
    4       -6.048565   1.000000
    5       -1.817566   0.000000
    6        4.049674   0.000000
    7        6.881241   0.000000
    8        7.649145   0.000000
 
 -0.4500000E+00  0.5000000E-01  0.0000000E+00  0.5000000E-02
    1      -18.206568   1.000000
    2      -16.677286   1.000000
    3      -10.273304   1.000000
    4       -6.048616   1.000000
    5       -1.817483   0.000000
    6        4.049701   0.000000
    7        6.881167   0.000000
    8        7.649044   0.000000
 
 -0.4000000E+00  0.5000000E-01  0.0000000E+00  0.5000000E-02
    1      -19.096354   1.000000
    2      -15.614936   1.000000
    3      -10.156322   1.000000
    4       -6.675271   1.000000
    5       -1.008485   0.000000
    6        4.114175   0.000000
    7        5.468037   0.000000
    8        6.210558   0.000000
 
 -0.3500000E+00  0.5000000E-01  0.0000000E+00  0.5000000E-02
    1      -19.982010   1.000000
    2      -14.388431   1.000000
    3       -9.923414   1.000000
    4       -7.525721   1.000000
    5        0.202701   0.000000
    6        4.108864   0.000000
    7        4.326957   0.000000
    8        4.913553   0.000000
 
 -0.3000000E+00  0.5000000E-01  0.0000000E+00  0.5000000E-02
    1      -20.779700   1.000000
    2      -13.098385   1.000000
    3       -9.584493   1.000000
    4       -8.388430   1.000000
    5        1.563294   0.000000
    6        3.056061   0.000000
    7        3.773429   0.000000
    8        3.916758   0.000000
 
 -0.2500000E+00  0.5000000E-01  0.0000000E+00  0.5000000E-02
    1      -21.473133   1.000000
    2      -11.776962   1.000000
    3       -9.172267   1.000000
    4       -9.146326   1.000000
    5        2.095050   0.000000
    6        2.725312   0.000000
    7        2.923238   0.000000
    8        2.965706   0.000000
 
 -0.2000000E+00  0.5000000E-01  0.0000000E+00  0.5000000E-02
    1      -22.056395   1.000000
    2      -10.472859   1.000000
    3       -9.849222   1.000000
    4       -8.633020   1.000000
    5        1.290523   0.000000
    6        1.957452   0.000000
    7        2.095126   0.000000
    8        2.183185   0.000000
 
 -0.1500000E+00  0.5000000E-01  0.0000000E+00  0.5000000E-02
    1      -22.526189   1.000000
    2      -10.402387   1.000000
    3       -9.243015   1.000000
    4       -8.076149   1.000000
    5        0.645510   0.000000
    6        1.302425   0.000000
    7        1.432617   0.000000
    8        1.523063   0.000000
 
 -0.1000000E+00  0.5000000E-01  0.0000000E+00  0.5000000E-02
    1      -22.880065   1.000000
    2      -10.824514   1.000000
    3       -8.177767   1.000000
    4       -7.527739   1.000000
    5        0.161272   0.000000
    6        0.809575   0.000000
    7        0.935726   0.000000
    8        1.027505   0.000000
 
 -0.5000000E-01  0.5000000E-01  0.0000000E+00  0.2500000E-02
    1      -23.116691   1.000000
    2      -11.107575   1.000000
    3       -7.374481   1.000000
    4       -7.070448   1.000000
    5       -0.161647   0.000000
    6        0.480683   0.000000
    7        0.604452   0.000000
    8        0.697050   0.000000
 
  0.1000000E+00  0.1000000E+00  0.0000000E+00  0.2500000E-02
    1      -23.057529   1.000000
    2      -11.035895   1.000000
    3       -7.610093   1.000000
    4       -7.161260   1.000000
    5       -0.080932   0.000000
    6        0.562982   0.000000
    7        0.687290   0.000000
    8        0.779708   0.000000
 
  0.1500000E+00  0.1000000E+00  0.0000000E+00  0.5000000E-02
    1      -22.880027   1.000000
    2      -10.824451   1.000000
    3       -8.178441   1.000000
    4       -7.527221   1.000000
    5        0.161316   0.000000
    6        0.809606   0.000000
    7        0.935754   0.000000
    8        1.027533   0.000000
 
  0.2000000E+00  0.1000000E+00  0.0000000E+00  0.5000000E-02
    1      -22.584938   1.000000
    2      -10.473749   1.000000
    3       -8.974085   1.000000
    4       -8.121145   1.000000
    5        0.565095   0.000000
    6        1.220374   0.000000
    7        1.349845   0.000000
    8        1.440525   0.000000
 
  0.2500000E+00  0.1000000E+00  0.0000000E+00  0.5000000E-02
    1      -22.173542   1.000000
    2       -9.986273   1.000000
    3       -9.982245   1.000000
    4       -8.773845   1.000000
    5        1.129992   0.000000
    6        1.794646   0.000000
    7        1.929570   0.000000
    8        2.018506   0.000000
 
  0.3000000E+00  0.1000000E+00  0.0000000E+00  0.5000000E-02
    1      -21.647772   1.000000
    2      -11.155627   1.000000
    3       -9.376567   1.000000
    4       -9.372302   1.000000
    5        1.855095   0.000000
    6        2.527899   0.000000
    7        2.674901   0.000000
    8        2.760247   0.000000
 
  0.3500000E+00  0.1000000E+00  0.0000000E+00  0.5000000E-02
    1      -21.010194   1.000000
    2      -12.409809   1.000000
    3       -9.890281   1.000000
    4       -8.639289   1.000000
    5        2.119477   0.000000
    6        2.739086   0.000000
    7        3.440895   0.000000
    8        3.585836   0.000000
 
  0.4000000E+00  0.1000000E+00  0.0000000E+00  0.5000000E-02
    1      -20.265721   1.000000
    2      -13.682972   1.000000
    3      -10.300642   1.000000
    4       -7.812100   1.000000
    5        0.772444   0.000000
    6        3.778355   0.000000
    7        4.497560   0.000000
    8        4.662133   0.000000
 
  0.4500000E+00  0.1000000E+00  0.0000000E+00  0.5000000E-02
    1      -19.423722   1.000000
    2      -14.922586   1.000000
    3      -10.597743   1.000000
    4       -6.940248   1.000000
    5       -0.496466   0.000000
    6        4.869758   0.000000
    7        5.060847   0.000000
    8        5.710750   0.000000
 
  0.5000000E+00  0.1000000E+00  0.0000000E+00  0.5000000E-02
    1      -18.516288   1.000000
    2      -16.080751   1.000000
    3      -10.779279   1.000000
    4       -6.153780   1.000000
    5       -1.534842   0.000000
    6        4.843602   0.000000
    7        6.331347   0.000000
    8        7.061151   0.000000
 
 -0.4500000E+00  0.1000000E+00  0.0000000E+00  0.5000000E-02
    1      -17.864789   1.000000
    2      -16.817986   1.000000
    3      -10.841107   1.000000
    4       -5.790171   1.000000
    5       -1.988070   0.000000
    6        4.809639   0.000000
    7        7.722569   0.000000
    8        7.888641   0.000000
 
 -0.4000000E+00  0.1000000E+00  0.0000000E+00  0.5000000E-02
    1      -18.516458   1.000000
    2      -16.080360   1.000000
    3      -10.779451   1.000000
    4       -6.153971   1.000000
    5       -1.534533   0.000000
    6        4.843619   0.000000
    7        6.331224   0.000000
    8        7.060955   0.000000
 
 -0.3500000E+00  0.1000000E+00  0.0000000E+00  0.5000000E-02
    1      -19.423874   1.000000
    2      -14.922050   1.000000
    3      -10.598054   1.000000
    4       -6.940491   1.000000
    5       -0.495999   0.000000
    6        4.869514   0.000000
    7        5.061030   0.000000
    8        5.710593   0.000000
 
 -0.3000000E+00  0.1000000E+00  0.0000000E+00  0.5000000E-02
    1      -20.265852   1.000000
    2      -13.682374   1.000000
    3      -10.301068   1.000000
    4       -7.812332   1.000000
    5        0.772998   0.000000
    6        3.778207   0.000000
    7        4.497431   0.000000
    8        4.662027   0.000000
 
 -0.2500000E+00  0.1000000E+00  0.0000000E+00  0.5000000E-02
    1      -21.010307   1.000000
    2      -12.409053   1.000000
    3       -9.890923   1.000000
    4       -8.639491   1.000000
    5        2.120088   0.000000
    6        2.738967   0.000000
    7        3.440787   0.000000
    8        3.585748   0.000000
 
 -0.2000000E+00  0.1000000E+00  0.0000000E+00  0.5000000E-02
    1      -21.647865   1.000000
    2      -11.154679   1.000000
    3       -9.377419   1.000000
    4       -9.372469   1.000000
    5        1.854995   0.000000
    6        2.527830   0.000000
    7        2.674828   0.000000
    8        2.760153   0.000000
 
 -0.1500000E+00  0.1000000E+00  0.0000000E+00  0.5000000E-02
    1      -22.173615   1.000000
    2       -9.986406   1.000000
    3       -9.981129   1.000000
    4       -8.774852   1.000000
    5        1.129911   0.000000
    6        1.794583   0.000000
    7        1.929509   0.000000
    8        2.018446   0.000000
 
 -0.1000000E+00  0.1000000E+00  0.0000000E+00  0.2500000E-02
    1      -22.584994   1.000000
    2      -10.473846   1.000000
    3       -8.973036   1.000000
    4       -8.122055   1.000000
    5        0.565032   0.000000
    6        1.220326   0.000000
    7        1.349801   0.000000
    8        1.440480   0.000000
 
  0.1500000E+00  0.1500000E+00  0.0000000E+00  0.2500000E-02
    1      -22.761942   1.000000
    2      -10.682735   1.000000
    3       -8.614428   1.000000
    4       -7.650417   1.000000
    5        0.322651   0.000000
    6        0.973989   0.000000
    7        1.101396   0.000000
    8        1.192755   0.000000
 
  0.2000000E+00  0.1500000E+00  0.0000000E+00  0.5000000E-02
    1      -22.526119   1.000000
    2      -10.402259   1.000000
    3       -9.243424   1.000000
    4       -8.076011   1.000000
    5        0.645588   0.000000
    6        1.302486   0.000000
    7        1.432671   0.000000
    8        1.523123   0.000000
 
  0.2500000E+00  0.1500000E+00  0.0000000E+00  0.5000000E-02
    1      -22.173517   1.000000
    2       -9.986226   1.000000
    3       -9.981992   1.000000
    4       -8.774244   1.000000
    5        1.130016   0.000000
    6        1.794669   0.000000
    7        1.929587   0.000000
    8        2.018526   0.000000
 
  0.3000000E+00  0.1500000E+00  0.0000000E+00  0.5000000E-02
    1      -21.705727   1.000000
    2      -10.835998   1.000000
    3       -9.574310   1.000000
    4       -9.439533   1.000000
    5        1.775200   0.000000
    6        2.449621   0.000000
    7        2.592124   0.000000
    8        2.678778   0.000000
 
  0.3500000E+00  0.1500000E+00  0.0000000E+00  0.5000000E-02
    1      -21.125796   1.000000
    2      -11.852829   1.000000
    3      -10.283119   1.000000
    4       -8.768433   1.000000
    5        2.448704   0.000000
    6        2.579748   0.000000
    7        3.267530   0.000000
    8        3.420280   0.000000
 
  0.4000000E+00  0.1500000E+00  0.0000000E+00  0.5000000E-02
    1      -20.437092   1.000000
    2      -13.000653   1.000000
    3      -10.831933   1.000000
    4       -7.989173   1.000000
    5        1.201672   0.000000
    6        3.541811   0.000000
    7        4.242197   0.000000
    8        4.413992   0.000000
 
  0.4500000E+00  0.1500000E+00  0.0000000E+00  0.5000000E-02
    1      -19.646463   1.000000
    2      -14.195817   1.000000
    3      -11.227129   1.000000
    4       -7.131710   1.000000
    5       -0.041937   0.000000
    6        4.657366   0.000000
    7        5.367762   0.000000
    8        5.573129   0.000000
 
  0.5000000E+00  0.1500000E+00  0.0000000E+00  0.5000000E-02
    1      -18.770418   1.000000
    2      -15.367033   1.000000
    3      -11.486141   1.000000
    4       -6.269766   1.000000
    5       -1.177854   0.000000
    6        5.883654   0.000000
    7        6.080227   0.000000
    8        6.617397   0.000000
 
 -0.4500000E+00  0.1500000E+00  0.0000000E+00  0.5000000E-02
    1      -17.896405   1.000000
    2      -16.397544   1.000000
    3      -11.615910   1.000000
    4       -5.620876   1.000000
    5       -1.971001   0.000000
    6        5.960273   0.000000
    7        7.329389   0.000000
    8        7.842775   0.000000
 
 -0.4000000E+00  0.1500000E+00  0.0000000E+00  0.5000000E-02
    1      -17.896671   1.000000
    2      -16.397133   1.000000
    3      -11.616019   1.000000
    4       -5.621066   1.000000
    5       -1.970720   0.000000
    6        5.960244   0.000000
    7        7.329168   0.000000
    8        7.842430   0.000000
 
 -0.3500000E+00  0.1500000E+00  0.0000000E+00  0.5000000E-02
    1      -18.770672   1.000000
    2      -15.366345   1.000000
    3      -11.486476   1.000000
    4       -6.270133   1.000000
    5       -1.177222   0.000000
    6        5.883153   0.000000
    7        6.080491   0.000000
    8        6.617103   0.000000
 
 -0.3000000E+00  0.1500000E+00  0.0000000E+00  0.5000000E-02
    1      -19.646677   1.000000
    2      -14.194920   1.000000
    3      -11.227680   1.000000
    4       -7.132090   1.000000
    5       -0.041147   0.000000
    6        4.657144   0.000000
    7        5.367538   0.000000
    8        5.572963   0.000000
 
 -0.2500000E+00  0.1500000E+00  0.0000000E+00  0.5000000E-02
    1      -20.437277   1.000000
    2      -12.999565   1.000000
    3      -10.832746   1.000000
    4       -7.989516   1.000000
    5        1.202543   0.000000
    6        3.541627   0.000000
    7        4.242016   0.000000
    8        4.413849   0.000000
 
 -0.2000000E+00  0.1500000E+00  0.0000000E+00  0.5000000E-02
    1      -21.125952   1.000000
    2      -11.851530   1.000000
    3      -10.284181   1.000000
    4       -8.768724   1.000000
    5        2.449601   0.000000
    6        2.579592   0.000000
    7        3.267381   0.000000
    8        3.420159   0.000000
 
 -0.1500000E+00  0.1500000E+00  0.0000000E+00  0.2500000E-02
    1      -21.705853   1.000000
    2      -10.834749   1.000000
    3       -9.575326   1.000000
    4       -9.439768   1.000000
    5        1.775070   0.000000
    6        2.449510   0.000000
    7        2.592023   0.000000
    8        2.678681   0.000000
 
  0.2000000E+00  0.2000000E+00  0.0000000E+00  0.2500000E-02
    1      -22.349724   1.000000
    2      -10.194449   1.000000
    3       -9.815351   1.000000
    4       -8.189231   1.000000
    5        0.887289   0.000000
    6        1.548334   0.000000
    7        1.681126   0.000000
    8        1.770726   0.000000
 
  0.2500000E+00  0.2000000E+00  0.0000000E+00  0.5000000E-02
    1      -22.056282   1.000000
    2      -10.473045   1.000000
    3       -9.849004   1.000000
    4       -8.633269   1.000000
    5        1.290642   0.000000
    6        1.957557   0.000000
    7        2.095220   0.000000
    8        2.183262   0.000000
 
  0.3000000E+00  0.2000000E+00  0.0000000E+00  0.5000000E-02
    1      -21.647713   1.000000
    2      -11.155221   1.000000
    3       -9.377285   1.000000
    4       -9.372175   1.000000
    5        1.855151   0.000000
    6        2.527978   0.000000
    7        2.674945   0.000000
    8        2.759969   0.000000
 
  0.3500000E+00  0.2000000E+00  0.0000000E+00  0.5000000E-02
    1      -21.125761   1.000000
    2      -11.852526   1.000000
    3      -10.283587   1.000000
    4       -8.768352   1.000000
    5        2.448579   0.000000
    6        2.579779   0.000000
    7        3.267526   0.000000
    8        3.420305   0.000000
 
  0.4000000E+00  0.2000000E+00  0.0000000E+00  0.5000000E-02
    1      -20.494178   1.000000
    2      -12.631712   1.000000
    3      -11.156555   1.000000
    4       -8.049005   1.000000
    5        1.362315   0.000000
    6        3.462404   0.000000
    7        4.155164   0.000000
    8        4.331236   0.000000
 
  0.4500000E+00  0.2000000E+00  0.0000000E+00  0.5000000E-02
    1      -19.758479   1.000000
    2      -13.576007   1.000000
    3      -11.816581   1.000000
    4       -7.230122   1.000000
    5        0.238223   0.000000
    6        4.499878   0.000000
    7        5.190641   0.000000
    8        5.407713   0.000000
 
  0.5000000E+00  0.2000000E+00  0.0000000E+00  0.5000000E-02
    1      -18.929772   1.000000
    2      -14.645403   1.000000
    3      -12.236586   1.000000
    4       -6.357324   1.000000
    5       -0.874915   0.000000
    6        5.685570   0.000000
    7        6.329869   0.000000
    8        6.649540   0.000000
 
 -0.4500000E+00  0.2000000E+00  0.0000000E+00  0.5000000E-02
    1      -18.042879   1.000000
    2      -15.710290   1.000000
    3      -12.471307   1.000000
    4       -5.542490   1.000000
    5       -1.847442   0.000000
    6        6.993034   0.000000
    7        7.358006   0.000000
    8        7.373692   0.000000
 
 -0.4000000E+00  0.2000000E+00  0.0000000E+00  0.5000000E-02
    1      -17.407386   1.000000
    2      -16.411487   1.000000
    3      -12.547451   1.000000
    4       -5.137728   1.000000
    5       -2.305753   0.000000
    6        7.310334   0.000000
    7        7.731449   0.000000
    8        8.327284   0.000000
 
 -0.3500000E+00  0.2000000E+00  0.0000000E+00  0.5000000E-02
    1      -18.043298   1.000000
    2      -15.709481   1.000000
    3      -12.471603   1.000000
    4       -5.542972   1.000000
    5       -1.846732   0.000000
    6        6.992445   0.000000
    7        7.357498   0.000000
    8        7.373901   0.000000
 
 -0.3000000E+00  0.2000000E+00  0.0000000E+00  0.5000000E-02
    1      -18.930096   1.000000
    2      -14.644296   1.000000
    3      -12.237198   1.000000
    4       -6.357891   1.000000
    5       -0.873917   0.000000
    6        5.685263   0.000000
    7        6.329478   0.000000
    8        6.649305   0.000000
 
 -0.2500000E+00  0.2000000E+00  0.0000000E+00  0.5000000E-02
    1      -19.758749   1.000000
    2      -13.574613   1.000000
    3      -11.817485   1.000000
    4       -7.230646   1.000000
    5        0.239331   0.000000
    6        4.499627   0.000000
    7        5.190362   0.000000
    8        5.407508   0.000000
 
 -0.2000000E+00  0.2000000E+00  0.0000000E+00  0.2500000E-02
    1      -20.494408   1.000000
    2      -12.630323   1.000000
    3      -11.157517   1.000000
    4       -8.049456   1.000000
    5        1.363437   0.000000
    6        3.462186   0.000000
    7        4.154953   0.000000
    8        4.331060   0.000000
 
  0.2500000E+00  0.2500000E+00  0.0000000E+00  0.2500000E-02
    1      -21.822342   1.000000
    2      -11.114938   1.000000
    3       -9.576207   1.000000
    4       -8.713471   1.000000
    5        1.612224   0.000000
    6        2.281353   0.000000
    7        2.426474   0.000000
    8        2.512012   0.000000
 
  0.3000000E+00  0.2500000E+00  0.0000000E+00  0.5000000E-02
    1      -21.472966   1.000000
    2      -11.777019   1.000000
    3       -9.171921   1.000000
    4       -9.146881   1.000000
    5        2.095222   0.000000
    6        2.725466   0.000000
    7        2.923366   0.000000
    8        2.965625   0.000000
 
  0.3500000E+00  0.2500000E+00  0.0000000E+00  0.5000000E-02
    1      -21.010090   1.000000
    2      -12.409386   1.000000
    3       -9.891200   1.000000
    4       -8.639039   1.000000
    5        2.119066   0.000000
    6        2.739181   0.000000
    7        3.440920   0.000000
    8        3.585913   0.000000
 
  0.4000000E+00  0.2500000E+00  0.0000000E+00  0.5000000E-02
    1      -20.437008   1.000000
    2      -13.000251   1.000000
    3      -10.832677   1.000000
    4       -7.988951   1.000000
    5        1.201300   0.000000
    6        3.541879   0.000000
    7        4.242234   0.000000
    8        4.414051   0.000000
 
  0.4500000E+00  0.2500000E+00  0.0000000E+00  0.5000000E-02
    1      -19.758427   1.000000
    2      -13.575748   1.000000
    3      -11.817010   1.000000
    4       -7.229972   1.000000
    5        0.237974   0.000000
    6        4.499914   0.000000
    7        5.190664   0.000000
    8        5.407746   0.000000
 
  0.5000000E+00  0.2500000E+00  0.0000000E+00  0.5000000E-02
    1      -18.983517   1.000000
    2      -14.235321   1.000000
    3      -12.661047   1.000000
    4       -6.389709   1.000000
    5       -0.755404   0.000000
    6        5.606965   0.000000
    7        6.227377   0.000000
    8        6.566847   0.000000
 
 -0.4500000E+00  0.2500000E+00  0.0000000E+00  0.5000000E-02
    1      -18.133147   1.000000
    2      -15.068505   1.000000
    3      -13.192755   1.000000
    4       -5.518115   1.000000
    5       -1.732180   0.000000
    6        6.846886   0.000000
    7        7.063743   0.000000
    8        7.911949   0.000000
 
 -0.4000000E+00  0.2500000E+00  0.0000000E+00  0.5000000E-02
    1      -17.285079   1.000000
    2      -15.950847   1.000000
    3      -13.423934   1.000000
    4       -4.786381   1.000000
    5       -2.514003   0.000000
    6        7.292387   0.000000
    7        8.168828   0.000000
    8        8.722599   0.000000
 
 -0.3500000E+00  0.2500000E+00  0.0000000E+00  0.5000000E-02
    1      -17.285634   1.000000
    2      -15.950027   1.000000
    3      -13.424143   1.000000
    4       -4.786890   1.000000
    5       -2.513355   0.000000
    6        7.292099   0.000000
    7        8.167990   0.000000
    8        8.723224   0.000000
 
 -0.3000000E+00  0.2500000E+00  0.0000000E+00  0.5000000E-02
    1      -18.133684   1.000000
    2      -15.067199   1.000000
    3      -13.193360   1.000000
    4       -5.518933   1.000000
    5       -1.730974   0.000000
    6        6.846435   0.000000
    7        7.063094   0.000000
    8        7.911632   0.000000
 
 -0.2500000E+00  0.2500000E+00  0.0000000E+00  0.2500000E-02
    1      -18.983910   1.000000
    2      -14.233882   1.000000
    3      -12.661824   1.000000
    4       -6.390486   1.000000
    5       -0.754051   0.000000
    6        5.606630   0.000000
    7        6.226925   0.000000
    8        6.566584   0.000000
 
  0.3000000E+00  0.3000000E+00  0.0000000E+00  0.2500000E-02
    1      -21.182914   1.000000
    2      -12.450855   1.000000
    3       -9.185920   1.000000
    4       -8.841375   1.000000
    5        2.299251   0.000000
    6        2.495319   0.000000
    7        3.213195   0.000000
    8        3.337370   0.000000
 
  0.3500000E+00  0.3000000E+00  0.0000000E+00  0.5000000E-02
    1      -20.779464   1.000000
    2      -13.098396   1.000000
    3       -9.585295   1.000000
    4       -8.387900   1.000000
    5        1.562270   0.000000
    6        3.056303   0.000000
    7        3.773569   0.000000
    8        3.916936   0.000000
 
  0.4000000E+00  0.3000000E+00  0.0000000E+00  0.5000000E-02
    1      -20.265551   1.000000
    2      -13.682618   1.000000
    3      -10.301666   1.000000
    4       -7.811652   1.000000
    5        0.771709   0.000000
    6        3.778497   0.000000
    7        4.497645   0.000000
    8        4.662249   0.000000
 
  0.4500000E+00  0.3000000E+00  0.0000000E+00  0.5000000E-02
    1      -19.646304   1.000000
    2      -14.195478   1.000000
    3      -11.227987   1.000000
    4       -7.131252   1.000000
    5       -0.042651   0.000000
    6        4.657474   0.000000
    7        5.367836   0.000000
    8        5.573228   0.000000
 
  0.5000000E+00  0.3000000E+00  0.0000000E+00  0.5000000E-02
    1      -18.929628   1.000000
    2      -14.645153   1.000000
    3      -12.237197   1.000000
    4       -6.356887   1.000000
    5       -0.875560   0.000000
    6        5.685641   0.000000
    7        6.329924   0.000000
    8        6.649612   0.000000
 