Automatically generated mesh
     222
Reciprocal lattice
    0.00000000000000    0.00000000000000    0.00000000000000             1
    0.05000000000000    0.00000000000000    0.00000000000000             4
    0.10000000000000    0.00000000000000    0.00000000000000             4
    0.15000000000000    0.00000000000000    0.00000000000000             4
    0.20000000000000    0.00000000000000    0.00000000000000             4
    0.25000000000000    0.00000000000000    0.00000000000000             4
    0.30000000000000    0.00000000000000    0.00000000000000             4
    0.35000000000000    0.00000000000000    0.00000000000000             4
    0.40000000000000    0.00000000000000    0.00000000000000             4
    0.45000000000000    0.00000000000000    0.00000000000000             4
    0.50000000000000    0.00000000000000    0.00000000000000             2
    0.05000000000000    0.05000000000000    0.00000000000000             2
    0.10000000000000    0.05000000000000    0.00000000000000             4
    0.15000000000000    0.05000000000000    0.00000000000000             4
    0.20000000000000    0.05000000000000    0.00000000000000             4
    0.25000000000000    0.05000000000000    0.00000000000000             4
    0.30000000000000    0.05000000000000    0.00000000000000             4
    0.35000000000000    0.05000000000000    0.00000000000000             4
    0.40000000000000    0.05000000000000    0.00000000000000             4
    0.45000000000000    0.05000000000000    0.00000000000000             4
    0.50000000000000    0.05000000000000    0.00000000000000             4
   -0.45000000000000    0.05000000000000    0.00000000000000             4
   -0.40000000000000    0.05000000000000    0.00000000000000             4
   -0.35000000000000    0.05000000000000    0.00000000000000             4
   -0.30000000000000    0.05000000000000    0.00000000000000             4
   -0.25000000000000    0.05000000000000    0.00000000000000             4
   -0.20000000000000    0.05000000000000    0.00000000000000             4
   -0.15000000000000    0.05000000000000    0.00000000000000             4
   -0.10000000000000    0.05000000000000    0.00000000000000             4
   -0.05000000000000    0.05000000000000    0.00000000000000             2
    0.10000000000000    0.10000000000000    0.00000000000000             2
    0.15000000000000    0.10000000000000    0.00000000000000             4
    0.20000000000000    0.10000000000000    0.00000000000000             4
    0.25000000000000    0.10000000000000    0.00000000000000             4
    0.30000000000000    0.10000000000000    0.00000000000000             4
    0.35000000000000    0.10000000000000    0.00000000000000             4
    0.40000000000000    0.10000000000000    0.00000000000000             4
    0.45000000000000    0.10000000000000    0.00000000000000             4
    0.50000000000000    0.10000000000000    0.00000000000000             4
   -0.45000000000000    0.10000000000000    0.00000000000000             4
   -0.40000000000000    0.10000000000000    0.00000000000000             4
   -0.35000000000000    0.10000000000000    0.00000000000000             4
   -0.30000000000000    0.10000000000000    0.00000000000000             4
   -0.25000000000000    0.10000000000000    0.00000000000000             4
   -0.20000000000000    0.10000000000000    0.00000000000000             4
   -0.15000000000000    0.10000000000000    0.00000000000000             4
   -0.10000000000000    0.10000000000000    0.00000000000000             2
    0.15000000000000    0.15000000000000    0.00000000000000             2
    0.20000000000000    0.15000000000000    0.00000000000000             4
    0.25000000000000    0.15000000000000    0.00000000000000             4
    0.30000000000000    0.15000000000000    0.00000000000000             4
    0.35000000000000    0.15000000000000    0.00000000000000             4
    0.40000000000000    0.15000000000000    0.00000000000000             4
    0.45000000000000    0.15000000000000    0.00000000000000             4
    0.50000000000000    0.15000000000000    0.00000000000000             4
   -0.45000000000000    0.15000000000000    0.00000000000000             4
   -0.40000000000000    0.15000000000000    0.00000000000000             4
   -0.35000000000000    0.15000000000000    0.00000000000000             4
   -0.30000000000000    0.15000000000000    0.00000000000000             4
   -0.25000000000000    0.15000000000000    0.00000000000000             4
   -0.20000000000000    0.15000000000000    0.00000000000000             4
   -0.15000000000000    0.15000000000000    0.00000000000000             2
    0.20000000000000    0.20000000000000    0.00000000000000             2
    0.25000000000000    0.20000000000000    0.00000000000000             4
    0.30000000000000    0.20000000000000    0.00000000000000             4
    0.35000000000000    0.20000000000000    0.00000000000000             4
    0.40000000000000    0.20000000000000    0.00000000000000             4
    0.45000000000000    0.20000000000000    0.00000000000000             4
    0.50000000000000    0.20000000000000    0.00000000000000             4
   -0.45000000000000    0.20000000000000    0.00000000000000             4
   -0.40000000000000    0.20000000000000    0.00000000000000             4
   -0.35000000000000    0.20000000000000    0.00000000000000             4
   -0.30000000000000    0.20000000000000    0.00000000000000             4
   -0.25000000000000    0.20000000000000    0.00000000000000             4
   -0.20000000000000    0.20000000000000    0.00000000000000             2
    0.25000000000000    0.25000000000000    0.00000000000000             2
    0.30000000000000    0.25000000000000    0.00000000000000             4
    0.35000000000000    0.25000000000000    0.00000000000000             4
    0.40000000000000    0.25000000000000    0.00000000000000             4
    0.45000000000000    0.25000000000000    0.00000000000000             4
    0.50000000000000    0.25000000000000    0.00000000000000             4
   -0.45000000000000    0.25000000000000    0.00000000000000             4
   -0.40000000000000    0.25000000000000    0.00000000000000             4
   -0.35000000000000    0.25000000000000    0.00000000000000             4
   -0.30000000000000    0.25000000000000    0.00000000000000             4
   -0.25000000000000    0.25000000000000    0.00000000000000             2
    0.30000000000000    0.30000000000000    0.00000000000000             2
    0.35000000000000    0.30000000000000    0.00000000000000             4
    0.40000000000000    0.30000000000000    0.00000000000000             4
    0.45000000000000    0.30000000000000    0.00000000000000             4
    0.50000000000000    0.30000000000000    0.00000000000000             4
   -0.45000000000000    0.30000000000000    0.00000000000000             4
   -0.40000000000000    0.30000000000000    0.00000000000000             4
   -0.35000000000000    0.30000000000000    0.00000000000000             4
   -0.30000000000000    0.30000000000000    0.00000000000000             2
    0.35000000000000    0.35000000000000    0.00000000000000             2
    0.40000000000000    0.35000000000000    0.00000000000000             4
    0.45000000000000    0.35000000000000    0.00000000000000             4
    0.50000000000000    0.35000000000000    0.00000000000000             4
   -0.45000000000000    0.35000000000000    0.00000000000000             4
   -0.40000000000000    0.35000000000000    0.00000000000000             4
   -0.35000000000000    0.35000000000000    0.00000000000000             2
    0.40000000000000    0.40000000000000    0.00000000000000             2
    0.45000000000000    0.40000000000000    0.00000000000000             4
    0.50000000000000    0.40000000000000    0.00000000000000             4
   -0.45000000000000    0.40000000000000    0.00000000000000             4
   -0.40000000000000    0.40000000000000    0.00000000000000             2
    0.45000000000000    0.45000000000000    0.00000000000000             2
    0.50000000000000    0.45000000000000    0.00000000000000             4
   -0.45000000000000    0.45000000000000    0.00000000000000             2
    0.50000000000000    0.50000000000000    0.00000000000000             1
    0.00000000000000    0.00000000000000    0.50000000000000             1
    0.05000000000000    0.00000000000000    0.50000000000000             4
    0.10000000000000    0.00000000000000    0.50000000000000             4
    0.15000000000000    0.00000000000000    0.50000000000000             4
    0.20000000000000    0.00000000000000    0.50000000000000             4
    0.25000000000000    0.00000000000000    0.50000000000000             4
    0.30000000000000    0.00000000000000    0.50000000000000             4
    0.35000000000000    0.00000000000000    0.50000000000000             4
    0.40000000000000    0.00000000000000    0.50000000000000             4
    0.45000000000000    0.00000000000000    0.50000000000000             4
    0.50000000000000    0.00000000000000    0.50000000000000             2
    0.05000000000000    0.05000000000000    0.50000000000000             2
    0.10000000000000    0.05000000000000    0.50000000000000             4
    0.15000000000000    0.05000000000000    0.50000000000000             4
    0.20000000000000    0.05000000000000    0.50000000000000             4
    0.25000000000000    0.05000000000000    0.50000000000000             4
    0.30000000000000    0.05000000000000    0.50000000000000             4
    0.35000000000000    0.05000000000000    0.50000000000000             4
    0.40000000000000    0.05000000000000    0.50000000000000             4
    0.45000000000000    0.05000000000000    0.50000000000000             4
    0.50000000000000    0.05000000000000    0.50000000000000             4
   -0.45000000000000    0.05000000000000    0.50000000000000             4
   -0.40000000000000    0.05000000000000    0.50000000000000             4
   -0.35000000000000    0.05000000000000    0.50000000000000             4
   -0.30000000000000    0.05000000000000    0.50000000000000             4
   -0.25000000000000    0.05000000000000    0.50000000000000             4
   -0.20000000000000    0.05000000000000    0.50000000000000             4
   -0.15000000000000    0.05000000000000    0.50000000000000             4
   -0.10000000000000    0.05000000000000    0.50000000000000             4
   -0.05000000000000    0.05000000000000    0.50000000000000             2
    0.10000000000000    0.10000000000000    0.50000000000000             2
    0.15000000000000    0.10000000000000    0.50000000000000             4
    0.20000000000000    0.10000000000000    0.50000000000000             4
    0.25000000000000    0.10000000000000    0.50000000000000             4
    0.30000000000000    0.10000000000000    0.50000000000000             4
    0.35000000000000    0.10000000000000    0.50000000000000             4
    0.40000000000000    0.10000000000000    0.50000000000000             4
    0.45000000000000    0.10000000000000    0.50000000000000             4
    0.50000000000000    0.10000000000000    0.50000000000000             4
   -0.45000000000000    0.10000000000000    0.50000000000000             4
   -0.40000000000000    0.10000000000000    0.50000000000000             4
   -0.35000000000000    0.10000000000000    0.50000000000000             4
   -0.30000000000000    0.10000000000000    0.50000000000000             4
   -0.25000000000000    0.10000000000000    0.50000000000000             4
   -0.20000000000000    0.10000000000000    0.50000000000000             4
   -0.15000000000000    0.10000000000000    0.50000000000000             4
   -0.10000000000000    0.10000000000000    0.50000000000000             2
    0.15000000000000    0.15000000000000    0.50000000000000             2
    0.20000000000000    0.15000000000000    0.50000000000000             4
    0.25000000000000    0.15000000000000    0.50000000000000             4
    0.30000000000000    0.15000000000000    0.50000000000000             4
    0.35000000000000    0.15000000000000    0.50000000000000             4
    0.40000000000000    0.15000000000000    0.50000000000000             4
    0.45000000000000    0.15000000000000    0.50000000000000             4
    0.50000000000000    0.15000000000000    0.50000000000000             4
   -0.45000000000000    0.15000000000000    0.50000000000000             4
   -0.40000000000000    0.15000000000000    0.50000000000000             4
   -0.35000000000000    0.15000000000000    0.50000000000000             4
   -0.30000000000000    0.15000000000000    0.50000000000000             4
   -0.25000000000000    0.15000000000000    0.50000000000000             4
   -0.20000000000000    0.15000000000000    0.50000000000000             4
   -0.15000000000000    0.15000000000000    0.50000000000000             2
    0.20000000000000    0.20000000000000    0.50000000000000             2
    0.25000000000000    0.20000000000000    0.50000000000000             4
    0.30000000000000    0.20000000000000    0.50000000000000             4
    0.35000000000000    0.20000000000000    0.50000000000000             4
    0.40000000000000    0.20000000000000    0.50000000000000             4
    0.45000000000000    0.20000000000000    0.50000000000000             4
    0.50000000000000    0.20000000000000    0.50000000000000             4
   -0.45000000000000    0.20000000000000    0.50000000000000             4
   -0.40000000000000    0.20000000000000    0.50000000000000             4
   -0.35000000000000    0.20000000000000    0.50000000000000             4
   -0.30000000000000    0.20000000000000    0.50000000000000             4
   -0.25000000000000    0.20000000000000    0.50000000000000             4
   -0.20000000000000    0.20000000000000    0.50000000000000             2
    0.25000000000000    0.25000000000000    0.50000000000000             2
    0.30000000000000    0.25000000000000    0.50000000000000             4
    0.35000000000000    0.25000000000000    0.50000000000000             4
    0.40000000000000    0.25000000000000    0.50000000000000             4
    0.45000000000000    0.25000000000000    0.50000000000000             4
    0.50000000000000    0.25000000000000    0.50000000000000             4
   -0.45000000000000    0.25000000000000    0.50000000000000             4
   -0.40000000000000    0.25000000000000    0.50000000000000             4
   -0.35000000000000    0.25000000000000    0.50000000000000             4
   -0.30000000000000    0.25000000000000    0.50000000000000             4
   -0.25000000000000    0.25000000000000    0.50000000000000             2
    0.30000000000000    0.30000000000000    0.50000000000000             2
    0.35000000000000    0.30000000000000    0.50000000000000             4
    0.40000000000000    0.30000000000000    0.50000000000000             4
    0.45000000000000    0.30000000000000    0.50000000000000             4
    0.50000000000000    0.30000000000000    0.50000000000000             4
   -0.45000000000000    0.30000000000000    0.50000000000000             4
   -0.40000000000000    0.30000000000000    0.50000000000000             4
   -0.35000000000000    0.30000000000000    0.50000000000000             4
   -0.30000000000000    0.30000000000000    0.50000000000000             2
    0.35000000000000    0.35000000000000    0.50000000000000             2
    0.40000000000000    0.35000000000000    0.50000000000000             4
    0.45000000000000    0.35000000000000    0.50000000000000             4
    0.50000000000000    0.35000000000000    0.50000000000000             4
   -0.45000000000000    0.35000000000000    0.50000000000000             4
   -0.40000000000000    0.35000000000000    0.50000000000000             4
   -0.35000000000000    0.35000000000000    0.50000000000000             2
    0.40000000000000    0.40000000000000    0.50000000000000             2
    0.45000000000000    0.40000000000000    0.50000000000000             4
    0.50000000000000    0.40000000000000    0.50000000000000             4
   -0.45000000000000    0.40000000000000    0.50000000000000             4
   -0.40000000000000    0.40000000000000    0.50000000000000             2
    0.45000000000000    0.45000000000000    0.50000000000000             2
    0.50000000000000    0.45000000000000    0.50000000000000             4
   -0.45000000000000    0.45000000000000    0.50000000000000             2
    0.50000000000000    0.50000000000000    0.50000000000000             1
Tetrahedra
      1200    0.00020833333333
         4         1         2        12       112
         4         2        12       112       113
         4        12       112       113       123
         4         2         3        13       113
         4         2        12        13       113
         4        12        13       113       123
         4         3        13       113       114
         4        13       113       114       124
         4        13       113       123       124
         4         3         4        14       114
         4         3        13        14       114
         4        13        14       114       124
         4         4        14       114       115
         4        14       114       115       125
         4        14       114       124       125
         4         4         5        15       115
         4         4        14        15       115
         4        14        15       115       125
         4         5        15       115       116
         4        15       115       116       126
         4        15       115       125       126
         4         5         6        16       116
         4         5        15        16       116
         4        15        16       116       126
         4         6        16       116       117
         4        16       116       117       127
         4        16       116       126       127
         4         6         7        17       117
         4         6        16        17       117
         4        16        17       117       127
         4         7        17       117       118
         4        17       117       118       128
         4        17       117       127       128
         4         7         8        18       118
         4         7        17        18       118
         4        17        18       118       128
         4         8        18       118       119
         4        18       118       119       129
         4        18       118       128       129
         4         8         9        19       119
         4         8        18        19       119
         4        18        19       119       129
         4         9        19       119       120
         4        19       119       120       130
         4        19       119       129       130
         4         9        10        20       120
         4         9        19        20       120
         4        19        20       120       130
         4        10        20       120       121
         4        20       120       121       131
         4        20       120       130       131
         4        10        11        21       121
         4        10        20        21       121
         4        20        21       121       131
         4        11        21       121       122
         4        21       121       122       132
         4        21       121       131       132
         4        10        11        22       122
         4        11        21        22       122
         4        21        22       122       132
         4        10        22       121       122
         4        22       121       122       133
         4        22       122       132       133
         4         9        10        23       121
         4        10        22        23       121
         4        22        23       121       133
         4         9        23       120       121
         4        23       120       121       134
         4        23       121       133       134
         4         8         9        24       120
         4         9        23        24       120
         4        23        24       120       134
         4         8        24       119       120
         4        24       119       120       135
         4        24       120       134       135
         4         7         8        25       119
         4         8        24        25       119
         4        24        25       119       135
         4         7        25       118       119
         4        25       118       119       136
         4        25       119       135       136
         4         6         7        26       118
         4         7        25        26       118
         4        25        26       118       136
         4         6        26       117       118
         4        26       117       118       137
         4        26       118       136       137
         4         5         6        27       117
         4         6        26        27       117
         4        26        27       117       137
         4         5        27       116       117
         4        27       116       117       138
         4        27       117       137       138
         4         4         5        28       116
         4         5        27        28       116
         4        27        28       116       138
         4         4        28       115       116
         4        28       115       116       139
         4        28       116       138       139
         4         3         4        29       115
         4         4        28        29       115
         4        28        29       115       139
         4         3        29       114       115
         4        29       114       115       140
         4        29       115       139       140
         4         2         3        30       114
         4         3        29        30       114
         4        29        30       114       140
         4         2        30       113       114
         4        30       113       114       141
         4        30       114       140       141
         4         1         2         2       113
         4         2         2        30       113
         4         2        30       113       141
         4         1         2       112       113
         4         2       112       113       113
         4         2       113       113       141
         4        12        13        31       123
         4        13        31       123       124
         4        31       123       124       142
         4        13        14        32       124
         4        13        31        32       124
         4        31        32       124       142
         4        14        32       124       125
         4        32       124       125       143
         4        32       124       142       143
         4        14        15        33       125
         4        14        32        33       125
         4        32        33       125       143
         4        15        33       125       126
         4        33       125       126       144
         4        33       125       143       144
         4        15        16        34       126
         4        15        33        34       126
         4        33        34       126       144
         4        16        34       126       127
         4        34       126       127       145
         4        34       126       144       145
         4        16        17        35       127
         4        16        34        35       127
         4        34        35       127       145
         4        17        35       127       128
         4        35       127       128       146
         4        35       127       145       146
         4        17        18        36       128
         4        17        35        36       128
         4        35        36       128       146
         4        18        36       128       129
         4        36       128       129       147
         4        36       128       146       147
         4        18        19        37       129
         4        18        36        37       129
         4        36        37       129       147
         4        19        37       129       130
         4        37       129       130       148
         4        37       129       147       148
         4        19        20        38       130
         4        19        37        38       130
         4        37        38       130       148
         4        20        38       130       131
         4        38       130       131       149
         4        38       130       148       149
         4        20        21        39       131
         4        20        38        39       131
         4        38        39       131       149
         4        21        39       131       132
         4        39       131       132       150
         4        39       131       149       150
         4        21        22        40       132
         4        21        39        40       132
         4        39        40       132       150
         4        22        40       132       133
         4        40       132       133       151
         4        40       132       150       151
         4        22        23        41       133
         4        22        40        41       133
         4        40        41       133       151
         4        23        41       133       134
         4        41       133       134       152
         4        41       133       151       152
         4        23        24        42       134
         4        23        41        42       134
         4        41        42       134       152
         4        24        42       134       135
         4        42       134       135       153
         4        42       134       152       153
         4        24        25        43       135
         4        24        42        43       135
         4        42        43       135       153
         4        25        43       135       136
         4        43       135       136       154
         4        43       135       153       154
         4        25        26        44       136
         4        25        43        44       136
         4        43        44       136       154
         4        26        44       136       137
         4        44       136       137       155
         4        44       136       154       155
         4        26        27        45       137
         4        26        44        45       137
         4        44        45       137       155
         4        27        45       137       138
         4        45       137       138       156
         4        45       137       155       156
         4        27        28        46       138
         4        27        45        46       138
         4        45        46       138       156
         4        28        46       138       139
         4        46       138       139       157
         4        46       138       156       157
         4        28        29        47       139
         4        28        46        47       139
         4        46        47       139       157
         4        29        47       139       140
         4        47       139       140       158
         4        47       139       157       158
         4        29        29        30       140
         4        29        29        47       140
         4        29        47       140       158
         4        29        30       140       141
         4        29       140       140       141
         4        29       140       140       158
         4         2         3        30       141
         4         3        29        30       141
         4         3        29       140       141
         4         2         3       113       141
         4         3       113       114       141
         4         3       114       140       141
         4        31        32        48       142
         4        32        48       142       143
         4        48       142       143       159
         4        32        33        49       143
         4        32        48        49       143
         4        48        49       143       159
         4        33        49       143       144
         4        49       143       144       160
         4        49       143       159       160
         4        33        34        50       144
         4        33        49        50       144
         4        49        50       144       160
         4        34        50       144       145
         4        50       144       145       161
         4        50       144       160       161
         4        34        35        51       145
         4        34        50        51       145
         4        50        51       145       161
         4        35        51       145       146
         4        51       145       146       162
         4        51       145       161       162
         4        35        36        52       146
         4        35        51        52       146
         4        51        52       146       162
         4        36        52       146       147
         4        52       146       147       163
         4        52       146       162       163
         4        36        37        53       147
         4        36        52        53       147
         4        52        53       147       163
         4        37        53       147       148