<?xml version="1.0" encoding="ISO-8859-1"?>
<modeling>
 <generator>
  <i name="program" type="string">vasp </i>
  <i name="version" type="string">5.4.4.18Apr17-6-g9f103f2a35  </i>
  <i name="subversion" type="string">(build May 20 2018 16:52:39) complex            parallel </i>
  <i name="platform" type="string">LinuxIFC </i>
  <i name="date" type="string">2022 11 04 </i>
  <i name="time" type="string">19:29:57 </i>
 </generator>
 <incar>
  <i type="string" name="SYSTEM"> graphene (single layer)</i>
  <i type="string" name="PREC">normal</i>
  <i name="EDIFF">      0.00000100</i>
  <i name="ENCUT">    300.00000000</i>
  <i type="int" name="ISMEAR">    -5</i>
  <v type="int" name="KPOINT_BSE">    -1     0     0     0</v>
 </incar>
 <structure name="primitive_cell" >
  <crystal>
   <varray name="basis" >
    <v>       2.13036000      -1.23000000       0.00000000 </v>
    <v>       2.13036000       1.23000000       0.00000000 </v>
    <v>       0.00000000       0.00000000      49.20000000 </v>
   </varray>
   <i name="volume">    257.84173152 </i>
   <varray name="rec_basis" >
    <v>       0.23470212      -0.40650407       0.00000000 </v>
    <v>       0.23470212       0.40650407       0.00000000 </v>
    <v>       0.00000000       0.00000000       0.02032520 </v>
   </varray>
  </crystal>
  <varray name="positions" >
   <v>       0.00000000       0.00000000       0.00000000 </v>
   <v>      -0.33330000      -0.33330000       0.00000000 </v>
  </varray>
 </structure>
 <varray name="primitive_index" >
  <v type="int" >        1 </v>
  <v type="int" >        2 </v>
 </varray>
 <kpoints>
  <generation param="Gamma">
   <v type="int" name="divisions">      20       20        2 </v>
   <v name="usershift">      0.00000000       0.00000000       0.00000000 </v>
   <v name="genvec1">      0.05000000       0.00000000       0.00000000 </v>
   <v name="genvec2">      0.00000000       0.05000000       0.00000000 </v>
   <v name="genvec3">      0.00000000       0.00000000       0.50000000 </v>
   <v name="shift">      0.00000000       0.00000000       0.00000000 </v>
  </generation>
  <varray name="kpointlist" >
   <v>       0.00000000       0.00000000       0.00000000 </v>
   <v>       0.05000000       0.00000000       0.00000000 </v>
   <v>       0.10000000       0.00000000       0.00000000 </v>
   <v>       0.15000000       0.00000000       0.00000000 </v>
   <v>       0.20000000       0.00000000       0.00000000 </v>
   <v>       0.25000000       0.00000000       0.00000000 </v>
   <v>       0.30000000       0.00000000       0.00000000 </v>
   <v>       0.35000000       0.00000000       0.00000000 </v>
   <v>       0.40000000       0.00000000       0.00000000 </v>
   <v>       0.45000000       0.00000000       0.00000000 </v>
   <v>       0.50000000       0.00000000       0.00000000 </v>
   <v>       0.05000000       0.05000000       0.00000000 </v>
   <v>       0.10000000       0.05000000       0.00000000 </v>
   <v>       0.15000000       0.05000000       0.00000000 </v>
   <v>       0.20000000       0.05000000       0.00000000 </v>
   <v>       0.25000000       0.05000000       0.00000000 </v>
   <v>       0.30000000       0.05000000       0.00000000 </v>
   <v>       0.35000000       0.05000000       0.00000000 </v>
   <v>       0.40000000       0.05000000       0.00000000 </v>
   <v>       0.45000000       0.05000000       0.00000000 </v>
   <v>       0.50000000       0.05000000       0.00000000 </v>
   <v>      -0.45000000       0.05000000       0.00000000 </v>
   <v>      -0.40000000       0.05000000       0.00000000 </v>
   <v>      -0.35000000       0.05000000       0.00000000 </v>
   <v>      -0.30000000       0.05000000       0.00000000 </v>
   <v>      -0.25000000       0.05000000       0.00000000 </v>
   <v>      -0.20000000       0.05000000       0.00000000 </v>
   <v>      -0.15000000       0.05000000       0.00000000 </v>
   <v>      -0.10000000       0.05000000       0.00000000 </v>
   <v>      -0.05000000       0.05000000       0.00000000 </v>
   <v>       0.10000000       0.10000000       0.00000000 </v>
   <v>       0.15000000       0.10000000       0.00000000 </v>
   <v>       0.20000000       0.10000000       0.00000000 </v>
   <v>       0.25000000       0.10000000       0.00000000 </v>
   <v>       0.30000000       0.10000000       0.00000000 </v>
   <v>       0.35000000       0.10000000       0.00000000 </v>
   <v>       0.40000000       0.10000000       0.00000000 </v>
   <v>       0.45000000       0.10000000       0.00000000 </v>
   <v>       0.50000000       0.10000000       0.00000000 </v>
   <v>      -0.45000000       0.10000000       0.00000000 </v>
   <v>      -0.40000000       0.10000000       0.00000000 </v>
   <v>      -0.35000000       0.10000000       0.00000000 </v>
   <v>      -0.30000000       0.10000000       0.00000000 </v>
   <v>      -0.25000000       0.10000000       0.00000000 </v>
   <v>      -0.20000000       0.10000000       0.00000000 </v>
   <v>      -0.15000000       0.10000000       0.00000000 </v>
   <v>      -0.10000000       0.10000000       0.00000000 </v>
   <v>       0.15000000       0.15000000       0.00000000 </v>
   <v>       0.20000000       0.15000000       0.00000000 </v>
   <v>       0.25000000       0.15000000       0.00000000 </v>
   <v>       0.30000000       0.15000000       0.00000000 </v>
   <v>       0.35000000       0.15000000       0.00000000 </v>
   <v>       0.40000000       0.15000000       0.00000000 </v>
   <v>       0.45000000       0.15000000       0.00000000 </v>
   <v>       0.50000000       0.15000000       0.00000000 </v>
   <v>      -0.45000000       0.15000000       0.00000000 </v>
   <v>      -0.40000000       0.15000000       0.00000000 </v>
   <v>      -0.35000000       0.15000000       0.00000000 </v>
   <v>      -0.30000000       0.15000000       0.00000000 </v>
   <v>      -0.25000000       0.15000000       0.00000000 </v>
   <v>      -0.20000000       0.15000000       0.00000000 </v>
   <v>      -0.15000000       0.15000000       0.00000000 </v>
   <v>       0.20000000       0.20000000       0.00000000 </v>
   <v>       0.25000000       0.20000000       0.00000000 </v>
   <v>       0.30000000       0.20000000       0.00000000 </v>
   <v>       0.35000000       0.20000000       0.00000000 </v>
   <v>       0.40000000       0.20000000       0.00000000 </v>
   <v>       0.45000000       0.20000000       0.00000000 </v>
   <v>       0.50000000       0.20000000       0.00000000 </v>
   <v>      -0.45000000       0.20000000       0.00000000 </v>
   <v>      -0.40000000       0.20000000       0.00000000 </v>
   <v>      -0.35000000       0.20000000       0.00000000 </v>
   <v>      -0.30000000       0.20000000       0.00000000 </v>
   <v>      -0.25000000       0.20000000       0.00000000 </v>
   <v>      -0.20000000       0.20000000       0.00000000 </v>
   <v>       0.25000000       0.25000000       0.00000000 </v>
   <v>       0.30000000       0.25000000       0.00000000 </v>
   <v>       0.35000000       0.25000000       0.00000000 </v>
   <v>       0.40000000       0.25000000       0.00000000 </v>
   <v>       0.45000000       0.25000000       0.00000000 </v>
   <v>       0.50000000       0.25000000       0.00000000 </v>
   <v>      -0.45000000       0.25000000       0.00000000 </v>
   <v>      -0.40000000       0.25000000       0.00000000 </v>
   <v>      -0.35000000       0.25000000       0.00000000 </v>
   <v>      -0.30000000       0.25000000       0.00000000 </v>
   <v>      -0.25000000       0.25000000       0.00000000 </v>
   <v>       0.30000000       0.30000000       0.00000000 </v>
   <v>       0.35000000       0.30000000       0.00000000 </v>
   <v>       0.40000000       0.30000000       0.00000000 </v>
   <v>       0.45000000       0.30000000       0.00000000 </v>
   <v>       0.50000000       0.30000000       0.00000000 </v>
   <v>      -0.45000000       0.30000000       0.00000000 </v>
   <v>      -0.40000000       0.30000000       0.00000000 </v>
   <v>      -0.35000000       0.30000000       0.00000000 </v>
   <v>      -0.30000000       0.30000000       0.00000000 </v>
   <v>       0.35000000       0.35000000       0.00000000 </v>
   <v>       0.40000000       0.35000000       0.00000000 </v>
   <v>       0.45000000       0.35000000       0.00000000 </v>
   <v>       0.50000000       0.35000000       0.00000000 </v>
   <v>      -0.45000000       0.35000000       0.00000000 </v>
   <v>      -0.40000000       0.35000000       0.00000000 </v>
   <v>      -0.35000000       0.35000000       0.00000000 </v>
   <v>       0.40000000       0.40000000       0.00000000 </v>
   <v>       0.45000000       0.40000000       0.00000000 </v>
   <v>       0.50000000       0.40000000       0.00000000 </v>
   <v>      -0.45000000       0.40000000       0.00000000 </v>
   <v>      -0.40000000       0.40000000       0.00000000 </v>
   <v>       0.45000000       0.45000000       0.00000000 </v>
   <v>       0.50000000       0.45000000       0.00000000 </v>
   <v>      -0.45000000       0.45000000       0.00000000 </v>
   <v>       0.50000000       0.50000000       0.00000000 </v>
   <v>       0.00000000       0.00000000       0.50000000 </v>
   <v>       0.05000000       0.00000000       0.50000000 </v>
   <v>       0.10000000       0.00000000       0.50000000 </v>
   <v>       0.15000000       0.00000000       0.50000000 </v>
   <v>       0.20000000       0.00000000       0.50000000 </v>
   <v>       0.25000000       0.00000000       0.50000000 </v>
   <v>       0.30000000       0.00000000       0.50000000 </v>
   <v>       0.35000000       0.00000000       0.50000000 </v>
   <v>       0.40000000       0.00000000       0.50000000 </v>
   <v>       0.45000000       0.00000000       0.50000000 </v>
   <v>       0.50000000       0.00000000       0.50000000 </v>
   <v>       0.05000000       0.05000000       0.50000000 </v>
   <v>       0.10000000       0.05000000       0.50000000 </v>
   <v>       0.15000000       0.05000000       0.50000000 </v>
   <v>       0.20000000       0.05000000       0.50000000 </v>
   <v>       0.25000000       0.05000000       0.50000000 </v>
   <v>       0.30000000       0.05000000       0.50000000 </v>
   <v>       0.35000000       0.05000000       0.50000000 </v>
   <v>       0.40000000       0.05000000       0.50000000 </v>
   <v>       0.45000000       0.05000000       0.50000000 </v>
   <v>       0.50000000       0.05000000       0.50000000 </v>
   <v>      -0.45000000       0.05000000       0.50000000 </v>
   <v>      -0.40000000       0.05000000       0.50000000 </v>
   <v>      -0.35000000       0.05000000       0.50000000 </v>
   <v>      -0.30000000       0.05000000       0.50000000 </v>
   <v>      -0.25000000       0.05000000       0.50000000 </v>
   <v>      -0.20000000       0.05000000       0.50000000 </v>
   <v>      -0.15000000       0.05000000       0.50000000 </v>
   <v>      -0.10000000       0.05000000       0.50000000 </v>
   <v>      -0.05000000       0.05000000       0.50000000 </v>
   <v>       0.10000000       0.10000000       0.50000000 </v>
   <v>       0.15000000       0.10000000       0.50000000 </v>
   <v>       0.20000000       0.10000000       0.50000000 </v>
   <v>       0.25000000       0.10000000       0.50000000 </v>
   <v>       0.30000000       0.10000000       0.50000000 </v>
   <v>       0.35000000       0.10000000       0.50000000 </v>
   <v>       0.40000000       0.10000000       0.50000000 </v>
   <v>       0.45000000       0.10000000       0.50000000 </v>
   <v>       0.50000000       0.10000000       0.50000000 </v>
   <v>      -0.45000000       0.10000000       0.50000000 </v>
   <v>      -0.40000000       0.10000000       0.50000000 </v>
   <v>      -0.35000000       0.10000000       0.50000000 </v>
   <v>      -0.30000000       0.10000000       0.50000000 </v>
   <v>      -0.25000000       0.10000000       0.50000000 </v>
   <v>      -0.20000000       0.10000000       0.50000000 </v>
   <v>      -0.15000000       0.10000000       0.50000000 </v>
   <v>      -0.10000000       0.10000000       0.50000000 </v>
   <v>       0.15000000       0.15000000       0.50000000 </v>
   <v>       0.20000000       0.15000000       0.50000000 </v>
   <v>       0.25000000       0.15000000       0.50000000 </v>
   <v>       0.30000000       0.15000000       0.50000000 </v>
   <v>       0.35000000       0.15000000       0.50000000 </v>
   <v>       0.40000000       0.15000000       0.50000000 </v>
   <v>       0.45000000       0.15000000       0.50000000 </v>
   <v>       0.50000000       0.15000000       0.50000000 </v>
   <v>      -0.45000000       0.15000000       0.50000000 </v>
   <v>      -0.40000000       0.15000000       0.50000000 </v>
   <v>      -0.35000000       0.15000000       0.50000000 </v>
   <v>      -0.30000000       0.15000000       0.50000000 </v>
   <v>      -0.25000000       0.15000000       0.50000000 </v>
   <v>      -0.20000000       0.15000000       0.50000000 </v>
   <v>      -0.15000000       0.15000000       0.50000000 </v>
   <v>       0.20000000       0.20000000       0.50000000 </v>
   <v>       0.25000000       0.20000000       0.50000000 </v>
   <v>       0.30000000       0.20000000       0.50000000 </v>
   <v>       0.35000000       0.20000000       0.50000000 </v>
   <v>       0.40000000       0.20000000       0.50000000 </v>
   <v>       0.45000000       0.20000000       0.50000000 </v>
   <v>       0.50000000       0.20000000       0.50000000 </v>
   <v>      -0.45000000       0.20000000       0.50000000 </v>
   <v>      -0.40000000       0.20000000       0.50000000 </v>
   <v>      -0.35000000       0.20000000       0.50000000 </v>
   <v>      -0.30000000       0.20000000       0.50000000 </v>
   <v>      -0.25000000       0.20000000       0.50000000 </v>
   <v>      -0.20000000       0.20000000       0.50000000 </v>
   <v>       0.25000000       0.25000000       0.50000000 </v>
   <v>       0.30000000       0.25000000       0.50000000 </v>
   <v>       0.35000000       0.25000000       0.50000000 </v>
   <v>       0.40000000       0.25000000       0.50000000 </v>
   <v>       0.45000000       0.25000000       0.50000000 </v>
   <v>       0.50000000       0.25000000       0.50000000 </v>
   <v>      -0.45000000       0.25000000       0.50000000 </v>
   <v>      -0.40000000       0.25000000       0.50000000 </v>
   <v>      -0.35000000       0.25000000       0.50000000 </v>
   <v>      -0.30000000       0.25000000       0.50000000 </v>
   <v>      -0.25000000       0.25000000       0.50000000 </v>
   <v>       0.30000000       0.30000000       0.50000000 </v>
   <v>       0.35000000       0.30000000       0.50000000 </v>
   <v>       0.40000000       0.30000000       0.50000000 </v>
   <v>       0.45000000       0.30000000       0.50000000 </v>
   <v>       0.50000000       0.30000000       0.50000000 </v>
   <v>      -0.45000000       0.30000000       0.50000000 </v>
   <v>      -0.40000000       0.30000000       0.50000000 </v>
   <v>      -0.35000000       0.30000000       0.50000000 </v>
   <v>      -0.30000000       0.30000000       0.50000000 </v>
   <v>       0.35000000       0.35000000       0.50000000 </v>
   <v>       0.40000000       0.35000000       0.50000000 </v>
   <v>       0.45000000       0.35000000       0.50000000 </v>
   <v>       0.50000000       0.35000000       0.50000000 </v>
   <v>      -0.45000000       0.35000000       0.50000000 </v>
   <v>      -0.40000000       0.35000000       0.50000000 </v>
   <v>      -0.35000000       0.35000000       0.50000000 </v>
   <v>       0.40000000       0.40000000       0.50000000 </v>
   <v>       0.45000000       0.40000000       0.50000000 </v>
   <v>       0.50000000       0.40000000       0.50000000 </v>
   <v>      -0.45000000       0.40000000       0.50000000 </v>
   <v>      -0.40000000       0.40000000       0.50000000 </v>
   <v>       0.45000000       0.45000000       0.50000000 </v>
   <v>       0.50000000       0.45000000       0.50000000 </v>
   <v>      -0.45000000       0.45000000       0.50000000 </v>
   <v>       0.50000000       0.50000000       0.50000000 </v>
  </varray>
  <varray name="weights" >
   <v>       0.00125000 </v>
   <v>       0.00500000 </v>
   <v>       0.00500000 </v>
   <v>       0.00500000 </v>
   <v>       0.00500000 </v>
   <v>       0.00500000 </v>
   <v>       0.00500000 </v>
   <v>       0.00500000 </v>
   <v>       0.00500000 </v>
   <v>       0.00500000 </v>
   <v>       0.00250000 </v>
   <v>       0.00250000 </v>
   <v>       0.00500000 </v>
   <v>       0.00500000 </v>
   <v>       0.00500000 </v>
   <v>       0.00500000 </v>
   <v>       0.00500000 </v>
   <v>       0.00500000 </v>
   <v>       0.00500000 </v>
   <v>       0.00500000 </v>
   <v>       0.00500000 </v>
   <v>       0.00500000 </v>
   <v>       0.00500000 </v>
   <v>       0.00500000 </v>
   <v>       0.00500000 </v>
   <v>       0.00500000 </v>
   <v>       0.00500000 </v>
   <v>       0.00500000 </v>
   <v>       0.00500000 </v>
   <v>       0.00250000 </v>
   <v>       0.00250000 </v>
   <v>       0.00500000 </v>
   <v>       0.00500000 </v>
   <v>       0.00500000 </v>
   <v>       0.00500000 </v>
   <v>       0.00500000 </v>
   <v>       0.00500000 </v>
   <v>       0.00500000 </v>
   <v>       0.00500000 </v>
   <v>       0.00500000 </v>
   <v>       0.00500000 </v>
   <v>       0.00500000 </v>
   <v>       0.00500000 </v>
   <v>       0.00500000 </v>
   <v>       0.00500000 </v>
   <v>       0.00500000 </v>
   <v>       0.00250000 </v>
   <v>       0.00250000 </v>
   <v>       0.00500000 </v>
   <v>       0.00500000 </v>
   <v>       0.00500000 </v>
   <v>       0.00500000 </v>
   <v>       0.00500000 </v>
   <v>       0.00500000 </v>
   <v>       0.00500000 </v>
   <v>       0.00500000 </v>
   <v>       0.00500000 </v>
   <v>       0.00500000 </v>
   <v>       0.00500000 </v>
   <v>       0.00500000 </v>
   <v>       0.00500000 </v>
   <v>       0.00250000 </v>
   <v>       0.00250000 </v>
   <v>       0.00500000 </v>
   <v>       0.00500000 </v>
   <v>       0.00500000 </v>
   <v>       0.00500000 </v>
   <v>       0.00500000 </v>
   <v>       0.00500000 </v>
   <v>       0.00500000 </v>
   <v>       0.00500000 </v>
   <v>       0.00500000 </v>
   <v>       0.00500000 </v>
   <v>       0.00500000 </v>
   <v>       0.00250000 </v>
   <v>       0.00250000 </v>
   <v>       0.00500000 </v>
   <v>       0.00500000 </v>
   <v>       0.00500000 </v>
   <v>       0.00500000 </v>
   <v>       0.00500000 </v>
   <v>       0.00500000 </v>
   <v>       0.00500000 </v>
   <v>       0.00500000 </v>
   <v>       0.00500000 </v>
   <v>       0.00250000 </v>
   <v>       0.00250000 </v>
   <v>       0.00500000 </v>
   <v>       0.00500000 </v>
   <v>       0.00500000 </v>
   <v>       0.00500000 </v>
   <v>       0.00500000 </v>
   <v>       0.00500000 </v>
   <v>       0.00500000 </v>
   <v>       0.00250000 </v>
   <v>       0.00250000 </v>
   <v>       0.00500000 </v>
   <v>       0.00500000 </v>
   <v>       0.00500000 </v>
   <v>       0.00500000 </v>
   <v>       0.00500000 </v>
   <v>       0.00250000 </v>
   <v>       0.00250000 </v>
   <v>       0.00500000 </v>
   <v>       0.00500000 </v>
   <v>       0.00500000 </v>
   <v>       0.00250000 </v>
   <v>       0.00250000 </v>
   <v>       0.00500000 </v>
   <v>       0.00250000 </v>
   <v>       0.00125000 </v>
   <v>       0.00125000 </v>
   <v>       0.00500000 </v>
   <v>       0.00500000 </v>
   <v>       0.00500000 </v>
   <v>       0.00500000 </v>
   <v>       0.00500000 </v>
   <v>       0.00500000 </v>
   <v>       0.00500000 </v>
   <v>       0.00500000 </v>
   <v>       0.00500000 </v>
   <v>       0.00250000 </v>
   <v>       0.00250000 </v>
   <v>       0.00500000 </v>
   <v>       0.00500000 </v>
   <v>       0.00500000 </v>
   <v>       0.00500000 </v>
   <v>       0.00500000 </v>
   <v>       0.00500000 </v>
   <v>       0.00500000 </v>
   <v>       0.00500000 </v>
   <v>       0.00500000 </v>
   <v>       0.00500000 </v>
   <v>       0.00500000 </v>
   <v>       0.00500000 </v>
   <v>       0.00500000 </v>
   <v>       0.00500000 </v>
   <v>       0.00500000 </v>
   <v>       0.00500000 </v>
   <v>       0.00500000 </v>
   <v>       0.00250000 </v>
   <v>       0.00250000 </v>
   <v>       0.00500000 </v>
   <v>       0.00500000 </v>
   <v>       0.00500000 </v>
   <v>       0.00500000 </v>
   <v>       0.00500000 </v>
   <v>       0.00500000 </v>
   <v>       0.00500000 </v>
   <v>       0.00500000 </v>
   <v>       0.00500000 </v>
   <v>       0.00500000 </v>
   <v>       0.00500000 </v>
   <v>       0.00500000 </v>
   <v>       0.00500000 </v>
   <v>       0.00500000 </v>
   <v>       0.00500000 </v>
   <v>       0.00250000 </v>
   <v>       0.00250000 </v>
   <v>       0.00500000 </v>
   <v>       0.00500000 </v>
   <v>       0.00500000 </v>
   <v>       0.00500000 </v>
   <v>       0.00500000 </v>
   <v>       0.00500000 </v>
   <v>       0.00500000 </v>
   <v>       0.00500000 </v>
   <v>       0.00500000 </v>
   <v>       0.00500000 </v>
   <v>       0.00500000 </v>
   <v>       0.00500000 </v>
   <v>       0.00500000 </v>
   <v>       0.00250000 </v>
   <v>       0.00250000 </v>
   <v>       0.00500000 </v>
   <v>       0.00500000 </v>
   <v>       0.00500000 </v>
   <v>       0.00500000 </v>
   <v>       0.00500000 </v>
   <v>       0.00500000 </v>
   <v>       0.00500000 </v>
   <v>       0.00500000 </v>
   <v>       0.00500000 </v>
   <v>       0.00500000 </v>
   <v>       0.00500000 </v>
   <v>       0.00250000 </v>
   <v>       0.00250000 </v>
   <v>       0.00500000 </v>
   <v>       0.00500000 </v>
   <v>       0.00500000 </v>
   <v>       0.00500000 </v>
   <v>       0.00500000 </v>
   <v>       0.00500000 </v>
   <v>       0.00500000 </v>
   <v>       0.00500000 </v>
   <v>       0.00500000 </v>
   <v>       0.00250000 </v>
   <v>       0.00250000 </v>
   <v>       0.00500000 </v>
   <v>       0.00500000 </v>
   <v>       0.00500000 </v>
   <v>       0.00500000 </v>
   <v>       0.00500000 </v>
   <v>       0.00500000 </v>
   <v>       0.00500000 </v>
   <v>       0.00250000 </v>
   <v>       0.00250000 </v>
   <v>       0.00500000 </v>
   <v>       0.00500000 </v>
   <v>       0.00500000 </v>
   <v>       0.00500000 </v>
   <v>       0.00500000 </v>
   <v>       0.00250000 </v>
   <v>       0.00250000 </v>
   <v>       0.00500000 </v>
   <v>       0.00500000 </v>
   <v>       0.00500000 </v>
   <v>       0.00250000 </v>
   <v>       0.00250000 </v>
   <v>       0.00500000 </v>
   <v>       0.00250000 </v>
   <v>       0.00125000 </v>
  </varray>
  <varray name="tetrahedronlist"  type="int" >
   <v type="int" >        4        1        2       12      112 </v>
   <v type="int" >        4        2       12      112      113 </v>
   <v type="int" >        4       12      112      113      123 </v>
   <v type="int" >        4        2        3       13      113 </v>
   <v type="int" >        4        2       12       13      113 </v>
   <v type="int" >        4       12       13      113      123 </v>
   <v type="int" >        4        3       13      113      114 </v>
   <v type="int" >        4       13      113      114      124 </v>
   <v type="int" >        4       13      113      123      124 </v>
   <v type="int" >        4        3        4       14      114 </v>
   <v type="int" >        4        3       13       14      114 </v>
   <v type="int" >        4       13       14      114      124 </v>
   <v type="int" >        4        4       14      114      115 </v>
   <v type="int" >        4       14      114      115      125 </v>
   <v type="int" >        4       14      114      124      125 </v>
   <v type="int" >        4        4        5       15      115 </v>
   <v type="int" >        4        4       14       15      115 </v>
   <v type="int" >        4       14       15      115      125 </v>
   <v type="int" >        4        5       15      115      116 </v>
   <v type="int" >        4       15      115      116      126 </v>
   <v type="int" >        4       15      115      125      126 </v>
   <v type="int" >        4        5        6       16      116 </v>
   <v type="int" >        4        5       15       16      116 </v>
   <v type="int" >        4       15       16      116      126 </v>
   <v type="int" >        4        6       16      116      117 </v>
   <v type="int" >        4       16      116      117      127 </v>
   <v type="int" >        4       16      116      126      127 </v>
   <v type="int" >        4        6        7       17      117 </v>
   <v type="int" >        4        6       16       17      117 </v>
   <v type="int" >        4       16       17      117      127 </v>
   <v type="int" >        4        7       17      117      118 </v>
   <v type="int" >        4       17      117      118      128 </v>
   <v type="int" >        4       17      117      127      128 </v>
   <v type="int" >        4        7        8       18      118 </v>
   <v type="int" >        4        7       17       18      118 </v>
   <v type="int" >        4       17       18      118      128 </v>
   <v type="int" >        4        8       18      118      119 </v>
   <v type="int" >        4       18      118      119      129 </v>
   <v type="int" >        4       18      118      128      129 </v>
   <v type="int" >        4        8        9       19      119 </v>
   <v type="int" >        4        8       18       19      119 </v>
   <v type="int" >        4       18       19      119      129 </v>
   <v type="int" >        4        9       19      119      120 </v>
   <v type="int" >        4       19      119      120      130 </v>
   <v type="int" >        4       19      119      129      130 </v>
   <v type="int" >        4        9       10       20      120 </v>
   <v type="int" >        4        9       19       20      120 </v>
   <v type="int" >        4       19       20      120      130 </v>
   <v type="int" >        4       10       20      120      121 </v>
   <v type="int" >        4       20      120      121      131 </v>
   <v type="int" >        4       20      120      130      131 </v>
   <v type="int" >        4       10       11       21      121 </v>
   <v type="int" >        4       10       20       21      121 </v>
   <v type="int" >        4       20       21      121      131 </v>
   <v type="int" >        4       11       21      121      122 </v>
   <v type="int" >        4       21      121      122      132 </v>
   <v type="int" >        4       21      121      131      132 </v>
   <v type="int" >        4       10       11       22      122 </v>
   <v type="int" >        4       11       21       22      122 </v>
   <v type="int" >        4       21       22      122      132 </v>
   <v type="int" >        4       10       22      121      122 </v>
   <v type="int" >        4       22      121      122      133 </v>
   <v type="int" >        4       22      122      132      133 </v>
   <v type="int" >        4        9       10       23      121 </v>
   <v type="int" >        4       10       22       23      121 </v>
   <v type="int" >        4       22       23      121      133 </v>
   <v type="int" >        4        9       23      120      121 </v>
   <v type="int" >        4       23      120      121      134 </v>
   <v type="int" >        4       23      121      133      134 </v>
   <v type="int" >        4        8        9       24      120 </v>
   <v type="int" >        4        9       23       24      120 </v>
   <v type="int" >        4       23       24      120      134 </v>
   <v type="int" >        4        8       24      119      120 </v>
   <v type="int" >        4       24      119      120      135 </v>
   <v type="int" >        4       24      120      134      135 </v>
   <v type="int" >        4        7        8       25      119 </v>
   <v type="int" >        4        8       24       25      119 </v>
   <v type="int" >        4       24       25      119      135 </v>
   <v type="int" >        4        7       25      118      119 </v>
   <v type="int" >        4       25      118      119      136 </v>
   <v type="int" >        4       25      119      135      136 </v>
   <v type="int" >        4        6        7       26      118 </v>
   <v type="int" >        4        7       25       26      118 </v>
   <v type="int" >        4       25       26      118      136 </v>
   <v type="int" >        4        6       26      117      118 </v>
   <v type="int" >        4       26      117      118      137 </v>
   <v type="int" >        4       26      118      136      137 </v>
   <v type="int" >        4        5        6       27      117 </v>
   <v type="int" >        4        6       26       27      117 </v>
   <v type="int" >        4       26       27      117      137 </v>
   <v type="int" >        4        5       27      116      117 </v>
   <v type="int" >        4       27      116      117      138 </v>
   <v type="int" >        4       27      117      137      138 </v>
   <v type="int" >        4        4        5       28      116 </v>
   <v type="int" >        4        5       27       28      116 </v>
   <v type="int" >        4       27       28      116      138 </v>
   <v type="int" >        4        4       28      115      116 </v>
   <v type="int" >        4       28      115      116      139 </v>
   <v type="int" >        4       28      116      138      139 </v>
   <v type="int" >        4        3        4       29      115 </v>
   <v type="int" >        4        4       28       29      115 </v>
   <v type="int" >        4       28       29      115      139 </v>
   <v type="int" >        4        3       29      114      115 </v>
   <v type="int" >        4       29      114      115      140 </v>
   <v type="int" >        4       29      115      139      140 </v>
   <v type="int" >        4        2        3       30      114 </v>
   <v type="int" >        4        3       29       30      114 </v>
   <v type="int" >        4       29       30      114      140 </v>
   <v type="int" >        4        2       30      113      114 </v>
   <v type="int" >        4       30      113      114      141 </v>
   <v type="int" >        4       30      114      140      141 </v>
   <v type="int" >        4        1        2        2      113 </v>
   <v type="int" >        4        2        2       30      113 </v>
   <v type="int" >        4        2       30      113      141 </v>
   <v type="int" >        4        1        2      112      113 </v>
   <v type="int" >        4        2      112      113      113 </v>
   <v type="int" >        4        2      113      113      141 </v>
   <v type="int" >        4       12       13       31      123 </v>
   <v type="int" >        4       13       31      123      124 </v>
   <v type="int" >        4       31      123      124      142 </v>
   <v type="int" >        4       13       14       32      124 </v>
   <v type="int" >        4       13       31       32      124 </v>
   <v type="int" >        4       31       32      124      142 </v>
   <v type="int" >        4       14       32      124      125 </v>
   <v type="int" >        4       32      124      125      143 </v>
   <v type="int" >        4       32      124      142      143 </v>
   <v type="int" >        4       14       15       33      125 </v>
   <v type="int" >        4       14       32       33      125 </v>
   <v type="int" >        4       32       33      125      143 </v>
   <v type="int" >        4       15       33      125      126 </v>
   <v type="int" >        4       33      125      126      144 </v>
   <v type="int" >        4       33      125      143      144 </v>
   <v type="int" >        4       15       16       34      126 </v>
   <v type="int" >        4       15       33       34      126 </v>
   <v type="int" >        4       33       34      126      144 </v>
   <v type="int" >        4       16       34      126      127 </v>
   <v type="int" >        4       34      126      127      145 </v>
   <v type="int" >        4       34      126      144      145 </v>
   <v type="int" >        4       16       17       35      127 </v>
   <v type="int" >        4       16       34       35      127 </v>
   <v type="int" >        4       34       35      127      145 </v>
   <v type="int" >        4       17       35      127      128 </v>
   <v type="int" >        4       35      127      128      146 </v>
   <v type="int" >        4       35      127      145      146 </v>
   <v type="int" >        4       17       18       36      128 </v>
   <v type="int" >        4       17       35       36      128 </v>
   <v type="int" >        4       35       36      128      146 </v>
   <v type="int" >        4       18       36      128      129 </v>
   <v type="int" >        4       36      128      129      147 </v>
   <v type="int" >        4       36      128      146      147 </v>
   <v type="int" >        4       18       19       37      129 </v>
   <v type="int" >        4       18       36       37      129 </v>
   <v type="int" >        4       36       37      129      147 </v>
   <v type="int" >        4       19       37      129      130 </v>
   <v type="int" >        4       37      129      130      148 </v>
   <v type="int" >        4       37      129      147      148 </v>
   <v type="int" >        4       19       20       38      130 </v>
   <v type="int" >        4       19       37       38      130 </v>
   <v type="int" >        4       37       38      130      148 </v>
   <v type="int" >        4       20       38      130      131 </v>
   <v type="int" >        4       38      130      131      149 </v>
   <v type="int" >        4       38      130      148      149 </v>
   <v type="int" >        4       20       21       39      131 </v>
   <v type="int" >        4       20       38       39      131 </v>
   <v type="int" >        4       38       39      131      149 </v>
   <v type="int" >        4       21       39      131      132 </v>
   <v type="int" >        4       39      131      132      150 </v>
   <v type="int" >        4       39      131      149      150 </v>
   <v type="int" >        4       21       22       40      132 </v>
   <v type="int" >        4       21       39       40      132 </v>
   <v type="int" >        4       39       40      132      150 </v>
   <v type="int" >        4       22       40      132      133 </v>
   <v type="int" >        4       40      132      133      151 </v>
   <v type="int" >        4       40      132      150      151 </v>
   <v type="int" >        4       22       23       41      133 </v>
   <v type="int" >        4       22       40       41      133 </v>
   <v type="int" >        4       40       41      133      151 </v>
   <v type="int" >        4       23       41      133      134 </v>
   <v type="int" >        4       41      133      134      152 </v>
   <v type="int" >        4       41      133      151      152 </v>
   <v type="int" >        4       23       24       42      134 </v>
   <v type="int" >        4       23       41       42      134 </v>
   <v type="int" >        4       41       42      134      152 </v>
   <v type="int" >        4       24       42      134      135 </v>
   <v type="int" >        4       42      134      135      153 </v>
   <v type="int" >        4       42      134      152      153 </v>
   <v type="int" >        4       24       25       43      135 </v>
   <v type="int" >        4       24       42       43      135 </v>
   <v type="int" >        4       42       43      135      153 </v>
   <v type="int" >        4       25       43      135      136 </v>
   <v type="int" >        4       43      135      136      154 </v>
   <v type="int" >        4       43      135      153      154 </v>
   <v type="int" >        4       25       26       44      136 </v>
   <v type="int" >        4       25       43       44      136 </v>
   <v type="int" >        4       43       44      136      154 </v>
   <v type="int" >        4       26       44      136      137 </v>
   <v type="int" >        4       44      136      137      155 </v>
   <v type="int" >        4       44      136      154      155 </v>
   <v type="int" >        4       26       27       45      137 </v>
   <v type="int" >        4       26       44       45      137 </v>
   <v type="int" >        4       44       45      137      155 </v>
   <v type="int" >        4       27       45      137      138 </v>
   <v type="int" >        4       45      137      138      156 </v>
   <v type="int" >        4       45      137      155      156 </v>
   <v type="int" >        4       27       28       46      138 </v>
   <v type="int" >        4       27       45       46      138 </v>
   <v type="int" >        4       45       46      138      156 </v>
   <v type="int" >        4       28       46      138      139 </v>
   <v type="int" >        4       46      138      139      157 </v>
   <v type="int" >        4       46      138      156      157 </v>
   <v type="int" >        4       28       29       47      139 </v>
   <v type="int" >        4       28       46       47      139 </v>
   <v type="int" >        4       46       47      139      157 </v>
   <v type="int" >        4       29       47      139      140 </v>
   <v type="int" >        4       47      139      140      158 </v>
   <v type="int" >        4       47      139      157      158 </v>
   <v type="int" >        4       29       29       30      140 </v>
   <v type="int" >        4       29       29       47      140 </v>
   <v type="int" >        4       29       47      140      158 </v>
   <v type="int" >        4       29       30      140      141 </v>
   <v type="int" >        4       29      140      140      141 </v>
   <v type="int" >        4       29      140      140      158 </v>
   <v type="int" >        4        2        3       30      141 </v>
   <v type="int" >        4        3       29       30      141 </v>
   <v type="int" >        4        3       29      140      141 </v>
   <v type="int" >        4        2        3      113      141 </v>
   <v type="int" >        4        3      113      114      141 </v>
   <v type="int" >        4        3      114      140      141 </v>
   <v type="int" >        4       31       32       48      142 </v>
   <v type="int" >        4       32       48      142      143 </v>
   <v type="int" >        4       48      142      143      159 </v>
   <v type="int" >        4       32       33       49      143 </v>
   <v type="int" >        4       32       48       49      143 </v>
   <v type="int" >        4       48       49      143      159 </v>
   <v type="int" >        4       33       49      143      144 </v>
   <v type="int" >        4       49      143      144      160 </v>
   <v type="int" >        4       49      143      159      160 </v>
   <v type="int" >        4       33       34       50      144 </v>
   <v type="int" >        4       33       49       50      144 </v>
   <v type="int" >        4       49       50      144      160 </v>
   <v type="int" >        4       34       50      144      145 </v>
   <v type="int" >        4       50      144      145      161 </v>
   <v type="int" >        4       50      144      160      161 </v>
   <v type="int" >        4       34       35       51      145 </v>
   <v type="int" >        4       34       50       51      145 </v>
   <v type="int" >        4       50       51      145      161 </v>
   <v type="int" >        4       35       51      145      146 </v>
   <v type="int" >        4       51      145      146      162 </v>
   <v type="int" >        4       51      145      161      162 </v>
   <v type="int" >        4       35       36       52      146 </v>
   <v type="int" >        4       35       51       52      146 </v>
   <v type="int" >        4       51       52      146      162 </v>
   <v type="int" >        4       36       52      146      147 </v>
   <v type="int" >        4       52      146      147      163 </v>
   <v type="int" >        4       52      146      162      163 </v>
   <v type="int" >        4       36       37       53      147 </v>
   <v type="int" >        4       36       52       53      147 </v>
   <v type="int" >        4       52       53      147      163 </v>
   <v type="int" >        4       37       53      147      148 </v>
   <v type="int" >        4       53      147      148      164 </v>
   <v type="int" >        4       53      147      163      164 </v>
   <v type="int" >        4       37       38       54      148 </v>
   <v type="int" >        4       37       53       54      148 </v>
   <v type="int" >        4       53       54      148      164 </v>
   <v type="int" >        4       38       54      148      149 </v>
   <v type="int" >        4       54      148      149      165 </v>
   <v type="int" >        4       54      148      164      165 </v>
   <v type="int" >        4       38       39       55      149 </v>
   <v type="int" >        4       38       54       55      149 </v>
   <v type="int" >        4       54       55      149      165 </v>
   <v type="int" >        4       39       55      149      150 </v>
   <v type="int" >        4       55      149      150      166 </v>
   <v type="int" >        4       55      149      165      166 </v>
   <v type="int" >        4       39       40       56      150 </v>
   <v type="int" >        4       39       55       56      150 </v>
   <v type="int" >        4       55       56      150      166 </v>
   <v type="int" >        4       40       56      150      151 </v>
   <v type="int" >        4       56      150      151      167 </v>
   <v type="int" >        4       56      150      166      167 </v>
   <v type="int" >        4       40       41       57      151 </v>
   <v type="int" >        4       40       56       57      151 </v>
   <v type="int" >        4       56       57      151      167 </v>
   <v type="int" >        4       41       57      151      152 </v>
   <v type="int" >        4       57      151      152      168 </v>
   <v type="int" >        4       57      151      167      168 </v>
   <v type="int" >        4       41       42       58      152 </v>
   <v type="int" >        4       41       57       58      152 </v>
   <v type="int" >        4       57       58      152      168 </v>
   <v type="int" >        4       42       58      152      153 </v>
   <v type="int" >        4       58      152      153      169 </v>
   <v type="int" >        4       58      152      168      169 </v>
   <v type="int" >        4       42       43       59      153 </v>
   <v type="int" >        4       42       58       59      153 </v>
   <v type="int" >        4       58       59      153      169 </v>
   <v type="int" >        4       43       59      153      154 </v>
   <v type="int" >        4       59      153      154      170 </v>
   <v type="int" >        4       59      153      169      170 </v>
   <v type="int" >        4       43       44       60      154 </v>
   <v type="int" >        4       43       59       60      154 </v>
   <v type="int" >        4       59       60      154      170 </v>
   <v type="int" >        4       44       60      154      155 </v>
   <v type="int" >        4       60      154      155      171 </v>
   <v type="int" >        4       60      154      170      171 </v>
   <v type="int" >        4       44       45       61      155 </v>
   <v type="int" >        4       44       60       61      155 </v>
   <v type="int" >        4       60       61      155      171 </v>
   <v type="int" >        4       45       61      155      156 </v>
   <v type="int" >        4       61      155      156      172 </v>
   <v type="int" >        4       61      155      171      172 </v>
   <v type="int" >        4       45       46       62      156 </v>
   <v type="int" >        4       45       61       62      156 </v>
   <v type="int" >        4       61       62      156      172 </v>
   <v type="int" >        4       46       62      156      157 </v>
   <v type="int" >        4       62      156      157      173 </v>
   <v type="int" >        4       62      156      172      173 </v>
   <v type="int" >        4       46       46       47      157 </v>
   <v type="int" >        4       46       46       62      157 </v>
   <v type="int" >        4       46       62      157      173 </v>
   <v type="int" >        4       46       47      157      158 </v>
   <v type="int" >        4       46      157      157      158 </v>
   <v type="int" >        4       46      157      157      173 </v>
   <v type="int" >        4       28       29       47      158 </v>
   <v type="int" >        4       28       46       47      158 </v>
   <v type="int" >        4       28       46      157      158 </v>
   <v type="int" >        4       28       29      140      158 </v>
   <v type="int" >        4       28      139      140      158 </v>
   <v type="int" >        4       28      139      157      158 </v>
   <v type="int" >        4        3        4       29      140 </v>
   <v type="int" >        4        4       28       29      140 </v>
   <v type="int" >        4        4       28      139      140 </v>
   <v type="int" >        4        3        4      114      140 </v>
   <v type="int" >        4        4      114      115      140 </v>
   <v type="int" >        4        4      115      139      140 </v>
   <v type="int" >        4       48       49       63      159 </v>
   <v type="int" >        4       49       63      159      160 </v>
   <v type="int" >        4       63      159      160      174 </v>
   <v type="int" >        4       49       50       64      160 </v>
   <v type="int" >        4       49       63       64      160 </v>
   <v type="int" >        4       63       64      160      174 </v>
   <v type="int" >        4       50       64      160      161 </v>
   <v type="int" >        4       64      160      161      175 </v>
   <v type="int" >        4       64      160      174      175 </v>
   <v type="int" >        4       50       51       65      161 </v>
   <v type="int" >        4       50       64       65      161 </v>
   <v type="int" >        4       64       65      161      175 </v>
   <v type="int" >        4       51       65      161      162 </v>
   <v type="int" >        4       65      161      162      176 </v>
   <v type="int" >        4       65      161      175      176 </v>
   <v type="int" >        4       51       52       66      162 </v>
   <v type="int" >        4       51       65       66      162 </v>
   <v type="int" >        4       65       66      162      176 </v>
   <v type="int" >        4       52       66      162      163 </v>
   <v type="int" >        4       66      162      163      177 </v>
   <v type="int" >        4       66      162      176      177 </v>
   <v type="int" >        4       52       53       67      163 </v>
   <v type="int" >        4       52       66       67      163 </v>
   <v type="int" >        4       66       67      163      177 </v>
   <v type="int" >        4       53       67      163      164 </v>
   <v type="int" >        4       67      163      164      178 </v>
   <v type="int" >        4       67      163      177      178 </v>
   <v type="int" >        4       53       54       68      164 </v>
   <v type="int" >        4       53       67       68      164 </v>
   <v type="int" >        4       67       68      164      178 </v>
   <v type="int" >        4       54       68      164      165 </v>
   <v type="int" >        4       68      164      165      179 </v>
   <v type="int" >        4       68      164      178      179 </v>
   <v type="int" >        4       54       55       69      165 </v>
   <v type="int" >        4       54       68       69      165 </v>
   <v type="int" >        4       68       69      165      179 </v>
   <v type="int" >        4       55       69      165      166 </v>
   <v type="int" >        4       69      165      166      180 </v>
   <v type="int" >        4       69      165      179      180 </v>
   <v type="int" >        4       55       56       70      166 </v>
   <v type="int" >        4       55       69       70      166 </v>
   <v type="int" >        4       69       70      166      180 </v>
   <v type="int" >        4       56       70      166      167 </v>
   <v type="int" >        4       70      166      167      181 </v>
   <v type="int" >        4       70      166      180      181 </v>
   <v type="int" >        4       56       57       71      167 </v>
   <v type="int" >        4       56       70       71      167 </v>
   <v type="int" >        4       70       71      167      181 </v>
   <v type="int" >        4       57       71      167      168 </v>
   <v type="int" >        4       71      167      168      182 </v>
   <v type="int" >        4       71      167      181      182 </v>
   <v type="int" >        4       57       58       72      168 </v>
   <v type="int" >        4       57       71       72      168 </v>
   <v type="int" >        4       71       72      168      182 </v>
   <v type="int" >        4       58       72      168      169 </v>
   <v type="int" >        4       72      168      169      183 </v>
   <v type="int" >        4       72      168      182      183 </v>
   <v type="int" >        4       58       59       73      169 </v>
   <v type="int" >        4       58       72       73      169 </v>
   <v type="int" >        4       72       73      169      183 </v>
   <v type="int" >        4       59       73      169      170 </v>
   <v type="int" >        4       73      169      170      184 </v>
   <v type="int" >        4       73      169      183      184 </v>
   <v type="int" >        4       59       60       74      170 </v>
   <v type="int" >        4       59       73       74      170 </v>
   <v type="int" >        4       73       74      170      184 </v>
   <v type="int" >        4       60       74      170      171 </v>
   <v type="int" >        4       74      170      171      185 </v>
   <v type="int" >        4       74      170      184      185 </v>
   <v type="int" >        4       60       61       75      171 </v>
   <v type="int" >        4       60       74       75      171 </v>
   <v type="int" >        4       74       75      171      185 </v>
   <v type="int" >        4       61       75      171      172 </v>
   <v type="int" >        4       75      171      172      186 </v>
   <v type="int" >        4       75      171      185      186 </v>
   <v type="int" >        4       61       61       62      172 </v>
   <v type="int" >        4       61       61       75      172 </v>
   <v type="int" >        4       61       75      172      186 </v>
   <v type="int" >        4       61       62      172      173 </v>
   <v type="int" >        4       61      172      172      173 </v>
   <v type="int" >        4       61      172      172      186 </v>
   <v type="int" >        4       45       46       62      173 </v>
   <v type="int" >        4       45       61       62      173 </v>
   <v type="int" >        4       45       61      172      173 </v>
   <v type="int" >        4       45       46      157      173 </v>
   <v type="int" >        4       45      156      157      173 </v>
   <v type="int" >        4       45      156      172      173 </v>
   <v type="int" >        4       27       28       46      157 </v>
   <v type="int" >        4       27       45       46      157 </v>
   <v type="int" >        4       27       45      156      157 </v>
   <v type="int" >        4       27       28      139      157 </v>
   <v type="int" >        4       27      138      139      157 </v>
   <v type="int" >        4       27      138      156      157 </v>
   <v type="int" >        4        4        5       28      139 </v>
   <v type="int" >        4        5       27       28      139 </v>
   <v type="int" >        4        5       27      138      139 </v>
   <v type="int" >        4        4        5      115      139 </v>
   <v type="int" >        4        5      115      116      139 </v>
   <v type="int" >        4        5      116      138      139 </v>
   <v type="int" >        4       63       64       76      174 </v>
   <v type="int" >        4       64       76      174      175 </v>
   <v type="int" >        4       76      174      175      187 </v>
   <v type="int" >        4       64       65       77      175 </v>
   <v type="int" >        4       64       76       77      175 </v>
   <v type="int" >        4       76       77      175      187 </v>
   <v type="int" >        4       65       77      175      176 </v>
   <v type="int" >        4       77      175      176      188 </v>
   <v type="int" >        4       77      175      187      188 </v>
   <v type="int" >        4       65       66       78      176 </v>
   <v type="int" >        4       65       77       78      176 </v>
   <v type="int" >        4       77       78      176      188 </v>
   <v type="int" >        4       66       78      176      177 </v>
   <v type="int" >        4       78      176      177      189 </v>
   <v type="int" >        4       78      176      188      189 </v>
   <v type="int" >        4       66       67       79      177 </v>
   <v type="int" >        4       66       78       79      177 </v>
   <v type="int" >        4       78       79      177      189 </v>
   <v type="int" >        4       67       79      177      178 </v>
   <v type="int" >        4       79      177      178      190 </v>
   <v type="int" >        4       79      177      189      190 </v>
   <v type="int" >        4       67       68       80      178 </v>
   <v type="int" >        4       67       79       80      178 </v>
   <v type="int" >        4       79       80      178      190 </v>
   <v type="int" >        4       68       80      178      179 </v>
   <v type="int" >        4       80      178      179      191 </v>
   <v type="int" >        4       80      178      190      191 </v>
   <v type="int" >        4       68       69       81      179 </v>
   <v type="int" >        4       68       80       81      179 </v>
   <v type="int" >        4       80       81      179      191 </v>
   <v type="int" >        4       69       81      179      180 </v>
   <v type="int" >        4       81      179      180      192 </v>
   <v type="int" >        4       81      179      191      192 </v>
   <v type="int" >        4       69       70       82      180 </v>
   <v type="int" >        4       69       81       82      180 </v>
   <v type="int" >        4       81       82      180      192 </v>
   <v type="int" >        4       70       82      180      181 </v>
   <v type="int" >        4       82      180      181      193 </v>
   <v type="int" >        4       82      180      192      193 </v>
   <v type="int" >        4       70       71       83      181 </v>
   <v type="int" >        4       70       82       83      181 </v>
   <v type="int" >        4       82       83      181      193 </v>
   <v type="int" >        4       71       83      181      182 </v>
   <v type="int" >        4       83      181      182      194 </v>
   <v type="int" >        4       83      181      193      194 </v>
   <v type="int" >        4       71       72       84      182 </v>
   <v type="int" >        4       71       83       84      182 </v>
   <v type="int" >        4       83       84      182      194 </v>
   <v type="int" >        4       72       84      182      183 </v>
   <v type="int" >        4       84      182      183      195 </v>
   <v type="int" >        4       84      182      194      195 </v>
   <v type="int" >        4       72       73       85      183 </v>
   <v type="int" >        4       72       84       85      183 </v>
   <v type="int" >        4       84       85      183      195 </v>
   <v type="int" >        4       73       85      183      184 </v>
   <v type="int" >        4       85      183      184      196 </v>
   <v type="int" >        4       85      183      195      196 </v>
   <v type="int" >        4       73       74       86      184 </v>
   <v type="int" >        4       73       85       86      184 </v>
   <v type="int" >        4       85       86      184      196 </v>
   <v type="int" >        4       74       86      184      185 </v>
   <v type="int" >        4       86      184      185      197 </v>
   <v type="int" >        4       86      184      196      197 </v>
   <v type="int" >        4       74       74       75      185 </v>
   <v type="int" >        4       74       74       86      185 </v>
   <v type="int" >        4       74       86      185      197 </v>
   <v type="int" >        4       74       75      185      186 </v>
   <v type="int" >        4       74      185      185      186 </v>
   <v type="int" >        4       74      185      185      197 </v>
   <v type="int" >        4       60       61       75      186 </v>
   <v type="int" >        4       60       74       75      186 </v>
   <v type="int" >        4       60       74      185      186 </v>
   <v type="int" >        4       60       61      172      186 </v>
   <v type="int" >        4       60      171      172      186 </v>
   <v type="int" >        4       60      171      185      186 </v>
   <v type="int" >        4       44       45       61      172 </v>
   <v type="int" >        4       44       60       61      172 </v>
   <v type="int" >        4       44       60      171      172 </v>
   <v type="int" >        4       44       45      156      172 </v>
   <v type="int" >        4       44      155      156      172 </v>
   <v type="int" >        4       44      155      171      172 </v>
   <v type="int" >        4       26       27       45      156 </v>
   <v type="int" >        4       26       44       45      156 </v>
   <v type="int" >        4       26       44      155      156 </v>
   <v type="int" >        4       26       27      138      156 </v>
   <v type="int" >        4       26      137      138      156 </v>
   <v type="int" >        4       26      137      155      156 </v>
   <v type="int" >        4        5        6       27      138 </v>
   <v type="int" >        4        6       26       27      138 </v>
   <v type="int" >        4        6       26      137      138 </v>
   <v type="int" >        4        5        6      116      138 </v>
   <v type="int" >        4        6      116      117      138 </v>
   <v type="int" >        4        6      117      137      138 </v>
   <v type="int" >        4       76       77       87      187 </v>
   <v type="int" >        4       77       87      187      188 </v>
   <v type="int" >        4       87      187      188      198 </v>
   <v type="int" >        4       77       78       88      188 </v>
   <v type="int" >        4       77       87       88      188 </v>
   <v type="int" >        4       87       88      188      198 </v>
   <v type="int" >        4       78       88      188      189 </v>
   <v type="int" >        4       88      188      189      199 </v>
   <v type="int" >        4       88      188      198      199 </v>
   <v type="int" >        4       78       79       89      189 </v>
   <v type="int" >        4       78       88       89      189 </v>
   <v type="int" >        4       88       89      189      199 </v>
   <v type="int" >        4       79       89      189      190 </v>
   <v type="int" >        4       89      189      190      200 </v>
   <v type="int" >        4       89      189      199      200 </v>
   <v type="int" >        4       79       80       90      190 </v>
   <v type="int" >        4       79       89       90      190 </v>
   <v type="int" >        4       89       90      190      200 </v>
   <v type="int" >        4       80       90      190      191 </v>
   <v type="int" >        4       90      190      191      201 </v>
   <v type="int" >        4       90      190      200      201 </v>
   <v type="int" >        4       80       81       91      191 </v>
   <v type="int" >        4       80       90       91      191 </v>
   <v type="int" >        4       90       91      191      201 </v>
   <v type="int" >        4       81       91      191      192 </v>
   <v type="int" >        4       91      191      192      202 </v>
   <v type="int" >        4       91      191      201      202 </v>
   <v type="int" >        4       81       82       92      192 </v>
   <v type="int" >        4       81       91       92      192 </v>
   <v type="int" >        4       91       92      192      202 </v>
   <v type="int" >        4       82       92      192      193 </v>
   <v type="int" >        4       92      192      193      203 </v>
   <v type="int" >        4       92      192      202      203 </v>
   <v type="int" >        4       82       83       93      193 </v>
   <v type="int" >        4       82       92       93      193 </v>
   <v type="int" >        4       92       93      193      203 </v>
   <v type="int" >        4       83       93      193      194 </v>
   <v type="int" >        4       93      193      194      204 </v>
   <v type="int" >        4       93      193      203      204 </v>
   <v type="int" >        4       83       84       94      194 </v>
   <v type="int" >        4       83       93       94      194 </v>
   <v type="int" >        4       93       94      194      204 </v>
   <v type="int" >        4       84       94      194      195 </v>
   <v type="int" >        4       94      194      195      205 </v>
   <v type="int" >        4       94      194      204      205 </v>
   <v type="int" >        4       84       85       95      195 </v>
   <v type="int" >        4       84       94       95      195 </v>
   <v type="int" >        4       94       95      195      205 </v>
   <v type="int" >        4       85       95      195      196 </v>
   <v type="int" >        4       95      195      196      206 </v>
   <v type="int" >        4       95      195      205      206 </v>
   <v type="int" >        4       85       85       86      196 </v>
   <v type="int" >        4       85       85       95      196 </v>
   <v type="int" >        4       85       95      196      206 </v>
   <v type="int" >        4       85       86      196      197 </v>
   <v type="int" >        4       85      196      196      197 </v>
   <v type="int" >        4       85      196      196      206 </v>
   <v type="int" >        4       73       74       86      197 </v>
   <v type="int" >        4       73       85       86      197 </v>
   <v type="int" >        4       73       85      196      197 </v>
   <v type="int" >        4       73       74      185      197 </v>
   <v type="int" >        4       73      184      185      197 </v>
   <v type="int" >        4       73      184      196      197 </v>
   <v type="int" >        4       59       60       74      185 </v>
   <v type="int" >        4       59       73       74      185 </v>
   <v type="int" >        4       59       73      184      185 </v>
   <v type="int" >        4       59       60      171      185 </v>
   <v type="int" >        4       59      170      171      185 </v>
   <v type="int" >        4       59      170      184      185 </v>
   <v type="int" >        4       43       44       60      171 </v>
   <v type="int" >        4       43       59       60      171 </v>
   <v type="int" >        4       43       59      170      171 </v>
   <v type="int" >        4       43       44      155      171 </v>
   <v type="int" >        4       43      154      155      171 </v>
   <v type="int" >        4       43      154      170      171 </v>
   <v type="int" >        4       25       26       44      155 </v>
   <v type="int" >        4       25       43       44      155 </v>
   <v type="int" >        4       25       43      154      155 </v>
   <v type="int" >        4       25       26      137      155 </v>
   <v type="int" >        4       25      136      137      155 </v>
   <v type="int" >        4       25      136      154      155 </v>
   <v type="int" >        4        6        7       26      137 </v>
   <v type="int" >        4        7       25       26      137 </v>
   <v type="int" >        4        7       25      136      137 </v>
   <v type="int" >        4        6        7      117      137 </v>
   <v type="int" >        4        7      117      118      137 </v>
   <v type="int" >        4        7      118      136      137 </v>
   <v type="int" >        4       87       88       96      198 </v>
   <v type="int" >        4       88       96      198      199 </v>
   <v type="int" >        4       96      198      199      207 </v>
   <v type="int" >        4       88       89       97      199 </v>
   <v type="int" >        4       88       96       97      199 </v>
   <v type="int" >        4       96       97      199      207 </v>
   <v type="int" >        4       89       97      199      200 </v>
   <v type="int" >        4       97      199      200      208 </v>
   <v type="int" >        4       97      199      207      208 </v>
   <v type="int" >        4       89       90       98      200 </v>
   <v type="int" >        4       89       97       98      200 </v>
   <v type="int" >        4       97       98      200      208 </v>
   <v type="int" >        4       90       98      200      201 </v>
   <v type="int" >        4       98      200      201      209 </v>
   <v type="int" >        4       98      200      208      209 </v>
   <v type="int" >        4       90       91       99      201 </v>
   <v type="int" >        4       90       98       99      201 </v>
   <v type="int" >        4       98       99      201      209 </v>
   <v type="int" >        4       91       99      201      202 </v>
   <v type="int" >        4       99      201      202      210 </v>
   <v type="int" >        4       99      201      209      210 </v>
   <v type="int" >        4       91       92      100      202 </v>
   <v type="int" >        4       91       99      100      202 </v>
   <v type="int" >        4       99      100      202      210 </v>
   <v type="int" >        4       92      100      202      203 </v>
   <v type="int" >        4      100      202      203      211 </v>
   <v type="int" >        4      100      202      210      211 </v>
   <v type="int" >        4       92       93      101      203 </v>
   <v type="int" >        4       92      100      101      203 </v>
   <v type="int" >        4      100      101      203      211 </v>
   <v type="int" >        4       93      101      203      204 </v>
   <v type="int" >        4      101      203      204      212 </v>
   <v type="int" >        4      101      203      211      212 </v>
   <v type="int" >        4       93       94      102      204 </v>
   <v type="int" >        4       93      101      102      204 </v>
   <v type="int" >        4      101      102      204      212 </v>
   <v type="int" >        4       94      102      204      205 </v>
   <v type="int" >        4      102      204      205      213 </v>
   <v type="int" >        4      102      204      212      213 </v>
   <v type="int" >        4       94       94       95      205 </v>
   <v type="int" >        4       94       94      102      205 </v>
   <v type="int" >        4       94      102      205      213 </v>
   <v type="int" >        4       94       95      205      206 </v>
   <v type="int" >        4       94      205      205      206 </v>
   <v type="int" >        4       94      205      205      213 </v>
   <v type="int" >        4       84       85       95      206 </v>
   <v type="int" >        4       84       94       95      206 </v>
   <v type="int" >        4       84       94      205      206 </v>
   <v type="int" >        4       84       85      196      206 </v>
   <v type="int" >        4       84      195      196      206 </v>
   <v type="int" >        4       84      195      205      206 </v>
   <v type="int" >        4       72       73       85      196 </v>
   <v type="int" >        4       72       84       85      196 </v>
   <v type="int" >        4       72       84      195      196 </v>
   <v type="int" >        4       72       73      184      196 </v>
   <v type="int" >        4       72      183      184      196 </v>
   <v type="int" >        4       72      183      195      196 </v>
   <v type="int" >        4       58       59       73      184 </v>
   <v type="int" >        4       58       72       73      184 </v>
   <v type="int" >        4       58       72      183      184 </v>
   <v type="int" >        4       58       59      170      184 </v>
   <v type="int" >        4       58      169      170      184 </v>
   <v type="int" >        4       58      169      183      184 </v>
   <v type="int" >        4       42       43       59      170 </v>
   <v type="int" >        4       42       58       59      170 </v>
   <v type="int" >        4       42       58      169      170 </v>
   <v type="int" >        4       42       43      154      170 </v>
   <v type="int" >        4       42      153      154      170 </v>
   <v type="int" >        4       42      153      169      170 </v>
   <v type="int" >        4       24       25       43      154 </v>
   <v type="int" >        4       24       42       43      154 </v>
   <v type="int" >        4       24       42      153      154 </v>
   <v type="int" >        4       24       25      136      154 </v>
   <v type="int" >        4       24      135      136      154 </v>
   <v type="int" >        4       24      135      153      154 </v>
   <v type="int" >        4        7        8       25      136 </v>
   <v type="int" >        4        8       24       25      136 </v>
   <v type="int" >        4        8       24      135      136 </v>
   <v type="int" >        4        7        8      118      136 </v>
   <v type="int" >        4        8      118      119      136 </v>
   <v type="int" >        4        8      119      135      136 </v>
   <v type="int" >        4       96       97      103      207 </v>
   <v type="int" >        4       97      103      207      208 </v>
   <v type="int" >        4      103      207      208      214 </v>
   <v type="int" >        4       97       98      104      208 </v>
   <v type="int" >        4       97      103      104      208 </v>
   <v type="int" >        4      103      104      208      214 </v>
   <v type="int" >        4       98      104      208      209 </v>
   <v type="int" >        4      104      208      209      215 </v>
   <v type="int" >        4      104      208      214      215 </v>
   <v type="int" >        4       98       99      105      209 </v>
   <v type="int" >        4       98      104      105      209 </v>
   <v type="int" >        4      104      105      209      215 </v>
   <v type="int" >        4       99      105      209      210 </v>
   <v type="int" >        4      105      209      210      216 </v>
   <v type="int" >        4      105      209      215      216 </v>
   <v type="int" >        4       99      100      106      210 </v>
   <v type="int" >        4       99      105      106      210 </v>
   <v type="int" >        4      105      106      210      216 </v>
   <v type="int" >        4      100      106      210      211 </v>
   <v type="int" >        4      106      210      211      217 </v>
   <v type="int" >        4      106      210      216      217 </v>
   <v type="int" >        4      100      101      107      211 </v>
   <v type="int" >        4      100      106      107      211 </v>
   <v type="int" >        4      106      107      211      217 </v>
   <v type="int" >        4      101      107      211      212 </v>
   <v type="int" >        4      107      211      212      218 </v>
   <v type="int" >        4      107      211      217      218 </v>
   <v type="int" >        4      101      101      102      212 </v>
   <v type="int" >        4      101      101      107      212 </v>
   <v type="int" >        4      101      107      212      218 </v>
   <v type="int" >        4      101      102      212      213 </v>
   <v type="int" >        4      101      212      212      213 </v>
   <v type="int" >        4      101      212      212      218 </v>
   <v type="int" >        4       93       94      102      213 </v>
   <v type="int" >        4       93      101      102      213 </v>
   <v type="int" >        4       93      101      212      213 </v>
   <v type="int" >        4       93       94      205      213 </v>
   <v type="int" >        4       93      204      205      213 </v>
   <v type="int" >        4       93      204      212      213 </v>
   <v type="int" >        4       83       84       94      205 </v>
   <v type="int" >        4       83       93       94      205 </v>
   <v type="int" >        4       83       93      204      205 </v>
   <v type="int" >        4       83       84      195      205 </v>
   <v type="int" >        4       83      194      195      205 </v>
   <v type="int" >        4       83      194      204      205 </v>
   <v type="int" >        4       71       72       84      195 </v>
   <v type="int" >        4       71       83       84      195 </v>
   <v type="int" >        4       71       83      194      195 </v>
   <v type="int" >        4       71       72      183      195 </v>
   <v type="int" >        4       71      182      183      195 </v>
   <v type="int" >        4       71      182      194      195 </v>
   <v type="int" >        4       57       58       72      183 </v>
   <v type="int" >        4       57       71       72      183 </v>
   <v type="int" >        4       57       71      182      183 </v>
   <v type="int" >        4       57       58      169      183 </v>
   <v type="int" >        4       57      168      169      183 </v>
   <v type="int" >        4       57      168      182      183 </v>
   <v type="int" >        4       41       42       58      169 </v>
   <v type="int" >        4       41       57       58      169 </v>
   <v type="int" >        4       41       57      168      169 </v>
   <v type="int" >        4       41       42      153      169 </v>
   <v type="int" >        4       41      152      153      169 </v>
   <v type="int" >        4       41      152      168      169 </v>
   <v type="int" >        4       23       24       42      153 </v>
   <v type="int" >        4       23       41       42      153 </v>
   <v type="int" >        4       23       41      152      153 </v>
   <v type="int" >        4       23       24      135      153 </v>
   <v type="int" >        4       23      134      135      153 </v>
   <v type="int" >        4       23      134      152      153 </v>
   <v type="int" >        4        8        9       24      135 </v>
   <v type="int" >        4        9       23       24      135 </v>
   <v type="int" >        4        9       23      134      135 </v>
   <v type="int" >        4        8        9      119      135 </v>
   <v type="int" >        4        9      119      120      135 </v>
   <v type="int" >        4        9      120      134      135 </v>
   <v type="int" >        4      103      104      108      214 </v>
   <v type="int" >        4      104      108      214      215 </v>
   <v type="int" >        4      108      214      215      219 </v>
   <v type="int" >        4      104      105      109      215 </v>
   <v type="int" >        4      104      108      109      215 </v>
   <v type="int" >        4      108      109      215      219 </v>
   <v type="int" >        4      105      109      215      216 </v>
   <v type="int" >        4      109      215      216      220 </v>
   <v type="int" >        4      109      215      219      220 </v>
   <v type="int" >        4      105      106      110      216 </v>
   <v type="int" >        4      105      109      110      216 </v>
   <v type="int" >        4      109      110      216      220 </v>
   <v type="int" >        4      106      110      216      217 </v>
   <v type="int" >        4      110      216      217      221 </v>
   <v type="int" >        4      110      216      220      221 </v>
   <v type="int" >        4      106      106      107      217 </v>
   <v type="int" >        4      106      106      110      217 </v>
   <v type="int" >        4      106      110      217      221 </v>
   <v type="int" >        4      106      107      217      218 </v>
   <v type="int" >        4      106      217      217      218 </v>
   <v type="int" >        4      106      217      217      221 </v>
   <v type="int" >        4      100      101      107      218 </v>
   <v type="int" >        4      100      106      107      218 </v>
   <v type="int" >        4      100      106      217      218 </v>
   <v type="int" >        4      100      101      212      218 </v>
   <v type="int" >        4      100      211      212      218 </v>
   <v type="int" >        4      100      211      217      218 </v>
   <v type="int" >        4       92       93      101      212 </v>
   <v type="int" >        4       92      100      101      212 </v>
   <v type="int" >        4       92      100      211      212 </v>
   <v type="int" >        4       92       93      204      212 </v>
   <v type="int" >        4       92      203      204      212 </v>
   <v type="int" >        4       92      203      211      212 </v>
   <v type="int" >        4       82       83       93      204 </v>
   <v type="int" >        4       82       92       93      204 </v>
   <v type="int" >        4       82       92      203      204 </v>
   <v type="int" >        4       82       83      194      204 </v>
   <v type="int" >        4       82      193      194      204 </v>
   <v type="int" >        4       82      193      203      204 </v>
   <v type="int" >        4       70       71       83      194 </v>
   <v type="int" >        4       70       82       83      194 </v>
   <v type="int" >        4       70       82      193      194 </v>
   <v type="int" >        4       70       71      182      194 </v>
   <v type="int" >        4       70      181      182      194 </v>
   <v type="int" >        4       70      181      193      194 </v>
   <v type="int" >        4       56       57       71      182 </v>
   <v type="int" >        4       56       70       71      182 </v>
   <v type="int" >        4       56       70      181      182 </v>
   <v type="int" >        4       56       57      168      182 </v>
   <v type="int" >        4       56      167      168      182 </v>
   <v type="int" >        4       56      167      181      182 </v>
   <v type="int" >        4       40       41       57      168 </v>
   <v type="int" >        4       40       56       57      168 </v>
   <v type="int" >        4       40       56      167      168 </v>
   <v type="int" >        4       40       41      152      168 </v>
   <v type="int" >        4       40      151      152      168 </v>
   <v type="int" >        4       40      151      167      168 </v>
   <v type="int" >        4       22       23       41      152 </v>
   <v type="int" >        4       22       40       41      152 </v>
   <v type="int" >        4       22       40      151      152 </v>
   <v type="int" >        4       22       23      134      152 </v>
   <v type="int" >        4       22      133      134      152 </v>
   <v type="int" >        4       22      133      151      152 </v>
[...]
       <r>  -15.7102    1.0000 </r>
       <r>  -12.4703    1.0000 </r>
       <r>   -5.5415    1.0000 </r>
       <r>   -1.8456    0.0000 </r>
       <r>    6.9930    0.0000 </r>
       <r>    7.3583    0.0000 </r>
       <r>    7.3742    0.0000 </r>
      </set>
      <set comment="kpoint 212">
       <r>  -17.2842    1.0000 </r>
       <r>  -15.9510    1.0000 </r>
       <r>  -13.4250    1.0000 </r>
       <r>   -4.7837    1.0000 </r>
       <r>   -2.5178    0.0000 </r>
       <r>    7.2927    0.0000 </r>
       <r>    8.1693    0.0000 </r>
       <r>    8.7194    0.0000 </r>
      </set>
      <set comment="kpoint 213">
       <r>  -16.6433    1.0000 </r>
       <r>  -16.1106    1.0000 </r>
       <r>  -14.1328    1.0000 </r>
       <r>   -4.0610    1.0000 </r>
       <r>   -3.1788    0.0000 </r>
       <r>    7.0387    0.0000 </r>
       <r>    9.1656    0.0000 </r>
       <r>    9.3264    0.0000 </r>
      </set>
      <set comment="kpoint 214">
       <r>  -19.5896    1.0000 </r>
       <r>  -15.0434    1.0000 </r>
       <r>   -9.8571    1.0000 </r>
       <r>   -7.1424    1.0000 </r>
       <r>   -0.4192    0.0000 </r>
       <r>    3.8930    0.0000 </r>
       <r>    4.7588    0.0000 </r>
       <r>    5.4863    0.0000 </r>
      </set>
      <set comment="kpoint 215">
       <r>  -19.0958    1.0000 </r>
       <r>  -15.6148    1.0000 </r>
       <r>  -10.1573    1.0000 </r>
       <r>   -6.6740    1.0000 </r>
       <r>   -1.0103    0.0000 </r>
       <r>    4.1141    0.0000 </r>
       <r>    5.4683    0.0000 </r>
       <r>    6.2108    0.0000 </r>
      </set>
      <set comment="kpoint 216">
       <r>  -18.5160    1.0000 </r>
       <r>  -16.0809    1.0000 </r>
       <r>  -10.7790    1.0000 </r>
       <r>   -6.1523    1.0000 </r>
       <r>   -1.5375    0.0000 </r>
       <r>    4.8430    0.0000 </r>
       <r>    6.3315    0.0000 </r>
       <r>    7.0612    0.0000 </r>
      </set>
      <set comment="kpoint 217">
       <r>  -17.8959    1.0000 </r>
       <r>  -16.3983    1.0000 </r>
       <r>  -11.6176    1.0000 </r>
       <r>   -5.6187    1.0000 </r>
       <r>   -1.9733    0.0000 </r>
       <r>    5.9596    0.0000 </r>
       <r>    7.3294    0.0000 </r>
       <r>    7.8428    0.0000 </r>
      </set>
      <set comment="kpoint 218">
       <r>  -17.4055    1.0000 </r>
       <r>  -16.4116    1.0000 </r>
       <r>  -12.5455    1.0000 </r>
       <r>   -5.1344    1.0000 </r>
       <r>   -2.3037    0.0000 </r>
       <r>    7.3130    0.0000 </r>
       <r>    7.7328    0.0000 </r>
       <r>    8.3286    0.0000 </r>
      </set>
      <set comment="kpoint 219">
       <r>  -18.6760    1.0000 </r>
       <r>  -16.2174    1.0000 </r>
       <r>  -10.0305    1.0000 </r>
       <r>   -6.3620    1.0000 </r>
       <r>   -1.4782    0.0000 </r>
       <r>    3.8001    0.0000 </r>
       <r>    6.0994    0.0000 </r>
       <r>    6.8622    0.0000 </r>
      </set>
      <set comment="kpoint 220">
       <r>  -18.2057    1.0000 </r>
       <r>  -16.6779    1.0000 </r>
       <r>  -10.2739    1.0000 </r>
       <r>   -6.0477    1.0000 </r>
       <r>   -1.8210    0.0000 </r>
       <r>    4.0494    0.0000 </r>
       <r>    6.8815    0.0000 </r>
       <r>    7.6491    0.0000 </r>
      </set>
      <set comment="kpoint 221">
       <r>  -17.8634    1.0000 </r>
       <r>  -16.8190    1.0000 </r>
       <r>  -10.8401    1.0000 </r>
       <r>   -5.7860    1.0000 </r>
       <r>   -1.9876    0.0000 </r>
       <r>    4.8100    0.0000 </r>
       <r>    7.7233    0.0000 </r>
       <r>    7.8889    0.0000 </r>
      </set>
      <set comment="kpoint 222">
       <r>  -18.0155    1.0000 </r>
       <r>  -16.9646    1.0000 </r>
       <r>  -10.0884    1.0000 </r>
       <r>   -6.0057    1.0000 </r>
       <r>   -1.9304    0.0000 </r>
       <r>    3.7674    0.0000 </r>
       <r>    7.5122    0.0000 </r>
       <r>    7.6667    0.0000 </r>
      </set>
     </set>
    </set>
   </array>
  </eigenvalues>
  <separator name="orbital magnetization" >
   <v name="MAGDIPOLOUT">      0.00000000      0.00000000      0.00000000</v>
  </separator>
  <dos>
   <i name="efermi">     -4.02285513 </i>
   <total>
    <array>
     <dimension dim="1">gridpoints</dimension>
     <dimension dim="2">spin</dimension>
     <field>energy</field>
     <field>total</field>
     <field>integrated</field>
     <set>
      <set comment="spin 1">
       <r>   -25.2942     0.0000     0.0000 </r>
       <r>   -25.1722     0.0000     0.0000 </r>
       <r>   -25.0501     0.0000     0.0000 </r>
       <r>   -24.9280     0.0000     0.0000 </r>
       <r>   -24.8059     0.0000     0.0000 </r>
       <r>   -24.6839     0.0000     0.0000 </r>
       <r>   -24.5618     0.0000     0.0000 </r>
       <r>   -24.4397     0.0000     0.0000 </r>
       <r>   -24.3176     0.0000     0.0000 </r>
       <r>   -24.1956     0.0000     0.0000 </r>
       <r>   -24.0735     0.0000     0.0000 </r>
       <r>   -23.9514     0.0000     0.0000 </r>
       <r>   -23.8294     0.0000     0.0000 </r>
       <r>   -23.7073     0.0000     0.0000 </r>
       <r>   -23.5852     0.0000     0.0000 </r>
       <r>   -23.4631     0.0000     0.0000 </r>
       <r>   -23.3411     0.0000     0.0000 </r>
       <r>   -23.2190     0.2648     0.0192 </r>
       <r>   -23.0969     0.3204     0.0565 </r>
       <r>   -22.9748     0.3060     0.0929 </r>
       <r>   -22.8528     0.3032     0.1313 </r>
       <r>   -22.7307     0.3024     0.1680 </r>
       <r>   -22.6086     0.3180     0.2059 </r>
       <r>   -22.4865     0.3028     0.2437 </r>
       <r>   -22.3645     0.3058     0.2809 </r>
       <r>   -22.2424     0.3146     0.3187 </r>
       <r>   -22.1203     0.3082     0.3570 </r>
       <r>   -21.9982     0.3065     0.3944 </r>
       <r>   -21.8762     0.3104     0.4320 </r>
       <r>   -21.7541     0.3158     0.4702 </r>
       <r>   -21.6320     0.3098     0.5086 </r>
       <r>   -21.5099     0.3092     0.5464 </r>
       <r>   -21.3879     0.3116     0.5843 </r>
       <r>   -21.2658     0.3152     0.6225 </r>
       <r>   -21.1437     0.3192     0.6612 </r>
       <r>   -21.0217     0.3126     0.6997 </r>
       <r>   -20.8996     0.3134     0.7379 </r>
       <r>   -20.7775     0.3147     0.7762 </r>
       <r>   -20.6554     0.3179     0.8148 </r>
       <r>   -20.5334     0.3210     0.8538 </r>
       <r>   -20.4113     0.3176     0.8928 </r>
       <r>   -20.2892     0.3175     0.9316 </r>
       <r>   -20.1671     0.3191     0.9704 </r>
       <r>   -20.0451     0.3211     1.0095 </r>
       <r>   -19.9230     0.3236     1.0488 </r>
       <r>   -19.8009     0.3266     1.0885 </r>
       <r>   -19.6788     0.3249     1.1283 </r>
       <r>   -19.5568     0.3257     1.1680 </r>
       <r>   -19.4347     0.3276     1.2079 </r>
       <r>   -19.3126     0.3305     1.2480 </r>
       <r>   -19.1905     0.3336     1.2886 </r>
       <r>   -19.0685     0.3371     1.3295 </r>
       <r>   -18.9464     0.3408     1.3709 </r>
       <r>   -18.8243     0.3446     1.4127 </r>
       <r>   -18.7022     0.3503     1.4551 </r>
       <r>   -18.5802     0.3614     1.4985 </r>
       <r>   -18.4581     0.3799     1.5435 </r>
       <r>   -18.3360     0.4051     1.5915 </r>
       <r>   -18.2140     0.4303     1.6424 </r>
       <r>   -18.0919     0.4781     1.7118 </r>
       <r>   -17.9698     0.3415     1.7592 </r>
       <r>   -17.8477     0.2644     1.8135 </r>
       <r>   -17.7257     0.2345     1.8440 </r>
       <r>   -17.6036     0.2046     1.8708 </r>
       <r>   -17.4815     0.1747     1.8939 </r>
       <r>   -17.3594     0.2188     1.9152 </r>
       <r>   -17.2374     0.1333     1.9417 </r>
       <r>   -17.1153     0.1154     1.9569 </r>
       <r>   -16.9932     0.0976     1.9699 </r>
       <r>   -16.8711     0.1396     1.9835 </r>
       <r>   -16.7491     0.3707     2.0101 </r>
       <r>   -16.6270     0.2264     2.0619 </r>
       <r>   -16.5049     0.2593     2.0916 </r>
       <r>   -16.3828     0.3087     2.1411 </r>
       <r>   -16.2608     0.3234     2.1797 </r>
       <r>   -16.1387     0.3415     2.2202 </r>
       <r>   -16.0166     0.5911     2.2813 </r>
       <r>   -15.8945     0.4521     2.3508 </r>
       <r>   -15.7725     0.4067     2.4032 </r>
       <r>   -15.6504     0.3666     2.4502 </r>
       <r>   -15.5283     0.3444     2.4932 </r>
       <r>   -15.4063     0.3372     2.5348 </r>
       <r>   -15.2842     0.3304     2.5756 </r>
       <r>   -15.1621     0.3239     2.6155 </r>
       <r>   -15.0400     0.2959     2.6540 </r>
       <r>   -14.9180     0.2932     2.6900 </r>
       <r>   -14.7959     0.2907     2.7256 </r>
       <r>   -14.6738     0.2882     2.7610 </r>
       <r>   -14.5517     0.2803     2.7957 </r>
       <r>   -14.4297     0.2707     2.8294 </r>
       <r>   -14.3076     0.2611     2.8618 </r>
       <r>   -14.1855     0.2546     2.8932 </r>
       <r>   -14.0634     0.3681     2.9374 </r>
       <r>   -13.9414     0.3527     2.9814 </r>
       <r>   -13.8193     0.3532     3.0240 </r>
       <r>   -13.6972     0.3651     3.0679 </r>
       <r>   -13.5751     0.3675     3.1132 </r>
       <r>   -13.4531     0.3762     3.1583 </r>
       <r>   -13.3310     0.3692     3.2037 </r>
       <r>   -13.2089     0.3667     3.2486 </r>
       <r>   -13.0868     0.3828     3.2949 </r>
       <r>   -12.9648     0.3846     3.3418 </r>
       <r>   -12.8427     0.3830     3.3887 </r>
       <r>   -12.7206     0.3813     3.4353 </r>
       <r>   -12.5986     0.3843     3.4819 </r>
       <r>   -12.4765     0.3961     3.5295 </r>
       <r>   -12.3544     0.4045     3.5784 </r>
       <r>   -12.2323     0.4119     3.6282 </r>
       <r>   -12.1103     0.4144     3.6786 </r>
       <r>   -11.9882     0.4168     3.7294 </r>
       <r>   -11.8661     0.4192     3.7804 </r>
       <r>   -11.7440     0.4246     3.8316 </r>
       <r>   -11.6220     0.4295     3.8837 </r>
       <r>   -11.4999     0.4518     3.9378 </r>
       <r>   -11.3778     0.4622     3.9937 </r>
       <r>   -11.2557     0.8529     4.0628 </r>
       <r>   -11.1337     0.7472     4.1513 </r>
       <r>   -11.0116     0.7328     4.2421 </r>
       <r>   -10.8895     0.7655     4.3336 </r>
       <r>   -10.7674     0.8045     4.4291 </r>
       <r>   -10.6454     0.8388     4.5292 </r>
       <r>   -10.5233     0.8772     4.6341 </r>
       <r>   -10.4012     1.1980     4.7539 </r>
       <r>   -10.2791     0.9267     4.8832 </r>
       <r>   -10.1571     1.0185     5.0045 </r>
       <r>   -10.0350     0.7699     5.1223 </r>
       <r>    -9.9129     0.7550     5.2108 </r>
       <r>    -9.7908     1.0724     5.3175 </r>
       <r>    -9.6688     0.9493     5.4409 </r>
       <r>    -9.5467     0.8051     5.5486 </r>
       <r>    -9.4246     0.7147     5.6392 </r>
       <r>    -9.3026     0.7901     5.7347 </r>
       <r>    -9.1805     0.6620     5.8294 </r>
       <r>    -9.0584     0.5690     5.8930 </r>
       <r>    -8.9363     0.6793     5.9692 </r>
       <r>    -8.8143     0.7422     6.0583 </r>
       <r>    -8.6922     0.6463     6.1421 </r>
       <r>    -8.5701     0.6315     6.2201 </r>
       <r>    -8.4480     0.6168     6.2963 </r>
       <r>    -8.3260     0.6038     6.3708 </r>
       <r>    -8.2039     0.5925     6.4438 </r>
       <r>    -8.0818     0.5995     6.5159 </r>
       <r>    -7.9597     0.5866     6.5885 </r>
       <r>    -7.8377     0.5738     6.6593 </r>
       <r>    -7.7156     0.5625     6.7286 </r>
       <r>    -7.5935     0.5585     6.7968 </r>
       <r>    -7.4714     0.5731     6.8660 </r>
       <r>    -7.3494     0.5636     6.9355 </r>
       <r>    -7.2273     0.5477     7.0034 </r>
       <r>    -7.1052     0.5555     7.0699 </r>
       <r>    -6.9831     0.5492     7.1381 </r>
       <r>    -6.8611     0.5523     7.2065 </r>
       <r>    -6.7390     0.4757     7.2735 </r>
       <r>    -6.6169     0.3607     7.3201 </r>
       <r>    -6.4949     0.3789     7.3653 </r>
       <r>    -6.3728     0.3970     7.4126 </r>
       <r>    -6.2507     0.4416     7.4635 </r>
       <r>    -6.1286     0.5152     7.5212 </r>
       <r>    -6.0066     0.5312     7.6069 </r>
       <r>    -5.8845     0.4068     7.6630 </r>
       <r>    -5.7624     0.3307     7.7066 </r>
       <r>    -5.6403     0.3660     7.7491 </r>
       <r>    -5.5183     0.2839     7.7843 </r>
       <r>    -5.3962     0.2488     7.8169 </r>
       <r>    -5.2741     0.2131     7.8451 </r>
       <r>    -5.1520     0.1775     7.8689 </r>
       <r>    -5.0300     0.1691     7.8899 </r>
       <r>    -4.9079     0.1647     7.9102 </r>
       <r>    -4.7858     0.1442     7.9301 </r>
       <r>    -4.6637     0.1171     7.9443 </r>
       <r>    -4.5417     0.1044     7.9579 </r>
       <r>    -4.4196     0.0907     7.9698 </r>
       <r>    -4.2975     0.0770     7.9801 </r>
       <r>    -4.1754     0.0633     7.9886 </r>
       <r>    -4.0534     0.0000     8.0000 </r>
       <r>    -3.9313     0.0000     8.0000 </r>
       <r>    -3.8092     0.0000     8.0000 </r>
       <r>    -3.6872     0.0000     8.0000 </r>
       <r>    -3.5651     0.0000     8.0000 </r>
       <r>    -3.4430     0.0000     8.0000 </r>
       <r>    -3.3209     0.0000     8.0000 </r>
       <r>    -3.1989     0.0000     8.0000 </r>
       <r>    -3.0768     0.0649     8.0108 </r>
       <r>    -2.9547     0.0814     8.0198 </r>
       <r>    -2.8326     0.0980     8.0307 </r>
       <r>    -2.7106     0.1146     8.0437 </r>
       <r>    -2.5885     0.1303     8.0587 </r>
       <r>    -2.4664     0.2061     8.0781 </r>
       <r>    -2.3443     0.1838     8.1019 </r>
       <r>    -2.2223     0.2204     8.1254 </r>
       <r>    -2.1002     0.2857     8.1563 </r>
       <r>    -1.9781     1.5718     8.2009 </r>
       <r>    -1.8560     0.8267     8.2804 </r>
       <r>    -1.7340     0.5052     8.3600 </r>
       <r>    -1.6119     0.4322     8.4170 </r>
       <r>    -1.4898     0.3756     8.4658 </r>
       <r>    -1.3677     0.3529     8.5102 </r>
       <r>    -1.2457     0.3320     8.5520 </r>
       <r>    -1.1236     0.3130     8.5913 </r>
       <r>    -1.0015     0.2965     8.6285 </r>
       <r>    -0.8795     0.2846     8.6639 </r>
       <r>    -0.7574     0.2691     8.6977 </r>
       <r>    -0.6353     0.2619     8.7301 </r>
       <r>    -0.5132     0.2549     8.7617 </r>
       <r>    -0.3912     0.3065     8.7928 </r>
       <r>    -0.2691     0.4499     8.8480 </r>
       <r>    -0.1470     0.4787     8.9054 </r>
       <r>    -0.0249     0.4488     8.9609 </r>
       <r>     0.0971     0.4588     9.0163 </r>
       <r>     0.2192     0.4406     9.0715 </r>
       <r>     0.3413     0.6233     9.1442 </r>
       <r>     0.4634     1.0849     9.2449 </r>
       <r>     0.5854     1.0864     9.3777 </r>
       <r>     0.7075     1.0770     9.5116 </r>
       <r>     0.8296     1.0751     9.6429 </r>
       <r>     0.9517     1.0924     9.7757 </r>
       <r>     1.0737     1.0741     9.9074 </r>
       <r>     1.1958     1.0757    10.0384 </r>
       <r>     1.3179     1.0702    10.1695 </r>
       <r>     1.4400     1.0616    10.3002 </r>
       <r>     1.5620     1.0548    10.4290 </r>
       <r>     1.6841     1.0928    10.5599 </r>
       <r>     1.8062     1.1340    10.6960 </r>
       <r>     1.9282     1.2439    10.8397 </r>
       <r>     2.0503     1.3755    10.9994 </r>
       <r>     2.1724     0.9956    11.1466 </r>
       <r>     2.2945     0.8365    11.2581 </r>
       <r>     2.4165     0.8315    11.3596 </r>
       <r>     2.5386     1.2889    11.4821 </r>
       <r>     2.6607     1.0359    11.6194 </r>
       <r>     2.7828     0.8652    11.7369 </r>
       <r>     2.9048     0.8049    11.8388 </r>
       <r>     3.0269     0.7376    11.9330 </r>
       <r>     3.1490     0.7248    12.0215 </r>
       <r>     3.2711     0.7189    12.1102 </r>
       <r>     3.3931     0.7122    12.1976 </r>
       <r>     3.5152     0.6996    12.2837 </r>
       <r>     3.6373     0.7153    12.3699 </r>
       <r>     3.7594     0.7372    12.4585 </r>
       <r>     3.8814     1.2032    12.5810 </r>
       <r>     4.0035     1.2765    12.7339 </r>
       <r>     4.1256     0.9141    12.8786 </r>
       <r>     4.2477     0.9020    12.9895 </r>
       <r>     4.3697     0.8865    13.0989 </r>
       <r>     4.4918     0.8608    13.2055 </r>
       <r>     4.6139     0.8349    13.3089 </r>
       <r>     4.7360     0.8100    13.4093 </r>
       <r>     4.8580     0.7554    13.5061 </r>
       <r>     4.9801     0.7377    13.5966 </r>
       <r>     5.1022     0.7297    13.6863 </r>
       <r>     5.2242     0.7176    13.7746 </r>
       <r>     5.3463     0.7052    13.8615 </r>
       <r>     5.4684     0.6946    13.9469 </r>
       <r>     5.5905     0.6872    14.0313 </r>
       <r>     5.7125     0.6800    14.1147 </r>
       <r>     5.8346     0.6727    14.1973 </r>
       <r>     5.9567     0.6678    14.2790 </r>
       <r>     6.0788     0.6599    14.3598 </r>
       <r>     6.2008     0.6474    14.4396 </r>
       <r>     6.3229     0.6548    14.5189 </r>
       <r>     6.4450     0.6521    14.5987 </r>
       <r>     6.5671     0.6485    14.6781 </r>
       <r>     6.6891     0.6671    14.7580 </r>
       <r>     6.8112     0.6633    14.8392 </r>
       <r>     6.9333     0.8806    14.9343 </r>
       <r>     7.0554     1.2805    15.0557 </r>
       <r>     7.1774     1.0555    15.1975 </r>
       <r>     7.2995     1.6510    15.3218 </r>
       <r>     7.4216     0.7323    15.4144 </r>
       <r>     7.5437     0.6399    15.4980 </r>
       <r>     7.6657     0.6914    15.5875 </r>
       <r>     7.7878     0.4505    15.6500 </r>
       <r>     7.9099     0.3377    15.7145 </r>
       <r>     8.0319     0.3033    15.7536 </r>
       <r>     8.1540     0.2706    15.7886 </r>
       <r>     8.2761     0.1975    15.8154 </r>
       <r>     8.3982     0.1828    15.8381 </r>
       <r>     8.5202     0.1833    15.8604 </r>
       <r>     8.6423     0.1837    15.8828 </r>
       <r>     8.7644     0.1548    15.9040 </r>
       <r>     8.8865     0.1479    15.9225 </r>
       <r>     9.0085     0.1410    15.9402 </r>
       <r>     9.1306     0.1342    15.9570 </r>
       <r>     9.2527     0.1044    15.9757 </r>
       <r>     9.3748     0.0000    16.0000 </r>
       <r>     9.4968     0.0000    16.0000 </r>
       <r>     9.6189     0.0000    16.0000 </r>
       <r>     9.7410     0.0000    16.0000 </r>
       <r>     9.8631     0.0000    16.0000 </r>
       <r>     9.9851     0.0000    16.0000 </r>
       <r>    10.1072     0.0000    16.0000 </r>
       <r>    10.2293     0.0000    16.0000 </r>
       <r>    10.3514     0.0000    16.0000 </r>
       <r>    10.4734     0.0000    16.0000 </r>
       <r>    10.5955     0.0000    16.0000 </r>
       <r>    10.7176     0.0000    16.0000 </r>
       <r>    10.8396     0.0000    16.0000 </r>
       <r>    10.9617     0.0000    16.0000 </r>
       <r>    11.0838     0.0000    16.0000 </r>
       <r>    11.2059     0.0000    16.0000 </r>
       <r>    11.3279     0.0000    16.0000 </r>
      </set>
     </set>
    </array>
   </total>
  </dos>
 </calculation>
 <structure name="finalpos" >
  <crystal>
   <varray name="basis" >
    <v>       2.13036000      -1.23000000       0.00000000 </v>
    <v>       2.13036000       1.23000000       0.00000000 </v>
    <v>       0.00000000       0.00000000      49.20000000 </v>
   </varray>
   <i name="volume">    257.84173152 </i>
   <varray name="rec_basis" >
    <v>       0.23470212      -0.40650407       0.00000000 </v>
    <v>       0.23470212       0.40650407       0.00000000 </v>
    <v>       0.00000000       0.00000000       0.02032520 </v>
   </varray>
  </crystal>
  <varray name="positions" >
   <v>       0.00000000       0.00000000       0.00000000 </v>
   <v>       0.66670000       0.66670000       0.00000000 </v>
  </varray>
 </structure>
</modeling>
