graphene (single layer)                 
           1
     2.130360   -1.230000    0.000000
     2.130360    1.230000    0.000000
     0.000000    0.000000   49.200000
   C 
   2
Direct configuration=     1
   0.00000000  0.00000000  0.00000000
   0.66670000  0.66670000  0.00000000
