Si                                      
   3.90000000000000     
     0.700176    0.700176    0.000000
     0.000000    0.700176    0.700176
     0.700176    0.000000    0.700176
   Si
     2
Direct
  0.000000  0.000000  0.000000
  0.250000  0.250000  0.250000
 
   32   32   32
 -7.8126     -6.0155     -1.2203      5.0474      10.975      15.153      16.997      16.776      15.309      13.490    
  11.729      10.173      8.8914      7.9038      7.2072      6.7933      6.6561      6.7933      7.2072      7.9038    
  8.8915      10.173      11.729      13.490      15.309      16.776      16.997      15.153      10.975      5.0476    
 -1.2203     -6.0156     -6.0155     -2.5085      3.3363      9.7023      14.877      17.851      18.524      17.520    
  15.777      13.955      12.272      10.825      9.6555      8.7738      8.1833      7.8870      7.8869      8.1833    
  8.7738      9.6556      10.825      12.272      13.956      15.776      17.520      18.524      17.851      14.878    
  9.7025      3.3362     -2.5087     -6.0157     -1.2203      3.3363      9.2111      14.642      18.320      19.773    
  19.340      17.838      16.070      14.355      12.820      11.520      10.481      9.7176      9.2493      9.0912    
  9.2493      9.7176      10.481      11.520      12.820      14.355      16.070      17.838      19.339      19.773    
  18.320      14.642      9.2111      3.3362     -1.2204     -2.9393      5.0474      9.7023      14.642      18.468    
  20.424      20.538      19.417      17.839      16.217      14.700      13.357      12.221      11.316      10.680    
  10.350      10.350      10.680      11.316      12.221      13.357      14.700      16.217      17.839      19.417    
  20.538      20.424      18.468      14.642      9.7023      5.0476      2.2164      2.2163      10.975      14.877    
  18.320      20.424      20.957      20.275      19.022      17.629      16.259      14.987      13.846      12.864    
  12.091      11.590      11.416      11.590      12.091      12.864      13.846      14.987      16.259      17.629    
  19.022      20.275      20.956      20.424      18.320      14.877      10.975      7.8749      6.6928      7.8748    
  15.153      17.851      19.773      20.538      20.275      19.439      18.394      17.295      16.217      15.185    
  14.220      13.372      12.726      12.373      12.373      12.726      13.372      14.220      15.185      16.217    
  17.295      18.394      19.439      20.275      20.538      19.773      17.851      15.153      12.506      10.864    
  10.864      12.506      16.997      18.524      19.340      19.417      19.022      18.394      17.659      16.880    
  16.070      15.233      14.404      13.670      13.152      12.962      13.152      13.670      14.404      15.233    
  16.070      16.880      17.659      18.394      19.022      19.417      19.339      18.524      16.997      15.161    
  13.657      13.076      13.657      15.161      16.776      17.520      17.838      17.839      17.629      17.295    
  16.880      16.381      15.777      15.076      14.338      13.689      13.303      13.303      13.689      14.338    
  15.076      15.777      16.381      16.880      17.295      17.629      17.839      17.838      17.520      16.776    
  15.702      14.622      13.941      13.941      14.622      15.702      15.309      15.777      16.070      16.217    
  16.259      16.217      16.070      15.777      15.309      14.680      13.987      13.434      13.221      13.434    
  13.987      14.680      15.309      15.776      16.070      16.217      16.259      16.217      16.070      15.776    
  15.309      14.680      13.987      13.434      13.221      13.434      13.987      14.680      13.490      13.955    
  14.355      14.700      14.987      15.185      15.233      15.076      14.680      14.080      13.458      13.059    
  13.059      13.458      14.080      14.680      15.076      15.233      15.185      14.987      14.700      14.355    
  13.955      13.490      12.969      12.444      12.005      11.749      11.749      12.004      12.444      12.969    
  11.729      12.272      12.820      13.357      13.846      14.220      14.404      14.338      13.987      13.458    
  12.982      12.791      12.982      13.458      13.987      14.338      14.404      14.220      13.846      13.357    
  12.820      12.272      11.729      11.201      10.709      10.295      10.015      9.9161      10.015      10.295    
  10.709      11.201      10.173      10.825      11.520      12.221      12.864      13.372      13.670      13.689    
  13.434      13.059      12.791      12.791      13.059      13.433      13.689      13.670      13.372      12.864    
  12.221      11.520      10.825      10.173      9.5829      9.0677      8.6463      8.3435      8.1842      8.1842    
  8.3436      8.6464      9.0678      9.5829      8.8914      9.6555      10.481      11.316      12.091      12.726    
  13.152      13.303      13.221      13.059      12.982      13.059      13.221      13.302      13.152      12.726    
  12.091      11.316      10.481      9.6555      8.8915      8.2171      7.6467      7.1888      6.8518      6.6448    
  6.5749      6.6449      6.8519      7.1888      7.6467      8.2170      7.9038      8.7738      9.7176      10.680    
  11.590      12.373      12.962      13.303      13.434      13.458      13.458      13.433      13.302      12.962    
  12.373      11.590      10.680      9.7177      8.7738      7.9038      7.1414      6.5028      5.9928      5.6114    
  5.3577      5.2311      5.2311      5.3577      5.6114      5.9927      6.5027      7.1414      7.2072      8.1833    
  9.2493      10.350      11.416      12.373      13.152      13.689      13.987      14.080      13.987      13.689    
  13.152      12.373      11.416      10.350      9.2493      8.1833      7.2072      6.3556      5.6445      5.0760    
  4.6452      4.3444      4.1670      4.1083      4.1669      4.3443      4.6451      5.0760      5.6445      6.3557    
  6.7933      7.8870      9.0912      10.350      11.590      12.726      13.670      14.338      14.680      14.680    
  14.338      13.670      12.726      11.590      10.350      9.0911      7.8870      6.7933      5.8446      5.0549    
  4.4234      3.9401      3.5922      3.3676      3.2576      3.2576      3.3676      3.5922      3.9401      4.4234    
  5.0550      5.8446      6.6561      7.8869      9.2493      10.680      12.091      13.372      14.404      15.076    
  15.309      15.076      14.404      13.372      12.091      10.680      9.2493      7.8870      6.6561      5.5933    
  4.7119      4.0079      3.4667      3.0697      2.7995      2.6428      2.5915      2.6428      2.7995      3.0697    
  3.4667      4.0080      4.7119      5.5932      6.7933      8.1833      9.7176      11.316      12.864      14.220    
  15.233      15.777      15.776      15.233      14.220      12.864      11.316      9.7177      8.1833      6.7933    
  5.5933      4.5995      3.8065      3.1956      2.7427      2.4247      2.2229      2.1250      2.1250      2.2229    
  2.4247      2.7428      3.1956      3.8064      4.5994      5.5933      7.2072      8.7738      10.481      12.221    
  13.846      15.185      16.070      16.381      16.070      15.185      13.846      12.221      10.481      8.7738    
  7.2072      5.8446      4.7119      3.8065      3.1074      2.5858      2.2123      1.9626      1.8193      1.7726    
  1.8193      1.9626      2.2123      2.5858      3.1073      3.8064      4.7119      5.8446      7.9038      9.6556    
  11.520      13.357      14.987      16.217      16.880      16.880      16.217      14.987      13.357      11.520    
  9.6555      7.9038      6.3556      5.0549      4.0079      3.1956      2.5858      2.1436      1.8381      1.6464    
  1.5539      1.5539      1.6464      1.8381      2.1436      2.5858      3.1956      4.0079      5.0550      6.3557    
  8.8915      10.825      12.820      14.700      16.259      17.295      17.659      17.295      16.259      14.700    
  12.820      10.825      8.8915      7.1414      5.6445      4.4234      3.4667      2.7427      2.2123      1.8381    
  1.5904      1.4491      1.4032      1.4491      1.5904      1.8381      2.2123      2.7428      3.4667      4.4234    
  5.6445      7.1414      10.173      12.272      14.355      16.217      17.629      18.394      18.394      17.629    
  16.217      14.355      12.272      10.173      8.2171      6.5028      5.0760      3.9401      3.0697      2.4247    
  1.9626      1.6464      1.4491      1.3543      1.3543      1.4491      1.6464      1.9626      2.4247      3.0697    
  3.9401      5.0760      6.5027      8.2170      11.729      13.956      16.070      17.839      19.022      19.439    
  19.022      17.839      16.070      13.955      11.729      9.5829      7.6467      5.9928      4.6452      3.5922    
  2.7995      2.2229      1.8193      1.5539      1.4032      1.3543      1.4032      1.5539      1.8193      2.2229    
  2.7995      3.5921      4.6451      5.9927      7.6466      9.5829      13.490      15.776      17.838      19.417    
  20.275      20.275      19.417      17.838      15.776      13.490      11.201      9.0677      7.1888      5.6114    
  4.3444      3.3676      2.6428      2.1250      1.7726      1.5539      1.4491      1.4491      1.5539      1.7726    
  2.1250      2.6428      3.3676      4.3443      5.6114      7.1888      9.0678      11.201      15.309      17.520    
  19.339      20.538      20.956      20.538      19.339      17.520      15.309      12.969      10.709      8.6463    
  6.8518      5.3577      4.1670      3.2576      2.5915      2.1250      1.8193      1.6464      1.5904      1.6464    
  1.8193      2.1250      2.5915      3.2576      4.1670      5.3578      6.8519      8.6464      10.709      12.969    
  16.776      18.524      19.773      20.424      20.424      19.773      18.524      16.776      14.680      12.444    
  10.295      8.3435      6.6448      5.2311      4.1083      3.2576      2.6428      2.2229      1.9626      1.8381    
  1.8381      1.9626      2.2229      2.6428      3.2576      4.1083      5.2311      6.6449      8.3436      10.295    
  12.444      14.680      16.997      17.851      18.320      18.468      18.320      17.851      16.997      15.702    
  13.987      12.005      10.015      8.1842      6.5749      5.2311      4.1669      3.3676      2.7995      2.4247    
  2.2123      2.1436      2.2123      2.4247      2.7995      3.3676      4.1670      5.2311      6.5749      8.1841    
  10.015      12.005      13.987      15.702      15.153      14.878      14.642      14.642      14.877      15.153    
  15.161      14.622      13.434      11.749      9.9161      8.1842      6.6449      5.3577      4.3443      3.5922    
  3.0697      2.7428      2.5858      2.5858      2.7428      3.0697      3.5921      4.3443      5.3578      6.6449    
  8.1841      9.9160      11.749      13.434      14.622      15.161      10.975      9.7025      9.2111      9.7023    
  10.975      12.506      13.657      13.941      13.221      11.749      10.015      8.3436      6.8519      5.6114    
  4.6451      3.9401      3.4667      3.1956      3.1073      3.1956      3.4667      3.9401      4.6451      5.6114    
  6.8519      8.3436      10.015      11.749      13.221      13.941      13.657      12.506      5.0476      3.3362    
  3.3362      5.0476      7.8749      10.864      13.076      13.941      13.434      12.004      10.295      8.6464    
  7.1888      5.9927      5.0760      4.4234      4.0080      3.8064      3.8064      4.0079      4.4234      5.0760    
  5.9927      7.1888      8.6464      10.295      12.005      13.434      13.941      13.076      10.864      7.8750    
 -1.2203     -2.5087     -1.2204      2.2164      6.6928      10.864      13.657      14.622      13.987      12.444    
  10.709      9.0678      7.6467      6.5027      5.6445      5.0550      4.7119      4.5994      4.7119      5.0550    
  5.6445      6.5027      7.6466      9.0678      10.709      12.444      13.987      14.622      13.657      10.864    
  6.6928      2.2164     -6.0156     -6.0157     -2.9393      2.2163      7.8748      12.506      15.161      15.702    
  14.680      12.969      11.201      9.5829      8.2170      7.1414      6.3557      5.8446      5.5932      5.5933    
  5.8446      6.3557      7.1414      8.2170      9.5829      11.201      12.969      14.680      15.702      15.161    
  12.506      7.8750      2.2164     -2.9392     -6.0155     -2.5085      3.3363      9.7023      14.877      17.851    
  18.524      17.520      15.777      13.955      12.272      10.825      9.6555      8.7738      8.1833      7.8870    
  7.8869      8.1833      8.7738      9.6556      10.825      12.272      13.956      15.776      17.520      18.524    
  17.851      14.878      9.7025      3.3362     -2.5087     -6.0157     -2.5085      2.3273      8.5775      14.386    
  18.369      20.019      19.673      18.177      16.381      14.634      13.068      11.742      10.681      9.9003    
  9.4209      9.2590      9.4210      9.9003      10.681      11.742      13.068      14.634      16.381      18.177    
  19.673      20.019      18.369      14.386      8.5774      2.3271     -2.5086     -4.3310      3.3363      8.5775    
  14.181      18.591      20.956      21.279      20.199      18.567      16.880      15.299      13.898      12.709    
  11.760      11.090      10.742      10.742      11.090      11.760      12.709      13.898      15.299      16.880    
  18.568      20.199      21.279      20.956      18.591      14.180      8.5774      3.3362     0.15887     0.15888    
  9.7023      14.386      18.591      21.275      22.138      21.552      20.241      18.757      17.295      15.935    
  14.710      13.650      12.810      12.262      12.071      12.262      12.810      13.650      14.710      15.935    
  17.295      18.757      20.241      21.552      22.138      21.275      18.590      14.386      9.7024      6.0102    
  4.6069      6.0100      14.877      18.369      20.956      22.138      22.029      21.152      20.012      18.811    
  17.629      16.491      15.416      14.460      13.725      13.320      13.320      13.725      14.460      15.416    
  16.491      17.629      18.811      20.012      21.152      22.029      22.138      20.956      18.369      14.877    
  11.509      9.4351      9.4350      11.509      17.851      20.019      21.279      21.552      21.152      20.454    
  19.632      18.757      17.839      16.872      15.897      15.007      14.363      14.126      14.363      15.007    
  15.897      16.872      17.839      18.757      19.632      20.454      21.152      21.552      21.279      20.019    
  17.851      15.327      13.290      12.508      13.290      15.327      18.524      19.673      20.199      20.241    
  20.012      19.632      19.154      18.567      17.838      16.958      15.980      15.096      14.563      14.563    
  15.096      15.980      16.958      17.838      18.567      19.154      19.632      20.012      20.241      20.199    
  19.673      18.524      16.925      15.348      14.364      14.364      15.348      16.925      17.520      18.177    
  18.567      18.757      18.811      18.757      18.567      18.177      17.520      16.576      15.520      14.675    
  14.350      14.675      15.520      16.576      17.520      18.177      18.567      18.757      18.811      18.757    
  18.567      18.177      17.520      16.576      15.520      14.675      14.350      14.675      15.520      16.576    
  15.777      16.381      16.880      17.295      17.629      17.839      17.838      17.520      16.776      15.702    
  14.622      13.941      13.941      14.622      15.702      16.776      17.520      17.838      17.839      17.629    
  17.295      16.880      16.381      15.777      15.076      14.338      13.689      13.303      13.303      13.689    
  14.338      15.076      13.955      14.634      15.299      15.935      16.491      16.872      16.958      16.576    
  15.702      14.579      13.633      13.263      13.633      14.579      15.702      16.576      16.958      16.872    
  16.491      15.935      15.299      14.634      13.956      13.271      12.610      12.040      11.647      11.506    
  11.647      12.040      12.610      13.271      12.272      13.068      13.898      14.710      15.416      15.897    
  15.980      15.520      14.622      13.633      12.988      12.988      13.632      14.622      15.520      15.980    
  15.897      15.415      14.710      13.898      13.068      12.272      11.532      10.867      10.306      9.8936    
  9.6729      9.6729      9.8936      10.306      10.867      11.532      10.825      11.742      12.709      13.650    
  14.460      15.007      15.096      14.675      13.941      13.263      12.988      13.262      13.941      14.675    
  15.096      15.007      14.460      13.650      12.709      11.742      10.825      9.9993      9.2854      8.6988    
  8.2575      7.9816      7.8875      7.9816      8.2576      8.6989      9.2854      9.9993      9.6555      10.681    
  11.760      12.810      13.725      14.363      14.563      14.350      13.941      13.633      13.632      13.941    
  14.350      14.563      14.363      13.725      12.810      11.760      10.681      9.6555      8.7384      7.9566    
  7.3215      6.8387      6.5129      6.3486      6.3487      6.5130      6.8388      7.3215      7.9565      8.7384    
  8.7738      9.9003      11.090      12.262      13.320      14.126      14.563      14.675      14.622      14.579    
  14.622      14.675      14.563      14.125      13.320      12.262      11.091      9.9004      8.7738      7.7677    
  6.9128      6.2196      5.6877      5.3125      5.0895      5.0154      5.0894      5.3125      5.6876      6.2196    
  6.9128      7.7677      8.1833      9.4209      10.742      12.071      13.320      14.363      15.096      15.520    
  15.702      15.702      15.520      15.096      14.363      13.320      12.071      10.742      9.4210      8.1833    
  7.0836      6.1515      5.3956      4.8112      4.3870      4.1117      3.9764      3.9764      4.1117      4.3870    
  4.8111      5.3956      6.1515      7.0836      7.8870      9.2590      10.742      12.262      13.725      15.007    
  15.980      16.576      16.776      16.576      15.980      15.007      13.725      12.262      10.742      9.2589    
  7.8869      6.6774      5.6569      4.8307      4.1892      3.7155      3.3918      3.2036      3.1418      3.2036    
  3.3918      3.7155      4.1893      4.8307      5.6569      6.6774      7.8869      9.4210      11.090      12.810    
  14.460      15.897      16.958      17.520      17.520      16.958      15.897      14.460      12.810      11.091    
  9.4210      7.8869      6.5427      5.4138      4.5023      3.7940      3.2658      2.8936      2.6571      2.5422    
  2.5422      2.6570      2.8936      3.2658      3.7940      4.5023      5.4138      6.5427      8.1833      9.9003    
  11.760      13.650      15.416      16.872      17.838      18.177      17.838      16.872      15.415      13.650    
  11.760      9.9004      8.1833      6.6774      5.4138      4.3947      3.6024      3.0085      2.5823      2.2972    
  2.1336      2.0803      2.1336      2.2972      2.5823      3.0085      3.6024      4.3947      5.4138      6.6774    
  8.7738      10.681      12.709      14.710      16.491      17.839      18.567      18.567      17.839      16.491    
  14.710      12.709      10.681      8.7738      7.0836      5.6569      4.5023      3.6024      2.9249      2.4329    
  2.0933      1.8804      1.7778      1.7778      1.8804      2.0933      2.4329      2.9248      3.6024      4.5023    
  5.6569      7.0836      9.6556      11.742      13.898      15.935      17.629      18.757      19.154      18.757    
  17.629      15.935      13.898      11.742      9.6555      7.7677      6.1515      4.8307      3.7940      3.0085    
  2.4329      2.0273      1.7593      1.6067      1.5571      1.6067      1.7593      2.0273      2.4329      3.0085    
  3.7940      4.8307      6.1515      7.7677      10.825      13.068      15.299      17.295      18.811      19.632    
  19.632      18.811      17.295      15.299      13.068      10.825      8.7384      6.9128      5.3956      4.1892    
  3.2658      2.5823      2.0933      1.7593      1.5513      1.4514      1.4514      1.5513      1.7593      2.0933    
  2.5824      3.2658      4.1893      5.3956      6.9127      8.7384      12.272      14.634      16.880      18.757    
  20.012      20.454      20.012      18.757      16.880      14.634      12.272      9.9993      7.9566      6.2196    
  4.8112      3.7155      2.8936      2.2972      1.8804      1.6067      1.4514      1.4011      1.4514      1.6067    
  1.8804      2.2972      2.8936      3.7155      4.8112      6.2196      7.9565      9.9993      13.956      16.381    
  18.568      20.241      21.152      21.152      20.241      18.567      16.381      13.956      11.532      9.2854    
  7.3215      5.6877      4.3870      3.3918      2.6571      2.1336      1.7778      1.5571      1.4514      1.4514    
  1.5571      1.7778      2.1336      2.6570      3.3917      4.3870      5.6877      7.3215      9.2854      11.532    
  15.776      18.177      20.199      21.552      22.029      21.552      20.199      18.177      15.777      13.271    
  10.867      8.6988      6.8387      5.3125      4.1117      3.2036      2.5422      2.0803      1.7778      1.6067    
  1.5513      1.6067      1.7778      2.0803      2.5422      3.2036      4.1117      5.3125      6.8387      8.6989    
  10.867      13.271      17.520      19.673      21.279      22.138      22.138      21.279      19.673      17.520    
  15.076      12.610      10.306      8.2575      6.5129      5.0895      3.9764      3.1418      2.5422      2.1336    
  1.8804      1.7593      1.7593      1.8804      2.1336      2.5422      3.1418      3.9764      5.0895      6.5130    
  8.2576      10.306      12.610      15.076      18.524      20.019      20.956      21.275      20.956      20.019    
  18.524      16.576      14.338      12.040      9.8936      7.9816      6.3486      5.0154      3.9764      3.2036    
  2.6570      2.2972      2.0933      2.0273      2.0933      2.2972      2.6570      3.2036      3.9764      5.0154    
  6.3487      7.9816      9.8936      12.040      14.338      16.576      17.851      18.369      18.591      18.590    
  18.369      17.851      16.925      15.520      13.689      11.647      9.6729      7.8875      6.3487      5.0894    
  4.1117      3.3918      2.8936      2.5823      2.4329      2.4329      2.5824      2.8936      3.3917      4.1117    
  5.0895      6.3487      7.8874      9.6728      11.647      13.689      15.520      16.925      14.878      14.386    
  14.180      14.386      14.877      15.327      15.348      14.675      13.303      11.506      9.6729      7.9816    
  6.5130      5.3125      4.3870      3.7155      3.2658      3.0085      2.9248      3.0085      3.2658      3.7155    
  4.3870      5.3125      6.5130      7.9816      9.6728      11.505      13.303      14.675      15.348      15.327    
  9.7025      8.5774      8.5774      9.7024      11.509      13.290      14.364      14.350      13.303      11.647    
  9.8936      8.2576      6.8388      5.6876      4.8111      4.1893      3.7940      3.6024      3.6024      3.7940    
  4.1893      4.8112      5.6877      6.8387      8.2576      9.8936      11.647      13.303      14.350      14.364    
  13.290      11.509      3.3362      2.3271      3.3362      6.0102      9.4351      12.508      14.364      14.675    
  13.689      12.040      10.306      8.6989      7.3215      6.2196      5.3956      4.8307      4.5023      4.3947    
  4.5023      4.8307      5.3956      6.2196      7.3215      8.6989      10.306      12.040      13.689      14.675    
  14.364      12.508      9.4350      6.0101     -2.5087     -2.5086     0.15887      4.6069      9.4350      13.290    
  15.348      15.520      14.338      12.610      10.867      9.2854      7.9565      6.9128      6.1515      5.6569    
  5.4138      5.4138      5.6569      6.1515      6.9127      7.9565      9.2854      10.867      12.610      14.338    
  15.520      15.348      13.290      9.4350      4.6068     0.15880     -6.0157     -4.3310     0.15888      6.0100    
  11.509      15.327      16.925      16.576      15.076      13.271      11.532      9.9993      8.7384      7.7677    
  7.0836      6.6774      6.5427      6.6774      7.0836      7.7677      8.7384      9.9993      11.532      13.271    
  15.076      16.576      16.925      15.327      11.509      6.0101     0.15880     -4.3311     -1.2203      3.3363    
  9.2111      14.642      18.320      19.773      19.340      17.838      16.070      14.355      12.820      11.520    
  10.481      9.7176      9.2493      9.0912      9.2493      9.7176      10.481      11.520      12.820      14.355    
  16.070      17.838      19.339      19.773      18.320      14.642      9.2111      3.3362     -1.2204     -2.9393    
  3.3363      8.5775      14.181      18.591      20.956      21.279      20.199      18.567      16.880      15.299    
  13.898      12.709      11.760      11.090      10.742      10.742      11.090      11.760      12.709      13.898    
  15.299      16.880      18.568      20.199      21.279      20.956      18.591      14.180      8.5774      3.3362    
 0.15887     0.15888      9.2111      14.181      18.664      21.562      22.548      22.001      20.670      19.154    
  17.659      16.268      15.013      13.925      13.061      12.497      12.301      12.497      13.061      13.925    
  15.013      16.268      17.659      19.154      20.670      22.001      22.548      21.562      18.663      14.180    
  9.2111      5.3029      3.8189      5.3028      14.642      18.591      21.562      22.990      22.978      22.084    
  20.891      19.632      18.394      17.198      16.063      15.048      14.263      13.827      13.827      14.263    
  15.048      16.063      17.198      18.394      19.632      20.891      22.084      22.978      22.990      21.562    
  18.591      14.642      10.860      8.5387      8.5386      10.860      18.320      20.956      22.548      22.978    
  22.584      21.835      20.952      20.012      19.022      17.970      16.889      15.882      15.145      14.872    
  15.145      15.882      16.889      17.970      19.022      20.012      20.951      21.835      22.584      22.978    
  22.548      20.956      18.320      15.296      12.874      11.947      12.874      15.296      19.773      21.279    
  22.001      22.084      21.835      21.417      20.891      20.241      19.417      18.376      17.185      16.096    
  15.438      15.438      16.096      17.185      18.376      19.417      20.240      20.891      21.417      21.835    
  22.084      22.001      21.279      19.773      17.722      15.721      14.480      14.480      15.721      17.722    
  19.340      20.199      20.670      20.891      20.952      20.891      20.670      20.199      19.340      18.076    
  16.661      15.531      15.098      15.531      16.661      18.076      19.340      20.199      20.670      20.891    
  20.952      20.891      20.670      20.199      19.340      18.076      16.661      15.531      15.098      15.531    
  16.661      18.076      17.838      18.567      19.154      19.632      20.012      20.241      20.199      19.673    
  18.524      16.925      15.348      14.364      14.364      15.348      16.925      18.524      19.673      20.199    
  20.241      20.012      19.632      19.154      18.567      17.838      16.958      15.980      15.096      14.563    
  14.563      15.096      15.980      16.958      16.070      16.880      17.659      18.394      19.022      19.417    
  19.340      18.524      16.997      15.161      13.657      13.076      13.657      15.161      16.997      18.524    
  19.339      19.417      19.022      18.394      17.659      16.880      16.070      15.233      14.404      13.670    
  13.152      12.962      13.152      13.670      14.404      15.233      14.355      15.299      16.268      17.198    
  17.970      18.376      18.076      16.925      15.161      13.368      12.239      12.239      13.368      15.161    
  16.925      18.076      18.376      17.970      17.198      16.268      15.299      14.355      13.462      12.641    
  11.932      11.399      11.111      11.111      11.399      11.932      12.641      13.462      12.820      13.898    
  15.013      16.063      16.889      17.185      16.661      15.348      13.657      12.239      11.687      12.239    
  13.657      15.348      16.661      17.185      16.889      16.063      15.013      13.898      12.820      11.833    
  10.966      10.239      9.6808      9.3267      9.2050      9.3267      9.6808      10.239      10.966      11.833    
  11.520      12.709      13.925      15.048      15.882      16.096      15.531      14.364      13.076      12.239    
  12.239      13.076      14.364      15.531      16.096      15.882      15.049      13.925      12.709      11.520    
  10.437      9.4998      8.7265      8.1293      7.7206      7.5125      7.5126      7.7207      8.1294      8.7265    
  9.4998      10.437      10.481      11.760      13.061      14.263      15.145      15.438      15.098      14.364    
  13.657      13.368      13.657      14.364      15.098      15.438      15.145      14.263      13.061      11.760    