   2   2   1   0
  0.2036177E+02  0.3861774E-09  0.3861774E-09  0.3861774E-09  0.5000000E-15
  1.000000000000000E-004
  CAR 
 Si                                      
     17.60921935     -8.20102858  301      5.77217642      1.00000000
     -8.201  0.0000E+00  0.0000E+00
     -8.115  0.0000E+00  0.0000E+00
     -8.029  0.0000E+00  0.0000E+00
     -7.943  0.0000E+00  0.0000E+00
     -7.857 -0.2632E-29 -0.2265E-30
     -7.771 -0.2680E-26 -0.2308E-27
     -7.685 -0.1837E-23 -0.1583E-24
     -7.599 -0.8676E-21 -0.7480E-22
     -7.513 -0.2823E-18 -0.2436E-19
     -7.427 -0.6324E-16 -0.5466E-17
     -7.341 -0.9468E-14 -0.8200E-15
     -7.255 -0.9978E-12 -0.8666E-13
     -7.169 -0.7221E-10 -0.6299E-11
     -7.083 -0.3579E-08 -0.3142E-09
     -6.997 -0.1211E-06 -0.1073E-07
     -6.911 -0.2787E-05 -0.2505E-06
     -6.824 -0.4333E-04 -0.3978E-05
     -6.738 -0.4501E-03 -0.4270E-04
     -6.652 -0.3061E-02 -0.3060E-03
     -6.566 -0.1303E-01 -0.1427E-02
     -6.480 -0.3049E-01 -0.4051E-02
     -6.394 -0.1445E-01 -0.5294E-02
     -6.308  0.1306E+00  0.5938E-02
     -6.222  0.4263E+00  0.4261E-01
     -6.136  0.6875E+00  0.1018E+00
     -6.050  0.7139E+00  0.1632E+00
     -5.964  0.5588E+00  0.2113E+00
     -5.878  0.4055E+00  0.2461E+00
     -5.792  0.3263E+00  0.2742E+00
     -5.706  0.2922E+00  0.2994E+00
     -5.620  0.2714E+00  0.3227E+00
     -5.534  0.2545E+00  0.3446E+00
     -5.448  0.2402E+00  0.3653E+00
     -5.362  0.2279E+00  0.3849E+00
     -5.276  0.2181E+00  0.4036E+00
     -5.190  0.2093E+00  0.4217E+00
     -5.104  0.2015E+00  0.4390E+00
     -5.018  0.1965E+00  0.4559E+00
     -4.932  0.1897E+00  0.4722E+00
     -4.846  0.1848E+00  0.4881E+00
     -4.760  0.1843E+00  0.5040E+00
     -4.674  0.1778E+00  0.5193E+00
     -4.588  0.1744E+00  0.5343E+00
     -4.502  0.1791E+00  0.5497E+00
     -4.416  0.1739E+00  0.5646E+00
     -4.329  0.1653E+00  0.5789E+00
     -4.243  0.1681E+00  0.5933E+00
     -4.157  0.1765E+00  0.6085E+00
     -4.071  0.2364E+00  0.6288E+00
     -3.985  0.4201E+00  0.6650E+00
     -3.899  0.6327E+00  0.7194E+00
     -3.813  0.6678E+00  0.7769E+00
     -3.727  0.5225E+00  0.8218E+00
     -3.641  0.3772E+00  0.8543E+00
     -3.555  0.3046E+00  0.8805E+00
     -3.469  0.2573E+00  0.9026E+00
     -3.383  0.2277E+00  0.9222E+00
     -3.297  0.2331E+00  0.9423E+00
     -3.211  0.2390E+00  0.9628E+00
     -3.125  0.2120E+00  0.9811E+00
     -3.039  0.1845E+00  0.9969E+00
     -2.953  0.1940E+00  0.1014E+01
     -2.867  0.2122E+00  0.1032E+01
     -2.781  0.1949E+00  0.1049E+01
     -2.695  0.1617E+00  0.1063E+01
     -2.609  0.1555E+00  0.1076E+01
     -2.523  0.1432E+00  0.1088E+01
     -2.437  0.3253E-01  0.1091E+01
     -2.351 -0.8710E-01  0.1084E+01
     -2.265  0.3733E+00  0.1116E+01
     -2.179  0.2154E+01  0.1301E+01
     -2.093  0.4767E+01  0.1711E+01
     -2.007  0.6127E+01  0.2238E+01
     -1.921  0.4901E+01  0.2660E+01
     -1.835  0.2334E+01  0.2861E+01
     -1.748  0.5093E+00  0.2905E+01
     -1.662 -0.4002E-01  0.2901E+01
     -1.576 -0.1553E-01  0.2900E+01
     -1.490  0.5928E-01  0.2905E+01
     -1.404  0.1934E+00  0.2921E+01
     -1.318  0.5438E+00  0.2968E+01
     -1.232  0.1033E+01  0.3057E+01
     -1.146  0.1299E+01  0.3169E+01
     -1.060  0.1096E+01  0.3263E+01
     -0.974  0.6216E+00  0.3317E+01
     -0.888  0.2581E+00  0.3339E+01
     -0.802  0.1237E+00  0.3350E+01
     -0.716  0.8311E-01  0.3357E+01
     -0.630  0.5969E-01  0.3362E+01
     -0.544  0.8364E-01  0.3369E+01
     -0.458  0.1329E+00  0.3380E+01
     -0.372  0.1359E+00  0.3392E+01
     -0.286  0.9593E-01  0.3400E+01
     -0.200  0.7581E-01  0.3407E+01
     -0.114  0.8922E-01  0.3415E+01
     -0.028  0.1046E+00  0.3424E+01
      0.058  0.1091E+00  0.3433E+01
      0.144  0.1071E+00  0.3442E+01
      0.230  0.9687E-01  0.3451E+01
      0.316  0.7735E-01  0.3457E+01
      0.402  0.7055E-01  0.3463E+01
      0.488  0.9537E-01  0.3471E+01
      0.574  0.1238E+00  0.3482E+01
      0.660  0.1134E+00  0.3492E+01
      0.747  0.6982E-01  0.3498E+01
      0.833  0.4694E-01  0.3502E+01
      0.919  0.7978E-01  0.3509E+01
      1.005  0.1295E+00  0.3520E+01
      1.091  0.1294E+00  0.3531E+01
      1.177  0.7257E-01  0.3537E+01
      1.263  0.2052E-01  0.3539E+01
      1.349  0.3445E-01  0.3542E+01
      1.435  0.1267E+00  0.3553E+01
      1.521  0.2575E+00  0.3575E+01
      1.607  0.3687E+00  0.3607E+01
      1.693  0.5407E+00  0.3653E+01
      1.779  0.1054E+01  0.3744E+01
      1.865  0.1904E+01  0.3908E+01
      1.951  0.2481E+01  0.4121E+01
      2.037  0.2335E+01  0.4322E+01
      2.123  0.1803E+01  0.4477E+01
      2.209  0.1415E+01  0.4599E+01
      2.295  0.1300E+01  0.4711E+01
      2.381  0.1310E+01  0.4824E+01
      2.467  0.1302E+01  0.4936E+01
      2.553  0.1287E+01  0.5046E+01
      2.639  0.1440E+01  0.5170E+01
      2.725  0.1880E+01  0.5332E+01
      2.811  0.2329E+01  0.5532E+01
      2.897  0.2240E+01  0.5725E+01
      2.983  0.1553E+01  0.5859E+01
      3.069  0.8497E+00  0.5932E+01
      3.155  0.5393E+00  0.5978E+01
      3.242  0.5137E+00  0.6022E+01
      3.328  0.5484E+00  0.6070E+01
      3.414  0.5599E+00  0.6118E+01
      3.500  0.5307E+00  0.6163E+01
      3.586  0.4781E+00  0.6205E+01
      3.672  0.4645E+00  0.6245E+01
      3.758  0.4949E+00  0.6287E+01
      3.844  0.5123E+00  0.6331E+01
      3.930  0.5030E+00  0.6374E+01
      4.016  0.4887E+00  0.6416E+01
      4.102  0.4766E+00  0.6457E+01
      4.188  0.4882E+00  0.6499E+01
      4.274  0.6225E+00  0.6553E+01
      4.360  0.9889E+00  0.6638E+01
      4.446  0.1459E+01  0.6764E+01
      4.532  0.1653E+01  0.6906E+01
      4.618  0.1409E+01  0.7027E+01
      4.704  0.1017E+01  0.7115E+01
      4.790  0.7920E+00  0.7183E+01
      4.876  0.7339E+00  0.7246E+01
      4.962  0.7184E+00  0.7308E+01
      5.048  0.6879E+00  0.7367E+01
      5.134  0.6557E+00  0.7423E+01
      5.220  0.6663E+00  0.7481E+01
      5.306  0.7120E+00  0.7542E+01
      5.392  0.7930E+00  0.7610E+01
      5.478  0.1001E+01  0.7696E+01
      5.564  0.1273E+01  0.7806E+01
      5.650  0.1267E+01  0.7915E+01
      5.737  0.8227E+00  0.7985E+01
      5.823  0.2718E+00  0.8009E+01
      5.909 -0.2838E-01  0.8006E+01
      5.995 -0.9346E-01  0.7998E+01
      6.081 -0.7188E-01  0.7992E+01
      6.167  0.5288E-01  0.7997E+01
      6.253  0.4180E+00  0.8033E+01
      6.339  0.1029E+01  0.8121E+01
      6.425  0.1584E+01  0.8257E+01
      6.511  0.1711E+01  0.8405E+01
      6.597  0.1419E+01  0.8527E+01
      6.683  0.1053E+01  0.8617E+01
      6.769  0.8294E+00  0.8689E+01
      6.855  0.7247E+00  0.8751E+01
      6.941  0.7031E+00  0.8811E+01
      7.027  0.8204E+00  0.8882E+01
      7.113  0.1064E+01  0.8974E+01
      7.199  0.1249E+01  0.9081E+01
      7.285  0.1229E+01  0.9187E+01
      7.371  0.1067E+01  0.9279E+01
      7.457  0.9239E+00  0.9358E+01
      7.543  0.8666E+00  0.9433E+01
      7.629  0.8387E+00  0.9505E+01
      7.715  0.8082E+00  0.9574E+01
      7.801  0.7878E+00  0.9642E+01
      7.887  0.7727E+00  0.9709E+01
      7.973  0.7855E+00  0.9776E+01
      8.059  0.9340E+00  0.9857E+01
      8.145  0.1356E+01  0.9973E+01
      8.231  0.1845E+01  0.1013E+02
      8.318  0.1887E+01  0.1029E+02
      8.404  0.1460E+01  0.1042E+02
      8.490  0.1045E+01  0.1051E+02
      8.576  0.8816E+00  0.1059E+02
      8.662  0.9939E+00  0.1067E+02
      8.748  0.1373E+01  0.1079E+02
      8.834  0.1820E+01  0.1095E+02
      8.920  0.2277E+01  0.1114E+02
      9.006  0.2862E+01  0.1139E+02
      9.092  0.3230E+01  0.1167E+02
      9.178  0.2869E+01  0.1191E+02
      9.264  0.2008E+01  0.1209E+02
      9.350  0.1304E+01  0.1220E+02
      9.436  0.9828E+00  0.1228E+02
      9.522  0.8499E+00  0.1236E+02
      9.608  0.7811E+00  0.1242E+02
      9.694  0.8389E+00  0.1249E+02
      9.780  0.1081E+01  0.1259E+02
      9.866  0.1346E+01  0.1270E+02
      9.952  0.1314E+01  0.1282E+02
     10.038  0.8910E+00  0.1289E+02
     10.124  0.4018E+00  0.1293E+02
     10.210  0.1811E+00  0.1294E+02
     10.296  0.1830E+00  0.1296E+02
     10.382  0.2141E+00  0.1298E+02
     10.468  0.3099E+00  0.1300E+02
     10.554  0.6018E+00  0.1306E+02
     10.640  0.9624E+00  0.1314E+02
     10.726  0.1090E+01  0.1323E+02
     10.813  0.9126E+00  0.1331E+02
     10.899  0.6653E+00  0.1337E+02
     10.985  0.5559E+00  0.1342E+02
     11.071  0.5583E+00  0.1346E+02
     11.157  0.6076E+00  0.1352E+02
     11.243  0.6796E+00  0.1357E+02
     11.329  0.6538E+00  0.1363E+02
     11.415  0.5057E+00  0.1367E+02
     11.501  0.4604E+00  0.1371E+02
     11.587  0.5940E+00  0.1377E+02
     11.673  0.6671E+00  0.1382E+02
     11.759  0.5737E+00  0.1387E+02
     11.845  0.4966E+00  0.1391E+02
     11.931  0.5295E+00  0.1396E+02
     12.017  0.5545E+00  0.1401E+02
     12.103  0.5374E+00  0.1405E+02
     12.189  0.5740E+00  0.1410E+02
     12.275  0.6052E+00  0.1416E+02
     12.361  0.5027E+00  0.1420E+02
     12.447  0.4079E+00  0.1423E+02
     12.533  0.4988E+00  0.1428E+02
     12.619  0.5828E+00  0.1433E+02
     12.705  0.4384E+00  0.1436E+02
     12.791  0.2709E+00  0.1439E+02
     12.877  0.3514E+00  0.1442E+02
     12.963  0.5259E+00  0.1446E+02
     13.049  0.5008E+00  0.1451E+02
     13.135  0.3725E+00  0.1454E+02
     13.221  0.4701E+00  0.1458E+02
     13.308  0.8128E+00  0.1465E+02
     13.394  0.1113E+01  0.1474E+02
     13.480  0.1201E+01  0.1485E+02
     13.566  0.1101E+01  0.1494E+02
     13.652  0.8520E+00  0.1502E+02
     13.738  0.5338E+00  0.1506E+02
     13.824  0.3473E+00  0.1509E+02
     13.910  0.3832E+00  0.1513E+02
     13.996  0.4384E+00  0.1516E+02
     14.082  0.3458E+00  0.1519E+02
     14.168  0.2494E+00  0.1521E+02
     14.254  0.2743E+00  0.1524E+02
     14.340  0.3163E+00  0.1526E+02
     14.426  0.3326E+00  0.1529E+02
     14.512  0.3888E+00  0.1533E+02
     14.598  0.4109E+00  0.1536E+02
     14.684  0.3140E+00  0.1539E+02
     14.770  0.2437E+00  0.1541E+02
     14.856  0.3347E+00  0.1544E+02
     14.942  0.4502E+00  0.1548E+02
     15.028  0.4438E+00  0.1552E+02
     15.114  0.3825E+00  0.1555E+02
     15.200  0.3601E+00  0.1558E+02
     15.286  0.4148E+00  0.1562E+02
     15.372  0.5832E+00  0.1567E+02
     15.458  0.8478E+00  0.1574E+02
     15.544  0.1092E+01  0.1583E+02
     15.630  0.1084E+01  0.1593E+02
     15.716  0.7115E+00  0.1599E+02
     15.803  0.2411E+00  0.1601E+02
     15.889 -0.1225E-01  0.1601E+02
     15.975 -0.4971E-01  0.1600E+02
     16.061 -0.2269E-01  0.1600E+02
     16.147 -0.5531E-02  0.1600E+02
     16.233 -0.8357E-03  0.1600E+02
     16.319 -0.8220E-04  0.1600E+02
     16.405 -0.5383E-05  0.1600E+02
     16.491 -0.2376E-06  0.1600E+02
     16.577 -0.7115E-08  0.1600E+02
     16.663 -0.1453E-09  0.1600E+02
     16.749 -0.2030E-11  0.1600E+02
     16.835 -0.1946E-13  0.1600E+02
     16.921  0.0000E+00  0.1600E+02
     17.007  0.0000E+00  0.1600E+02
     17.093  0.0000E+00  0.1600E+02
     17.179  0.0000E+00  0.1600E+02
     17.265  0.0000E+00  0.1600E+02
     17.351  0.0000E+00  0.1600E+02
     17.437  0.0000E+00  0.1600E+02
     17.523  0.0000E+00  0.1600E+02
     17.609  0.0000E+00  0.1600E+02
     17.60921935     -8.20102858  301      5.77217642      1.00000000
     -8.201  0.0000E+00  0.0000E+00  0.0000E+00
     -8.115  0.0000E+00  0.0000E+00  0.0000E+00
     -8.029  0.0000E+00  0.0000E+00  0.0000E+00
     -7.943  0.0000E+00  0.0000E+00  0.0000E+00
     -7.857 -0.8301E-30 -0.1128E-33 -0.1014E-34
     -7.771 -0.8452E-27 -0.1785E-30 -0.1423E-31
     -7.685 -0.5792E-24 -0.1322E-27 -0.1042E-28
     -7.599 -0.2736E-21 -0.6776E-25 -0.5275E-26
     -7.513 -0.8901E-19 -0.2404E-22 -0.1847E-23
     -7.427 -0.1994E-16 -0.5907E-20 -0.4476E-21
     -7.341 -0.2985E-14 -0.9821E-18 -0.7331E-19
     -7.255 -0.3146E-12 -0.1143E-15 -0.8415E-17
     -7.169 -0.2277E-10 -0.9267E-14 -0.6717E-15
     -7.083 -0.1128E-08 -0.5191E-12 -0.3705E-13
     -6.997 -0.3818E-07 -0.2008E-10 -0.1411E-11
     -6.911 -0.8786E-06 -0.5355E-09 -0.3703E-10
     -6.824 -0.1366E-04 -0.9823E-08 -0.6686E-09
     -6.738 -0.1419E-03 -0.1234E-06 -0.8271E-08
     -6.652 -0.9645E-03 -0.1052E-05 -0.6955E-07
     -6.566 -0.4106E-02 -0.6001E-05 -0.3914E-06
     -6.480 -0.9603E-02 -0.2202E-04 -0.1421E-05
     -6.394 -0.4528E-02 -0.4633E-04 -0.2970E-05
     -6.308  0.4119E-01 -0.2370E-04 -0.1557E-05
     -6.222  0.1343E+00  0.1673E-03  0.1045E-04
     -6.136  0.2164E+00  0.6035E-03  0.3816E-04
     -6.050  0.2244E+00  0.1188E-02  0.7641E-04
     -5.964  0.1751E+00  0.1733E-02  0.1144E-03
     -5.878  0.1265E+00  0.2148E-02  0.1467E-03
     -5.792  0.1014E+00  0.2459E-02  0.1745E-03
     -5.706  0.9043E-01  0.2720E-02  0.2005E-03
     -5.620  0.8375E-01  0.2954E-02  0.2262E-03
     -5.534  0.7829E-01  0.3170E-02  0.2522E-03
     -5.448  0.7367E-01  0.3369E-02  0.2784E-03
     -5.362  0.6970E-01  0.3553E-02  0.3050E-03
     -5.276  0.6652E-01  0.3737E-02  0.3332E-03
     -5.190  0.6366E-01  0.3893E-02  0.3609E-03
     -5.104  0.6114E-01  0.4049E-02  0.3906E-03
     -5.018  0.5950E-01  0.4231E-02  0.4241E-03
     -4.932  0.5734E-01  0.4328E-02  0.4529E-03
     -4.846  0.5573E-01  0.4479E-02  0.4894E-03
     -4.760  0.5549E-01  0.4700E-02  0.5338E-03
     -4.674  0.5351E-01  0.4712E-02  0.5635E-03
     -4.588  0.5242E-01  0.4849E-02  0.6100E-03
     -4.502  0.5379E-01  0.5187E-02  0.6762E-03
     -4.416  0.5229E-01  0.5133E-02  0.7095E-03
     -4.329  0.4972E-01  0.5035E-02  0.7320E-03
     -4.243  0.5041E-01  0.5368E-02  0.7742E-03
     -4.157  0.5314E-01  0.5619E-02  0.8899E-03
     -4.071  0.7274E-01  0.6928E-02  0.1533E-02
     -3.985  0.1313E+00  0.1163E-01  0.3185E-02
     -3.899  0.1986E+00  0.1730E-01  0.5031E-02
     -3.813  0.2100E+00  0.1834E-01  0.5434E-02
     -3.727  0.1638E+00  0.1507E-01  0.4309E-02
     -3.641  0.1167E+00  0.1239E-01  0.3066E-02
     -3.555  0.9287E-01  0.1131E-01  0.2414E-02
     -3.469  0.7819E-01  0.9979E-02  0.2075E-02
     -3.383  0.6908E-01  0.9191E-02  0.1906E-02
     -3.297  0.6989E-01  0.1020E-01  0.1944E-02
     -3.211  0.7099E-01  0.1106E-01  0.1971E-02
     -3.125  0.6300E-01  0.9970E-02  0.1796E-02
     -3.039  0.5482E-01  0.8905E-02  0.1640E-02
     -2.953  0.5698E-01  0.1006E-01  0.1740E-02
     -2.867  0.6162E-01  0.1160E-01  0.1882E-02
     -2.781  0.5656E-01  0.1080E-01  0.1761E-02
     -2.695  0.4711E-01  0.9022E-02  0.1537E-02
     -2.609  0.4508E-01  0.9022E-02  0.1520E-02
     -2.523  0.4156E-01  0.8228E-02  0.1370E-02
     -2.437  0.1148E-01  0.1053E-04  0.2322E-03
     -2.351 -0.2168E-01 -0.8434E-02 -0.1008E-02
     -2.265  0.1003E+00  0.2794E-01  0.3608E-02
     -2.179  0.5799E+00  0.1646E+00  0.2203E-01
     -2.093  0.1291E+01  0.3618E+00  0.4996E-01
     -2.007  0.1671E+01  0.4607E+00  0.6572E-01
     -1.921  0.1346E+01  0.3647E+00  0.5384E-01
     -1.835  0.6465E+00  0.1720E+00  0.2638E-01
     -1.748  0.1425E+00  0.3753E-01  0.6146E-02
     -1.662 -0.1077E-01 -0.2316E-02 -0.1415E-03
     -1.576 -0.2443E-02 -0.1596E-02  0.1835E-03
     -1.490  0.2017E-01  0.2789E-02  0.1148E-02
     -1.404  0.4631E-01  0.1968E-01  0.2077E-02
     -1.318  0.1029E+00  0.7087E-01  0.3747E-02
     -1.232  0.1787E+00  0.1444E+00  0.5906E-02
     -1.146  0.2190E+00  0.1852E+00  0.7161E-02
     -1.060  0.1856E+00  0.1562E+00  0.6327E-02
     -0.974  0.1083E+00  0.8722E-01  0.4056E-02
     -0.888  0.4859E-01  0.3451E-01  0.2224E-02
     -0.802  0.2529E-01  0.1563E-01  0.1424E-02
     -0.716  0.1583E-01  0.1116E-01  0.8853E-03
     -0.630  0.9584E-02  0.9026E-02  0.5064E-03
     -0.544  0.1395E-01  0.1250E-01  0.8252E-03
     -0.458  0.2498E-01  0.1838E-01  0.1564E-02
     -0.372  0.2754E-01  0.1775E-01  0.1769E-02
     -0.286  0.1927E-01  0.1266E-01  0.1272E-02
     -0.200  0.1254E-01  0.1154E-01  0.8622E-03
     -0.114  0.1406E-01  0.1405E-01  0.1015E-02
     -0.028  0.1965E-01  0.1488E-01  0.1482E-02
      0.058  0.2312E-01  0.1422E-01  0.1810E-02
      0.144  0.2134E-01  0.1475E-01  0.1730E-02
      0.230  0.1598E-01  0.1512E-01  0.1344E-02
      0.316  0.1170E-01  0.1269E-01  0.1020E-02
      0.402  0.1323E-01  0.1035E-01  0.1192E-02
      0.488  0.2008E-01  0.1297E-01  0.1863E-02
      0.574  0.2393E-01  0.1797E-01  0.2295E-02
      0.660  0.1898E-01  0.1801E-01  0.1895E-02
      0.747  0.1033E-01  0.1180E-01  0.1076E-02
      0.833  0.8361E-02  0.7306E-02  0.8899E-03
      0.919  0.1629E-01  0.1149E-01  0.1768E-02
      1.005  0.2445E-01  0.1969E-01  0.2744E-02
      1.091  0.2200E-01  0.2090E-01  0.2566E-02
      1.177  0.1146E-01  0.1214E-01  0.1368E-02
      1.263  0.5361E-02  0.2299E-02  0.5555E-03
      1.349  0.1110E-01  0.2947E-02  0.1198E-02
      1.435  0.2213E-01  0.2070E-01  0.2908E-02
      1.521  0.2548E-01  0.5220E-01  0.4299E-02
      1.607  0.1807E-01  0.8444E-01  0.4637E-02
      1.693  0.9930E-02  0.1337E+00  0.5764E-02
      1.779  0.1157E-01  0.2679E+00  0.1152E-01
      1.865  0.2205E-01  0.4867E+00  0.2166E-01
      1.951  0.2947E-01  0.6365E+00  0.2860E-01
      2.037  0.2528E-01  0.6039E+00  0.2681E-01
      2.123  0.1521E-01  0.4737E+00  0.2032E-01
      2.209  0.1150E-01  0.3777E+00  0.1590E-01
      2.295  0.1850E-01  0.3475E+00  0.1543E-01
      2.381  0.2789E-01  0.3488E+00  0.1656E-01
      2.467  0.2822E-01  0.3501E+00  0.1645E-01
      2.553  0.1945E-01  0.3570E+00  0.1492E-01
      2.639  0.1171E-01  0.4163E+00  0.1440E-01
      2.725  0.1257E-01  0.5593E+00  0.1690E-01
      2.811  0.1995E-01  0.6997E+00  0.2072E-01
      2.897  0.2424E-01  0.6724E+00  0.2105E-01
      2.983  0.1938E-01  0.4641E+00  0.1625E-01
      3.069  0.1106E-01  0.2521E+00  0.1070E-01
      3.155  0.8948E-02  0.1575E+00  0.8699E-02
      3.242  0.1400E-01  0.1460E+00  0.9807E-02
      3.328  0.1899E-01  0.1531E+00  0.1148E-01
      3.414  0.1858E-01  0.1567E+00  0.1228E-01
      3.500  0.1368E-01  0.1513E+00  0.1171E-01
      3.586  0.9476E-02  0.1390E+00  0.1062E-01
      3.672  0.1079E-01  0.1348E+00  0.1096E-01
      3.758  0.1507E-01  0.1417E+00  0.1263E-01
      3.844  0.1573E-01  0.1466E+00  0.1369E-01
      3.930  0.1247E-01  0.1463E+00  0.1372E-01
      4.016  0.9818E-02  0.1444E+00  0.1351E-01
      4.102  0.1020E-01  0.1412E+00  0.1355E-01
      4.188  0.1194E-01  0.1448E+00  0.1438E-01
      4.274  0.1159E-01  0.1905E+00  0.1834E-01
      4.360  0.9233E-02  0.3150E+00  0.2842E-01
      4.446  0.7941E-02  0.4735E+00  0.4174E-01
      4.532  0.8604E-02  0.5380E+00  0.4840E-01
      4.618  0.9101E-02  0.4559E+00  0.4351E-01
      4.704  0.7571E-02  0.3259E+00  0.3438E-01
      4.790  0.5746E-02  0.2512E+00  0.2975E-01
      4.876  0.6243E-02  0.2305E+00  0.2978E-01
      4.962  0.7707E-02  0.2240E+00  0.3069E-01
      5.048  0.7140E-02  0.2146E+00  0.3059E-01
      5.134  0.5048E-02  0.2058E+00  0.3037E-01
      5.220  0.4336E-02  0.2096E+00  0.3234E-01
      5.306  0.5081E-02  0.2237E+00  0.3609E-01
      5.392  0.4877E-02  0.2504E+00  0.4215E-01
      5.478  0.3425E-02  0.3194E+00  0.5613E-01
      5.564  0.2135E-02  0.4094E+00  0.7403E-01
      5.650  0.1247E-02  0.4089E+00  0.7505E-01
      5.737  0.4376E-03  0.2662E+00  0.4925E-01
      5.823 -0.1986E-03  0.8896E-01  0.1640E-01
      5.909 -0.9318E-03 -0.5599E-02 -0.1894E-02
      5.995 -0.2287E-02 -0.2078E-01 -0.6426E-02
      6.081 -0.2764E-02 -0.1114E-01 -0.5528E-02
      6.167  0.3860E-02  0.2451E-02  0.4097E-02
      6.253  0.2606E-01  0.2692E-01  0.3450E-01
      6.339  0.6319E-01  0.6378E-01  0.8676E-01
      6.425  0.9633E-01  0.9623E-01  0.1352E+00
      6.511  0.1028E+00  0.1045E+00  0.1468E+00
      6.597  0.8375E-01  0.9017E-01  0.1218E+00
      6.683  0.6002E-01  0.7191E-01  0.9001E-01
      6.769  0.4408E-01  0.6140E-01  0.7082E-01
      6.855  0.3479E-01  0.5722E-01  0.6213E-01
      6.941  0.3705E-01  0.5642E-01  0.5972E-01
      7.027  0.6768E-01  0.6028E-01  0.6632E-01
      7.113  0.1248E+00  0.6878E-01  0.8087E-01
      7.199  0.1676E+00  0.7650E-01  0.9169E-01
      7.285  0.1633E+00  0.7872E-01  0.8982E-01
      7.371  0.1288E+00  0.7638E-01  0.7893E-01
      7.457  0.9905E-01  0.7433E-01  0.6919E-01
      7.543  0.8510E-01  0.7515E-01  0.6552E-01
      7.629  0.7832E-01  0.7650E-01  0.6359E-01
      7.715  0.7305E-01  0.7782E-01  0.6106E-01
      7.801  0.6915E-01  0.7867E-01  0.5959E-01
      7.887  0.6639E-01  0.7763E-01  0.5898E-01
      7.973  0.6443E-01  0.8306E-01  0.5991E-01
      8.059  0.6224E-01  0.1217E+00  0.6862E-01
      8.145  0.6030E-01  0.2182E+00  0.9556E-01
      8.231  0.5706E-01  0.3254E+00  0.1289E+00
      8.318  0.4706E-01  0.3428E+00  0.1332E+00
      8.404  0.3287E-01  0.2650E+00  0.1061E+00
      8.490  0.2319E-01  0.1825E+00  0.8077E-01
      8.576  0.2288E-01  0.1438E+00  0.7171E-01
      8.662  0.4352E-01  0.1482E+00  0.7997E-01
      8.748  0.9399E-01  0.1831E+00  0.1064E+00
      8.834  0.1440E+00  0.2249E+00  0.1417E+00
      8.920  0.1503E+00  0.2852E+00  0.1911E+00
      9.006  0.1216E+00  0.3876E+00  0.2611E+00
      9.092  0.9288E-01  0.4674E+00  0.3052E+00
      9.178  0.6919E-01  0.4305E+00  0.2727E+00
      9.264  0.5306E-01  0.3006E+00  0.1895E+00
      9.350  0.5714E-01  0.1836E+00  0.1184E+00
      9.436  0.6713E-01  0.1290E+00  0.8371E-01
      9.522  0.5968E-01  0.1093E+00  0.7318E-01
      9.608  0.4538E-01  0.9842E-01  0.7175E-01
      9.694  0.4605E-01  0.1057E+00  0.7861E-01
      9.780  0.5923E-01  0.1413E+00  0.1011E+00
      9.866  0.6859E-01  0.1784E+00  0.1288E+00
      9.952  0.6104E-01  0.1710E+00  0.1298E+00
     10.038  0.3639E-01  0.1136E+00  0.9129E-01
     10.124  0.1248E-01  0.5552E-01  0.4206E-01
     10.210  0.5813E-02  0.3681E-01  0.1619E-01
     10.296  0.1158E-01  0.4168E-01  0.1307E-01
     10.382  0.1639E-01  0.4116E-01  0.1576E-01
     10.468  0.2146E-01  0.4843E-01  0.2457E-01
     10.554  0.3631E-01  0.9074E-01  0.4856E-01
     10.640  0.5551E-01  0.1493E+00  0.7789E-01
     10.726  0.6320E-01  0.1722E+00  0.8884E-01
     10.813  0.5437E-01  0.1428E+00  0.7553E-01
     10.899  0.3853E-01  0.1001E+00  0.5737E-01
     10.985  0.2654E-01  0.8262E-01  0.5092E-01
     11.071  0.2110E-01  0.8851E-01  0.5285E-01
     11.157  0.2316E-01  0.1019E+00  0.5699E-01
     11.243  0.3121E-01  0.1117E+00  0.6218E-01
     11.329  0.3320E-01  0.1016E+00  0.5965E-01
     11.415  0.2368E-01  0.7617E-01  0.4764E-01
     11.501  0.1545E-01  0.7321E-01  0.4573E-01
     11.587  0.1803E-01  0.9932E-01  0.5930E-01
     11.673  0.2474E-01  0.1120E+00  0.6436E-01
     11.759  0.2643E-01  0.9450E-01  0.5304E-01
     11.845  0.2282E-01  0.7819E-01  0.4691E-01
     11.931  0.1822E-01  0.8272E-01  0.5370E-01
     12.017  0.1520E-01  0.9254E-01  0.5673E-01
     12.103  0.1653E-01  0.9668E-01  0.5163E-01
     12.189  0.2234E-01  0.1015E+00  0.5275E-01
     12.275  0.2419E-01  0.9836E-01  0.5862E-01
     12.361  0.1673E-01  0.7663E-01  0.5382E-01
     12.447  0.9175E-02  0.6469E-01  0.4719E-01
     12.533  0.1119E-01  0.8563E-01  0.5552E-01
     12.619  0.1691E-01  0.1007E+00  0.6104E-01
     12.705  0.1559E-01  0.7397E-01  0.4396E-01
     12.791  0.9967E-02  0.4283E-01  0.2774E-01
     12.877  0.9486E-02  0.5544E-01  0.3881E-01
     12.963  0.1301E-01  0.8924E-01  0.5759E-01
     13.049  0.1302E-01  0.9207E-01  0.5392E-01
     13.135  0.1016E-01  0.6952E-01  0.3965E-01
     13.221  0.1059E-01  0.6906E-01  0.4275E-01
     13.308  0.1350E-01  0.9901E-01  0.5729E-01
     13.394  0.1344E-01  0.1311E+00  0.6378E-01
     13.480  0.1084E-01  0.1532E+00  0.6628E-01
     13.566  0.9304E-02  0.1600E+00  0.7011E-01
     13.652  0.7934E-02  0.1357E+00  0.6191E-01
     13.738  0.5188E-02  0.8826E-01  0.4025E-01
     13.824  0.3699E-02  0.6040E-01  0.2944E-01
     13.910  0.4904E-02  0.7222E-01  0.4078E-01
     13.996  0.5606E-02  0.8543E-01  0.5028E-01
     14.082  0.4179E-02  0.6822E-01  0.3998E-01
     14.168  0.3473E-02  0.4843E-01  0.2786E-01
     14.254  0.4587E-02  0.5183E-01  0.2948E-01
     14.340  0.4814E-02  0.6083E-01  0.3413E-01
     14.426  0.3570E-02  0.6760E-01  0.3649E-01
     14.512  0.3327E-02  0.8177E-01  0.4251E-01
     14.598  0.4120E-02  0.8575E-01  0.4408E-01
     14.684  0.3849E-02  0.6462E-01  0.3279E-01
     14.770  0.2993E-02  0.5172E-01  0.2425E-01
     14.856  0.3106E-02  0.7468E-01  0.3279E-01
     14.942  0.3382E-02  0.1023E+00  0.4452E-01
     15.028  0.2954E-02  0.1028E+00  0.4328E-01
     15.114  0.2630E-02  0.9126E-01  0.3511E-01
     15.200  0.2622E-02  0.8883E-01  0.3053E-01
     15.286  0.2397E-02  0.1071E+00  0.3303E-01
     15.372  0.2054E-02  0.1586E+00  0.4346E-01
     15.458  0.1717E-02  0.2413E+00  0.5792E-01
     15.544  0.1221E-02  0.3219E+00  0.6859E-01
     15.630  0.6329E-03  0.3261E+00  0.6447E-01
     15.716  0.1844E-03  0.2164E+00  0.4112E-01
     15.803 -0.1787E-04  0.7401E-01  0.1362E-01
     15.889 -0.4658E-04 -0.3346E-02 -0.8870E-03
     15.975 -0.2312E-04 -0.1501E-01 -0.2929E-02
     16.061 -0.6476E-05 -0.6884E-02 -0.1323E-02
     16.147 -0.1163E-05 -0.1681E-02 -0.3211E-03
     16.233 -0.1395E-06 -0.2543E-03 -0.4841E-04
     16.319 -0.1138E-07 -0.2503E-04 -0.4754E-05
     16.405 -0.6356E-09 -0.1640E-05 -0.3110E-06
     16.491 -0.2438E-10 -0.7238E-07 -0.1371E-07
     16.577 -0.6433E-12 -0.2169E-08 -0.4103E-09
     16.663 -0.1168E-13 -0.4430E-10 -0.8373E-11
     16.749 -0.1459E-15 -0.6189E-12 -0.1169E-12
     16.835 -0.1245E-17 -0.5935E-14 -0.1120E-14
     16.921  0.0000E+00  0.0000E+00  0.0000E+00
     17.007  0.0000E+00  0.0000E+00  0.0000E+00
     17.093  0.0000E+00  0.0000E+00  0.0000E+00
     17.179  0.0000E+00  0.0000E+00  0.0000E+00
     17.265  0.0000E+00  0.0000E+00  0.0000E+00
     17.351  0.0000E+00  0.0000E+00  0.0000E+00
     17.437  0.0000E+00  0.0000E+00  0.0000E+00
     17.523  0.0000E+00  0.0000E+00  0.0000E+00
     17.609  0.0000E+00  0.0000E+00  0.0000E+00
     17.60921935     -8.20102858  301      5.77217642      1.00000000
     -8.201  0.0000E+00  0.0000E+00  0.0000E+00
     -8.115  0.0000E+00  0.0000E+00  0.0000E+00
     -8.029  0.0000E+00  0.0000E+00  0.0000E+00
     -7.943  0.0000E+00  0.0000E+00  0.0000E+00
     -7.857 -0.8301E-30 -0.1128E-33 -0.1014E-34
     -7.771 -0.8452E-27 -0.1785E-30 -0.1423E-31
     -7.685 -0.5792E-24 -0.1322E-27 -0.1042E-28
     -7.599 -0.2736E-21 -0.6776E-25 -0.5275E-26
     -7.513 -0.8901E-19 -0.2404E-22 -0.1847E-23
     -7.427 -0.1994E-16 -0.5907E-20 -0.4476E-21
     -7.341 -0.2985E-14 -0.9821E-18 -0.7331E-19
     -7.255 -0.3146E-12 -0.1143E-15 -0.8415E-17
     -7.169 -0.2277E-10 -0.9267E-14 -0.6717E-15
     -7.083 -0.1128E-08 -0.5191E-12 -0.3705E-13
     -6.997 -0.3818E-07 -0.2008E-10 -0.1411E-11
     -6.911 -0.8786E-06 -0.5355E-09 -0.3703E-10
     -6.824 -0.1366E-04 -0.9823E-08 -0.6686E-09
     -6.738 -0.1419E-03 -0.1234E-06 -0.8271E-08
     -6.652 -0.9645E-03 -0.1052E-05 -0.6955E-07
     -6.566 -0.4106E-02 -0.6001E-05 -0.3914E-06
     -6.480 -0.9603E-02 -0.2202E-04 -0.1421E-05
     -6.394 -0.4528E-02 -0.4633E-04 -0.2970E-05
     -6.308  0.4119E-01 -0.2370E-04 -0.1557E-05
     -6.222  0.1343E+00  0.1673E-03  0.1045E-04
     -6.136  0.2164E+00  0.6035E-03  0.3816E-04
     -6.050  0.2244E+00  0.1188E-02  0.7641E-04
     -5.964  0.1751E+00  0.1733E-02  0.1144E-03
     -5.878  0.1265E+00  0.2148E-02  0.1467E-03
     -5.792  0.1014E+00  0.2459E-02  0.1745E-03
     -5.706  0.9043E-01  0.2720E-02  0.2005E-03
     -5.620  0.8375E-01  0.2954E-02  0.2262E-03
     -5.534  0.7829E-01  0.3170E-02  0.2522E-03
     -5.448  0.7367E-01  0.3369E-02  0.2784E-03
     -5.362  0.6970E-01  0.3553E-02  0.3050E-03
     -5.276  0.6652E-01  0.3737E-02  0.3332E-03
     -5.190  0.6366E-01  0.3893E-02  0.3609E-03
     -5.104  0.6114E-01  0.4049E-02  0.3906E-03
     -5.018  0.5950E-01  0.4231E-02  0.4241E-03
     -4.932  0.5734E-01  0.4328E-02  0.4529E-03
     -4.846  0.5573E-01  0.4479E-02  0.4894E-03
     -4.760  0.5549E-01  0.4700E-02  0.5338E-03
     -4.674  0.5351E-01  0.4712E-02  0.5635E-03
     -4.588  0.5242E-01  0.4849E-02  0.6100E-03
     -4.502  0.5379E-01  0.5187E-02  0.6762E-03
     -4.416  0.5229E-01  0.5133E-02  0.7095E-03
     -4.329  0.4972E-01  0.5035E-02  0.7320E-03
     -4.243  0.5041E-01  0.5368E-02  0.7742E-03
     -4.157  0.5314E-01  0.5619E-02  0.8899E-03
     -4.071  0.7274E-01  0.6928E-02  0.1533E-02
     -3.985  0.1313E+00  0.1163E-01  0.3185E-02
     -3.899  0.1986E+00  0.1730E-01  0.5031E-02
     -3.813  0.2100E+00  0.1834E-01  0.5434E-02
     -3.727  0.1638E+00  0.1507E-01  0.4309E-02
     -3.641  0.1167E+00  0.1239E-01  0.3066E-02
     -3.555  0.9287E-01  0.1131E-01  0.2414E-02
     -3.469  0.7819E-01  0.9979E-02  0.2075E-02
     -3.383  0.6908E-01  0.9191E-02  0.1906E-02
     -3.297  0.6989E-01  0.1020E-01  0.1944E-02
     -3.211  0.7099E-01  0.1106E-01  0.1971E-02
     -3.125  0.6300E-01  0.9970E-02  0.1796E-02
     -3.039  0.5482E-01  0.8905E-02  0.1640E-02
     -2.953  0.5698E-01  0.1006E-01  0.1740E-02
     -2.867  0.6162E-01  0.1160E-01  0.1882E-02
     -2.781  0.5656E-01  0.1080E-01  0.1761E-02
     -2.695  0.4711E-01  0.9022E-02  0.1537E-02
     -2.609  0.4508E-01  0.9022E-02  0.1520E-02
     -2.523  0.4156E-01  0.8228E-02  0.1370E-02
     -2.437  0.1148E-01  0.1053E-04  0.2322E-03
     -2.351 -0.2168E-01 -0.8434E-02 -0.1008E-02
     -2.265  0.1003E+00  0.2794E-01  0.3608E-02
     -2.179  0.5799E+00  0.1646E+00  0.2203E-01
     -2.093  0.1291E+01  0.3618E+00  0.4996E-01
     -2.007  0.1671E+01  0.4607E+00  0.6572E-01
     -1.921  0.1346E+01  0.3647E+00  0.5384E-01
     -1.835  0.6465E+00  0.1720E+00  0.2638E-01
     -1.748  0.1425E+00  0.3753E-01  0.6146E-02
     -1.662 -0.1077E-01 -0.2316E-02 -0.1415E-03
     -1.576 -0.2443E-02 -0.1596E-02  0.1835E-03
     -1.490  0.2017E-01  0.2789E-02  0.1148E-02
     -1.404  0.4631E-01  0.1968E-01  0.2077E-02
     -1.318  0.1029E+00  0.7087E-01  0.3747E-02
     -1.232  0.1787E+00  0.1444E+00  0.5906E-02
     -1.146  0.2190E+00  0.1852E+00  0.7161E-02
     -1.060  0.1856E+00  0.1562E+00  0.6327E-02
     -0.974  0.1083E+00  0.8722E-01  0.4056E-02
     -0.888  0.4859E-01  0.3451E-01  0.2224E-02
     -0.802  0.2529E-01  0.1563E-01  0.1424E-02
     -0.716  0.1583E-01  0.1116E-01  0.8853E-03
     -0.630  0.9584E-02  0.9026E-02  0.5064E-03
     -0.544  0.1395E-01  0.1250E-01  0.8252E-03