    2    2    1    1
  0.2036177E+02  0.3861774E-09  0.3861774E-09  0.3861774E-09  0.5000000E-15
  1.000000000000000E-004
  CAR 
 Si                                      
      8    100      8
 
  0.5000000E+00  0.2500000E+00  0.7500000E+00  0.1000000E-01
    1       -1.966261   1.000000
    2       -1.966259   1.000000
    3        1.861501   1.000000
    4        1.861510   1.000000
    5        9.929661  -0.000000
    6        9.929699  -0.000000
    7       10.597570  -0.000000
    8       10.597588  -0.000000
 
  0.5000000E+00  0.2631579E+00  0.7368421E+00  0.1000000E-01
    1       -2.136112   1.000000
    2       -1.799559   1.000000
    3        1.746566   1.000000
    4        1.997547   1.000000
    5        9.779250  -0.000000
    6        9.995654  -0.000000
    7       10.527698  -0.000000
    8       10.776697  -0.000000
 
  0.5000000E+00  0.2763158E+00  0.7236842E+00  0.1000000E-01
    1       -2.305959   1.000000
    2       -1.640228   1.000000
    3        1.657382   1.000000
    4        2.150441   1.000000
    5        9.612244  -0.000000
    6        9.910301  -0.000000
    7       10.632265  -0.000000
    8       10.995567  -0.000000
 
  0.5000000E+00  0.2894737E+00  0.7105263E+00  0.1000000E-01
    1       -2.472914   1.000000
    2       -1.493160   1.000000
    3        1.599538   1.000000
    4        2.317191   1.000000
    5        9.452152  -0.000000
    6        9.752067  -0.000000
    7       10.835323  -0.000000
    8       11.234626   0.000000
 
  0.5000000E+00  0.3026316E+00  0.6973684E+00  0.1000000E-01
    1       -2.634876   1.000000
    2       -1.363794   1.000000
    3        1.578686   1.000000
    4        2.493797   1.000000
    5        9.304130  -0.000000
    6        9.576865  -0.000000
    7       11.078068  -0.000000
    8       11.486415   0.000000
 
  0.5000000E+00  0.3157895E+00  0.6842105E+00  0.1000000E-01
    1       -2.790424   1.000000
    2       -1.256962   1.000000
    3        1.599790   1.000000
    4        2.677635   1.000000
    5        9.171494  -0.000000
    6        9.402242  -0.000000
    7       11.344073   0.000000
    8       11.748006   0.000000
 
  0.5000000E+00  0.3289474E+00  0.6710526E+00  0.1000000E-01
    1       -2.938333   1.000000
    2       -1.175983   1.000000
    3        1.666338   1.000000
    4        2.865889   1.000000
    5        9.055035  -0.000000
    6        9.232244  -0.000000
    7       11.628394   0.000000
    8       12.017039   0.000000
 
  0.5000000E+00  0.3421053E+00  0.6578947E+00  0.1000000E-01
    1       -3.077658   1.000000
    2       -1.121786   1.000000
    3        1.778643   1.000000
    4        3.055570   1.000000
    5        8.958031  -0.000000
    6        9.068234  -0.000000
    7       11.926490   0.000000
    8       12.291294   0.000000
 
  0.5000000E+00  0.3552632E+00  0.6447368E+00  0.1000000E-01
    1       -3.207697   1.000000
    2       -1.092202   1.000000
    3        1.934344   1.000000
    4        3.243798   1.000000
    5        8.880648  -0.000000
    6        8.910207  -0.000000
    7       12.202518   0.000000
    8       12.315731   0.000000
 
  0.5000000E+00  0.3684211E+00  0.6315789E+00  0.1000000E-01
    1       -3.327759   1.000000
    2       -1.083115   1.000000
    3        2.128939   1.000000
    4        3.428384   1.000000
    5        8.758524  -0.000000
    6        8.824574  -0.000000
    7       11.765172   0.000000
    8       12.581684   0.000000
 
  0.5000000E+00  0.3815789E+00  0.6184211E+00  0.1000000E-01
    1       -3.437538   1.000000
    2       -1.089676   1.000000
    3        2.355788   1.000000
    4        3.604637   1.000000
    5        8.607458  -0.000000
    6        8.787654  -0.000000
    7       11.278164   0.000000
    8       12.920459   0.000000
 
  0.5000000E+00  0.3947368E+00  0.6052632E+00  0.1000000E-01
    1       -3.536481   1.000000
    2       -1.106577   1.000000
    3        2.608880   1.000000
    4        3.770374   1.000000
    5        8.455506  -0.000000
    6        8.772666  -0.000000
    7       10.818173  -0.000000
    8       13.273140   0.000000
 
  0.5000000E+00  0.4078947E+00  0.5921053E+00  0.1000000E-01
    1       -3.624366   1.000000
    2       -1.129550   1.000000
    3        2.881659   1.000000
    4        3.923029   1.000000
    5        8.297530  -0.000000
    6        8.777714  -0.000000
    7       10.392749  -0.000000
    8       13.558600   0.000000
 
  0.5000000E+00  0.4210526E+00  0.5789474E+00  0.1000000E-01
    1       -3.700948   1.000000
    2       -1.155003   1.000000
    3        3.167520   1.000000
    4        4.059452   1.000000
    5        8.127542  -0.000000
    6        8.802627  -0.000000
    7       10.012216  -0.000000
    8       13.686891   0.000000
 
  0.5000000E+00  0.4342105E+00  0.5657895E+00  0.1000000E-01
    1       -3.766041   1.000000
    2       -1.180358   1.000000
    3        3.458134   1.000000
    4        4.177346   1.000000
    5        7.939164  -0.000000
    6        8.840177  -0.000000
    7        9.688933  -0.000000
    8       13.716939   0.000000
 
  0.5000000E+00  0.4473684E+00  0.5526316E+00  0.1000000E-01
    1       -3.819497   1.000000
    2       -1.203485   1.000000
    3        3.743659   1.000000
    4        4.275300   1.000000
    5        7.731714  -0.000000
    6        8.885134  -0.000000
    7        9.429691  -0.000000
    8       13.656207   0.000000
 
  0.5000000E+00  0.4605263E+00  0.5394737E+00  0.1000000E-01
    1       -3.861189   1.000000
    2       -1.222773   1.000000
    3        4.010629   1.000000
    4        4.352339   1.000000
    5        7.516919  -0.000000
    6        8.934024  -0.000000
    7        9.241068  -0.000000
    8       13.550245   0.000000
 
  0.5000000E+00  0.4736842E+00  0.5263158E+00  0.1000000E-01
    1       -3.891032   1.000000
    2       -1.237303   1.000000
    3        4.237084   1.000000
    4        4.407524   1.000000
    5        7.319350  -0.000000
    6        8.977051  -0.000000
    7        9.113351  -0.000000
    8       13.444577   0.000000
 
  0.5000000E+00  0.4868421E+00  0.5131579E+00  0.1000000E-01
    1       -3.908965   1.000000
    2       -1.246300   1.000000
    3        4.394453   1.000000
    4        4.440712   1.000000
    5        7.175394  -0.000000
    6        9.006717  -0.000000
    7        9.040789  -0.000000
    8       13.369999   0.000000
 
  0.5000000E+00  0.5000000E+00  0.5000000E+00  0.1000000E-01
    1       -3.914459   1.000000
    2       -1.249123   1.000000
    3        4.452516   1.000000
    4        4.452516   1.000000
    5        7.122145  -0.000000
    6        9.018035  -0.000000
    7        9.018035  -0.000000
    8       13.343777   0.000000
 
  0.5000000E+00  0.5000000E+00  0.5000000E+00  0.1000000E-01
    1       -3.914459   1.000000
    2       -1.249123   1.000000
    3        4.452516   1.000000
    4        4.452516   1.000000
    5        7.122145  -0.000000
    6        9.018035  -0.000000
    7        9.018035  -0.000000
    8       13.343777   0.000000
 
  0.4736842E+00  0.4736842E+00  0.4736842E+00  0.1000000E-01
    1       -3.953024   1.000000
    2       -1.194384   1.000000
    3        4.456753   1.000000
    4        4.456753   1.000000
    5        7.127557  -0.000000
    6        9.022607  -0.000000
    7        9.022607  -0.000000
    8       13.351785   0.000000
 
  0.4473684E+00  0.4473684E+00  0.4473684E+00  0.1000000E-01
    1       -4.058358   1.000000
    2       -1.038373   1.000000
    3        4.471581   1.000000
    4        4.471581   1.000000
    5        7.144744  -0.000000
    6        9.038352  -0.000000
    7        9.038352  -0.000000
    8       13.376118   0.000000
 
  0.4210526E+00  0.4210526E+00  0.4210526E+00  0.1000000E-01
    1       -4.211380   1.000000
    2       -0.801033   1.000000
    3        4.496256   1.000000
    4        4.496256   1.000000
    5        7.173309  -0.000000
    6        9.063094  -0.000000
    7        9.063094  -0.000000
    8       13.413109   0.000000
 
  0.3947368E+00  0.3947368E+00  0.3947368E+00  0.1000000E-01
    1       -4.392286   1.000000
    2       -0.502355   1.000000
    3        4.530750   1.000000
    4        4.530750   1.000000
    5        7.214408  -0.000000
    6        9.094376  -0.000000
    7        9.094376  -0.000000
    8       13.455258   0.000000
 
  0.3684211E+00  0.3684211E+00  0.3684211E+00  0.1000000E-01
    1       -4.586062   1.000000
    2       -0.157832   1.000000
    3        4.574928   1.000000
    4        4.574928   1.000000
    5        7.265116  -0.000000
    6        9.128494  -0.000000
    7        9.128494  -0.000000
    8       13.484804   0.000000
 
  0.3421053E+00  0.3421053E+00  0.3421053E+00  0.1000000E-01
    1       -4.782524   1.000000
    2        0.221995   1.000000
    3        4.628588   1.000000
    4        4.628588   1.000000
    5        7.326482  -0.000000
    6        9.158887  -0.000000
    7        9.158887  -0.000000
    8       13.461118   0.000000
 
  0.3157895E+00  0.3157895E+00  0.3157895E+00  0.1000000E-01
    1       -4.974926   1.000000
    2        0.631180   1.000000
    3        4.691768   1.000000
    4        4.691768   1.000000
    5        7.398129  -0.000000
    6        9.182088  -0.000000
    7        9.182088  -0.000000
    8       13.319569   0.000000
 
  0.2894737E+00  0.2894737E+00  0.2894737E+00  0.1000000E-01
    1       -5.159211   1.000000
    2        1.062120   1.000000
    3        4.763728   1.000000
    4        4.763728   1.000000
    5        7.479249  -0.000000
    6        9.188903  -0.000000
    7        9.188903  -0.000000
    8       13.016171   0.000000
 
  0.2631579E+00  0.2631579E+00  0.2631579E+00  0.1000000E-01
    1       -5.332352   1.000000
    2        1.512049   1.000000
    3        4.844044   1.000000
    4        4.844044   1.000000
    5        7.568961  -0.000000
    6        9.171644  -0.000000
    7        9.171644  -0.000000
    8       12.622308   0.000000
 
  0.2368421E+00  0.2368421E+00  0.2368421E+00  0.1000000E-01
    1       -5.492428   1.000000
    2        1.977585   1.000000
    3        4.931918   1.000000
    4        4.931918   1.000000
    5        7.664366  -0.000000
    6        9.125117  -0.000000
    7        9.125117  -0.000000
    8       12.181003   0.000000
 
  0.2105263E+00  0.2105263E+00  0.2105263E+00  0.1000000E-01
    1       -5.637889   1.000000
    2        2.455503   1.000000
    3        5.026107   1.000001
    4        5.026107   1.000001
    5        7.765900  -0.000000
    6        9.045377  -0.000000
    7        9.045377  -0.000000
    8       11.719478   0.000000
 
  0.1842105E+00  0.1842105E+00  0.1842105E+00  0.1000000E-01
    1       -5.767848   1.000000
    2        2.942168   1.000000
    3        5.124989   1.000024
    4        5.124989   1.000024
    5        7.871206  -0.000000
    6        8.936542  -0.000000
    7        8.936542  -0.000000
    8       11.249332   0.000000
 
  0.1578947E+00  0.1578947E+00  0.1578947E+00  0.1000000E-01
    1       -5.881548   1.000000
    2        3.433789   1.000000
    3        5.226835   1.000396
    4        5.226835   1.000396
    5        7.976586  -0.000000
    6        8.807423  -0.000000
    7        8.807423  -0.000000
    8       10.775790  -0.000000
 
  0.1315789E+00  0.1315789E+00  0.1315789E+00  0.1000000E-01
    1       -5.978460   1.000000
    2        3.922729   1.000000
    3        5.328234   1.003691
    4        5.328234   1.003691
    5        8.076411  -0.000000
    6        8.667190  -0.000000
    7        8.667190  -0.000000
    8       10.305517  -0.000000
 
  0.1052632E+00  0.1052632E+00  0.1052632E+00  0.1000000E-01
    1       -6.058182   1.000000
    2        4.401457   1.000000
    3        5.423606   1.016721
    4        5.423606   1.016721
    5        8.164922  -0.000000
    6        8.528348  -0.000000
    7        8.528348  -0.000000
    8        9.849630  -0.000000
 
  0.7894737E-01  0.7894737E-01  0.7894737E-01  0.1000000E-01
    1       -6.120570   1.000000
    2        4.850596   1.000000
    3        5.507481   1.034149
    4        5.507481   1.034149
    5        8.230968  -0.000000
    6        8.402539  -0.000000
    7        8.402539  -0.000000
    8        9.428348  -0.000000
 
  0.5263158E-01  0.5263158E-01  0.5263158E-01  0.1000000E-01
    1       -6.165226   1.000000
    2        5.242963   1.000588
    3        5.575134   1.023524
    4        5.575134   1.023524
    5        8.259415  -0.000000
    6        8.302408  -0.000000
    7        8.302408  -0.000000
    8        9.080668  -0.000000
 
  0.2631579E-01  0.2631579E-01  0.2631579E-01  0.1000000E-01
    1       -6.192086   1.000000
    2        5.526956   1.035458
    3        5.619220   0.980480
    4        5.619220   0.980480
    5        8.237507  -0.000000
    6        8.237507  -0.000000
    7        8.239227  -0.000000
    8        8.862342  -0.000000
 
  0.0000000E+00  0.0000000E+00  0.0000000E+00  0.1000000E-01
    1       -6.201029   1.000000
    2        5.634563   0.955639
    3        5.634578   0.955611
    4        5.634578   0.955611
    5        8.214979  -0.000000
    6        8.214994  -0.000000
    7        8.214994  -0.000000
    8        8.794962  -0.000000
 
  0.0000000E+00  0.0000000E+00  0.0000000E+00  0.1000000E-01
    1       -6.201029   1.000000
    2        5.634563   0.955639
    3        5.634578   0.955611
    4        5.634578   0.955611
    5        8.214979  -0.000000
    6        8.214994  -0.000000
    7        8.214994  -0.000000
    8        8.794962  -0.000000
 
  0.2631579E-01  0.0000000E+00  0.2631579E-01  0.1000000E-01
    1       -6.189101   1.000000
    2        5.549742   1.033193
    3        5.584335   1.017614
    4        5.584345   1.017606
    5        8.185174  -0.000000
    6        8.279966  -0.000000
    7        8.279977  -0.000000
    8        8.877909  -0.000000
 
  0.5263158E-01  0.0000000E+00  0.5263158E-01  0.1000000E-01
    1       -6.153205   1.000000
    2        5.319764   1.003136
    3        5.448104   1.022127
    4        5.448114   1.022129
    5        8.099795  -0.000000
    6        8.461738  -0.000000
    7        8.461748  -0.000000
    8        9.099818  -0.000000
 
  0.7894737E-01  0.0000000E+00  0.7894737E-01  0.1000000E-01
    1       -6.093570   1.000000
    2        4.989962   1.000000
    3        5.253047   1.000747
    4        5.253057   1.000747
    5        7.968755  -0.000000
    6        8.730174  -0.000000
    7        8.730184  -0.000000
    8        9.399358  -0.000000
 
  0.1052632E+00  0.0000000E+00  0.1052632E+00  0.1000000E-01
    1       -6.010243   1.000000
    2        4.600461   1.000000
    3        5.026754   1.000001
    4        5.026764   1.000001
    5        7.805211  -0.000000
    6        9.058465  -0.000000
    7        9.058475  -0.000000
    8        9.703858  -0.000000
 
  0.1315789E+00  0.0000000E+00  0.1315789E+00  0.1000000E-01
    1       -5.903388   1.000000
    2        4.176485   1.000000
    3        4.786017   1.000000
    4        4.786026   1.000000
    5        7.621377  -0.000000
    6        9.426921  -0.000000
    7        9.426931  -0.000000
    8        9.916664  -0.000000
 
  0.1578947E+00  0.0000000E+00  0.1578947E+00  0.1000000E-01
    1       -5.773027   1.000000
    2        3.732493   1.000000
    3        4.545850   1.000000
    4        4.545859   1.000000
    5        7.429528  -0.000000
    6        9.823989  -0.000000
    7        9.824000  -0.000000
    8        9.923135  -0.000000
 
  0.1842105E+00  0.0000000E+00  0.1842105E+00  0.1000000E-01
    1       -5.619470   1.000000
    2        3.277259   1.000000
    3        4.311982   1.000000
    4        4.311991   1.000000
    5        7.237783  -0.000000
    6        9.710019  -0.000000
    7       10.243369  -0.000000
    8       10.243380  -0.000000
 
  0.2105263E+00  0.0000000E+00  0.2105263E+00  0.1000000E-01
    1       -5.442982   1.000000
    2        2.815145   1.000000
    3        4.088943   1.000000
    4        4.088952   1.000000
    5        7.052962  -0.000000
    6        9.373961  -0.000000
    7       10.680111  -0.000000
    8       10.680122  -0.000000
 
  0.2368421E+00  0.0000000E+00  0.2368421E+00  0.1000000E-01
    1       -5.243850   1.000000
    2        2.349163   1.000000
    3        3.879673   1.000000
    4        3.879682   1.000000
    5        6.880102  -0.000000
    6        8.992296  -0.000000
    7       11.126759  -0.000000
    8       11.126769  -0.000000
 
  0.2631579E+00  0.0000000E+00  0.2631579E+00  0.1000000E-01
    1       -5.022448   1.000000
    2        1.881749   1.000000
    3        3.686688   1.000000
    4        3.686697   1.000000
    5        6.723248  -0.000000
    6        8.606950  -0.000000
    7       11.584433   0.000000
    8       11.584448   0.000000
 
  0.2894737E+00  0.0000000E+00  0.2894737E+00  0.1000000E-01
    1       -4.779099   1.000000
    2        1.414643   1.000000
    3        3.511434   1.000000
    4        3.511443   1.000000
    5        6.586180  -0.000000
    6        8.237500  -0.000000
    7       12.054522   0.000000
    8       12.054535   0.000000
 
  0.3157895E+00  0.0000000E+00  0.3157895E+00  0.1000000E-01
    1       -4.514511   1.000000
    2        0.949365   1.000000
    3        3.354786   1.000000
    4        3.354795   1.000000
    5        6.469983  -0.000005
    6        7.892737  -0.000000
    7       12.527596   0.000000
    8       12.527624   0.000000
 
  0.3421053E+00  0.0000000E+00  0.3421053E+00  0.1000000E-01
    1       -4.228757   1.000000
    2        0.487454   1.000000
    3        3.216938   1.000000
    4        3.216946   1.000000
    5        6.378567  -0.000078
    6        7.577635  -0.000000
    7       13.006867   0.000000
    8       13.006881   0.000000
 
  0.3684211E+00  0.0000000E+00  0.3684211E+00  0.1000000E-01
    1       -3.923211   1.000000
    2        0.030684   1.000000
    3        3.100106   1.000000
    4        3.100114   1.000000
    5        6.311301  -0.000462
    6        7.296036  -0.000000
    7       13.491429   0.000000
    8       13.491437   0.000000
 
  0.3947368E+00  0.0000000E+00  0.3947368E+00  0.1000000E-01
    1       -3.598267   1.000000
    2       -0.420218   1.000000
    3        3.003766   1.000000
    4        3.003775   1.000000
    5        6.270680  -0.001197
    6        7.047237  -0.000000
    7       13.978247   0.000000
    8       13.978261   0.000000
 
  0.4210526E+00  0.0000000E+00  0.4210526E+00  0.1000000E-01
    1       -3.254623   1.000000
    2       -0.861931   1.000000
    3        2.928826   1.000000
    4        2.928834   1.000000
    5        6.259058  -0.001544
    6        6.834829  -0.000000
    7       14.473939   0.000000
    8       14.473951   0.000000
 
  0.4473684E+00  0.0000000E+00  0.4473684E+00  0.1000000E-01
    1       -2.893385   1.000000
    2       -1.293892   1.000000
    3        2.874993   1.000000
    4        2.875002   1.000000
    5        6.275853  -0.001066
    6        6.656655  -0.000000
    7       14.951750   0.000000
    8       14.951760   0.000000
 
  0.4736842E+00  0.0000000E+00  0.4736842E+00  0.1000000E-01
    1       -2.515447   1.000000
    2       -1.714397   1.000000
    3        2.843018   1.000000
    4        2.843026   1.000000
    5        6.324050  -0.000336
    6        6.513253  -0.000001
    7       15.389059   0.000000
    8       15.389083   0.000000
 
  0.5000000E+00  0.0000000E+00  0.5000000E+00  0.1000000E-01
    1       -2.122045   1.000000
    2       -2.122044   1.000000
    3        2.832228   1.000000
    4        2.832236   1.000000
    5        6.402658  -0.000039
    6        6.402677  -0.000039
    7       15.608738   0.000000
    8       15.609219   0.000000
 
  0.5000000E+00  0.0000000E+00  0.5000000E+00  0.1000000E-01
    1       -2.122045   1.000000
    2       -2.122044   1.000000
    3        2.832228   1.000000
    4        2.832236   1.000000
    5        6.402658  -0.000039
    6        6.402677  -0.000039
    7       15.608771   0.000000
    8       15.608871   0.000000
 
  0.5000000E+00  0.1315789E-01  0.5131579E+00  0.1000000E-01
    1       -2.121072   1.000000
    2       -2.121070   1.000000
    3        2.823283   1.000000
    4        2.823291   1.000000
    5        6.419182  -0.000024
    6        6.419201  -0.000024
    7       15.583238   0.000000
    8       15.583924   0.000000
 
  0.5000000E+00  0.2631579E-01  0.5263158E+00  0.1000000E-01
    1       -2.118202   1.000000
    2       -2.118200   1.000000
    3        2.796776   1.000000
    4        2.796784   1.000000
    5        6.467821  -0.000005
    6        6.467841  -0.000005
    7       15.498818   0.000000
    8       15.499612   0.000000
 
  0.5000000E+00  0.3947368E-01  0.5394737E+00  0.1000000E-01
    1       -2.113442   1.000000
    2       -2.113440   1.000000
    3        2.754871   1.000000
    4        2.754879   1.000000
    5        6.547698  -0.000000
    6        6.547718  -0.000000
    7       15.351666   0.000000
    8       15.353242   0.000000
 
  0.5000000E+00  0.5263158E-01  0.5526316E+00  0.1000000E-01
    1       -2.106951   1.000000
    2       -2.106950   1.000000
    3        2.699417   1.000000
    4        2.699425   1.000000
    5        6.655754  -0.000000
    6        6.655774  -0.000000
    7       15.139308   0.000000
    8       15.139665   0.000000
 
  0.5000000E+00  0.6578947E-01  0.5657895E+00  0.1000000E-01
    1       -2.098805   1.000000
    2       -2.098803   1.000000
    3        2.633920   1.000000
    4        2.633928   1.000000
    5        6.789883  -0.000000
    6        6.789903  -0.000000
    7       14.877049   0.000000
    8       14.877067   0.000000
 
  0.5000000E+00  0.7894737E-01  0.5789474E+00  0.1000000E-01
    1       -2.089346   1.000000
    2       -2.089344   1.000000
    3        2.560601   1.000000
    4        2.560609   1.000000
    5        6.945544  -0.000000
    6        6.945569  -0.000000
    7       14.577782   0.000000
    8       14.577851   0.000000
 
  0.5000000E+00  0.9210526E-01  0.5921053E+00  0.1000000E-01
    1       -2.078532   1.000000
    2       -2.078531   1.000000
    3        2.483037   1.000000
    4        2.483046   1.000000
    5        7.122779  -0.000000
    6        7.122805  -0.000000
    7       14.261071   0.000000
    8       14.261109   0.000000
 
  0.5000000E+00  0.1052632E+00  0.6052632E+00  0.1000000E-01
    1       -2.066748   1.000000
    2       -2.066746   1.000000
    3        2.403408   1.000000
    4        2.403416   1.000000
    5        7.317796  -0.000000
    6        7.317821  -0.000000
    7       13.932550   0.000000
    8       13.932603   0.000000
 
  0.5000000E+00  0.1184211E+00  0.6184211E+00  0.1000000E-01
    1       -2.054290   1.000000
    2       -2.054288   1.000000
    3        2.323891   1.000000
    4        2.323900   1.000000
    5        7.528162  -0.000000
    6        7.528187  -0.000000
    7       13.596635   0.000000
    8       13.596685   0.000000
 
  0.5000000E+00  0.1315789E+00  0.6315789E+00  0.1000000E-01
    1       -2.041458   1.000000
    2       -2.041456   1.000000
    3        2.246639   1.000000
    4        2.246647   1.000000
    5        7.752633  -0.000000
    6        7.752658  -0.000000
    7       13.258762   0.000000
    8       13.258810   0.000000
 
  0.5000000E+00  0.1447368E+00  0.6447368E+00  0.1000000E-01
    1       -2.028608   1.000000
    2       -2.028607   1.000000
    3        2.173260   1.000000
    4        2.173268   1.000000
    5        7.989305  -0.000000
    6        7.989331  -0.000000
    7       12.920348   0.000000
    8       12.920396   0.000000
 
  0.5000000E+00  0.1578947E+00  0.6578947E+00  0.1000000E-01
    1       -2.016031   1.000000
    2       -2.016029   1.000000
    3        2.105240   1.000000
    4        2.105248   1.000000
    5        8.236748  -0.000000
    6        8.236774  -0.000000
    7       12.584373   0.000000
    8       12.584414   0.000000
 
  0.5000000E+00  0.1710526E+00  0.6710526E+00  0.1000000E-01
    1       -2.004226   1.000000
    2       -2.004224   1.000000
    3        2.043788   1.000000
    4        2.043796   1.000000
    5        8.493526  -0.000000
    6        8.493553  -0.000000
    7       12.249881   0.000000
    8       12.249920   0.000000
 
  0.5000000E+00  0.1842105E+00  0.6842105E+00  0.1000000E-01
    1       -1.993488   1.000000
    2       -1.993486   1.000000
    3        1.989991   1.000000
    4        1.989999   1.000000
    5        8.758169  -0.000000
    6        8.758196  -0.000000
    7       11.919629   0.000000
    8       11.919667   0.000000
 
  0.5000000E+00  0.1973684E+00  0.6973684E+00  0.1000000E-01
    1       -1.984367   1.000000
    2       -1.984365   1.000000
    3        1.944417   1.000000
    4        1.944426   1.000000
    5        9.027390  -0.000000
    6        9.027424  -0.000000
    7       11.592767   0.000000
    8       11.592805   0.000000
 
  0.5000000E+00  0.2105263E+00  0.7105263E+00  0.1000000E-01
    1       -1.976540   1.000000
    2       -1.976538   1.000000
    3        1.908645   1.000000
    4        1.908653   1.000000
    5        9.300969  -0.000000
    6        9.301004  -0.000000
    7       11.278765   0.000000
    8       11.278797   0.000000
 
  0.5000000E+00  0.2236842E+00  0.7236842E+00  0.1000000E-01
    1       -1.970889   1.000000
    2       -1.970886   1.000000
    3        1.882617   1.000000
    4        1.882625   1.000000
    5        9.570073  -0.000000
    6        9.570110  -0.000000
    7       10.980928  -0.000000
    8       10.980960  -0.000000
 
  0.5000000E+00  0.2368421E+00  0.7368421E+00  0.1000000E-01
    1       -1.967428   1.000000
    2       -1.967426   1.000000
    3        1.866801   1.000000
    4        1.866809   1.000000
    5        9.810300  -0.000000
    6        9.810335  -0.000000
    7       10.722877  -0.000000
    8       10.722902  -0.000000
 
  0.5000000E+00  0.2500000E+00  0.7500000E+00  0.1000000E-01
    1       -1.966261   1.000000
    2       -1.966259   1.000000
    3        1.861501   1.000000
    4        1.861510   1.000000
    5        9.929661  -0.000000
    6        9.929699  -0.000000
    7       10.597570  -0.000000
    8       10.597588  -0.000000
 
  0.5000000E+00  0.2500000E+00  0.7500000E+00  0.1000000E-01
    1       -1.966261   1.000000
    2       -1.966259   1.000000
    3        1.861501   1.000000
    4        1.861510   1.000000
    5        9.929661  -0.000000
    6        9.929699  -0.000000
    7       10.597570  -0.000000
    8       10.597588  -0.000000
 
  0.5000000E+00  0.2368421E+00  0.7368421E+00  0.1000000E-01
    1       -1.967428   1.000000
    2       -1.967426   1.000000
    3        1.866801   1.000000
    4        1.866809   1.000000
    5        9.810297  -0.000000
    6        9.810335  -0.000000
    7       10.722872  -0.000000
    8       10.722897  -0.000000
 
  0.5000000E+00  0.2236842E+00  0.7236842E+00  0.1000000E-01
    1       -1.970889   1.000000
    2       -1.970886   1.000000
    3        1.882617   1.000000
    4        1.882625   1.000000
    5        9.570073  -0.000000
    6        9.570110  -0.000000
    7       10.980928  -0.000000
    8       10.980960  -0.000000
 
  0.5000000E+00  0.2105263E+00  0.7105263E+00  0.1000000E-01
    1       -1.976540   1.000000
    2       -1.976538   1.000000
    3        1.908645   1.000000
    4        1.908653   1.000000
    5        9.300969  -0.000000
    6        9.301004  -0.000000
    7       11.278765   0.000000
    8       11.278797   0.000000
 
  0.5000000E+00  0.1973684E+00  0.6973684E+00  0.1000000E-01
    1       -1.984367   1.000000
    2       -1.984365   1.000000
    3        1.944417   1.000000
    4        1.944426   1.000000
    5        9.027390  -0.000000
    6        9.027424  -0.000000
    7       11.592767   0.000000
    8       11.592805   0.000000
 
  0.5000000E+00  0.1842105E+00  0.6842105E+00  0.1000000E-01
    1       -1.993488   1.000000
    2       -1.993486   1.000000
    3        1.989991   1.000000
    4        1.989999   1.000000
    5        8.758169  -0.000000
    6        8.758196  -0.000000
    7       11.919629   0.000000
    8       11.919667   0.000000
 
  0.5000000E+00  0.1710526E+00  0.6710526E+00  0.1000000E-01
    1       -2.004226   1.000000
    2       -2.004224   1.000000
    3        2.043788   1.000000
    4        2.043796   1.000000
    5        8.493526  -0.000000
    6        8.493553  -0.000000
    7       12.249881   0.000000
    8       12.249920   0.000000
 
  0.5000000E+00  0.1578947E+00  0.6578947E+00  0.1000000E-01
    1       -2.016031   1.000000
    2       -2.016029   1.000000
    3        2.105240   1.000000
    4        2.105248   1.000000
    5        8.236748  -0.000000
    6        8.236774  -0.000000
    7       12.584373   0.000000
    8       12.584414   0.000000
 
  0.5000000E+00  0.1447368E+00  0.6447368E+00  0.1000000E-01
    1       -2.028608   1.000000
    2       -2.028607   1.000000
    3        2.173260   1.000000
    4        2.173268   1.000000
    5        7.989305  -0.000000
    6        7.989331  -0.000000
    7       12.920348   0.000000
    8       12.920396   0.000000
 
  0.5000000E+00  0.1315789E+00  0.6315789E+00  0.1000000E-01
    1       -2.041458   1.000000
    2       -2.041456   1.000000
    3        2.246639   1.000000
    4        2.246647   1.000000
    5        7.752633  -0.000000
    6        7.752658  -0.000000
    7       13.258763   0.000000
    8       13.258810   0.000000
 
  0.5000000E+00  0.1184211E+00  0.6184211E+00  0.1000000E-01
    1       -2.054290   1.000000
    2       -2.054288   1.000000
    3        2.323891   1.000000
    4        2.323900   1.000000
    5        7.528162  -0.000000
    6        7.528187  -0.000000
    7       13.596642   0.000000
    8       13.596685   0.000000
 