 vasp.5.4.4.18Apr17-6-g9f103f2a35 (build May 20 2018 16:52:39) complex          
  
 executed on             LinuxIFC date 2022.10.21  21:03:32
 running on    1 total cores
 distrk:  each k-point on    1 cores,    1 groups
 distr:  one band on NCORES_PER_BAND=   1 cores,    1 groups


--------------------------------------------------------------------------------------------------------


 INCAR:
 POTCAR:    PAW Si                                
 POTCAR:    PAW Si                                
   VRHFIN =Si: s2p2                                                             
   LEXCH  = 91                                                                  
   EATOM  =   103.3076 eV,    7.5929 Ry                                         
                                                                                
   TITEL  = PAW Si                                                              
   LULTRA =        F    use ultrasoft PP ?                                      
   IUNSCR =        1    unscreen: 0-lin 1-nonlin 2-no                           
   RPACOR =    1.500    partial core radius                                     
   POMASS =   28.085; ZVAL   =    4.000    mass and valenz                      
   RCORE  =    1.900    outmost cutoff radius                                   
   RWIGS  =    2.480; RWIGS  =    1.312    wigner-seitz radius (au A)           
   ENMAX  =  245.435; ENMIN  =  184.076 eV                                      
   ICORE  =        2    local potential                                         
   LCOR   =        T    correct aug charges                                     
   LPAW   =        T    paw PP                                                  
   EAUG   =  322.069                                                            
   DEXC   =    -.001                                                            
   RMAX   =    2.943    core radius for proj-oper                               
   RAUG   =    1.300    factor for augmentation sphere                          
   RDEP   =    1.993    core radius for depl-charge                             
   QCUT   =   -4.247; QGAM   =    8.494    optimization parameters              
                                                                                
   Description                                                                  
     l     E      TYP  RCUT    TYP  RCUT                                        
     0   .000     23  1.900                                                     
     0   .000     23  1.900                                                     
     1   .000     23  1.900                                                     
     1   .000     23  1.900                                                     
     2   .000      7  1.900                                                     
  local pseudopotential read in
  partial core-charges read in
  atomic valenz-charges read in
  non local Contribution for L=           0  read in
    real space projection operators read in
  non local Contribution for L=           0  read in
    real space projection operators read in
  non local Contribution for L=           1  read in
    real space projection operators read in
  non local Contribution for L=           1  read in
    real space projection operators read in
    PAW grid and wavefunctions read in
 
   number of l-projection  operators is LMAX  =           4
   number of lm-projection operators is LMMAX =           8
 
  PAW Si                                :
 energy of atom  1       EATOM= -103.3076
 kinetic energy error for atom=    0.0057 (will be added to EATOM!!)
 
 
 POSCAR: Si                                      
  positions in direct lattice
  velocities in cartesian coordinates
 exchange correlation table for  LEXCH =        7
   RHO(1)=    0.500       N(1)  =     2000
   RHO(2)=  100.500       N(2)  =     4000
 


--------------------------------------------------------------------------------------------------------


 ion  position               nearest neighbor table
   1  0.000  0.000  0.000-   2 2.36   2 2.36   2 2.36   2 2.36
   2  0.250  0.250  0.250-   1 2.36   1 2.36   1 2.36   1 2.36
 
  LATTYP: Found a face centered cubic cell.
 ALAT       =     5.4613726379
  
  Lattice vectors:
  
 A1 = (   2.7306863189,   2.7306863189,   0.0000000000)
 A2 = (   0.0000000000,   2.7306863189,   2.7306863189)
 A3 = (   2.7306863189,   0.0000000000,   2.7306863189)


Analysis of symmetry for initial positions (statically):
=====================================================================
 Subroutine PRICEL returns:
 Original cell was already a primitive cell.
 

 Routine SETGRP: Setting up the symmetry group for a 
 face centered cubic supercell.


 Subroutine GETGRP returns: Found 48 space group operations
 (whereof 24 operations were pure point group operations)
 out of a pool of 48 trial point group operations.


The static configuration has the point symmetry T_d .
 The point group associated with its full space group is O_h .


Analysis of symmetry for dynamics (positions and initial velocities):
=====================================================================
 Subroutine PRICEL returns:
 Original cell was already a primitive cell.
 

 Routine SETGRP: Setting up the symmetry group for a 
 face centered cubic supercell.


 Subroutine GETGRP returns: Found 48 space group operations
 (whereof 24 operations were pure point group operations)
 out of a pool of 48 trial point group operations.


The dynamic configuration has the point symmetry T_d .
 The point group associated with its full space group is O_h .


 Subroutine INISYM returns: Found 48 space group operations
 (whereof 24 operations are pure point group operations),
 and found     1 'primitive' translations

 
 
 KPOINTS: K-points along high symmetry lines for F
  interpolating k-points between supplied coordinates
  k-points in reciprocal lattice
Space group operators:
 irot       det(A)        alpha          n_x          n_y          n_z        tau_x        tau_y        tau_z
    1     1.000000     0.000000     1.000000     0.000000     0.000000     0.000000     0.000000     0.000000
    2     1.000000   120.000000    -0.577350    -0.577350    -0.577350     0.000000     0.000000     0.000000
    3     1.000000   120.000000     0.577350     0.577350     0.577350     0.000000     0.000000     0.000000
    4    -1.000000    90.000000     0.000000    -1.000000     0.000000     0.000000     0.000000     0.000000
    5    -1.000000   180.000000     0.707107     0.707107     0.000000     0.000000     0.000000     0.000000
    6    -1.000000    90.000000     1.000000     0.000000     0.000000     0.000000     0.000000     0.000000
    7     1.000000   180.000000     0.000000     1.000000     0.000000     0.000000     0.000000     0.000000
    8     1.000000   120.000000     0.577350     0.577350    -0.577350     0.000000     0.000000     0.000000
    9     1.000000   120.000000     0.577350    -0.577350    -0.577350     0.000000     0.000000     0.000000
   10    -1.000000    90.000000     0.000000     1.000000     0.000000     0.000000     0.000000     0.000000
   11    -1.000000    90.000000     0.000000     0.000000    -1.000000     0.000000     0.000000     0.000000
   12    -1.000000   180.000000     0.000000     0.707107     0.707107     0.000000     0.000000     0.000000
   13     1.000000   120.000000    -0.577350     0.577350     0.577350     0.000000     0.000000     0.000000
   14     1.000000   120.000000    -0.577350     0.577350    -0.577350     0.000000     0.000000     0.000000
   15     1.000000   180.000000     0.000000     0.000000     1.000000     0.000000     0.000000     0.000000
   16    -1.000000    90.000000    -1.000000     0.000000     0.000000     0.000000     0.000000     0.000000
   17    -1.000000   180.000000     0.707107     0.000000     0.707107     0.000000     0.000000     0.000000
   18    -1.000000    90.000000     0.000000     0.000000     1.000000     0.000000     0.000000     0.000000
   19     1.000000   120.000000    -0.577350    -0.577350     0.577350     0.000000     0.000000     0.000000
   20     1.000000   180.000000     1.000000     0.000000     0.000000     0.000000     0.000000     0.000000
   21     1.000000   120.000000     0.577350    -0.577350     0.577350     0.000000     0.000000     0.000000
   22    -1.000000   180.000000     0.707107    -0.707107     0.000000     0.000000     0.000000     0.000000
   23    -1.000000   180.000000     0.707107     0.000000    -0.707107     0.000000     0.000000     0.000000
   24    -1.000000   180.000000     0.000000    -0.707107     0.707107     0.000000     0.000000     0.000000
   25    -1.000000     0.000000     1.000000     0.000000     0.000000     0.250000     0.250000     0.250000
   26    -1.000000   120.000000    -0.577350    -0.577350    -0.577350     0.250000     0.250000     0.250000
   27    -1.000000   120.000000     0.577350     0.577350     0.577350     0.250000     0.250000     0.250000
   28     1.000000    90.000000     0.000000    -1.000000     0.000000     0.250000     0.250000     0.250000
   29     1.000000   180.000000     0.707107     0.707107     0.000000     0.250000     0.250000     0.250000
   30     1.000000    90.000000     1.000000     0.000000     0.000000     0.250000     0.250000     0.250000
   31    -1.000000   180.000000     0.000000     1.000000     0.000000     0.250000     0.250000     0.250000
   32    -1.000000   120.000000     0.577350     0.577350    -0.577350     0.250000     0.250000     0.250000
   33    -1.000000   120.000000     0.577350    -0.577350    -0.577350     0.250000     0.250000     0.250000
   34     1.000000    90.000000     0.000000     1.000000     0.000000     0.250000     0.250000     0.250000
   35     1.000000    90.000000     0.000000     0.000000    -1.000000     0.250000     0.250000     0.250000
   36     1.000000   180.000000     0.000000     0.707107     0.707107     0.250000     0.250000     0.250000
   37    -1.000000   120.000000    -0.577350     0.577350     0.577350     0.250000     0.250000     0.250000
   38    -1.000000   120.000000    -0.577350     0.577350    -0.577350     0.250000     0.250000     0.250000
   39    -1.000000   180.000000     0.000000     0.000000     1.000000     0.250000     0.250000     0.250000
   40     1.000000    90.000000    -1.000000     0.000000     0.000000     0.250000     0.250000     0.250000
   41     1.000000   180.000000     0.707107     0.000000     0.707107     0.250000     0.250000     0.250000
   42     1.000000    90.000000     0.000000     0.000000     1.000000     0.250000     0.250000     0.250000
   43    -1.000000   120.000000    -0.577350    -0.577350     0.577350     0.250000     0.250000     0.250000
   44    -1.000000   180.000000     1.000000     0.000000     0.000000     0.250000     0.250000     0.250000
   45    -1.000000   120.000000     0.577350    -0.577350     0.577350     0.250000     0.250000     0.250000
   46     1.000000   180.000000     0.707107    -0.707107     0.000000     0.250000     0.250000     0.250000
   47     1.000000   180.000000     0.707107     0.000000    -0.707107     0.250000     0.250000     0.250000
   48     1.000000   180.000000     0.000000    -0.707107     0.707107     0.250000     0.250000     0.250000


--------------------------------------------------------------------------------------------------------




 Dimension of arrays:
   k-points           NKPTS =    100   k-points in BZ     NKDIM =    100   number of bands    NBANDS=      8
   number of dos      NEDOS =    301   number of ions     NIONS =      2
   non local maximal  LDIM  =      4   non local SUM 2l+1 LMDIM =      8
   total plane-waves  NPLWV =   4096
   max r-space proj   IRMAX =      1   max aug-charges    IRDMAX=   3562
   dimension x,y,z NGX =    16 NGY =   16 NGZ =   16
   dimension x,y,z NGXF=    32 NGYF=   32 NGZF=   32
   support grid    NGXF=    32 NGYF=   32 NGZF=   32
   ions per type =               2
   NGX,Y,Z   is equivalent  to a cutoff of   6.89,  6.89,  6.89 a.u.
   NGXF,Y,Z  is equivalent  to a cutoff of  13.78, 13.78, 13.78 a.u.

 SYSTEM =  Si                                      
 POSCAR =  Si                                      

 Startparameter for this run:
   NWRITE =      2    write-flag & timer
   PREC   = normal    normal or accurate (medium, high low for compatibility)
   ISTART =      0    job   : 0-new  1-cont  2-samecut
   ICHARG =     11    charge: 1-file 2-atom 10-const
   ISPIN  =      1    spin polarized calculation?
   LNONCOLLINEAR =      F non collinear calculations
   LSORBIT =      F    spin-orbit coupling
   INIWAV =      1    electr: 0-lowe 1-rand  2-diag
   LASPH  =      F    aspherical Exc in radial PAW
   METAGGA=      F    non-selfconsistent MetaGGA calc.

 Electronic Relaxation 1
   ENCUT  =  245.4 eV  18.04 Ry    4.25 a.u.   4.93  4.93  4.93*2*pi/ulx,y,z
   ENINI  =  245.4     initial cutoff
   ENAUG  =  322.1 eV  augmentation charge cutoff
   NELM   =     60;   NELMIN=  2; NELMDL= -5     # of ELM steps 
   EDIFF  = 0.1E-05   stopping-criterion for ELM
   LREAL  =      F    real-space projection
   NLSPLINE    = F    spline interpolate recip. space projectors
   LCOMPAT=      F    compatible to vasp.4.4
   GGA_COMPAT  = T    GGA compatible to vasp.4.4-vasp.4.6
   LMAXPAW     = -100 max onsite density
   LMAXMIX     =    2 max onsite mixed and CHGCAR
   VOSKOWN=      0    Vosko Wilk Nusair interpolation
   ROPT   =    0.00000
 Ionic relaxation
   EDIFFG = 0.1E-04   stopping-criterion for IOM
   NSW    =      0    number of steps for IOM
   NBLOCK =      1;   KBLOCK =      1    inner block; outer block 
   IBRION =     -1    ionic relax: 0-MD 1-quasi-New 2-CG
   NFREE  =      0    steps in history (QN), initial steepest desc. (CG)
   ISIF   =      2    stress and relaxation
   IWAVPR =     10    prediction:  0-non 1-charg 2-wave 3-comb
   ISYM   =      2    0-nonsym 1-usesym 2-fastsym
   LCORR  =      T    Harris-Foulkes like correction to forces

   POTIM  = 0.5000    time-step for ionic-motion
   TEIN   =    0.0    initial temperature
   TEBEG  =    0.0;   TEEND  =   0.0 temperature during run
   SMASS  =  -3.00    Nose mass-parameter (am)
   estimated Nose-frequenzy (Omega)   =  0.10E-29 period in steps =****** mass=  -0.341E-27a.u.
   SCALEE = 1.0000    scale energy and forces
   NPACO  =    256;   APACO  = 16.0  distance and # of slots for P.C.
   PSTRESS=    0.0 pullay stress

  Mass of Ions in am
   POMASS =  28.09
  Ionic Valenz
   ZVAL   =   4.00
  Atomic Wigner-Seitz radii
   RWIGS  =   1.31
  virtual crystal weights 
   VCA    =   1.00
   NELECT =       8.0000    total number of electrons
   NUPDOWN=      -1.0000    fix difference up-down

 DOS related values:
   EMIN   =  10.00;   EMAX   =-10.00  energy-range for DOS
   EFERMI =   0.00
   ISMEAR =     1;   SIGMA  =   0.20  broadening in eV -4-tet -1-fermi 0-gaus

 Electronic relaxation 2 (details)
   IALGO  =     38    algorithm
   LDIAG  =      T    sub-space diagonalisation (order eigenvalues)
   LSUBROT=      F    optimize rotation matrix (better conditioning)
   TURBO    =      0    0=normal 1=particle mesh
   IRESTART =      0    0=no restart 2=restart with 2 vectors
   NREBOOT  =      0    no. of reboots
   NMIN     =      0    reboot dimension
   EREF     =   0.00    reference energy to select bands
   IMIX   =      4    mixing-type and parameters
     AMIX     =   0.40;   BMIX     =  1.00
     AMIX_MAG =   1.60;   BMIX_MAG =  1.00
     AMIN     =   0.10
     WC   =   100.;   INIMIX=   1;  MIXPRE=   1;  MAXMIX= -45

 Intra band minimization:
   WEIMIN = 0.0000     energy-eigenvalue tresh-hold
   EBREAK =  0.31E-07  absolut break condition
   DEPER  =   0.30     relativ break condition  

   TIME   =   0.40     timestep for ELM

  volume/ion in A,a.u.               =      20.36       137.41
  Fermi-wavevector in a.u.,A,eV,Ry     =   0.951677  1.798409 12.322655  0.905690
  Thomas-Fermi vector in A             =   2.080170
 
 Write flags
   LWAVE        =      F    write WAVECAR
   LDOWNSAMPLE  =      F    k-point downsampling of WAVECAR
   LCHARG       =      F    write CHGCAR
   LVTOT        =      F    write LOCPOT, total local potential
   LVHAR        =      F    write LOCPOT, Hartree potential only
   LELF         =      F    write electronic localiz. function (ELF)
   LORBIT       =      0    0 simple, 1 ext, 2 COOP (PROOUT), +10 PAW based schemes


 Dipole corrections
   LMONO  =      F    monopole corrections only (constant potential shift)
   LDIPOL =      F    correct potential (dipole corrections)
   IDIPOL =      0    1-x, 2-y, 3-z, 4-all directions 
   EPSILON=  1.0000000 bulk dielectric constant

 Exchange correlation treatment:
   GGA     =    --    GGA type
   LEXCH   =     7    internal setting for exchange type
   VOSKOWN=      0    Vosko Wilk Nusair interpolation
   LHFCALC =     F    Hartree Fock is set to
   LHFONE  =     F    Hartree Fock one center treatment
   AEXX    =    0.0000 exact exchange contribution

 Linear response parameters
   LEPSILON=     F    determine dielectric tensor
   LRPA    =     F    only Hartree local field effects (RPA)
   LNABLA  =     F    use nabla operator in PAW spheres
   LVEL    =     F    velocity operator in full k-point grid
   LINTERFAST=   F  fast interpolation
   KINTER  =     0    interpolate to denser k-point grid
   CSHIFT  =0.1000    complex shift for real part using Kramers Kronig
   OMEGAMAX=  -1.0    maximum frequency
   DEG_THRESHOLD= 0.2000000E-02 threshold for treating states as degnerate
   RTIME   =   -0.100 relaxation time in fs
  (WPLASMAI=    0.000 imaginary part of plasma frequency in eV, 0.658/RTIME)
   DFIELD  = 0.0000000 0.0000000 0.0000000 field for delta impulse in time
 
 Orbital magnetization related:
   ORBITALMAG=     F  switch on orbital magnetization
   LCHIMAG   =     F  perturbation theory with respect to B field
   DQ        =  0.001000  dq finite difference perturbation B field
   LLRAUG    =     F  two centre corrections for induced B field



--------------------------------------------------------------------------------------------------------


 Static calculation
 charge density and potential remain constant during run
 non-spin polarized calculation
 Variant of blocked Davidson
 Davidson routine will perform the subspace rotation
 perform sub-space diagonalisation
    after iterative eigenvector-optimisation
 no mixing
 using additional bands            4
 reciprocal scheme for non local part
 use partial core corrections
 calculate Harris-corrections to forces 
   (improved forces if not selfconsistent)
 use gradient corrections 
 WARNING: stress and forces are not correct
  (second derivative of E(xc) not defined)
 use of overlap-Matrix (Vanderbilt PP)
 Methfessel and Paxton  Order N= 1 SIGMA  =   0.20


--------------------------------------------------------------------------------------------------------


  energy-cutoff  :      245.44
  volume of cell :       40.72
      direct lattice vectors                 reciprocal lattice vectors
     2.730686319  2.730686319  0.000000000     0.183104151  0.183104151 -0.183104151
     0.000000000  2.730686319  2.730686319    -0.183104151  0.183104151  0.183104151
     2.730686319  0.000000000  2.730686319     0.183104151 -0.183104151  0.183104151

  length of vectors
     3.861773627  3.861773627  3.861773627     0.317145693  0.317145693  0.317145693


 
 k-points in units of 2pi/SCALE and weight: K-points along high symmetry lines for F
   0.71410619  0.00000000  0.35705309       0.010
   0.69531392  0.01879227  0.35705309       0.010
   0.67652165  0.03758454  0.35705309       0.010
   0.65772938  0.05637680  0.35705309       0.010
   0.63893712  0.07516907  0.35705309       0.010
   0.62014485  0.09396134  0.35705309       0.010
   0.60135258  0.11275361  0.35705309       0.010
   0.58256031  0.13154588  0.35705309       0.010
   0.56376804  0.15033815  0.35705309       0.010
   0.54497578  0.16913041  0.35705309       0.010
   0.52618351  0.18792268  0.35705309       0.010
   0.50739124  0.20671495  0.35705309       0.010
   0.48859897  0.22550722  0.35705309       0.010
   0.46980670  0.24429949  0.35705309       0.010
   0.45101444  0.26309175  0.35705309       0.010
   0.43222217  0.28188402  0.35705309       0.010
   0.41342990  0.30067629  0.35705309       0.010
   0.39463763  0.31946856  0.35705309       0.010
   0.37584536  0.33826083  0.35705309       0.010
   0.35705309  0.35705309  0.35705309       0.010
   0.35705309  0.35705309  0.35705309       0.010
   0.33826083  0.33826083  0.33826083       0.010
   0.31946856  0.31946856  0.31946856       0.010
   0.30067629  0.30067629  0.30067629       0.010
   0.28188402  0.28188402  0.28188402       0.010
   0.26309175  0.26309175  0.26309175       0.010
   0.24429949  0.24429949  0.24429949       0.010
   0.22550722  0.22550722  0.22550722       0.010
   0.20671495  0.20671495  0.20671495       0.010
   0.18792268  0.18792268  0.18792268       0.010
   0.16913041  0.16913041  0.16913041       0.010
   0.15033815  0.15033815  0.15033815       0.010
   0.13154588  0.13154588  0.13154588       0.010
   0.11275361  0.11275361  0.11275361       0.010
   0.09396134  0.09396134  0.09396134       0.010
   0.07516907  0.07516907  0.07516907       0.010
   0.05637680  0.05637680  0.05637680       0.010
   0.03758454  0.03758454  0.03758454       0.010
   0.01879227  0.01879227  0.01879227       0.010
   0.00000000  0.00000000  0.00000000       0.010
   0.00000000  0.00000000  0.00000000       0.010
   0.03758454  0.00000000  0.00000000       0.010
   0.07516907  0.00000000  0.00000000       0.010
   0.11275361  0.00000000  0.00000000       0.010
   0.15033815  0.00000000  0.00000000       0.010
   0.18792268  0.00000000  0.00000000       0.010
   0.22550722  0.00000000  0.00000000       0.010
   0.26309175  0.00000000  0.00000000       0.010
   0.30067629  0.00000000  0.00000000       0.010
   0.33826083  0.00000000  0.00000000       0.010
   0.37584536  0.00000000  0.00000000       0.010
   0.41342990  0.00000000  0.00000000       0.010
   0.45101444  0.00000000  0.00000000       0.010
   0.48859897  0.00000000  0.00000000       0.010
   0.52618351  0.00000000  0.00000000       0.010
   0.56376804  0.00000000  0.00000000       0.010
   0.60135258  0.00000000  0.00000000       0.010
   0.63893712  0.00000000  0.00000000       0.010
   0.67652165  0.00000000  0.00000000       0.010
   0.71410619  0.00000000  0.00000000       0.010
   0.71410619  0.00000000  0.00000000       0.010
   0.71410619  0.00000000  0.01879227       0.010
   0.71410619  0.00000000  0.03758454       0.010
   0.71410619  0.00000000  0.05637680       0.010
   0.71410619  0.00000000  0.07516907       0.010
   0.71410619  0.00000000  0.09396134       0.010
   0.71410619  0.00000000  0.11275361       0.010
   0.71410619  0.00000000  0.13154588       0.010
   0.71410619  0.00000000  0.15033815       0.010
   0.71410619 -0.00000000  0.16913041       0.010
   0.71410619  0.00000000  0.18792268       0.010
   0.71410619  0.00000000  0.20671495       0.010
   0.71410619 -0.00000000  0.22550722       0.010
   0.71410619  0.00000000  0.24429949       0.010
   0.71410619  0.00000000  0.26309175       0.010
   0.71410619  0.00000000  0.28188402       0.010
   0.71410619  0.00000000  0.30067629       0.010
   0.71410619  0.00000000  0.31946856       0.010
   0.71410619  0.00000000  0.33826083       0.010
   0.71410619  0.00000000  0.35705309       0.010
   0.71410619  0.00000000  0.35705309       0.010
   0.71410619  0.00000000  0.33826083       0.010
   0.71410619  0.00000000  0.31946856       0.010
   0.71410619  0.00000000  0.30067629       0.010
   0.71410619  0.00000000  0.28188402       0.010
   0.71410619  0.00000000  0.26309175       0.010
   0.71410619  0.00000000  0.24429949       0.010
   0.71410619 -0.00000000  0.22550722       0.010
   0.71410619  0.00000000  0.20671495       0.010
   0.71410619  0.00000000  0.18792268       0.010
   0.71410619  0.00000000  0.16913041       0.010
   0.71410619  0.00000000  0.15033815       0.010
   0.71410619  0.00000000  0.13154588       0.010
   0.71410619  0.00000000  0.11275361       0.010
   0.71410619  0.00000000  0.09396134       0.010
   0.71410619  0.00000000  0.07516907       0.010
   0.71410619  0.00000000  0.05637680       0.010
   0.71410619  0.00000000  0.03758454       0.010
   0.71410619  0.00000000  0.01879227       0.010
   0.71410619  0.00000000  0.00000000       0.010
 
 k-points in reciprocal lattice and weights: K-points along high symmetry lines for F
   0.50000000  0.25000000  0.75000000       0.010
   0.50000000  0.26315789  0.73684211       0.010
   0.50000000  0.27631579  0.72368421       0.010
   0.50000000  0.28947368  0.71052632       0.010
   0.50000000  0.30263158  0.69736842       0.010
   0.50000000  0.31578947  0.68421053       0.010
   0.50000000  0.32894737  0.67105263       0.010
   0.50000000  0.34210526  0.65789474       0.010
   0.50000000  0.35526316  0.64473684       0.010
   0.50000000  0.36842105  0.63157895       0.010
   0.50000000  0.38157895  0.61842105       0.010
   0.50000000  0.39473684  0.60526316       0.010
   0.50000000  0.40789474  0.59210526       0.010
   0.50000000  0.42105263  0.57894737       0.010
   0.50000000  0.43421053  0.56578947       0.010
   0.50000000  0.44736842  0.55263158       0.010
   0.50000000  0.46052632  0.53947368       0.010
   0.50000000  0.47368421  0.52631579       0.010
   0.50000000  0.48684211  0.51315789       0.010
   0.50000000  0.50000000  0.50000000       0.010
   0.50000000  0.50000000  0.50000000       0.010
   0.47368421  0.47368421  0.47368421       0.010
   0.44736842  0.44736842  0.44736842       0.010
   0.42105263  0.42105263  0.42105263       0.010
   0.39473684  0.39473684  0.39473684       0.010
   0.36842105  0.36842105  0.36842105       0.010
   0.34210526  0.34210526  0.34210526       0.010
   0.31578947  0.31578947  0.31578947       0.010
   0.28947368  0.28947368  0.28947368       0.010
   0.26315789  0.26315789  0.26315789       0.010
   0.23684211  0.23684211  0.23684211       0.010
   0.21052632  0.21052632  0.21052632       0.010
   0.18421053  0.18421053  0.18421053       0.010
   0.15789474  0.15789474  0.15789474       0.010
   0.13157895  0.13157895  0.13157895       0.010
   0.10526316  0.10526316  0.10526316       0.010
   0.07894737  0.07894737  0.07894737       0.010
   0.05263158  0.05263158  0.05263158       0.010
   0.02631579  0.02631579  0.02631579       0.010
   0.00000000  0.00000000  0.00000000       0.010
   0.00000000  0.00000000  0.00000000       0.010
   0.02631579  0.00000000  0.02631579       0.010
   0.05263158  0.00000000  0.05263158       0.010
   0.07894737  0.00000000  0.07894737       0.010
   0.10526316  0.00000000  0.10526316       0.010
   0.13157895  0.00000000  0.13157895       0.010
   0.15789474  0.00000000  0.15789474       0.010
   0.18421053  0.00000000  0.18421053       0.010
   0.21052632  0.00000000  0.21052632       0.010
   0.23684211  0.00000000  0.23684211       0.010
   0.26315789  0.00000000  0.26315789       0.010
   0.28947368  0.00000000  0.28947368       0.010
   0.31578947  0.00000000  0.31578947       0.010
   0.34210526  0.00000000  0.34210526       0.010
   0.36842105  0.00000000  0.36842105       0.010
   0.39473684  0.00000000  0.39473684       0.010
   0.42105263  0.00000000  0.42105263       0.010
   0.44736842  0.00000000  0.44736842       0.010
   0.47368421  0.00000000  0.47368421       0.010
   0.50000000  0.00000000  0.50000000       0.010
   0.50000000  0.00000000  0.50000000       0.010
   0.50000000  0.01315789  0.51315789       0.010
   0.50000000  0.02631579  0.52631579       0.010
   0.50000000  0.03947368  0.53947368       0.010
   0.50000000  0.05263158  0.55263158       0.010
   0.50000000  0.06578947  0.56578947       0.010
   0.50000000  0.07894737  0.57894737       0.010
   0.50000000  0.09210526  0.59210526       0.010
   0.50000000  0.10526316  0.60526316       0.010
   0.50000000  0.11842105  0.61842105       0.010
   0.50000000  0.13157895  0.63157895       0.010
   0.50000000  0.14473684  0.64473684       0.010
   0.50000000  0.15789474  0.65789474       0.010
   0.50000000  0.17105263  0.67105263       0.010
   0.50000000  0.18421053  0.68421053       0.010
   0.50000000  0.19736842  0.69736842       0.010
   0.50000000  0.21052632  0.71052632       0.010
   0.50000000  0.22368421  0.72368421       0.010
   0.50000000  0.23684211  0.73684211       0.010
   0.50000000  0.25000000  0.75000000       0.010
   0.50000000  0.25000000  0.75000000       0.010
   0.50000000  0.23684211  0.73684211       0.010
   0.50000000  0.22368421  0.72368421       0.010
   0.50000000  0.21052632  0.71052632       0.010
   0.50000000  0.19736842  0.69736842       0.010
   0.50000000  0.18421053  0.68421053       0.010
   0.50000000  0.17105263  0.67105263       0.010
   0.50000000  0.15789474  0.65789474       0.010
   0.50000000  0.14473684  0.64473684       0.010
   0.50000000  0.13157895  0.63157895       0.010
   0.50000000  0.11842105  0.61842105       0.010
   0.50000000  0.10526316  0.60526316       0.010
   0.50000000  0.09210526  0.59210526       0.010
   0.50000000  0.07894737  0.57894737       0.010
   0.50000000  0.06578947  0.56578947       0.010
   0.50000000  0.05263158  0.55263158       0.010
   0.50000000  0.03947368  0.53947368       0.010
   0.50000000  0.02631579  0.52631579       0.010
   0.50000000  0.01315789  0.51315789       0.010
   0.50000000  0.00000000  0.50000000       0.010
 
 position of ions in fractional coordinates (direct lattice) 
   0.00000000  0.00000000  0.00000000
   0.25000000  0.25000000  0.25000000
 
 position of ions in cartesian coordinates  (Angst):
   0.00000000  0.00000000  0.00000000
   1.36534316  1.36534316  1.36534316
 


--------------------------------------------------------------------------------------------------------


 k-point  1 :   0.5000 0.2500 0.7500  plane waves:     360
 k-point  2 :   0.5000 0.2632 0.7368  plane waves:     360
 k-point  3 :   0.5000 0.2763 0.7237  plane waves:     366
 k-point  4 :   0.5000 0.2895 0.7105  plane waves:     364
 k-point  5 :   0.5000 0.3026 0.6974  plane waves:     366
 k-point  6 :   0.5000 0.3158 0.6842  plane waves:     366
 k-point  7 :   0.5000 0.3289 0.6711  plane waves:     366
 k-point  8 :   0.5000 0.3421 0.6579  plane waves:     366
 k-point  9 :   0.5000 0.3553 0.6447  plane waves:     366
 k-point 10 :   0.5000 0.3684 0.6316  plane waves:     358
 k-point 11 :   0.5000 0.3816 0.6184  plane waves:     362
 k-point 12 :   0.5000 0.3947 0.6053  plane waves:     362
 k-point 13 :   0.5000 0.4079 0.5921  plane waves:     360
 k-point 14 :   0.5000 0.4211 0.5789  plane waves:     358
 k-point 15 :   0.5000 0.4342 0.5658  plane waves:     356
 k-point 16 :   0.5000 0.4474 0.5526  plane waves:     358
 k-point 17 :   0.5000 0.4605 0.5395  plane waves:     356
 k-point 18 :   0.5000 0.4737 0.5263  plane waves:     356
 k-point 19 :   0.5000 0.4868 0.5132  plane waves:     356
 k-point 20 :   0.5000 0.5000 0.5000  plane waves:     344
 k-point 21 :   0.5000 0.5000 0.5000  plane waves:     344
 k-point 22 :   0.4737 0.4737 0.4737  plane waves:     356
 k-point 23 :   0.4474 0.4474 0.4474  plane waves:     356
 k-point 24 :   0.4211 0.4211 0.4211  plane waves:     356
 k-point 25 :   0.3947 0.3947 0.3947  plane waves:     353
 k-point 26 :   0.3684 0.3684 0.3684  plane waves:     353
 k-point 27 :   0.3421 0.3421 0.3421  plane waves:     359
 k-point 28 :   0.3158 0.3158 0.3158  plane waves:     353
 k-point 29 :   0.2895 0.2895 0.2895  plane waves:     353
 k-point 30 :   0.2632 0.2632 0.2632  plane waves:     353
 k-point 31 :   0.2368 0.2368 0.2368  plane waves:     353
 k-point 32 :   0.2105 0.2105 0.2105  plane waves:     356
 k-point 33 :   0.1842 0.1842 0.1842  plane waves:     356
 k-point 34 :   0.1579 0.1579 0.1579  plane waves:     344
 k-point 35 :   0.1316 0.1316 0.1316  plane waves:     338
 k-point 36 :   0.1053 0.1053 0.1053  plane waves:     335
 k-point 37 :   0.0789 0.0789 0.0789  plane waves:     338
 k-point 38 :   0.0526 0.0526 0.0526  plane waves:     338
 k-point 39 :   0.0263 0.0263 0.0263  plane waves:     339
 k-point 40 :   0.0000 0.0000 0.0000  plane waves:     339
 k-point 41 :   0.0000 0.0000 0.0000  plane waves:     339
 k-point 42 :   0.0263 0.0000 0.0263  plane waves:     339
 k-point 43 :   0.0526 0.0000 0.0526  plane waves:     335
 k-point 44 :   0.0789 0.0000 0.0789  plane waves:     335
 k-point 45 :   0.1053 0.0000 0.1053  plane waves:     339
 k-point 46 :   0.1316 0.0000 0.1316  plane waves:     347
 k-point 47 :   0.1579 0.0000 0.1579  plane waves:     351
 k-point 48 :   0.1842 0.0000 0.1842  plane waves:     351
 k-point 49 :   0.2105 0.0000 0.2105  plane waves:     347
 k-point 50 :   0.2368 0.0000 0.2368  plane waves:     351
 k-point 51 :   0.2632 0.0000 0.2632  plane waves:     351
 k-point 52 :   0.2895 0.0000 0.2895  plane waves:     347
 k-point 53 :   0.3158 0.0000 0.3158  plane waves:     347
 k-point 54 :   0.3421 0.0000 0.3421  plane waves:     351
 k-point 55 :   0.3684 0.0000 0.3684  plane waves:     351
 k-point 56 :   0.3947 0.0000 0.3947  plane waves:     359
 k-point 57 :   0.4211 0.0000 0.4211  plane waves:     351
 k-point 58 :   0.4474 0.0000 0.4474  plane waves:     351
 k-point 59 :   0.4737 0.0000 0.4737  plane waves:     343
 k-point 60 :   0.5000 0.0000 0.5000  plane waves:     342
 k-point 61 :   0.5000 0.0000 0.5000  plane waves:     342
 k-point 62 :   0.5000 0.0132 0.5132  plane waves:     342
 k-point 63 :   0.5000 0.0263 0.5263  plane waves:     346
 k-point 64 :   0.5000 0.0395 0.5395  plane waves:     346
 k-point 65 :   0.5000 0.0526 0.5526  plane waves:     352
 k-point 66 :   0.5000 0.0658 0.5658  plane waves:     352
 k-point 67 :   0.5000 0.0789 0.5789  plane waves:     358
 k-point 68 :   0.5000 0.0921 0.5921  plane waves:     358
 k-point 69 :   0.5000 0.1053 0.6053  plane waves:     358
 k-point 70 :   0.5000 0.1184 0.6184  plane waves:     362
 k-point 71 :   0.5000 0.1316 0.6316  plane waves:     362
 k-point 72 :   0.5000 0.1447 0.6447  plane waves:     362
 k-point 73 :   0.5000 0.1579 0.6579  plane waves:     360
 k-point 74 :   0.5000 0.1711 0.6711  plane waves:     360
 k-point 75 :   0.5000 0.1842 0.6842  plane waves:     360
 k-point 76 :   0.5000 0.1974 0.6974  plane waves:     368
 k-point 77 :   0.5000 0.2105 0.7105  plane waves:     364
 k-point 78 :   0.5000 0.2237 0.7237  plane waves:     360
 k-point 79 :   0.5000 0.2368 0.7368  plane waves:     360
 k-point 80 :   0.5000 0.2500 0.7500  plane waves:     360
 k-point 81 :   0.5000 0.2500 0.7500  plane waves:     360
 k-point 82 :   0.5000 0.2368 0.7368  plane waves:     360
 k-point 83 :   0.5000 0.2237 0.7237  plane waves:     360
 k-point 84 :   0.5000 0.2105 0.7105  plane waves:     364
 k-point 85 :   0.5000 0.1974 0.6974  plane waves:     368
 k-point 86 :   0.5000 0.1842 0.6842  plane waves:     360
 k-point 87 :   0.5000 0.1711 0.6711  plane waves:     360
 k-point 88 :   0.5000 0.1579 0.6579  plane waves:     360
 k-point 89 :   0.5000 0.1447 0.6447  plane waves:     362
 k-point 90 :   0.5000 0.1316 0.6316  plane waves:     362
 k-point 91 :   0.5000 0.1184 0.6184  plane waves:     362
 k-point 92 :   0.5000 0.1053 0.6053  plane waves:     358
 k-point 93 :   0.5000 0.0921 0.5921  plane waves:     358
 k-point 94 :   0.5000 0.0789 0.5789  plane waves:     358
 k-point 95 :   0.5000 0.0658 0.5658  plane waves:     352
 k-point 96 :   0.5000 0.0526 0.5526  plane waves:     352
 k-point 97 :   0.5000 0.0395 0.5395  plane waves:     346
 k-point 98 :   0.5000 0.0263 0.5263  plane waves:     346
 k-point 99 :   0.5000 0.0132 0.5132  plane waves:     342
 k-point ** :   0.5000 0.0000 0.5000  plane waves:     342

 maximum and minimum number of plane-waves per node :       368      335

 maximum number of plane-waves:       368
 maximum index in each direction: 
   IXMAX=    4   IYMAX=    4   IZMAX=    4
   IXMIN=   -5   IYMIN=   -5   IZMIN=   -5


 serial   3D FFT for wavefunctions
 parallel 3D FFT for charge:
    minimum data exchange during FFTs selected (reduces bandwidth)


 total amount of memory used by VASP MPI-rank0    42263. kBytes
=======================================================================

   base      :      30000. kBytes
   nonl-proj :       2366. kBytes
   fftplans  :       2224. kBytes
   grid      :       2752. kBytes
   one-center:          6. kBytes
   wavefun   :       4915. kBytes
 
     INWAV:  cpu time    0.0001: real time    0.0002
 initial charge density was supplied:
 number of electron       7.9999995 magnetization 
 keeping initial charge density in first step


--------------------------------------------------------------------------------------------------------


 Maximum index for augmentation-charges         3319 (set IRDMAX)


--------------------------------------------------------------------------------------------------------


 First call to EWALD:  gamma=   0.515
 Maximum number of real-space cells 3x 3x 3
 Maximum number of reciprocal cells 3x 3x 3

    FEWALD:  cpu time    0.0013: real time    0.0013


--------------------------------------- Iteration      1(   1)  ---------------------------------------


    POTLOK:  cpu time    0.0209: real time    0.0352
    SETDIJ:  cpu time    0.0020: real time    0.0019
     EDDAV:  cpu time    0.2011: real time    0.2533
       DOS:  cpu time    0.0030: real time    0.0034
    --------------------------------------------
      LOOP:  cpu time    0.2271: real time    0.2939

 eigenvalue-minimisations  :  1600
 total energy-change (2. order) :-0.1426080E+00  (-0.2174671E+03)
 number of electron       7.9999995 magnetization 
 augmentation part        7.9999995 magnetization 

 Free energy of the ion-electron system (eV)
  ---------------------------------------------------
  alpha Z        PSCENC =         3.18742041
  Ewald energy   TEWEN  =      -227.25055085
  -Hartree energ DENC   =       -15.20290447
  -exchange      EXHF   =         0.00000000
  -V(xc)+E(xc)   XCENC  =       -18.52084166
  PAW double counting   =        74.91473297      -39.56875585
  entropy T*S    EENTRO =         0.00199604
  eigenvalues    EBANDS =        15.69239634
  atomic energy  EATOM  =       206.60389906
  Solvation  Ediel_sol  =         0.00000000
  ---------------------------------------------------
  free energy    TOTEN  =        -0.14260802 eV

  energy without entropy =       -0.14460405  energy(sigma->0) =       -0.14327336


--------------------------------------------------------------------------------------------------------




--------------------------------------- Iteration      1(   2)  ---------------------------------------


     EDDAV:  cpu time    0.2971: real time    0.2979
       DOS:  cpu time    0.0035: real time    0.0035
    --------------------------------------------
      LOOP:  cpu time    0.3006: real time    0.3014

 eigenvalue-minimisations  :  2512
 total energy-change (2. order) :-0.9776987E+01  (-0.9211592E+01)
 number of electron       7.9999995 magnetization 
 augmentation part        7.9999995 magnetization 

 Free energy of the ion-electron system (eV)
  ---------------------------------------------------
  alpha Z        PSCENC =         3.18742041
  Ewald energy   TEWEN  =      -227.25055085
  -Hartree energ DENC   =       -15.20290447
  -exchange      EXHF   =         0.00000000
  -V(xc)+E(xc)   XCENC  =       -18.52084166
  PAW double counting   =        74.91473297      -39.56875585
  entropy T*S    EENTRO =         0.00262846
  eigenvalues    EBANDS =         5.91477657
  atomic energy  EATOM  =       206.60389906
  Solvation  Ediel_sol  =         0.00000000
  ---------------------------------------------------
  free energy    TOTEN  =        -9.91959535 eV

  energy without entropy =       -9.92222382  energy(sigma->0) =       -9.92047151


--------------------------------------------------------------------------------------------------------




--------------------------------------- Iteration      1(   3)  ---------------------------------------


     EDDAV:  cpu time    0.2504: real time    0.3417
       DOS:  cpu time    0.0036: real time    0.0036
    --------------------------------------------
      LOOP:  cpu time    0.2540: real time    0.3453

 eigenvalue-minimisations  :  2056
 total energy-change (2. order) :-0.1209972E+00  (-0.1209126E+00)
 number of electron       7.9999995 magnetization 
 augmentation part        7.9999995 magnetization 

 Free energy of the ion-electron system (eV)
  ---------------------------------------------------
  alpha Z        PSCENC =         3.18742041
  Ewald energy   TEWEN  =      -227.25055085
  -Hartree energ DENC   =       -15.20290447
  -exchange      EXHF   =         0.00000000
  -V(xc)+E(xc)   XCENC  =       -18.52084166
  PAW double counting   =        74.91473297      -39.56875585
  entropy T*S    EENTRO =         0.00255182
  eigenvalues    EBANDS =         5.79385599
  atomic energy  EATOM  =       206.60389906
  Solvation  Ediel_sol  =         0.00000000
  ---------------------------------------------------
  free energy    TOTEN  =       -10.04059257 eV

  energy without entropy =      -10.04314440  energy(sigma->0) =      -10.04144318


--------------------------------------------------------------------------------------------------------




--------------------------------------- Iteration      1(   4)  ---------------------------------------


     EDDAV:  cpu time    0.3215: real time    0.6292
       DOS:  cpu time    0.0037: real time    0.0167
    --------------------------------------------
      LOOP:  cpu time    0.3252: real time    0.6459

 eigenvalue-minimisations  :  2648
 total energy-change (2. order) :-0.3419614E-03  (-0.3419588E-03)
 number of electron       7.9999995 magnetization 
 augmentation part        7.9999995 magnetization 

 Free energy of the ion-electron system (eV)
  ---------------------------------------------------
  alpha Z        PSCENC =         3.18742041
  Ewald energy   TEWEN  =      -227.25055085
  -Hartree energ DENC   =       -15.20290447
  -exchange      EXHF   =         0.00000000
  -V(xc)+E(xc)   XCENC  =       -18.52084166
  PAW double counting   =        74.91473297      -39.56875585
  entropy T*S    EENTRO =         0.00255166
  eigenvalues    EBANDS =         5.79351419
  atomic energy  EATOM  =       206.60389906
  Solvation  Ediel_sol  =         0.00000000
  ---------------------------------------------------
  free energy    TOTEN  =       -10.04093454 eV

  energy without entropy =      -10.04348620  energy(sigma->0) =      -10.04178509


--------------------------------------------------------------------------------------------------------




--------------------------------------- Iteration      1(   5)  ---------------------------------------


     EDDAV:  cpu time    0.2460: real time    0.2858
       DOS:  cpu time    0.0038: real time    0.0038
    --------------------------------------------
      LOOP:  cpu time    0.2498: real time    0.2895

 eigenvalue-minimisations  :  2032
 total energy-change (2. order) :-0.3958334E-06  (-0.3961235E-06)
 number of electron       7.9999995 magnetization 
 augmentation part        7.9999995 magnetization 

 Free energy of the ion-electron system (eV)
  ---------------------------------------------------
  alpha Z        PSCENC =         3.18742041
  Ewald energy   TEWEN  =      -227.25055085
  -Hartree energ DENC   =       -15.20290447
  -exchange      EXHF   =         0.00000000
  -V(xc)+E(xc)   XCENC  =       -18.52084166
  PAW double counting   =        74.91473297      -39.56875585
  entropy T*S    EENTRO =         0.00255166
  eigenvalues    EBANDS =         5.79351380
  atomic energy  EATOM  =       206.60389906
  Solvation  Ediel_sol  =         0.00000000
  ---------------------------------------------------
  free energy    TOTEN  =       -10.04093493 eV

  energy without entropy =      -10.04348659  energy(sigma->0) =      -10.04178548


--------------------------------------------------------------------------------------------------------




--------------------------------------- Iteration      1(   6)  ---------------------------------------


     EDDAV:  cpu time    0.3107: real time    0.4658
       DOS:  cpu time    0.0037: real time    0.0037
    --------------------------------------------
      LOOP:  cpu time    0.3144: real time    0.4695

 eigenvalue-minimisations  :  2576
 total energy-change (2. order) :-0.5425989E-08  (-0.5057941E-08)
 number of electron       7.9999995 magnetization 
 augmentation part        7.9999995 magnetization 

 Free energy of the ion-electron system (eV)
  ---------------------------------------------------
  alpha Z        PSCENC =         3.18742041
  Ewald energy   TEWEN  =      -227.25055085
  -Hartree energ DENC   =       -15.20290447
  -exchange      EXHF   =         0.00000000
  -V(xc)+E(xc)   XCENC  =       -18.52084166
  PAW double counting   =        74.91473297      -39.56875585
  entropy T*S    EENTRO =         0.00255166
  eigenvalues    EBANDS =         5.79351379
  atomic energy  EATOM  =       206.60389906
  Solvation  Ediel_sol  =         0.00000000
  ---------------------------------------------------
  free energy    TOTEN  =       -10.04093494 eV

  energy without entropy =      -10.04348659  energy(sigma->0) =      -10.04178549


--------------------------------------------------------------------------------------------------------




 average (electrostatic) potential at core
  the test charge radii are     0.9892
  (the norm of the test charge is              1.0000)
       1 -83.6891       2 -83.6891
 
 
 
 E-fermi :   5.7722     XC(G=0):  -9.3686     alpha+bet :-11.7936


 k-point     1 :       0.5000    0.2500    0.7500
  band No.  band energies     occupation 
      1      -1.9663      2.00000
      2      -1.9663      2.00000
      3       1.8615      2.00000
      4       1.8615      2.00000
      5       9.9297     -0.00000
      6       9.9297     -0.00000
      7      10.5976     -0.00000
      8      10.5976     -0.00000

 k-point     2 :       0.5000    0.2632    0.7368
  band No.  band energies     occupation 
      1      -2.1361      2.00000
      2      -1.7996      2.00000
      3       1.7466      2.00000
      4       1.9975      2.00000
      5       9.7792     -0.00000
      6       9.9957     -0.00000
      7      10.5277     -0.00000
      8      10.7767     -0.00000

 k-point     3 :       0.5000    0.2763    0.7237
  band No.  band energies     occupation 
      1      -2.3060      2.00000
      2      -1.6402      2.00000
      3       1.6574      2.00000
      4       2.1504      2.00000
      5       9.6122     -0.00000
      6       9.9103     -0.00000
      7      10.6323     -0.00000
      8      10.9956     -0.00000

 k-point     4 :       0.5000    0.2895    0.7105
  band No.  band energies     occupation 
      1      -2.4729      2.00000
      2      -1.4932      2.00000
      3       1.5995      2.00000
      4       2.3172      2.00000
      5       9.4522     -0.00000
      6       9.7521     -0.00000
      7      10.8353     -0.00000
      8      11.2346      0.00000

 k-point     5 :       0.5000    0.3026    0.6974
  band No.  band energies     occupation 
      1      -2.6349      2.00000
      2      -1.3638      2.00000
      3       1.5787      2.00000
      4       2.4938      2.00000
      5       9.3041     -0.00000
      6       9.5769     -0.00000
      7      11.0781     -0.00000
      8      11.4864      0.00000

 k-point     6 :       0.5000    0.3158    0.6842
  band No.  band energies     occupation 
      1      -2.7904      2.00000
      2      -1.2570      2.00000
      3       1.5998      2.00000
      4       2.6776      2.00000
      5       9.1715     -0.00000
      6       9.4022     -0.00000
      7      11.3441      0.00000
      8      11.7480      0.00000

 k-point     7 :       0.5000    0.3289    0.6711
  band No.  band energies     occupation 
      1      -2.9383      2.00000
      2      -1.1760      2.00000
      3       1.6663      2.00000
      4       2.8659      2.00000
      5       9.0550     -0.00000
      6       9.2322     -0.00000
      7      11.6284      0.00000
      8      12.0170      0.00000

 k-point     8 :       0.5000    0.3421    0.6579
  band No.  band energies     occupation 
      1      -3.0777      2.00000
      2      -1.1218      2.00000
      3       1.7786      2.00000
      4       3.0556      2.00000
      5       8.9580     -0.00000
      6       9.0682     -0.00000
      7      11.9265      0.00000
      8      12.2913      0.00000

 k-point     9 :       0.5000    0.3553    0.6447
  band No.  band energies     occupation 
      1      -3.2077      2.00000
      2      -1.0922      2.00000
      3       1.9343      2.00000
      4       3.2438      2.00000
      5       8.8806     -0.00000
      6       8.9102     -0.00000
      7      12.2025      0.00000
      8      12.3157      0.00000

 k-point    10 :       0.5000    0.3684    0.6316
  band No.  band energies     occupation 
      1      -3.3278      2.00000
      2      -1.0831      2.00000
      3       2.1289      2.00000
      4       3.4284      2.00000
      5       8.7585     -0.00000
      6       8.8246     -0.00000
      7      11.7652      0.00000
      8      12.5817      0.00000

 k-point    11 :       0.5000    0.3816    0.6184
  band No.  band energies     occupation 
      1      -3.4375      2.00000
      2      -1.0897      2.00000
      3       2.3558      2.00000
      4       3.6046      2.00000
      5       8.6075     -0.00000
      6       8.7877     -0.00000
      7      11.2782      0.00000
      8      12.9205      0.00000

 k-point    12 :       0.5000    0.3947    0.6053
  band No.  band energies     occupation 
      1      -3.5365      2.00000
      2      -1.1066      2.00000
      3       2.6089      2.00000
      4       3.7704      2.00000
      5       8.4555     -0.00000
      6       8.7727     -0.00000
      7      10.8182     -0.00000
      8      13.2731      0.00000

 k-point    13 :       0.5000    0.4079    0.5921
  band No.  band energies     occupation 
      1      -3.6244      2.00000
      2      -1.1296      2.00000
      3       2.8817      2.00000
      4       3.9230      2.00000
      5       8.2975     -0.00000
      6       8.7777     -0.00000
      7      10.3927     -0.00000
      8      13.5586      0.00000

 k-point    14 :       0.5000    0.4211    0.5789
  band No.  band energies     occupation 
      1      -3.7009      2.00000
      2      -1.1550      2.00000
      3       3.1675      2.00000
      4       4.0595      2.00000
      5       8.1275     -0.00000
      6       8.8026     -0.00000
      7      10.0122     -0.00000
      8      13.6869      0.00000

 k-point    15 :       0.5000    0.4342    0.5658
  band No.  band energies     occupation 
      1      -3.7660      2.00000
      2      -1.1804      2.00000
      3       3.4581      2.00000
      4       4.1773      2.00000
      5       7.9392     -0.00000
      6       8.8402     -0.00000
      7       9.6889     -0.00000
      8      13.7169      0.00000

 k-point    16 :       0.5000    0.4474    0.5526
  band No.  band energies     occupation 
      1      -3.8195      2.00000
      2      -1.2035      2.00000
      3       3.7437      2.00000
      4       4.2753      2.00000
      5       7.7317     -0.00000
      6       8.8851     -0.00000
      7       9.4297     -0.00000
      8      13.6562      0.00000

 k-point    17 :       0.5000    0.4605    0.5395
  band No.  band energies     occupation 
      1      -3.8612      2.00000
      2      -1.2228      2.00000
      3       4.0106      2.00000
      4       4.3523      2.00000
      5       7.5169     -0.00000
      6       8.9340     -0.00000
      7       9.2411     -0.00000
      8      13.5502      0.00000

 k-point    18 :       0.5000    0.4737    0.5263
  band No.  band energies     occupation 
      1      -3.8910      2.00000
      2      -1.2373      2.00000
      3       4.2371      2.00000
      4       4.4075      2.00000
      5       7.3194     -0.00000
      6       8.9771     -0.00000
      7       9.1134     -0.00000
      8      13.4446      0.00000

 k-point    19 :       0.5000    0.4868    0.5132
  band No.  band energies     occupation 
      1      -3.9090      2.00000
      2      -1.2463      2.00000
      3       4.3945      2.00000
      4       4.4407      2.00000
      5       7.1754     -0.00000
      6       9.0067     -0.00000
      7       9.0408     -0.00000
      8      13.3700      0.00000

 k-point    20 :       0.5000    0.5000    0.5000
  band No.  band energies     occupation 
      1      -3.9145      2.00000
      2      -1.2491      2.00000
      3       4.4525      2.00000
      4       4.4525      2.00000
      5       7.1221     -0.00000
      6       9.0180     -0.00000
      7       9.0180     -0.00000
      8      13.3438      0.00000

 k-point    21 :       0.5000    0.5000    0.5000
  band No.  band energies     occupation 
      1      -3.9145      2.00000
      2      -1.2491      2.00000
      3       4.4525      2.00000
      4       4.4525      2.00000
      5       7.1221     -0.00000
      6       9.0180     -0.00000
      7       9.0180     -0.00000
      8      13.3438      0.00000

 k-point    22 :       0.4737    0.4737    0.4737
  band No.  band energies     occupation 
      1      -3.9530      2.00000
      2      -1.1944      2.00000
      3       4.4568      2.00000
      4       4.4568      2.00000
      5       7.1276     -0.00000
      6       9.0226     -0.00000
      7       9.0226     -0.00000
      8      13.3518      0.00000

 k-point    23 :       0.4474    0.4474    0.4474
  band No.  band energies     occupation 
      1      -4.0584      2.00000
      2      -1.0384      2.00000
      3       4.4716      2.00000
      4       4.4716      2.00000
      5       7.1447     -0.00000
      6       9.0384     -0.00000
      7       9.0384     -0.00000
      8      13.3761      0.00000

 k-point    24 :       0.4211    0.4211    0.4211
  band No.  band energies     occupation 
      1      -4.2114      2.00000
      2      -0.8010      2.00000
      3       4.4963      2.00000
      4       4.4963      2.00000
      5       7.1733     -0.00000
      6       9.0631     -0.00000
      7       9.0631     -0.00000
      8      13.4131      0.00000

 k-point    25 :       0.3947    0.3947    0.3947
  band No.  band energies     occupation 
      1      -4.3923      2.00000
      2      -0.5024      2.00000
      3       4.5307      2.00000
      4       4.5307      2.00000
      5       7.2144     -0.00000
      6       9.0944     -0.00000
      7       9.0944     -0.00000
      8      13.4553      0.00000

 k-point    26 :       0.3684    0.3684    0.3684
  band No.  band energies     occupation 
      1      -4.5861      2.00000
      2      -0.1578      2.00000
      3       4.5749      2.00000
      4       4.5749      2.00000
      5       7.2651     -0.00000
      6       9.1285     -0.00000
      7       9.1285     -0.00000
      8      13.4848      0.00000

 k-point    27 :       0.3421    0.3421    0.3421
  band No.  band energies     occupation 
      1      -4.7825      2.00000
      2       0.2220      2.00000
      3       4.6286      2.00000
      4       4.6286      2.00000
      5       7.3265     -0.00000
      6       9.1589     -0.00000
      7       9.1589     -0.00000
      8      13.4611      0.00000

 k-point    28 :       0.3158    0.3158    0.3158
  band No.  band energies     occupation 
      1      -4.9749      2.00000
      2       0.6312      2.00000
      3       4.6918      2.00000
      4       4.6918      2.00000
      5       7.3981     -0.00000
      6       9.1821     -0.00000
      7       9.1821     -0.00000
      8      13.3196      0.00000

 k-point    29 :       0.2895    0.2895    0.2895
  band No.  band energies     occupation 
      1      -5.1592      2.00000
      2       1.0621      2.00000
      3       4.7637      2.00000
      4       4.7637      2.00000
      5       7.4792     -0.00000
      6       9.1889     -0.00000
      7       9.1889     -0.00000
      8      13.0162      0.00000

 k-point    30 :       0.2632    0.2632    0.2632
  band No.  band energies     occupation 
      1      -5.3324      2.00000
      2       1.5120      2.00000
      3       4.8440      2.00000
      4       4.8440      2.00000
      5       7.5690     -0.00000
      6       9.1716     -0.00000
      7       9.1716     -0.00000
      8      12.6223      0.00000

 k-point    31 :       0.2368    0.2368    0.2368
  band No.  band energies     occupation 
      1      -5.4924      2.00000
      2       1.9776      2.00000
      3       4.9319      2.00000
      4       4.9319      2.00000
      5       7.6644     -0.00000
      6       9.1251     -0.00000
      7       9.1251     -0.00000
      8      12.1810      0.00000

 k-point    32 :       0.2105    0.2105    0.2105
  band No.  band energies     occupation 
      1      -5.6379      2.00000
      2       2.4555      2.00000
      3       5.0261      2.00000
      4       5.0261      2.00000
      5       7.7659     -0.00000
      6       9.0454     -0.00000
      7       9.0454     -0.00000
      8      11.7195      0.00000

 k-point    33 :       0.1842    0.1842    0.1842
  band No.  band energies     occupation 
      1      -5.7678      2.00000
      2       2.9422      2.00000
      3       5.1250      2.00005
      4       5.1250      2.00005
      5       7.8712     -0.00000
      6       8.9365     -0.00000
      7       8.9365     -0.00000
      8      11.2493      0.00000

 k-point    34 :       0.1579    0.1579    0.1579
  band No.  band energies     occupation 
      1      -5.8815      2.00000
      2       3.4338      2.00000
      3       5.2268      2.00079
      4       5.2268      2.00079
      5       7.9766     -0.00000
      6       8.8074     -0.00000
      7       8.8074     -0.00000
      8      10.7758     -0.00000

 k-point    35 :       0.1316    0.1316    0.1316
  band No.  band energies     occupation 
      1      -5.9785      2.00000
      2       3.9227      2.00000
      3       5.3282      2.00738
      4       5.3282      2.00738
      5       8.0764     -0.00000
      6       8.6672     -0.00000
      7       8.6672     -0.00000
      8      10.3055     -0.00000

 k-point    36 :       0.1053    0.1053    0.1053
  band No.  band energies     occupation 
      1      -6.0582      2.00000
      2       4.4015      2.00000
      3       5.4236      2.03344
      4       5.4236      2.03344
      5       8.1649     -0.00000
      6       8.5283     -0.00000
      7       8.5283     -0.00000
      8       9.8496     -0.00000

 k-point    37 :       0.0789    0.0789    0.0789
  band No.  band energies     occupation 
      1      -6.1206      2.00000
      2       4.8506      2.00000
      3       5.5075      2.06830
      4       5.5075      2.06830
      5       8.2310     -0.00000
      6       8.4025     -0.00000
      7       8.4025     -0.00000
      8       9.4283     -0.00000

 k-point    38 :       0.0526    0.0526    0.0526
  band No.  band energies     occupation 
      1      -6.1652      2.00000
      2       5.2430      2.00118
      3       5.5751      2.04705
      4       5.5751      2.04705
      5       8.2594     -0.00000
      6       8.3024     -0.00000
      7       8.3024     -0.00000
      8       9.0807     -0.00000

 k-point    39 :       0.0263    0.0263    0.0263
  band No.  band energies     occupation 
      1      -6.1921      2.00000
      2       5.5270      2.07092
      3       5.6192      1.96096
      4       5.6192      1.96096
      5       8.2375     -0.00000
      6       8.2375     -0.00000
      7       8.2392     -0.00000
      8       8.8623     -0.00000

 k-point    40 :       0.0000    0.0000    0.0000
  band No.  band energies     occupation 
      1      -6.2010      2.00000
      2       5.6346      1.91128
      3       5.6346      1.91122
      4       5.6346      1.91122
      5       8.2150     -0.00000
      6       8.2150     -0.00000
      7       8.2150     -0.00000
      8       8.7950     -0.00000

 k-point    41 :       0.0000    0.0000    0.0000
  band No.  band energies     occupation 
      1      -6.2010      2.00000
      2       5.6346      1.91128
      3       5.6346      1.91122
      4       5.6346      1.91122
      5       8.2150     -0.00000
      6       8.2150     -0.00000
      7       8.2150     -0.00000
      8       8.7950     -0.00000

 k-point    42 :       0.0263    0.0000    0.0263
  band No.  band energies     occupation 
      1      -6.1891      2.00000
      2       5.5497      2.06639
      3       5.5843      2.03523
      4       5.5843      2.03521
      5       8.1852     -0.00000
      6       8.2800     -0.00000
      7       8.2800     -0.00000
      8       8.8779     -0.00000

 k-point    43 :       0.0526    0.0000    0.0526
  band No.  band energies     occupation 
      1      -6.1532      2.00000
      2       5.3198      2.00627
      3       5.4481      2.04425
      4       5.4481      2.04426
      5       8.0998     -0.00000
      6       8.4617     -0.00000
      7       8.4617     -0.00000
      8       9.0998     -0.00000

 k-point    44 :       0.0789    0.0000    0.0789
  band No.  band energies     occupation 
      1      -6.0936      2.00000
      2       4.9900      2.00000
      3       5.2530      2.00149
      4       5.2531      2.00149
      5       7.9688     -0.00000
      6       8.7302     -0.00000
      7       8.7302     -0.00000
      8       9.3994     -0.00000

 k-point    45 :       0.1053    0.0000    0.1053
  band No.  band energies     occupation 
      1      -6.0102      2.00000
      2       4.6005      2.00000
      3       5.0268      2.00000
      4       5.0268      2.00000
      5       7.8052     -0.00000
      6       9.0585     -0.00000
      7       9.0585     -0.00000
      8       9.7039     -0.00000

 k-point    46 :       0.1316    0.0000    0.1316
  band No.  band energies     occupation 
      1      -5.9034      2.00000
      2       4.1765      2.00000
      3       4.7860      2.00000
      4       4.7860      2.00000
      5       7.6214     -0.00000
      6       9.4269     -0.00000
      7       9.4269     -0.00000
      8       9.9167     -0.00000

 k-point    47 :       0.1579    0.0000    0.1579
  band No.  band energies     occupation 
      1      -5.7730      2.00000
      2       3.7325      2.00000
      3       4.5458      2.00000
      4       4.5459      2.00000
      5       7.4295     -0.00000
      6       9.8240     -0.00000
      7       9.8240     -0.00000
      8       9.9231     -0.00000

 k-point    48 :       0.1842    0.0000    0.1842
  band No.  band energies     occupation 
      1      -5.6195      2.00000
      2       3.2773      2.00000
      3       4.3120      2.00000
      4       4.3120      2.00000
      5       7.2378     -0.00000
      6       9.7100     -0.00000
      7      10.2434     -0.00000
      8      10.2434     -0.00000

 k-point    49 :       0.2105    0.0000    0.2105
  band No.  band energies     occupation 
      1      -5.4430      2.00000
      2       2.8151      2.00000
      3       4.0889      2.00000
      4       4.0890      2.00000
      5       7.0530     -0.00000
      6       9.3740     -0.00000
      7      10.6801     -0.00000
      8      10.6801     -0.00000

 k-point    50 :       0.2368    0.0000    0.2368
  band No.  band energies     occupation 
      1      -5.2439      2.00000
      2       2.3492      2.00000
      3       3.8797      2.00000
      4       3.8797      2.00000
      5       6.8801     -0.00000
      6       8.9923     -0.00000
      7      11.1268     -0.00000
      8      11.1268     -0.00000

 k-point    51 :       0.2632    0.0000    0.2632
  band No.  band energies     occupation 
      1      -5.0224      2.00000
      2       1.8817      2.00000
      3       3.6867      2.00000
      4       3.6867      2.00000
      5       6.7232     -0.00000
      6       8.6070     -0.00000
      7      11.5844      0.00000
      8      11.5844      0.00000

 k-point    52 :       0.2895    0.0000    0.2895
  band No.  band energies     occupation 
      1      -4.7791      2.00000
      2       1.4146      2.00000
      3       3.5114      2.00000
      4       3.5114      2.00000
      5       6.5862     -0.00000
      6       8.2375     -0.00000
      7      12.0545      0.00000
      8      12.0545      0.00000

 k-point    53 :       0.3158    0.0000    0.3158
  band No.  band energies     occupation 
      1      -4.5145      2.00000
      2       0.9494      2.00000
      3       3.3548      2.00000
      4       3.3548      2.00000
      5       6.4700     -0.00001
      6       7.8927     -0.00000
      7      12.5276      0.00000
      8      12.5276      0.00000

 k-point    54 :       0.3421    0.0000    0.3421
  band No.  band energies     occupation 
      1      -4.2288      2.00000
      2       0.4875      2.00000
      3       3.2169      2.00000
      4       3.2169      2.00000
      5       6.3786     -0.00016
      6       7.5776     -0.00000
      7      13.0069      0.00000
      8      13.0069      0.00000

 k-point    55 :       0.3684    0.0000    0.3684
  band No.  band energies     occupation 
      1      -3.9232      2.00000
      2       0.0307      2.00000
      3       3.1001      2.00000
      4       3.1001      2.00000
      5       6.3113     -0.00092
      6       7.2960     -0.00000
      7      13.4914      0.00000
      8      13.4914      0.00000

 k-point    56 :       0.3947    0.0000    0.3947
  band No.  band energies     occupation 
      1      -3.5983      2.00000
      2      -0.4202      2.00000
      3       3.0038      2.00000
      4       3.0038      2.00000
      5       6.2707     -0.00239
      6       7.0472     -0.00000
      7      13.9782      0.00000
      8      13.9783      0.00000

 k-point    57 :       0.4211    0.0000    0.4211
  band No.  band energies     occupation 
      1      -3.2546      2.00000
      2      -0.8619      2.00000
      3       2.9288      2.00000
      4       2.9288      2.00000
      5       6.2591     -0.00309
      6       6.8348     -0.00000
      7      14.4739      0.00000
      8      14.4740      0.00000

 k-point    58 :       0.4474    0.0000    0.4474
  band No.  band energies     occupation 
      1      -2.8934      2.00000
      2      -1.2939      2.00000
      3       2.8750      2.00000
      4       2.8750      2.00000
      5       6.2759     -0.00213
      6       6.6567     -0.00000
      7      14.9517      0.00000
      8      14.9518      0.00000

 k-point    59 :       0.4737    0.0000    0.4737
  band No.  band energies     occupation 
      1      -2.5154      2.00000
      2      -1.7144      2.00000
      3       2.8430      2.00000
      4       2.8430      2.00000
      5       6.3240     -0.00067
      6       6.5133     -0.00000
      7      15.3891      0.00000
      8      15.3891      0.00000

 k-point    60 :       0.5000    0.0000    0.5000
  band No.  band energies     occupation 
      1      -2.1220      2.00000
      2      -2.1220      2.00000
      3       2.8322      2.00000
      4       2.8322      2.00000
      5       6.4027     -0.00008
      6       6.4027     -0.00008
      7      15.6087      0.00000
      8      15.6092      0.00000

 k-point    61 :       0.5000    0.0000    0.5000
  band No.  band energies     occupation 
      1      -2.1220      2.00000
      2      -2.1220      2.00000
      3       2.8322      2.00000
      4       2.8322      2.00000
      5       6.4027     -0.00008
      6       6.4027     -0.00008
      7      15.6088      0.00000
      8      15.6089      0.00000

 k-point    62 :       0.5000    0.0132    0.5132
  band No.  band energies     occupation 
      1      -2.1211      2.00000
      2      -2.1211      2.00000
      3       2.8233      2.00000
      4       2.8233      2.00000
      5       6.4192     -0.00005
      6       6.4192     -0.00005
      7      15.5832      0.00000
      8      15.5839      0.00000

 k-point    63 :       0.5000    0.0263    0.5263
  band No.  band energies     occupation 
      1      -2.1182      2.00000
      2      -2.1182      2.00000
      3       2.7968      2.00000
      4       2.7968      2.00000
      5       6.4678     -0.00001
      6       6.4678     -0.00001
      7      15.4988      0.00000
      8      15.4996      0.00000

 k-point    64 :       0.5000    0.0395    0.5395
  band No.  band energies     occupation 
      1      -2.1134      2.00000
      2      -2.1134      2.00000
      3       2.7549      2.00000
      4       2.7549      2.00000
      5       6.5477     -0.00000
      6       6.5477     -0.00000
      7      15.3517      0.00000
      8      15.3532      0.00000

 k-point    65 :       0.5000    0.0526    0.5526
  band No.  band energies     occupation 
      1      -2.1070      2.00000
      2      -2.1070      2.00000
      3       2.6994      2.00000
      4       2.6994      2.00000
      5       6.6558     -0.00000
      6       6.6558     -0.00000
      7      15.1393      0.00000
      8      15.1397      0.00000

 k-point    66 :       0.5000    0.0658    0.5658
  band No.  band energies     occupation 
      1      -2.0988      2.00000
      2      -2.0988      2.00000
      3       2.6339      2.00000
      4       2.6339      2.00000
      5       6.7899     -0.00000
      6       6.7899     -0.00000
      7      14.8770      0.00000
      8      14.8771      0.00000

 k-point    67 :       0.5000    0.0789    0.5789
  band No.  band energies     occupation 
      1      -2.0893      2.00000
      2      -2.0893      2.00000
      3       2.5606      2.00000
      4       2.5606      2.00000
      5       6.9455     -0.00000
      6       6.9456     -0.00000
      7      14.5778      0.00000
      8      14.5779      0.00000

 k-point    68 :       0.5000    0.0921    0.5921
  band No.  band energies     occupation 
      1      -2.0785      2.00000
      2      -2.0785      2.00000
      3       2.4830      2.00000
      4       2.4830      2.00000
      5       7.1228     -0.00000
      6       7.1228     -0.00000
      7      14.2611      0.00000
      8      14.2611      0.00000

 k-point    69 :       0.5000    0.1053    0.6053
  band No.  band energies     occupation 
      1      -2.0667      2.00000
      2      -2.0667      2.00000
      3       2.4034      2.00000
      4       2.4034      2.00000
      5       7.3178     -0.00000
      6       7.3178     -0.00000
      7      13.9325      0.00000
      8      13.9326      0.00000

 k-point    70 :       0.5000    0.1184    0.6184
  band No.  band energies     occupation 
      1      -2.0543      2.00000
      2      -2.0543      2.00000
      3       2.3239      2.00000
      4       2.3239      2.00000
      5       7.5282     -0.00000
      6       7.5282     -0.00000
      7      13.5966      0.00000
      8      13.5967      0.00000

 k-point    71 :       0.5000    0.1316    0.6316
  band No.  band energies     occupation 
      1      -2.0415      2.00000
      2      -2.0415      2.00000
      3       2.2466      2.00000
      4       2.2466      2.00000
      5       7.7526     -0.00000
      6       7.7527     -0.00000
      7      13.2588      0.00000
      8      13.2588      0.00000

 k-point    72 :       0.5000    0.1447    0.6447
  band No.  band energies     occupation 
      1      -2.0286      2.00000
      2      -2.0286      2.00000
      3       2.1733      2.00000
      4       2.1733      2.00000
      5       7.9893     -0.00000
      6       7.9893     -0.00000
      7      12.9203      0.00000
      8      12.9204      0.00000

 k-point    73 :       0.5000    0.1579    0.6579
  band No.  band energies     occupation 
      1      -2.0160      2.00000
      2      -2.0160      2.00000
      3       2.1052      2.00000
      4       2.1052      2.00000
      5       8.2367     -0.00000
      6       8.2368     -0.00000
      7      12.5844      0.00000
      8      12.5844      0.00000

 k-point    74 :       0.5000    0.1711    0.6711
  band No.  band energies     occupation 
      1      -2.0042      2.00000
      2      -2.0042      2.00000
      3       2.0438      2.00000
      4       2.0438      2.00000
      5       8.4935     -0.00000
      6       8.4936     -0.00000
      7      12.2499      0.00000
      8      12.2499      0.00000

 k-point    75 :       0.5000    0.1842    0.6842
  band No.  band energies     occupation 
      1      -1.9935      2.00000
      2      -1.9935      2.00000
      3       1.9900      2.00000
      4       1.9900      2.00000
      5       8.7582     -0.00000
      6       8.7582     -0.00000
      7      11.9196      0.00000
      8      11.9197      0.00000

 k-point    76 :       0.5000    0.1974    0.6974
  band No.  band energies     occupation 
      1      -1.9844      2.00000
      2      -1.9844      2.00000
      3       1.9444      2.00000
      4       1.9444      2.00000
      5       9.0274     -0.00000
      6       9.0274     -0.00000
      7      11.5928      0.00000
      8      11.5928      0.00000

 k-point    77 :       0.5000    0.2105    0.7105
  band No.  band energies     occupation 
      1      -1.9765      2.00000
      2      -1.9765      2.00000
      3       1.9086      2.00000
      4       1.9087      2.00000
      5       9.3010     -0.00000
      6       9.3010     -0.00000
      7      11.2788      0.00000
      8      11.2788      0.00000

 k-point    78 :       0.5000    0.2237    0.7237
  band No.  band energies     occupation 
      1      -1.9709      2.00000
      2      -1.9709      2.00000
      3       1.8826      2.00000
      4       1.8826      2.00000
      5       9.5701     -0.00000
      6       9.5701     -0.00000
      7      10.9809     -0.00000
      8      10.9810     -0.00000

 k-point    79 :       0.5000    0.2368    0.7368
  band No.  band energies     occupation 
      1      -1.9674      2.00000
      2      -1.9674      2.00000
      3       1.8668      2.00000
      4       1.8668      2.00000
      5       9.8103     -0.00000
      6       9.8103     -0.00000
      7      10.7229     -0.00000
      8      10.7229     -0.00000

 k-point    80 :       0.5000    0.2500    0.7500
  band No.  band energies     occupation 
      1      -1.9663      2.00000
      2      -1.9663      2.00000
      3       1.8615      2.00000
      4       1.8615      2.00000
      5       9.9297     -0.00000
      6       9.9297     -0.00000
      7      10.5976     -0.00000
      8      10.5976     -0.00000

 k-point    81 :       0.5000    0.2500    0.7500
  band No.  band energies     occupation 
      1      -1.9663      2.00000
      2      -1.9663      2.00000
      3       1.8615      2.00000
      4       1.8615      2.00000
      5       9.9297     -0.00000
      6       9.9297     -0.00000
      7      10.5976     -0.00000
      8      10.5976     -0.00000

 k-point    82 :       0.5000    0.2368    0.7368
  band No.  band energies     occupation 
      1      -1.9674      2.00000
      2      -1.9674      2.00000
      3       1.8668      2.00000
      4       1.8668      2.00000
      5       9.8103     -0.00000
      6       9.8103     -0.00000
      7      10.7229     -0.00000
      8      10.7229     -0.00000

 k-point    83 :       0.5000    0.2237    0.7237
  band No.  band energies     occupation 
      1      -1.9709      2.00000
      2      -1.9709      2.00000
      3       1.8826      2.00000
      4       1.8826      2.00000
      5       9.5701     -0.00000
      6       9.5701     -0.00000
      7      10.9809     -0.00000
      8      10.9810     -0.00000

 k-point    84 :       0.5000    0.2105    0.7105
  band No.  band energies     occupation 
      1      -1.9765      2.00000
      2      -1.9765      2.00000
      3       1.9086      2.00000
      4       1.9087      2.00000
      5       9.3010     -0.00000
      6       9.3010     -0.00000
      7      11.2788      0.00000
      8      11.2788      0.00000

 k-point    85 :       0.5000    0.1974    0.6974
  band No.  band energies     occupation 
      1      -1.9844      2.00000
      2      -1.9844      2.00000
      3       1.9444      2.00000
      4       1.9444      2.00000
      5       9.0274     -0.00000
      6       9.0274     -0.00000
      7      11.5928      0.00000
      8      11.5928      0.00000

 k-point    86 :       0.5000    0.1842    0.6842
  band No.  band energies     occupation 
      1      -1.9935      2.00000
      2      -1.9935      2.00000
      3       1.9900      2.00000
      4       1.9900      2.00000
      5       8.7582     -0.00000
      6       8.7582     -0.00000
      7      11.9196      0.00000
      8      11.9197      0.00000

 k-point    87 :       0.5000    0.1711    0.6711
  band No.  band energies     occupation 
      1      -2.0042      2.00000
      2      -2.0042      2.00000
      3       2.0438      2.00000
      4       2.0438      2.00000
      5       8.4935     -0.00000
      6       8.4936     -0.00000
      7      12.2499      0.00000
      8      12.2499      0.00000

 k-point    88 :       0.5000    0.1579    0.6579
  band No.  band energies     occupation 
      1      -2.0160      2.00000
      2      -2.0160      2.00000
      3       2.1052      2.00000
      4       2.1052      2.00000
      5       8.2367     -0.00000
      6       8.2368     -0.00000
      7      12.5844      0.00000
      8      12.5844      0.00000

 k-point    89 :       0.5000    0.1447    0.6447
  band No.  band energies     occupation 
      1      -2.0286      2.00000
      2      -2.0286      2.00000
      3       2.1733      2.00000
      4       2.1733      2.00000
      5       7.9893     -0.00000
      6       7.9893     -0.00000
      7      12.9203      0.00000
      8      12.9204      0.00000

 k-point    90 :       0.5000    0.1316    0.6316
  band No.  band energies     occupation 
      1      -2.0415      2.00000
      2      -2.0415      2.00000
      3       2.2466      2.00000
      4       2.2466      2.00000
      5       7.7526     -0.00000
      6       7.7527     -0.00000
      7      13.2588      0.00000
      8      13.2588      0.00000

 k-point    91 :       0.5000    0.1184    0.6184
  band No.  band energies     occupation 
      1      -2.0543      2.00000
      2      -2.0543      2.00000
      3       2.3239      2.00000
      4       2.3239      2.00000
      5       7.5282     -0.00000
      6       7.5282     -0.00000
      7      13.5966      0.00000
      8      13.5967      0.00000

 k-point    92 :       0.5000    0.1053    0.6053
  band No.  band energies     occupation 
      1      -2.0667      2.00000
      2      -2.0667      2.00000
      3       2.4034      2.00000
      4       2.4034      2.00000
      5       7.3178     -0.00000
      6       7.3178     -0.00000
      7      13.9325      0.00000
      8      13.9326      0.00000

 k-point    93 :       0.5000    0.0921    0.5921
  band No.  band energies     occupation 
      1      -2.0785      2.00000
      2      -2.0785      2.00000
      3       2.4830      2.00000
      4       2.4830      2.00000
      5       7.1228     -0.00000
      6       7.1228     -0.00000
      7      14.2611      0.00000
      8      14.2611      0.00000

 k-point    94 :       0.5000    0.0789    0.5789
  band No.  band energies     occupation 
      1      -2.0893      2.00000
      2      -2.0893      2.00000
      3       2.5606      2.00000
      4       2.5606      2.00000
      5       6.9455     -0.00000
      6       6.9456     -0.00000
      7      14.5778      0.00000
      8      14.5782      0.00000

 k-point    95 :       0.5000    0.0658    0.5658
  band No.  band energies     occupation 
      1      -2.0988      2.00000
      2      -2.0988      2.00000
      3       2.6339      2.00000
      4       2.6339      2.00000
      5       6.7899     -0.00000
      6       6.7899     -0.00000
      7      14.8770      0.00000
      8      14.8771      0.00000

 k-point    96 :       0.5000    0.0526    0.5526
  band No.  band energies     occupation 
      1      -2.1070      2.00000
      2      -2.1070      2.00000
      3       2.6994      2.00000
      4       2.6994      2.00000
      5       6.6558     -0.00000
      6       6.6558     -0.00000
      7      15.1393      0.00000
      8      15.1395      0.00000

 k-point    97 :       0.5000    0.0395    0.5395
  band No.  band energies     occupation 
      1      -2.1134      2.00000
      2      -2.1134      2.00000
      3       2.7549      2.00000
      4       2.7549      2.00000
      5       6.5477     -0.00000
      6       6.5477     -0.00000
      7      15.3516      0.00000
      8      15.3522      0.00000

 k-point    98 :       0.5000    0.0263    0.5263
  band No.  band energies     occupation 
      1      -2.1182      2.00000
      2      -2.1182      2.00000
      3       2.7968      2.00000
      4       2.7968      2.00000
      5       6.4678     -0.00001
      6       6.4678     -0.00001
      7      15.4988      0.00000
      8      15.4990      0.00000

 k-point    99 :       0.5000    0.0132    0.5132
  band No.  band energies     occupation 
      1      -2.1211      2.00000
      2      -2.1211      2.00000
      3       2.8233      2.00000
      4       2.8233      2.00000
      5       6.4192     -0.00005
      6       6.4192     -0.00005
      7      15.5832      0.00000
      8      15.5838      0.00000

 k-point   100 :       0.5000    0.0000    0.5000
  band No.  band energies     occupation 
      1      -2.1220      2.00000
      2      -2.1220      2.00000
      3       2.8322      2.00000
      4       2.8322      2.00000
      5       6.4027     -0.00008
      6       6.4027     -0.00008
      7      15.6088      0.00000
      8      15.6089      0.00000


--------------------------------------------------------------------------------------------------------


 soft charge-density along one line, spin component           1
         0         1         2         3         4         5         6         7         8         9
 total charge-density along one line
 
 pseudopotential strength for first ion, spin component:           1
 18.639   0.000  -0.001   0.000  -0.000   0.000  -0.000   0.000  -0.000   0.000   0.000   0.000   0.000   0.000   0.000   0.000
 -0.001   0.000   0.006   0.000   0.000   0.000   0.000   0.000   0.000   0.000  -0.000   0.000  -0.000   0.000  -0.000   0.000
 -0.000   0.000   0.000   0.000   4.227   0.000  -0.000   0.000  -0.000   0.000  -0.004   0.000   0.000   0.000   0.000   0.000
 -0.000   0.000   0.000   0.000  -0.000   0.000   4.227   0.000  -0.000   0.000   0.000   0.000  -0.004   0.000   0.000   0.000
 -0.000   0.000   0.000   0.000  -0.000   0.000  -0.000   0.000   4.227   0.000   0.000   0.000   0.000   0.000  -0.004   0.000
  0.000   0.000  -0.000   0.000  -0.004   0.000   0.000   0.000   0.000   0.000   0.005   0.000  -0.000   0.000  -0.000   0.000
  0.000   0.000  -0.000   0.000   0.000   0.000  -0.004   0.000   0.000   0.000  -0.000   0.000   0.005   0.000  -0.000   0.000
  0.000   0.000  -0.000   0.000   0.000   0.000   0.000   0.000  -0.004   0.000  -0.000   0.000  -0.000   0.000   0.005   0.000
 total augmentation occupancy for first ion, spin component:           1
  2.000   0.000   0.000   0.000   0.000   0.000   0.000   0.000
  0.000   0.000   0.000   0.000   0.000   0.000   0.000   0.000
  0.000   0.000   0.667   0.000   0.000   0.000   0.000   0.000
  0.000   0.000   0.000   0.667   0.000   0.000   0.000   0.000
  0.000   0.000   0.000   0.000   0.667   0.000   0.000   0.000
  0.000   0.000   0.000   0.000   0.000   0.000   0.000   0.000
  0.000   0.000   0.000   0.000   0.000   0.000   0.000   0.000
  0.000   0.000   0.000   0.000   0.000   0.000   0.000   0.000


------------------------ aborting loop because EDIFF is reached ----------------------------------------


    CHARGE:  cpu time    0.0250: real time    0.0380
    FORLOC:  cpu time    0.0016: real time    0.0146
    FORNL :  cpu time    0.0400: real time    0.0708
    STRESS:  cpu time    0.1218: real time    0.2266
    FORCOR:  cpu time    0.0219: real time    0.0221
    FORHAR:  cpu time    0.0054: real time    0.0054
    OFIELD:  cpu time    0.0002: real time    0.0002

  FORCE on cell =-STRESS in cart. coord.  units (eV):
  Direction    XX          YY          ZZ          XY          YZ          ZX
  --------------------------------------------------------------------------------------
  Alpha Z     3.18742     3.18742     3.18742
  Ewald     -75.75022   -75.75022   -75.75022     0.00000     0.00000    -0.00000
  Hartree     5.31893     5.31893     5.31893    -0.00000    -0.00000    -0.00000
  E(xc)     -25.40830   -25.40830   -25.40830     0.00001     0.00001     0.00001
  Local     -30.36478   -30.36478   -30.36478     0.00005     0.00005     0.00005
  n-local    74.06591    78.77750    79.89552    -0.83934    -1.08955    -1.08953
  augment   -11.52612   -11.52612   -11.52612    -0.00005    -0.00005    -0.00005
  Kinetic    55.16579    60.62243    57.47589    -1.31475    -1.45806    -1.45806
  Fock        0.00000     0.00000     0.00000     0.00000     0.00000     0.00000
  -------------------------------------------------------------------------------------
  Total       0.79128     0.79128     0.79128    -0.00000    -0.00000     0.00000
  in kB      31.13135    31.13135    31.13135    -0.00000    -0.00000     0.00000
  external pressure =       31.13 kB  Pullay stress =        0.00 kB


 VOLUME and BASIS-vectors are now :
 -----------------------------------------------------------------------------
  energy-cutoff  :      245.44
  volume of cell :       40.72
      direct lattice vectors                 reciprocal lattice vectors
     2.730686319  2.730686319  0.000000000     0.183104151  0.183104151 -0.183104151
     0.000000000  2.730686319  2.730686319    -0.183104151  0.183104151  0.183104151
     2.730686319  0.000000000  2.730686319     0.183104151 -0.183104151  0.183104151

  length of vectors
     3.861773627  3.861773627  3.861773627     0.317145693  0.317145693  0.317145693


 FORCES acting on ions
    electron-ion (+dipol)            ewald-force                    non-local-force                 convergence-correction
 -----------------------------------------------------------------------------------------------
   0.303E-05 0.303E-05 0.303E-05   0.146E-16 0.424E-14 -.112E-14   0.135E-15 0.180E-15 0.118E-15   -.636E-08 -.636E-08 -.636E-08
   -.303E-05 -.303E-05 -.303E-05   0.560E-16 -.446E-14 0.889E-15   -.132E-15 -.158E-15 -.111E-15   0.636E-08 0.636E-08 0.636E-08
 -----------------------------------------------------------------------------------------------
   0.482E-15 -.335E-14 0.149E-14   0.706E-16 -.224E-15 -.235E-15   0.347E-17 0.226E-16 0.694E-17   -.104E-13 0.726E-14 0.819E-14
 
 
 POSITION                                       TOTAL-FORCE (eV/Angst)
 -----------------------------------------------------------------------------------
      0.00000      0.00000      0.00000         0.000000      0.000000      0.000000
      1.36534      1.36534      1.36534        -0.000000     -0.000000     -0.000000
 -----------------------------------------------------------------------------------
    total drift:                               -0.000000      0.000000      0.000000


--------------------------------------------------------------------------------------------------------



  FREE ENERGIE OF THE ION-ELECTRON SYSTEM (eV)
  ---------------------------------------------------
  free  energy   TOTEN  =       -10.04093494 eV

  energy  without entropy=      -10.04348659  energy(sigma->0) =      -10.04178549
 


--------------------------------------------------------------------------------------------------------


    POTLOK:  cpu time    0.0223: real time    0.0224


--------------------------------------------------------------------------------------------------------


     LOOP+:  cpu time    1.9273: real time    2.8037
    4ORBIT:  cpu time    0.0000: real time    0.0000

volume of typ            1:    46.5 %
 
total charge     
 
# of ion       s       p       d       tot
------------------------------------------
    1        1.002   1.548   0.134   2.684
    2        1.002   1.548   0.134   2.684
--------------------------------------------------
tot           2.00    3.10    0.27    5.37
 
orbital moment (x)
 
# of ion     s             p             d             tot
-----------------------------------------------------------------
    1     0.000000E+00  0.761299E-03  0.973516E-03  0.173481E-02
    2     0.000000E+00 -0.761298E-03 -0.973516E-03 -0.173481E-02
------------------------------------------------------------------------------
tot        0.000000E+00  0.795612E-09 -0.692427E-09  0.103185E-09
 
orbital moment (y)
 
# of ion     s             p             d             tot
-----------------------------------------------------------------
    1     0.000000E+00  0.761375E-03  0.973570E-03  0.173495E-02
    2     0.000000E+00 -0.761384E-03 -0.973578E-03 -0.173496E-02
------------------------------------------------------------------------------
tot        0.000000E+00 -0.822155E-08 -0.817363E-08 -0.163952E-07
 
orbital moment (z)
 
# of ion     s             p             d             tot
-----------------------------------------------------------------
    1     0.000000E+00 -0.136608E+00 -0.501106E-01 -0.186719E+00
    2     0.000000E+00  0.136608E+00  0.501106E-01  0.186719E+00
------------------------------------------------------------------------------
tot        0.000000E+00  0.719950E-09  0.697443E-08  0.769438E-08
 

 total amount of memory used by VASP MPI-rank0    42263. kBytes
=======================================================================

   base      :      30000. kBytes
   nonl-proj :       2366. kBytes
   fftplans  :       2224. kBytes
   grid      :       2752. kBytes
   one-center:          6. kBytes
   wavefun   :       4915. kBytes
 
  
  
 General timing and accounting informations for this job:
 ========================================================
  
                  Total CPU time used (sec):        2.392
                            User time (sec):        2.171
                          System time (sec):        0.222
                         Elapsed time (sec):        3.598
  
                   Maximum memory used (kb):       67040.
                   Average memory used (kb):           0.
  
                          Minor page faults:        11582
                          Major page faults:            0
                 Voluntary context switches:          267
