<?xml version="1.0" encoding="ISO-8859-1"?>
<modeling>
 <generator>
  <i name="program" type="string">vasp </i>
  <i name="version" type="string">5.4.4.18Apr17-6-g9f103f2a35  </i>
  <i name="subversion" type="string">(build May 20 2018 16:52:39) complex            parallel </i>
  <i name="platform" type="string">LinuxIFC </i>
  <i name="date" type="string">2022 10 21 </i>
  <i name="time" type="string">21:03:32 </i>
 </generator>
 <incar>
  <i type="string" name="SYSTEM"> Si</i>
  <i type="string" name="PREC">normal</i>
  <i type="int" name="ICHARG">    11</i>
  <i name="EDIFF">      0.00000100</i>
  <v name="RWIGS">      1.31200000</v>
  <i type="logical" name="LWAVE"> F  </i>
  <i type="logical" name="LCHARG"> F  </i>
  <v type="int" name="KPOINT_BSE">    -1     0     0     0</v>
 </incar>
 <structure name="primitive_cell" >
  <crystal>
   <varray name="basis" >
    <v>       2.73068632       2.73068632       0.00000000 </v>
    <v>       0.00000000       2.73068632       2.73068632 </v>
    <v>       2.73068632       0.00000000       2.73068632 </v>
   </varray>
   <i name="volume">     40.72353211 </i>
   <varray name="rec_basis" >
    <v>       0.18310415       0.18310415      -0.18310415 </v>
    <v>      -0.18310415       0.18310415       0.18310415 </v>
    <v>       0.18310415      -0.18310415       0.18310415 </v>
   </varray>
  </crystal>
  <varray name="positions" >
   <v>       0.00000000       0.00000000       0.00000000 </v>
   <v>       0.25000000       0.25000000       0.25000000 </v>
  </varray>
 </structure>
 <varray name="primitive_index" >
  <v type="int" >        1 </v>
  <v type="int" >        2 </v>
 </varray>
 <kpoints>
  <generation param="listgenerated">
   <i name="divisions" type="int">      20 </i>
   <v>       0.50000000       0.25000000       0.75000000 </v>
   <v>       0.50000000       0.50000000       0.50000000 </v>
   <v>       0.00000000       0.00000000       0.00000000 </v>
   <v>       0.50000000       0.00000000       0.50000000 </v>
   <v>       0.50000000       0.25000000       0.75000000 </v>
   <v>       0.50000000       0.00000000       0.50000000 </v>
  </generation>
  <varray name="kpointlist" >
   <v>       0.50000000       0.25000000       0.75000000 </v>
   <v>       0.50000000       0.26315789       0.73684211 </v>
   <v>       0.50000000       0.27631579       0.72368421 </v>
   <v>       0.50000000       0.28947368       0.71052632 </v>
   <v>       0.50000000       0.30263158       0.69736842 </v>
   <v>       0.50000000       0.31578947       0.68421053 </v>
   <v>       0.50000000       0.32894737       0.67105263 </v>
   <v>       0.50000000       0.34210526       0.65789474 </v>
   <v>       0.50000000       0.35526316       0.64473684 </v>
   <v>       0.50000000       0.36842105       0.63157895 </v>
   <v>       0.50000000       0.38157895       0.61842105 </v>
   <v>       0.50000000       0.39473684       0.60526316 </v>
   <v>       0.50000000       0.40789474       0.59210526 </v>
   <v>       0.50000000       0.42105263       0.57894737 </v>
   <v>       0.50000000       0.43421053       0.56578947 </v>
   <v>       0.50000000       0.44736842       0.55263158 </v>
   <v>       0.50000000       0.46052632       0.53947368 </v>
   <v>       0.50000000       0.47368421       0.52631579 </v>
   <v>       0.50000000       0.48684211       0.51315789 </v>
   <v>       0.50000000       0.50000000       0.50000000 </v>
   <v>       0.50000000       0.50000000       0.50000000 </v>
   <v>       0.47368421       0.47368421       0.47368421 </v>
   <v>       0.44736842       0.44736842       0.44736842 </v>
   <v>       0.42105263       0.42105263       0.42105263 </v>
   <v>       0.39473684       0.39473684       0.39473684 </v>
   <v>       0.36842105       0.36842105       0.36842105 </v>
   <v>       0.34210526       0.34210526       0.34210526 </v>
   <v>       0.31578947       0.31578947       0.31578947 </v>
   <v>       0.28947368       0.28947368       0.28947368 </v>
   <v>       0.26315789       0.26315789       0.26315789 </v>
   <v>       0.23684211       0.23684211       0.23684211 </v>
   <v>       0.21052632       0.21052632       0.21052632 </v>
   <v>       0.18421053       0.18421053       0.18421053 </v>
   <v>       0.15789474       0.15789474       0.15789474 </v>
   <v>       0.13157895       0.13157895       0.13157895 </v>
   <v>       0.10526316       0.10526316       0.10526316 </v>
   <v>       0.07894737       0.07894737       0.07894737 </v>
   <v>       0.05263158       0.05263158       0.05263158 </v>
   <v>       0.02631579       0.02631579       0.02631579 </v>
   <v>       0.00000000       0.00000000       0.00000000 </v>
   <v>       0.00000000       0.00000000       0.00000000 </v>
   <v>       0.02631579       0.00000000       0.02631579 </v>
   <v>       0.05263158       0.00000000       0.05263158 </v>
   <v>       0.07894737       0.00000000       0.07894737 </v>
   <v>       0.10526316       0.00000000       0.10526316 </v>
   <v>       0.13157895       0.00000000       0.13157895 </v>
   <v>       0.15789474       0.00000000       0.15789474 </v>
   <v>       0.18421053       0.00000000       0.18421053 </v>
   <v>       0.21052632       0.00000000       0.21052632 </v>
   <v>       0.23684211       0.00000000       0.23684211 </v>
   <v>       0.26315789       0.00000000       0.26315789 </v>
   <v>       0.28947368       0.00000000       0.28947368 </v>
   <v>       0.31578947       0.00000000       0.31578947 </v>
   <v>       0.34210526       0.00000000       0.34210526 </v>
   <v>       0.36842105       0.00000000       0.36842105 </v>
   <v>       0.39473684       0.00000000       0.39473684 </v>
   <v>       0.42105263       0.00000000       0.42105263 </v>
   <v>       0.44736842       0.00000000       0.44736842 </v>
   <v>       0.47368421       0.00000000       0.47368421 </v>
   <v>       0.50000000       0.00000000       0.50000000 </v>
   <v>       0.50000000       0.00000000       0.50000000 </v>
   <v>       0.50000000       0.01315789       0.51315789 </v>
   <v>       0.50000000       0.02631579       0.52631579 </v>
   <v>       0.50000000       0.03947368       0.53947368 </v>
   <v>       0.50000000       0.05263158       0.55263158 </v>
   <v>       0.50000000       0.06578947       0.56578947 </v>
   <v>       0.50000000       0.07894737       0.57894737 </v>
   <v>       0.50000000       0.09210526       0.59210526 </v>
   <v>       0.50000000       0.10526316       0.60526316 </v>
   <v>       0.50000000       0.11842105       0.61842105 </v>
   <v>       0.50000000       0.13157895       0.63157895 </v>
   <v>       0.50000000       0.14473684       0.64473684 </v>
   <v>       0.50000000       0.15789474       0.65789474 </v>
   <v>       0.50000000       0.17105263       0.67105263 </v>
   <v>       0.50000000       0.18421053       0.68421053 </v>
   <v>       0.50000000       0.19736842       0.69736842 </v>
   <v>       0.50000000       0.21052632       0.71052632 </v>
   <v>       0.50000000       0.22368421       0.72368421 </v>
   <v>       0.50000000       0.23684211       0.73684211 </v>
   <v>       0.50000000       0.25000000       0.75000000 </v>
   <v>       0.50000000       0.25000000       0.75000000 </v>
   <v>       0.50000000       0.23684211       0.73684211 </v>
   <v>       0.50000000       0.22368421       0.72368421 </v>
   <v>       0.50000000       0.21052632       0.71052632 </v>
   <v>       0.50000000       0.19736842       0.69736842 </v>
   <v>       0.50000000       0.18421053       0.68421053 </v>
   <v>       0.50000000       0.17105263       0.67105263 </v>
   <v>       0.50000000       0.15789474       0.65789474 </v>
   <v>       0.50000000       0.14473684       0.64473684 </v>
   <v>       0.50000000       0.13157895       0.63157895 </v>
   <v>       0.50000000       0.11842105       0.61842105 </v>
   <v>       0.50000000       0.10526316       0.60526316 </v>
   <v>       0.50000000       0.09210526       0.59210526 </v>
   <v>       0.50000000       0.07894737       0.57894737 </v>
   <v>       0.50000000       0.06578947       0.56578947 </v>
   <v>       0.50000000       0.05263158       0.55263158 </v>
   <v>       0.50000000       0.03947368       0.53947368 </v>
   <v>       0.50000000       0.02631579       0.52631579 </v>
   <v>       0.50000000       0.01315789       0.51315789 </v>
   <v>       0.50000000       0.00000000       0.50000000 </v>
  </varray>
  <varray name="weights" >
   <v>       0.01000000 </v>
   <v>       0.01000000 </v>
   <v>       0.01000000 </v>
   <v>       0.01000000 </v>
   <v>       0.01000000 </v>
   <v>       0.01000000 </v>
   <v>       0.01000000 </v>
   <v>       0.01000000 </v>
   <v>       0.01000000 </v>
   <v>       0.01000000 </v>
   <v>       0.01000000 </v>
   <v>       0.01000000 </v>
   <v>       0.01000000 </v>
   <v>       0.01000000 </v>
   <v>       0.01000000 </v>
   <v>       0.01000000 </v>
   <v>       0.01000000 </v>
   <v>       0.01000000 </v>
   <v>       0.01000000 </v>
   <v>       0.01000000 </v>
   <v>       0.01000000 </v>
   <v>       0.01000000 </v>
   <v>       0.01000000 </v>
   <v>       0.01000000 </v>
   <v>       0.01000000 </v>
   <v>       0.01000000 </v>
   <v>       0.01000000 </v>
   <v>       0.01000000 </v>
   <v>       0.01000000 </v>
   <v>       0.01000000 </v>
   <v>       0.01000000 </v>
   <v>       0.01000000 </v>
   <v>       0.01000000 </v>
   <v>       0.01000000 </v>
   <v>       0.01000000 </v>
   <v>       0.01000000 </v>
   <v>       0.01000000 </v>
   <v>       0.01000000 </v>
   <v>       0.01000000 </v>
   <v>       0.01000000 </v>
   <v>       0.01000000 </v>
   <v>       0.01000000 </v>
   <v>       0.01000000 </v>
   <v>       0.01000000 </v>
   <v>       0.01000000 </v>
   <v>       0.01000000 </v>
   <v>       0.01000000 </v>
   <v>       0.01000000 </v>
   <v>       0.01000000 </v>
   <v>       0.01000000 </v>
   <v>       0.01000000 </v>
   <v>       0.01000000 </v>
   <v>       0.01000000 </v>
   <v>       0.01000000 </v>
   <v>       0.01000000 </v>
   <v>       0.01000000 </v>
   <v>       0.01000000 </v>
   <v>       0.01000000 </v>
   <v>       0.01000000 </v>
   <v>       0.01000000 </v>
   <v>       0.01000000 </v>
   <v>       0.01000000 </v>
   <v>       0.01000000 </v>
   <v>       0.01000000 </v>
   <v>       0.01000000 </v>
   <v>       0.01000000 </v>
   <v>       0.01000000 </v>
   <v>       0.01000000 </v>
   <v>       0.01000000 </v>
   <v>       0.01000000 </v>
   <v>       0.01000000 </v>
   <v>       0.01000000 </v>
   <v>       0.01000000 </v>
   <v>       0.01000000 </v>
   <v>       0.01000000 </v>
   <v>       0.01000000 </v>
   <v>       0.01000000 </v>
   <v>       0.01000000 </v>
   <v>       0.01000000 </v>
   <v>       0.01000000 </v>
   <v>       0.01000000 </v>
   <v>       0.01000000 </v>
   <v>       0.01000000 </v>
   <v>       0.01000000 </v>
   <v>       0.01000000 </v>
   <v>       0.01000000 </v>
   <v>       0.01000000 </v>
   <v>       0.01000000 </v>
   <v>       0.01000000 </v>
   <v>       0.01000000 </v>
   <v>       0.01000000 </v>
   <v>       0.01000000 </v>
   <v>       0.01000000 </v>
   <v>       0.01000000 </v>
   <v>       0.01000000 </v>
   <v>       0.01000000 </v>
   <v>       0.01000000 </v>
   <v>       0.01000000 </v>
   <v>       0.01000000 </v>
   <v>       0.01000000 </v>
  </varray>
 </kpoints>
 <parameters>
  <separator name="general" >
   <i type="string" name="SYSTEM">Si</i>
   <i type="logical" name="LCOMPAT"> F  </i>
  </separator>
  <separator name="electronic" >
   <i type="string" name="PREC">normal</i>
   <i name="ENMAX">    245.43500000</i>
   <i name="ENAUG">    322.06900000</i>
   <i name="EDIFF">      0.00000100</i>
   <i type="int" name="IALGO">    38</i>
   <i type="int" name="IWAVPR">    10</i>
   <i type="int" name="NBANDS">     8</i>
   <i name="NELECT">      8.00000000</i>
   <i type="int" name="TURBO">     0</i>
   <i type="int" name="IRESTART">     0</i>
   <i type="int" name="NREBOOT">     0</i>
   <i type="int" name="NMIN">     0</i>
   <i name="EREF">      0.00000000</i>
   <separator name="electronic smearing" >
    <i type="int" name="ISMEAR">     1</i>
    <i name="SIGMA">      0.20000000</i>
    <i name="KSPACING">      0.50000000</i>
    <i type="logical" name="KGAMMA"> T  </i>
   </separator>
   <separator name="electronic projectors" >
    <i type="logical" name="LREAL"> F  </i>
    <v name="ROPT">      0.00000000</v>
    <i type="int" name="LMAXPAW">  -100</i>
    <i type="int" name="LMAXMIX">     2</i>
    <i type="logical" name="NLSPLINE"> F  </i>
   </separator>
   <separator name="electronic startup" >
    <i type="int" name="ISTART">     0</i>
    <i type="int" name="ICHARG">    11</i>
    <i type="int" name="INIWAV">     1</i>
   </separator>
   <separator name="electronic spin" >
    <i type="int" name="ISPIN">     1</i>
    <i type="logical" name="LNONCOLLINEAR"> F  </i>
    <v name="MAGMOM">      1.00000000      1.00000000</v>
    <i name="NUPDOWN">     -1.00000000</i>
    <i type="logical" name="LSORBIT"> F  </i>
    <v name="SAXIS">      0.00000000      0.00000000      1.00000000</v>
    <i type="logical" name="LSPIRAL"> F  </i>
    <v name="QSPIRAL">      0.00000000      0.00000000      0.00000000</v>
    <i type="logical" name="LZEROZ"> F  </i>
   </separator>
   <separator name="electronic exchange-correlation" >
    <i type="logical" name="LASPH"> F  </i>
    <i type="logical" name="LMETAGGA"> F  </i>
   </separator>
   <separator name="electronic convergence" >
    <i type="int" name="NELM">    60</i>
    <i type="int" name="NELMDL">    -5</i>
    <i type="int" name="NELMIN">     2</i>
    <i name="ENINI">    245.43500000</i>
    <separator name="electronic convergence detail" >
     <i type="logical" name="LDIAG"> T  </i>
     <i type="logical" name="LSUBROT"> F  </i>
     <i name="WEIMIN">      0.00000000</i>
     <i name="EBREAK">      0.00000003</i>
     <i name="DEPER">      0.30000000</i>
     <i type="int" name="NRMM">     4</i>
     <i name="TIME">      0.40000000</i>
    </separator>
   </separator>
   <separator name="electronic mixer" >
    <i name="AMIX">      0.40000000</i>
    <i name="BMIX">      1.00000000</i>
    <i name="AMIN">      0.10000000</i>
    <i name="AMIX_MAG">      1.60000000</i>
    <i name="BMIX_MAG">      1.00000000</i>
    <separator name="electronic mixer details" >
     <i type="int" name="IMIX">     4</i>
     <i type="logical" name="MIXFIRST"> F  </i>
     <i type="int" name="MAXMIX">   -45</i>
     <i name="WC">    100.00000000</i>
     <i type="int" name="INIMIX">     1</i>
     <i type="int" name="MIXPRE">     1</i>
     <i type="int" name="MREMOVE">     5</i>
    </separator>
   </separator>
   <separator name="electronic dipolcorrection" >
    <i type="logical" name="LDIPOL"> F  </i>
    <i type="logical" name="LMONO"> F  </i>
    <i type="int" name="IDIPOL">     0</i>
    <i name="EPSILON">      1.00000000</i>
    <v name="DIPOL">   -100.00000000   -100.00000000   -100.00000000</v>
    <i name="EFIELD">      0.00000000</i>
   </separator>
  </separator>
  <separator name="grids" >
   <i type="int" name="NGX">    16</i>
   <i type="int" name="NGY">    16</i>
   <i type="int" name="NGZ">    16</i>
   <i type="int" name="NGXF">    32</i>
   <i type="int" name="NGYF">    32</i>
   <i type="int" name="NGZF">    32</i>
   <i type="logical" name="ADDGRID"> F  </i>
  </separator>
  <separator name="ionic" >
   <i type="int" name="NSW">     0</i>
   <i type="int" name="IBRION">    -1</i>
   <i type="int" name="MDALGO">     0</i>
   <i type="int" name="ISIF">     2</i>
   <i name="PSTRESS">      0.00000000</i>
   <i name="EDIFFG">      0.00001000</i>
   <i type="int" name="NFREE">     0</i>
   <i name="POTIM">      0.50000000</i>
   <i name="SMASS">     -3.00000000</i>
   <i name="SCALEE">      1.00000000</i>
  </separator>
  <separator name="ionic md" >
   <i name="TEBEG">      0.00010000</i>
   <i name="TEEND">      0.00010000</i>
   <i type="int" name="NBLOCK">     1</i>
   <i type="int" name="KBLOCK">     1</i>
   <i type="int" name="NPACO">   256</i>
   <i name="APACO">     16.00000000</i>
  </separator>
  <separator name="symmetry" >
   <i type="int" name="ISYM">     2</i>
   <i name="SYMPREC">      0.00001000</i>
  </separator>
  <separator name="dos" >
   <i type="int" name="LORBIT">     0</i>
   <v name="RWIGS">      1.31200000</v>
   <i type="int" name="NEDOS">   301</i>
   <i name="EMIN">     10.00000000</i>
   <i name="EMAX">    -10.00000000</i>
   <i name="EFERMI">      0.00000000</i>
  </separator>
  <separator name="writing" >
   <i type="int" name="NWRITE">     2</i>
   <i type="logical" name="LWAVE"> F  </i>
   <i type="logical" name="LDOWNSAMPLE"> F  </i>
   <i type="logical" name="LCHARG"> F  </i>
   <i type="logical" name="LPARD"> F  </i>
   <i type="logical" name="LVTOT"> F  </i>
   <i type="logical" name="LVHAR"> F  </i>
   <i type="logical" name="LELF"> F  </i>
   <i type="logical" name="LOPTICS"> F  </i>
   <v name="STM">      0.00000000      0.00000000      0.00000000      0.00000000      0.00000000      0.00000000      0.00000000</v>
  </separator>
  <separator name="performance" >
   <i type="int" name="NPAR">     1</i>
   <i type="int" name="NSIM">     4</i>
   <i type="int" name="NBLK">    -1</i>
   <i type="logical" name="LPLANE"> T  </i>
   <i type="logical" name="LSCALAPACK"> T  </i>
   <i type="logical" name="LSCAAWARE"> F  </i>
   <i type="logical" name="LSCALU"> F  </i>
   <i type="logical" name="LASYNC"> F  </i>
   <i type="logical" name="LORBITALREAL"> F  </i>
  </separator>
  <separator name="miscellaneous" >
   <i type="int" name="IDIOT">     3</i>
   <i type="int" name="ISPECIAL">     0</i>
   <i type="logical" name="LMUSIC"> F  </i>
   <v name="POMASS">     28.08500000</v>
   <v name="DARWINR">      0.00000000</v>
   <v name="DARWINV">      1.00000000</v>
   <i type="logical" name="LCORR"> T  </i>
  </separator>
  <i type="logical" name="GGA_COMPAT"> T  </i>
  <i type="logical" name="LBERRY"> F  </i>
  <i type="int" name="ICORELEVEL">     0</i>
  <i type="logical" name="LDAU"> F  </i>
  <i type="int" name="I_CONSTRAINED_M">     0</i>
  <separator name="electronic exchange-correlation" >
   <i type="string" name="GGA">--</i>
   <i type="int" name="VOSKOWN">     0</i>
   <i type="logical" name="LHFCALC"> F  </i>
   <i type="string" name="PRECFOCK"></i>
   <i type="logical" name="LSYMGRAD"> F  </i>
   <i type="logical" name="LHFONE"> F  </i>
   <i type="logical" name="LRHFCALC"> F  </i>
   <i type="logical" name="LTHOMAS"> F  </i>
   <i type="logical" name="LMODELHF"> F  </i>
   <i name="ENCUT4O">     -1.00000000</i>
   <i type="int" name="EXXOEP">     0</i>
   <i type="int" name="FOURORBIT">     0</i>
   <i name="AEXX">      0.00000000</i>
   <i name="HFALPHA">      0.00000000</i>
   <i name="MCALPHA">      0.00000000</i>
   <i name="ALDAX">      1.00000000</i>
   <i name="AGGAX">      1.00000000</i>
   <i name="ALDAC">      1.00000000</i>
   <i name="AGGAC">      1.00000000</i>
   <i type="int" name="NKREDX">     1</i>
   <i type="int" name="NKREDY">     1</i>
   <i type="int" name="NKREDZ">     1</i>
   <i type="logical" name="SHIFTRED"> F  </i>
   <i type="logical" name="ODDONLY"> F  </i>
   <i type="logical" name="EVENONLY"> F  </i>
   <i type="int" name="LMAXFOCK">     0</i>
   <i type="int" name="NMAXFOCKAE">     0</i>
   <i type="logical" name="LFOCKAEDFT"> F  </i>
   <i name="HFSCREEN">      0.00000000</i>
   <i name="HFSCREENC">      0.00000000</i>
   <i type="int" name="NBANDSGWLOW">     0</i>
  </separator>
  <separator name="vdW DFT" >
   <i type="logical" name="LUSE_VDW"> F  </i>
   <i name="Zab_VDW">     -0.84910000</i>
   <i name="PARAM1">      0.12340000</i>
   <i name="PARAM2">      1.00000000</i>
   <i name="PARAM3">      0.00000000</i>
  </separator>
  <separator name="model GW" >
   <i type="int" name="MODEL_GW">     0</i>
   <i name="MODEL_EPS0">     12.21705963</i>
   <i name="MODEL_ALPHA">      1.00000000</i>
  </separator>
  <separator name="linear response parameters" >
   <i type="logical" name="LEPSILON"> F  </i>
   <i type="logical" name="LRPA"> F  </i>
   <i type="logical" name="LNABLA"> F  </i>
   <i type="logical" name="LVEL"> F  </i>
   <i type="int" name="KINTER">     0</i>
   <i name="CSHIFT">      0.10000000</i>
   <i name="OMEGAMAX">     -1.00000000</i>
   <i name="DEG_THRESHOLD">      0.00200000</i>
   <i name="RTIME">     -0.10000000</i>
   <i name="WPLASMAI">      0.00000000</i>
   <v name="DFIELD">      0.00000000      0.00000000      0.00000000</v>
   <v name="WPLASMA">      0.00000000      0.00000000      0.00000000      0.00000000      0.00000000      0.00000000      0.00000000      0.00000000      0.00000000</v>
  </separator>
  <separator name="orbital magnetization" >
   <i type="logical" name="NUCIND"> F  </i>
   <v name="MAGPOS">      0.00000000      0.00000000      0.00000000</v>
   <i type="logical" name="LNICSALL"> T  </i>
   <i type="logical" name="ORBITALMAG"> F  </i>
   <i type="logical" name="LMAGBLOCH"> F  </i>
   <i type="logical" name="LCHIMAG"> F  </i>
   <i type="logical" name="LGAUGE"> T  </i>
   <i type="int" name="MAGATOM">     0</i>
   <v name="MAGDIPOL">      0.00000000      0.00000000      0.00000000</v>
   <v name="AVECCONST">      0.00000000      0.00000000      0.00000000</v>
  </separator>
  <separator name="response functions" >
   <i type="logical" name="LADDER"> F  </i>
   <i type="logical" name="LRPAFORCE"> F  </i>
   <i type="logical" name="LFXC"> F  </i>
   <i type="logical" name="LHARTREE"> T  </i>
   <i type="int" name="IBSE">     0</i>
   <v type="int" name="KPOINT">    -1     0     0     0</v>
   <i type="logical" name="LTCTE"> F  </i>
   <i type="logical" name="LTETE"> F  </i>
   <i type="logical" name="LTRIPLET"> F  </i>
   <i type="logical" name="LFXCEPS"> F  </i>
   <i type="logical" name="LFXHEG"> F  </i>
   <i type="int" name="NATURALO">     2</i>
   <i type="logical" name="L2ORDER"> F  </i>
   <i type="logical" name="LMP2LT"> F  </i>
   <i type="logical" name="LUSEW"> F  </i>
   <i name="ENCUTGW">     -2.00000000</i>
   <i name="ENCUTGWSOFT">     -2.00000000</i>
   <i name="ENCUTLF">     -1.00000000</i>
   <i type="int" name="LMAXMP2">    -1</i>
   <i name="SCISSOR">      0.00000000</i>
   <i type="int" name="NOMEGA">     0</i>
   <i type="int" name="NOMEGAR">     0</i>
   <i type="int" name="NBANDSGW">    -1</i>
   <i type="int" name="NBANDSO">    -1</i>
   <i type="int" name="NBANDSV">    -1</i>
   <i type="int" name="NELM">     1</i>
   <i type="int" name="NELMHF">     1</i>
   <i type="int" name="DIM">     3</i>
   <i type="int" name="ANTIRES">     0</i>
   <i name="OMEGAMAX">    -30.00000000</i>
   <i name="OMEGAMIN">    -30.00000000</i>
   <i name="OMEGATL">   -200.00000000</i>
   <i type="int" name="OMEGAGRID">   140</i>
   <i name="CSHIFT">     -0.10000000</i>
   <i type="logical" name="SELFENERGY"> F  </i>
   <i type="logical" name="LSPECTRAL"> F  </i>
   <i type="logical" name="LSPECTRALGW"> F  </i>
   <i type="logical" name="LSINGLES"> F  </i>
   <i type="logical" name="LFERMIGW"> F  </i>
   <i type="logical" name="ODDONLYGW"> F  </i>
   <i type="logical" name="EVENONLYGW"> F  </i>
   <i type="int" name="NKREDLFX">     1</i>
   <i type="int" name="NKREDLFY">     1</i>
   <i type="int" name="NKREDLFZ">     1</i>
   <i type="int" name="MAXMEM">  2800</i>
   <i type="int" name="TELESCOPE">     0</i>
   <i type="int" name="TAUPAR">     1</i>
   <i type="int" name="OMEGAPAR">    -1</i>
   <i name="LAMBDA">      1.00000000</i>
  </separator>
  <separator name="External order field" >
   <i name="OFIELD_KAPPA">      0.00000000</i>
   <v name="OFIELD_K">      0.00000000      0.00000000      0.00000000</v>
   <i name="OFIELD_Q6_NEAR">      0.00000000</i>
   <i name="OFIELD_Q6_FAR">      0.00000000</i>
   <i name="OFIELD_A">      0.00000000</i>
  </separator>
 </parameters>
 <atominfo>
  <atoms>       2 </atoms>
  <types>       1 </types>
  <array name="atoms" >
   <dimension dim="1">ion</dimension>
   <field type="string">element</field>
   <field type="int">atomtype</field>
   <set>
    <rc><c>Si</c><c>   1</c></rc>
    <rc><c>Si</c><c>   1</c></rc>
   </set>
  </array>
  <array name="atomtypes" >
   <dimension dim="1">type</dimension>
   <field type="int">atomspertype</field>
   <field type="string">element</field>
   <field>mass</field>
   <field>valence</field>
   <field type="string">pseudopotential</field>
   <set>
    <rc><c>   2</c><c>Si</c><c>     28.08500000</c><c>      4.00000000</c><c>  PAW Si                                </c></rc>
   </set>
  </array>
 </atominfo>
 <structure name="initialpos" >
  <crystal>
   <varray name="basis" >
    <v>       2.73068632       2.73068632       0.00000000 </v>
    <v>       0.00000000       2.73068632       2.73068632 </v>
    <v>       2.73068632       0.00000000       2.73068632 </v>
   </varray>
   <i name="volume">     40.72353211 </i>
   <varray name="rec_basis" >
    <v>       0.18310415       0.18310415      -0.18310415 </v>
    <v>      -0.18310415       0.18310415       0.18310415 </v>
    <v>       0.18310415      -0.18310415       0.18310415 </v>
   </varray>
  </crystal>
  <varray name="positions" >
   <v>       0.00000000       0.00000000       0.00000000 </v>
   <v>       0.25000000       0.25000000       0.25000000 </v>
  </varray>
 </structure>
 <calculation>
  <scstep>
   <time name="dav">    0.20    0.25</time>
   <time name="total">    0.23    0.29</time>
   <energy>
    <i name="alphaZ">      3.18742041 </i>
    <i name="ewald">   -227.25055085 </i>
    <i name="hartreedc">    -15.20290447 </i>
    <i name="XCdc">    -18.52084166 </i>
    <i name="pawpsdc">     74.91473297 </i>
    <i name="pawaedc">    -39.56875585 </i>
    <i name="eentropy">      0.00199604 </i>
    <i name="bandstr">     15.69239634 </i>
    <i name="atom">    206.60389906 </i>
    <i name="e_fr_energy">     -0.14260802 </i>
    <i name="e_wo_entrp">     -0.14460405 </i>
    <i name="e_0_energy">     -0.14327336 </i>
   </energy>
  </scstep>
  <scstep>
   <time name="dav">    0.30    0.30</time>
   <time name="total">    0.30    0.30</time>
   <energy>
    <i name="e_fr_energy">     -9.91959535 </i>
    <i name="e_wo_entrp">     -9.92222382 </i>
    <i name="e_0_energy">     -9.92047151 </i>
   </energy>
  </scstep>
  <scstep>
   <time name="dav">    0.25    0.34</time>
   <time name="total">    0.25    0.35</time>
   <energy>
    <i name="e_fr_energy">    -10.04059257 </i>
    <i name="e_wo_entrp">    -10.04314440 </i>
    <i name="e_0_energy">    -10.04144318 </i>
   </energy>
  </scstep>
  <scstep>
   <time name="dav">    0.32    0.63</time>
   <time name="total">    0.33    0.65</time>
   <energy>
    <i name="e_fr_energy">    -10.04093454 </i>
    <i name="e_wo_entrp">    -10.04348620 </i>
    <i name="e_0_energy">    -10.04178509 </i>
   </energy>
  </scstep>
  <scstep>
   <time name="dav">    0.25    0.29</time>
   <time name="total">    0.25    0.29</time>
   <energy>
    <i name="e_fr_energy">    -10.04093493 </i>
    <i name="e_wo_entrp">    -10.04348659 </i>
    <i name="e_0_energy">    -10.04178548 </i>
   </energy>
  </scstep>
  <scstep>
   <time name="dav">    0.31    0.47</time>
   <time name="total">    0.31    0.47</time>
   <energy>
    <i name="alphaZ">      3.18742041 </i>
    <i name="ewald">   -227.25055085 </i>
    <i name="hartreedc">    -15.20290447 </i>
    <i name="XCdc">    -18.52084166 </i>
    <i name="pawpsdc">     74.91473297 </i>
    <i name="pawaedc">    -39.56875585 </i>
    <i name="eentropy">      0.00255166 </i>
    <i name="bandstr">      5.79351379 </i>
    <i name="atom">    206.60389906 </i>
    <i name="e_fr_energy">    -10.04093494 </i>
    <i name="e_wo_entrp">    -10.04348659 </i>
    <i name="e_0_energy">    -10.04178549 </i>
   </energy>
  </scstep>
  <structure>
   <crystal>
    <varray name="basis" >
     <v>       2.73068632       2.73068632       0.00000000 </v>
     <v>       0.00000000       2.73068632       2.73068632 </v>
     <v>       2.73068632       0.00000000       2.73068632 </v>
    </varray>
    <i name="volume">     40.72353211 </i>
    <varray name="rec_basis" >
     <v>       0.18310415       0.18310415      -0.18310415 </v>
     <v>      -0.18310415       0.18310415       0.18310415 </v>
     <v>       0.18310415      -0.18310415       0.18310415 </v>
    </varray>
   </crystal>
   <varray name="positions" >
    <v>       0.00000000       0.00000000       0.00000000 </v>
    <v>       0.25000000       0.25000000       0.25000000 </v>
   </varray>
  </structure>
  <varray name="forces" >
   <v>       0.00000000       0.00000000       0.00000000 </v>
   <v>      -0.00000000      -0.00000000      -0.00000000 </v>
  </varray>
  <varray name="stress" >
   <v>      31.13135380      -0.00000000       0.00000000 </v>
   <v>      -0.00000000      31.13135380       0.00000000 </v>
   <v>       0.00000000      -0.00000000      31.13135380 </v>
  </varray>
  <energy>
   <i name="e_fr_energy">    -10.04093494 </i>
   <i name="e_wo_entrp">    -10.04178549 </i>
   <i name="e_0_energy">      0.00255166 </i>
  </energy>
  <time name="totalsc">    1.93    2.80</time>
  <eigenvalues>
   <array>
    <dimension dim="1">band</dimension>
    <dimension dim="2">kpoint</dimension>
    <dimension dim="3">spin</dimension>
    <field>eigene</field>
    <field>occ</field>
    <set>
     <set comment="spin 1">
      <set comment="kpoint 1">
       <r>   -1.9663    1.0000 </r>
       <r>   -1.9663    1.0000 </r>
       <r>    1.8615    1.0000 </r>
       <r>    1.8615    1.0000 </r>
       <r>    9.9297   -0.0000 </r>
       <r>    9.9297   -0.0000 </r>
       <r>   10.5976   -0.0000 </r>
       <r>   10.5976   -0.0000 </r>
      </set>
      <set comment="kpoint 2">
       <r>   -2.1361    1.0000 </r>
       <r>   -1.7996    1.0000 </r>
       <r>    1.7466    1.0000 </r>
       <r>    1.9975    1.0000 </r>
       <r>    9.7792   -0.0000 </r>
       <r>    9.9957   -0.0000 </r>
       <r>   10.5277   -0.0000 </r>
       <r>   10.7767   -0.0000 </r>
      </set>
      <set comment="kpoint 3">
       <r>   -2.3060    1.0000 </r>
       <r>   -1.6402    1.0000 </r>
       <r>    1.6574    1.0000 </r>
       <r>    2.1504    1.0000 </r>
       <r>    9.6122   -0.0000 </r>
       <r>    9.9103   -0.0000 </r>
       <r>   10.6323   -0.0000 </r>
       <r>   10.9956   -0.0000 </r>
      </set>
      <set comment="kpoint 4">
       <r>   -2.4729    1.0000 </r>
       <r>   -1.4932    1.0000 </r>
       <r>    1.5995    1.0000 </r>
       <r>    2.3172    1.0000 </r>
       <r>    9.4522   -0.0000 </r>
       <r>    9.7521   -0.0000 </r>
       <r>   10.8353   -0.0000 </r>
       <r>   11.2346    0.0000 </r>
      </set>
      <set comment="kpoint 5">
       <r>   -2.6349    1.0000 </r>
       <r>   -1.3638    1.0000 </r>
       <r>    1.5787    1.0000 </r>
       <r>    2.4938    1.0000 </r>
       <r>    9.3041   -0.0000 </r>
       <r>    9.5769   -0.0000 </r>
       <r>   11.0781   -0.0000 </r>
       <r>   11.4864    0.0000 </r>
      </set>
      <set comment="kpoint 6">
       <r>   -2.7904    1.0000 </r>
       <r>   -1.2570    1.0000 </r>
       <r>    1.5998    1.0000 </r>
       <r>    2.6776    1.0000 </r>
       <r>    9.1715   -0.0000 </r>
       <r>    9.4022   -0.0000 </r>
       <r>   11.3441    0.0000 </r>
       <r>   11.7480    0.0000 </r>
      </set>
      <set comment="kpoint 7">
       <r>   -2.9383    1.0000 </r>
       <r>   -1.1760    1.0000 </r>
       <r>    1.6663    1.0000 </r>
       <r>    2.8659    1.0000 </r>
       <r>    9.0550   -0.0000 </r>
       <r>    9.2322   -0.0000 </r>
       <r>   11.6284    0.0000 </r>
       <r>   12.0170    0.0000 </r>
      </set>
      <set comment="kpoint 8">
       <r>   -3.0777    1.0000 </r>
       <r>   -1.1218    1.0000 </r>
       <r>    1.7786    1.0000 </r>
       <r>    3.0556    1.0000 </r>
       <r>    8.9580   -0.0000 </r>
       <r>    9.0682   -0.0000 </r>
       <r>   11.9265    0.0000 </r>
       <r>   12.2913    0.0000 </r>
      </set>
      <set comment="kpoint 9">
       <r>   -3.2077    1.0000 </r>
       <r>   -1.0922    1.0000 </r>
       <r>    1.9343    1.0000 </r>
       <r>    3.2438    1.0000 </r>
       <r>    8.8806   -0.0000 </r>
       <r>    8.9102   -0.0000 </r>
       <r>   12.2025    0.0000 </r>
       <r>   12.3157    0.0000 </r>
      </set>
      <set comment="kpoint 10">
       <r>   -3.3278    1.0000 </r>
       <r>   -1.0831    1.0000 </r>
       <r>    2.1289    1.0000 </r>
       <r>    3.4284    1.0000 </r>
       <r>    8.7585   -0.0000 </r>
       <r>    8.8246   -0.0000 </r>
       <r>   11.7652    0.0000 </r>
       <r>   12.5817    0.0000 </r>
      </set>
      <set comment="kpoint 11">
       <r>   -3.4375    1.0000 </r>
       <r>   -1.0897    1.0000 </r>
       <r>    2.3558    1.0000 </r>
       <r>    3.6046    1.0000 </r>
       <r>    8.6075   -0.0000 </r>
       <r>    8.7877   -0.0000 </r>
       <r>   11.2782    0.0000 </r>
       <r>   12.9205    0.0000 </r>
      </set>
      <set comment="kpoint 12">
       <r>   -3.5365    1.0000 </r>
       <r>   -1.1066    1.0000 </r>
       <r>    2.6089    1.0000 </r>
       <r>    3.7704    1.0000 </r>
       <r>    8.4555   -0.0000 </r>
       <r>    8.7727   -0.0000 </r>
       <r>   10.8182   -0.0000 </r>
       <r>   13.2731    0.0000 </r>
      </set>
      <set comment="kpoint 13">
       <r>   -3.6244    1.0000 </r>
       <r>   -1.1296    1.0000 </r>
       <r>    2.8817    1.0000 </r>
       <r>    3.9230    1.0000 </r>
       <r>    8.2975   -0.0000 </r>
       <r>    8.7777   -0.0000 </r>
       <r>   10.3927   -0.0000 </r>
       <r>   13.5586    0.0000 </r>
      </set>
      <set comment="kpoint 14">
       <r>   -3.7009    1.0000 </r>
       <r>   -1.1550    1.0000 </r>
       <r>    3.1675    1.0000 </r>
       <r>    4.0595    1.0000 </r>
       <r>    8.1275   -0.0000 </r>
       <r>    8.8026   -0.0000 </r>
       <r>   10.0122   -0.0000 </r>
       <r>   13.6869    0.0000 </r>
      </set>
      <set comment="kpoint 15">
       <r>   -3.7660    1.0000 </r>
       <r>   -1.1804    1.0000 </r>
       <r>    3.4581    1.0000 </r>
       <r>    4.1773    1.0000 </r>
       <r>    7.9392   -0.0000 </r>
       <r>    8.8402   -0.0000 </r>
       <r>    9.6889   -0.0000 </r>
       <r>   13.7169    0.0000 </r>
      </set>
      <set comment="kpoint 16">
       <r>   -3.8195    1.0000 </r>
       <r>   -1.2035    1.0000 </r>
       <r>    3.7437    1.0000 </r>
       <r>    4.2753    1.0000 </r>
       <r>    7.7317   -0.0000 </r>
       <r>    8.8851   -0.0000 </r>
       <r>    9.4297   -0.0000 </r>
       <r>   13.6562    0.0000 </r>
      </set>
      <set comment="kpoint 17">
       <r>   -3.8612    1.0000 </r>
       <r>   -1.2228    1.0000 </r>
       <r>    4.0106    1.0000 </r>
       <r>    4.3523    1.0000 </r>
       <r>    7.5169   -0.0000 </r>
       <r>    8.9340   -0.0000 </r>
       <r>    9.2411   -0.0000 </r>
       <r>   13.5502    0.0000 </r>
      </set>
      <set comment="kpoint 18">
       <r>   -3.8910    1.0000 </r>
       <r>   -1.2373    1.0000 </r>
       <r>    4.2371    1.0000 </r>
       <r>    4.4075    1.0000 </r>
       <r>    7.3194   -0.0000 </r>
       <r>    8.9771   -0.0000 </r>
       <r>    9.1134   -0.0000 </r>
       <r>   13.4446    0.0000 </r>
      </set>
      <set comment="kpoint 19">
       <r>   -3.9090    1.0000 </r>
       <r>   -1.2463    1.0000 </r>
       <r>    4.3945    1.0000 </r>
       <r>    4.4407    1.0000 </r>
       <r>    7.1754   -0.0000 </r>
       <r>    9.0067   -0.0000 </r>
       <r>    9.0408   -0.0000 </r>
       <r>   13.3700    0.0000 </r>
      </set>
      <set comment="kpoint 20">
       <r>   -3.9145    1.0000 </r>
       <r>   -1.2491    1.0000 </r>
       <r>    4.4525    1.0000 </r>
       <r>    4.4525    1.0000 </r>
       <r>    7.1221   -0.0000 </r>
       <r>    9.0180   -0.0000 </r>
       <r>    9.0180   -0.0000 </r>
       <r>   13.3438    0.0000 </r>
      </set>
      <set comment="kpoint 21">
       <r>   -3.9145    1.0000 </r>
       <r>   -1.2491    1.0000 </r>
       <r>    4.4525    1.0000 </r>
       <r>    4.4525    1.0000 </r>
       <r>    7.1221   -0.0000 </r>
       <r>    9.0180   -0.0000 </r>
       <r>    9.0180   -0.0000 </r>
       <r>   13.3438    0.0000 </r>
      </set>
      <set comment="kpoint 22">
       <r>   -3.9530    1.0000 </r>
       <r>   -1.1944    1.0000 </r>
       <r>    4.4568    1.0000 </r>
       <r>    4.4568    1.0000 </r>
       <r>    7.1276   -0.0000 </r>
       <r>    9.0226   -0.0000 </r>
       <r>    9.0226   -0.0000 </r>
       <r>   13.3518    0.0000 </r>
      </set>
      <set comment="kpoint 23">
       <r>   -4.0584    1.0000 </r>
       <r>   -1.0384    1.0000 </r>
       <r>    4.4716    1.0000 </r>
       <r>    4.4716    1.0000 </r>
       <r>    7.1447   -0.0000 </r>
       <r>    9.0384   -0.0000 </r>
       <r>    9.0384   -0.0000 </r>
       <r>   13.3761    0.0000 </r>
      </set>
      <set comment="kpoint 24">
       <r>   -4.2114    1.0000 </r>
       <r>   -0.8010    1.0000 </r>
       <r>    4.4963    1.0000 </r>
       <r>    4.4963    1.0000 </r>
       <r>    7.1733   -0.0000 </r>
       <r>    9.0631   -0.0000 </r>
       <r>    9.0631   -0.0000 </r>
       <r>   13.4131    0.0000 </r>
      </set>
      <set comment="kpoint 25">
       <r>   -4.3923    1.0000 </r>
       <r>   -0.5024    1.0000 </r>
       <r>    4.5307    1.0000 </r>
       <r>    4.5307    1.0000 </r>
       <r>    7.2144   -0.0000 </r>
       <r>    9.0944   -0.0000 </r>
       <r>    9.0944   -0.0000 </r>
       <r>   13.4553    0.0000 </r>
      </set>
      <set comment="kpoint 26">
       <r>   -4.5861    1.0000 </r>
       <r>   -0.1578    1.0000 </r>
       <r>    4.5749    1.0000 </r>
       <r>    4.5749    1.0000 </r>
       <r>    7.2651   -0.0000 </r>
       <r>    9.1285   -0.0000 </r>
       <r>    9.1285   -0.0000 </r>
       <r>   13.4848    0.0000 </r>
      </set>
      <set comment="kpoint 27">
       <r>   -4.7825    1.0000 </r>
       <r>    0.2220    1.0000 </r>
       <r>    4.6286    1.0000 </r>
       <r>    4.6286    1.0000 </r>
       <r>    7.3265   -0.0000 </r>
       <r>    9.1589   -0.0000 </r>
       <r>    9.1589   -0.0000 </r>
       <r>   13.4611    0.0000 </r>
      </set>
      <set comment="kpoint 28">
       <r>   -4.9749    1.0000 </r>
       <r>    0.6312    1.0000 </r>
       <r>    4.6918    1.0000 </r>
       <r>    4.6918    1.0000 </r>
       <r>    7.3981   -0.0000 </r>
       <r>    9.1821   -0.0000 </r>
       <r>    9.1821   -0.0000 </r>
       <r>   13.3196    0.0000 </r>
      </set>
      <set comment="kpoint 29">
       <r>   -5.1592    1.0000 </r>
       <r>    1.0621    1.0000 </r>
       <r>    4.7637    1.0000 </r>
       <r>    4.7637    1.0000 </r>
       <r>    7.4792   -0.0000 </r>
       <r>    9.1889   -0.0000 </r>
       <r>    9.1889   -0.0000 </r>
       <r>   13.0162    0.0000 </r>
      </set>
      <set comment="kpoint 30">
       <r>   -5.3324    1.0000 </r>
       <r>    1.5120    1.0000 </r>
       <r>    4.8440    1.0000 </r>
       <r>    4.8440    1.0000 </r>
       <r>    7.5690   -0.0000 </r>
       <r>    9.1716   -0.0000 </r>
       <r>    9.1716   -0.0000 </r>
       <r>   12.6223    0.0000 </r>
      </set>
      <set comment="kpoint 31">
       <r>   -5.4924    1.0000 </r>
       <r>    1.9776    1.0000 </r>
       <r>    4.9319    1.0000 </r>
       <r>    4.9319    1.0000 </r>
       <r>    7.6644   -0.0000 </r>
       <r>    9.1251   -0.0000 </r>
       <r>    9.1251   -0.0000 </r>
       <r>   12.1810    0.0000 </r>
      </set>
      <set comment="kpoint 32">
       <r>   -5.6379    1.0000 </r>
       <r>    2.4555    1.0000 </r>
       <r>    5.0261    1.0000 </r>
       <r>    5.0261    1.0000 </r>
       <r>    7.7659   -0.0000 </r>
       <r>    9.0454   -0.0000 </r>
       <r>    9.0454   -0.0000 </r>
       <r>   11.7195    0.0000 </r>
      </set>
      <set comment="kpoint 33">
       <r>   -5.7678    1.0000 </r>
       <r>    2.9422    1.0000 </r>
       <r>    5.1250    1.0000 </r>
       <r>    5.1250    1.0000 </r>
       <r>    7.8712   -0.0000 </r>
       <r>    8.9365   -0.0000 </r>
       <r>    8.9365   -0.0000 </r>
       <r>   11.2493    0.0000 </r>
      </set>
      <set comment="kpoint 34">
       <r>   -5.8815    1.0000 </r>
       <r>    3.4338    1.0000 </r>
       <r>    5.2268    1.0004 </r>
       <r>    5.2268    1.0004 </r>
       <r>    7.9766   -0.0000 </r>
       <r>    8.8074   -0.0000 </r>
       <r>    8.8074   -0.0000 </r>
       <r>   10.7758   -0.0000 </r>
      </set>
      <set comment="kpoint 35">
       <r>   -5.9785    1.0000 </r>
       <r>    3.9227    1.0000 </r>
       <r>    5.3282    1.0037 </r>
       <r>    5.3282    1.0037 </r>
       <r>    8.0764   -0.0000 </r>
       <r>    8.6672   -0.0000 </r>
       <r>    8.6672   -0.0000 </r>
       <r>   10.3055   -0.0000 </r>
      </set>
      <set comment="kpoint 36">
       <r>   -6.0582    1.0000 </r>
       <r>    4.4015    1.0000 </r>
       <r>    5.4236    1.0167 </r>
       <r>    5.4236    1.0167 </r>
       <r>    8.1649   -0.0000 </r>
       <r>    8.5283   -0.0000 </r>
       <r>    8.5283   -0.0000 </r>
       <r>    9.8496   -0.0000 </r>
      </set>
      <set comment="kpoint 37">
       <r>   -6.1206    1.0000 </r>
       <r>    4.8506    1.0000 </r>
       <r>    5.5075    1.0341 </r>
       <r>    5.5075    1.0341 </r>
       <r>    8.2310   -0.0000 </r>
       <r>    8.4025   -0.0000 </r>
       <r>    8.4025   -0.0000 </r>
       <r>    9.4283   -0.0000 </r>
      </set>
      <set comment="kpoint 38">
       <r>   -6.1652    1.0000 </r>
       <r>    5.2430    1.0006 </r>
       <r>    5.5751    1.0235 </r>
       <r>    5.5751    1.0235 </r>
       <r>    8.2594   -0.0000 </r>
       <r>    8.3024   -0.0000 </r>
       <r>    8.3024   -0.0000 </r>
       <r>    9.0807   -0.0000 </r>
      </set>
      <set comment="kpoint 39">
       <r>   -6.1921    1.0000 </r>
       <r>    5.5270    1.0355 </r>
       <r>    5.6192    0.9805 </r>
       <r>    5.6192    0.9805 </r>
       <r>    8.2375   -0.0000 </r>
       <r>    8.2375   -0.0000 </r>
       <r>    8.2392   -0.0000 </r>
       <r>    8.8623   -0.0000 </r>
      </set>
      <set comment="kpoint 40">
       <r>   -6.2010    1.0000 </r>
       <r>    5.6346    0.9556 </r>
       <r>    5.6346    0.9556 </r>
       <r>    5.6346    0.9556 </r>
       <r>    8.2150   -0.0000 </r>
       <r>    8.2150   -0.0000 </r>
       <r>    8.2150   -0.0000 </r>
       <r>    8.7950   -0.0000 </r>
      </set>
      <set comment="kpoint 41">
       <r>   -6.2010    1.0000 </r>
       <r>    5.6346    0.9556 </r>
       <r>    5.6346    0.9556 </r>
       <r>    5.6346    0.9556 </r>
       <r>    8.2150   -0.0000 </r>
       <r>    8.2150   -0.0000 </r>
       <r>    8.2150   -0.0000 </r>
       <r>    8.7950   -0.0000 </r>
      </set>
      <set comment="kpoint 42">
       <r>   -6.1891    1.0000 </r>
       <r>    5.5497    1.0332 </r>
       <r>    5.5843    1.0176 </r>
       <r>    5.5843    1.0176 </r>
       <r>    8.1852   -0.0000 </r>
       <r>    8.2800   -0.0000 </r>
       <r>    8.2800   -0.0000 </r>
       <r>    8.8779   -0.0000 </r>
      </set>
      <set comment="kpoint 43">
       <r>   -6.1532    1.0000 </r>
       <r>    5.3198    1.0031 </r>
       <r>    5.4481    1.0221 </r>
       <r>    5.4481    1.0221 </r>
       <r>    8.0998   -0.0000 </r>
       <r>    8.4617   -0.0000 </r>
       <r>    8.4617   -0.0000 </r>
       <r>    9.0998   -0.0000 </r>
      </set>
      <set comment="kpoint 44">
       <r>   -6.0936    1.0000 </r>
       <r>    4.9900    1.0000 </r>
       <r>    5.2530    1.0007 </r>
       <r>    5.2531    1.0007 </r>
       <r>    7.9688   -0.0000 </r>
       <r>    8.7302   -0.0000 </r>
       <r>    8.7302   -0.0000 </r>
       <r>    9.3994   -0.0000 </r>
      </set>
      <set comment="kpoint 45">
       <r>   -6.0102    1.0000 </r>
       <r>    4.6005    1.0000 </r>
       <r>    5.0268    1.0000 </r>
       <r>    5.0268    1.0000 </r>
       <r>    7.8052   -0.0000 </r>
       <r>    9.0585   -0.0000 </r>
       <r>    9.0585   -0.0000 </r>
       <r>    9.7039   -0.0000 </r>
      </set>
      <set comment="kpoint 46">
       <r>   -5.9034    1.0000 </r>
       <r>    4.1765    1.0000 </r>
       <r>    4.7860    1.0000 </r>
       <r>    4.7860    1.0000 </r>
       <r>    7.6214   -0.0000 </r>
       <r>    9.4269   -0.0000 </r>
       <r>    9.4269   -0.0000 </r>
       <r>    9.9167   -0.0000 </r>
      </set>
      <set comment="kpoint 47">
       <r>   -5.7730    1.0000 </r>
       <r>    3.7325    1.0000 </r>
       <r>    4.5458    1.0000 </r>
       <r>    4.5459    1.0000 </r>
       <r>    7.4295   -0.0000 </r>
       <r>    9.8240   -0.0000 </r>
       <r>    9.8240   -0.0000 </r>
       <r>    9.9231   -0.0000 </r>
      </set>
      <set comment="kpoint 48">
       <r>   -5.6195    1.0000 </r>
       <r>    3.2773    1.0000 </r>
       <r>    4.3120    1.0000 </r>
       <r>    4.3120    1.0000 </r>
       <r>    7.2378   -0.0000 </r>
       <r>    9.7100   -0.0000 </r>
       <r>   10.2434   -0.0000 </r>
       <r>   10.2434   -0.0000 </r>
      </set>
      <set comment="kpoint 49">
       <r>   -5.4430    1.0000 </r>
       <r>    2.8151    1.0000 </r>
       <r>    4.0889    1.0000 </r>
       <r>    4.0890    1.0000 </r>
       <r>    7.0530   -0.0000 </r>
       <r>    9.3740   -0.0000 </r>
       <r>   10.6801   -0.0000 </r>
       <r>   10.6801   -0.0000 </r>
      </set>
      <set comment="kpoint 50">
       <r>   -5.2439    1.0000 </r>
       <r>    2.3492    1.0000 </r>
       <r>    3.8797    1.0000 </r>
       <r>    3.8797    1.0000 </r>
       <r>    6.8801   -0.0000 </r>
       <r>    8.9923   -0.0000 </r>
       <r>   11.1268   -0.0000 </r>
       <r>   11.1268   -0.0000 </r>
      </set>
      <set comment="kpoint 51">
       <r>   -5.0224    1.0000 </r>
       <r>    1.8817    1.0000 </r>
       <r>    3.6867    1.0000 </r>
       <r>    3.6867    1.0000 </r>
       <r>    6.7232   -0.0000 </r>
       <r>    8.6070   -0.0000 </r>
       <r>   11.5844    0.0000 </r>
       <r>   11.5844    0.0000 </r>
      </set>
      <set comment="kpoint 52">
       <r>   -4.7791    1.0000 </r>
       <r>    1.4146    1.0000 </r>
       <r>    3.5114    1.0000 </r>
       <r>    3.5114    1.0000 </r>
       <r>    6.5862   -0.0000 </r>
       <r>    8.2375   -0.0000 </r>
       <r>   12.0545    0.0000 </r>
       <r>   12.0545    0.0000 </r>
      </set>
      <set comment="kpoint 53">
       <r>   -4.5145    1.0000 </r>
       <r>    0.9494    1.0000 </r>
       <r>    3.3548    1.0000 </r>
       <r>    3.3548    1.0000 </r>
       <r>    6.4700   -0.0000 </r>
       <r>    7.8927   -0.0000 </r>
       <r>   12.5276    0.0000 </r>
       <r>   12.5276    0.0000 </r>
      </set>
      <set comment="kpoint 54">
       <r>   -4.2288    1.0000 </r>
       <r>    0.4875    1.0000 </r>
       <r>    3.2169    1.0000 </r>
       <r>    3.2169    1.0000 </r>
       <r>    6.3786   -0.0001 </r>
       <r>    7.5776   -0.0000 </r>
       <r>   13.0069    0.0000 </r>
       <r>   13.0069    0.0000 </r>
      </set>
      <set comment="kpoint 55">
       <r>   -3.9232    1.0000 </r>
       <r>    0.0307    1.0000 </r>
       <r>    3.1001    1.0000 </r>
       <r>    3.1001    1.0000 </r>
       <r>    6.3113   -0.0005 </r>
       <r>    7.2960   -0.0000 </r>
       <r>   13.4914    0.0000 </r>
       <r>   13.4914    0.0000 </r>
      </set>
      <set comment="kpoint 56">
       <r>   -3.5983    1.0000 </r>
       <r>   -0.4202    1.0000 </r>
       <r>    3.0038    1.0000 </r>
       <r>    3.0038    1.0000 </r>
       <r>    6.2707   -0.0012 </r>
       <r>    7.0472   -0.0000 </r>
       <r>   13.9782    0.0000 </r>
       <r>   13.9783    0.0000 </r>
      </set>
      <set comment="kpoint 57">
       <r>   -3.2546    1.0000 </r>
       <r>   -0.8619    1.0000 </r>
       <r>    2.9288    1.0000 </r>
       <r>    2.9288    1.0000 </r>
       <r>    6.2591   -0.0015 </r>
       <r>    6.8348   -0.0000 </r>
       <r>   14.4739    0.0000 </r>
       <r>   14.4740    0.0000 </r>
      </set>
      <set comment="kpoint 58">
       <r>   -2.8934    1.0000 </r>
       <r>   -1.2939    1.0000 </r>
       <r>    2.8750    1.0000 </r>
       <r>    2.8750    1.0000 </r>
       <r>    6.2759   -0.0011 </r>
       <r>    6.6567   -0.0000 </r>
       <r>   14.9517    0.0000 </r>
       <r>   14.9518    0.0000 </r>
      </set>
      <set comment="kpoint 59">
       <r>   -2.5154    1.0000 </r>
       <r>   -1.7144    1.0000 </r>
       <r>    2.8430    1.0000 </r>
       <r>    2.8430    1.0000 </r>
       <r>    6.3240   -0.0003 </r>
       <r>    6.5133   -0.0000 </r>
       <r>   15.3891    0.0000 </r>
       <r>   15.3891    0.0000 </r>
      </set>
      <set comment="kpoint 60">
       <r>   -2.1220    1.0000 </r>
       <r>   -2.1220    1.0000 </r>
       <r>    2.8322    1.0000 </r>
       <r>    2.8322    1.0000 </r>
       <r>    6.4027   -0.0000 </r>
       <r>    6.4027   -0.0000 </r>
       <r>   15.6087    0.0000 </r>
       <r>   15.6092    0.0000 </r>
      </set>
      <set comment="kpoint 61">
       <r>   -2.1220    1.0000 </r>
       <r>   -2.1220    1.0000 </r>
       <r>    2.8322    1.0000 </r>
       <r>    2.8322    1.0000 </r>
       <r>    6.4027   -0.0000 </r>
       <r>    6.4027   -0.0000 </r>
       <r>   15.6088    0.0000 </r>
       <r>   15.6089    0.0000 </r>
      </set>
      <set comment="kpoint 62">
       <r>   -2.1211    1.0000 </r>
       <r>   -2.1211    1.0000 </r>
       <r>    2.8233    1.0000 </r>
       <r>    2.8233    1.0000 </r>
       <r>    6.4192   -0.0000 </r>
       <r>    6.4192   -0.0000 </r>
       <r>   15.5832    0.0000 </r>
       <r>   15.5839    0.0000 </r>
      </set>
      <set comment="kpoint 63">
       <r>   -2.1182    1.0000 </r>
       <r>   -2.1182    1.0000 </r>
       <r>    2.7968    1.0000 </r>
       <r>    2.7968    1.0000 </r>
       <r>    6.4678   -0.0000 </r>
       <r>    6.4678   -0.0000 </r>
       <r>   15.4988    0.0000 </r>
       <r>   15.4996    0.0000 </r>
      </set>
      <set comment="kpoint 64">
       <r>   -2.1134    1.0000 </r>
       <r>   -2.1134    1.0000 </r>
       <r>    2.7549    1.0000 </r>
       <r>    2.7549    1.0000 </r>
       <r>    6.5477   -0.0000 </r>
       <r>    6.5477   -0.0000 </r>
       <r>   15.3517    0.0000 </r>
       <r>   15.3532    0.0000 </r>
      </set>
      <set comment="kpoint 65">
       <r>   -2.1070    1.0000 </r>
       <r>   -2.1070    1.0000 </r>
       <r>    2.6994    1.0000 </r>
       <r>    2.6994    1.0000 </r>
       <r>    6.6558   -0.0000 </r>
       <r>    6.6558   -0.0000 </r>
       <r>   15.1393    0.0000 </r>
       <r>   15.1397    0.0000 </r>
      </set>
      <set comment="kpoint 66">
       <r>   -2.0988    1.0000 </r>
       <r>   -2.0988    1.0000 </r>
       <r>    2.6339    1.0000 </r>
       <r>    2.6339    1.0000 </r>
       <r>    6.7899   -0.0000 </r>
       <r>    6.7899   -0.0000 </r>
       <r>   14.8770    0.0000 </r>
       <r>   14.8771    0.0000 </r>
      </set>
      <set comment="kpoint 67">
       <r>   -2.0893    1.0000 </r>
       <r>   -2.0893    1.0000 </r>
       <r>    2.5606    1.0000 </r>
       <r>    2.5606    1.0000 </r>
       <r>    6.9455   -0.0000 </r>
       <r>    6.9456   -0.0000 </r>
       <r>   14.5778    0.0000 </r>
       <r>   14.5779    0.0000 </r>
      </set>
      <set comment="kpoint 68">
       <r>   -2.0785    1.0000 </r>
       <r>   -2.0785    1.0000 </r>
       <r>    2.4830    1.0000 </r>
       <r>    2.4830    1.0000 </r>
       <r>    7.1228   -0.0000 </r>
       <r>    7.1228   -0.0000 </r>
       <r>   14.2611    0.0000 </r>
       <r>   14.2611    0.0000 </r>
      </set>
      <set comment="kpoint 69">
       <r>   -2.0667    1.0000 </r>
       <r>   -2.0667    1.0000 </r>
       <r>    2.4034    1.0000 </r>
       <r>    2.4034    1.0000 </r>
       <r>    7.3178   -0.0000 </r>
       <r>    7.3178   -0.0000 </r>
       <r>   13.9325    0.0000 </r>
       <r>   13.9326    0.0000 </r>
      </set>
      <set comment="kpoint 70">
       <r>   -2.0543    1.0000 </r>
       <r>   -2.0543    1.0000 </r>
       <r>    2.3239    1.0000 </r>
       <r>    2.3239    1.0000 </r>
       <r>    7.5282   -0.0000 </r>
       <r>    7.5282   -0.0000 </r>
       <r>   13.5966    0.0000 </r>
       <r>   13.5967    0.0000 </r>
      </set>
      <set comment="kpoint 71">
       <r>   -2.0415    1.0000 </r>
       <r>   -2.0415    1.0000 </r>
       <r>    2.2466    1.0000 </r>
       <r>    2.2466    1.0000 </r>
       <r>    7.7526   -0.0000 </r>
       <r>    7.7527   -0.0000 </r>
       <r>   13.2588    0.0000 </r>
       <r>   13.2588    0.0000 </r>
      </set>
      <set comment="kpoint 72">
       <r>   -2.0286    1.0000 </r>
       <r>   -2.0286    1.0000 </r>
       <r>    2.1733    1.0000 </r>
       <r>    2.1733    1.0000 </r>
       <r>    7.9893   -0.0000 </r>
       <r>    7.9893   -0.0000 </r>
       <r>   12.9203    0.0000 </r>
       <r>   12.9204    0.0000 </r>
      </set>
      <set comment="kpoint 73">
       <r>   -2.0160    1.0000 </r>
       <r>   -2.0160    1.0000 </r>
       <r>    2.1052    1.0000 </r>
       <r>    2.1052    1.0000 </r>
       <r>    8.2367   -0.0000 </r>
       <r>    8.2368   -0.0000 </r>
       <r>   12.5844    0.0000 </r>
       <r>   12.5844    0.0000 </r>
      </set>
      <set comment="kpoint 74">
       <r>   -2.0042    1.0000 </r>
       <r>   -2.0042    1.0000 </r>
       <r>    2.0438    1.0000 </r>
       <r>    2.0438    1.0000 </r>
       <r>    8.4935   -0.0000 </r>
       <r>    8.4936   -0.0000 </r>
       <r>   12.2499    0.0000 </r>
       <r>   12.2499    0.0000 </r>
      </set>
      <set comment="kpoint 75">
       <r>   -1.9935    1.0000 </r>
       <r>   -1.9935    1.0000 </r>
       <r>    1.9900    1.0000 </r>
       <r>    1.9900    1.0000 </r>
       <r>    8.7582   -0.0000 </r>
       <r>    8.7582   -0.0000 </r>
       <r>   11.9196    0.0000 </r>
       <r>   11.9197    0.0000 </r>
      </set>
      <set comment="kpoint 76">
       <r>   -1.9844    1.0000 </r>
       <r>   -1.9844    1.0000 </r>
       <r>    1.9444    1.0000 </r>
       <r>    1.9444    1.0000 </r>
       <r>    9.0274   -0.0000 </r>
       <r>    9.0274   -0.0000 </r>
       <r>   11.5928    0.0000 </r>
       <r>   11.5928    0.0000 </r>
      </set>
      <set comment="kpoint 77">
       <r>   -1.9765    1.0000 </r>
       <r>   -1.9765    1.0000 </r>
       <r>    1.9086    1.0000 </r>
       <r>    1.9087    1.0000 </r>
       <r>    9.3010   -0.0000 </r>
       <r>    9.3010   -0.0000 </r>
       <r>   11.2788    0.0000 </r>
       <r>   11.2788    0.0000 </r>
      </set>
      <set comment="kpoint 78">
       <r>   -1.9709    1.0000 </r>
       <r>   -1.9709    1.0000 </r>
       <r>    1.8826    1.0000 </r>
       <r>    1.8826    1.0000 </r>
       <r>    9.5701   -0.0000 </r>
       <r>    9.5701   -0.0000 </r>
       <r>   10.9809   -0.0000 </r>
       <r>   10.9810   -0.0000 </r>
      </set>
      <set comment="kpoint 79">
       <r>   -1.9674    1.0000 </r>
       <r>   -1.9674    1.0000 </r>
       <r>    1.8668    1.0000 </r>
       <r>    1.8668    1.0000 </r>
       <r>    9.8103   -0.0000 </r>
       <r>    9.8103   -0.0000 </r>
       <r>   10.7229   -0.0000 </r>
       <r>   10.7229   -0.0000 </r>
      </set>
      <set comment="kpoint 80">
       <r>   -1.9663    1.0000 </r>
       <r>   -1.9663    1.0000 </r>
       <r>    1.8615    1.0000 </r>
       <r>    1.8615    1.0000 </r>
       <r>    9.9297   -0.0000 </r>
       <r>    9.9297   -0.0000 </r>
       <r>   10.5976   -0.0000 </r>
       <r>   10.5976   -0.0000 </r>
      </set>
      <set comment="kpoint 81">
       <r>   -1.9663    1.0000 </r>
       <r>   -1.9663    1.0000 </r>
       <r>    1.8615    1.0000 </r>
       <r>    1.8615    1.0000 </r>
       <r>    9.9297   -0.0000 </r>
       <r>    9.9297   -0.0000 </r>
       <r>   10.5976   -0.0000 </r>
       <r>   10.5976   -0.0000 </r>
      </set>
      <set comment="kpoint 82">
       <r>   -1.9674    1.0000 </r>
       <r>   -1.9674    1.0000 </r>
       <r>    1.8668    1.0000 </r>
       <r>    1.8668    1.0000 </r>
       <r>    9.8103   -0.0000 </r>
       <r>    9.8103   -0.0000 </r>
       <r>   10.7229   -0.0000 </r>
       <r>   10.7229   -0.0000 </r>
      </set>
      <set comment="kpoint 83">
       <r>   -1.9709    1.0000 </r>
       <r>   -1.9709    1.0000 </r>
       <r>    1.8826    1.0000 </r>
       <r>    1.8826    1.0000 </r>
       <r>    9.5701   -0.0000 </r>
       <r>    9.5701   -0.0000 </r>
       <r>   10.9809   -0.0000 </r>
       <r>   10.9810   -0.0000 </r>
      </set>
      <set comment="kpoint 84">
       <r>   -1.9765    1.0000 </r>
       <r>   -1.9765    1.0000 </r>
       <r>    1.9086    1.0000 </r>
       <r>    1.9087    1.0000 </r>
       <r>    9.3010   -0.0000 </r>
       <r>    9.3010   -0.0000 </r>
       <r>   11.2788    0.0000 </r>
       <r>   11.2788    0.0000 </r>
      </set>
      <set comment="kpoint 85">
       <r>   -1.9844    1.0000 </r>
       <r>   -1.9844    1.0000 </r>
       <r>    1.9444    1.0000 </r>
       <r>    1.9444    1.0000 </r>
       <r>    9.0274   -0.0000 </r>
       <r>    9.0274   -0.0000 </r>
       <r>   11.5928    0.0000 </r>
       <r>   11.5928    0.0000 </r>
      </set>
      <set comment="kpoint 86">
       <r>   -1.9935    1.0000 </r>
       <r>   -1.9935    1.0000 </r>
       <r>    1.9900    1.0000 </r>
       <r>    1.9900    1.0000 </r>
       <r>    8.7582   -0.0000 </r>
       <r>    8.7582   -0.0000 </r>
       <r>   11.9196    0.0000 </r>
       <r>   11.9197    0.0000 </r>
      </set>
      <set comment="kpoint 87">
       <r>   -2.0042    1.0000 </r>
       <r>   -2.0042    1.0000 </r>
       <r>    2.0438    1.0000 </r>
       <r>    2.0438    1.0000 </r>
       <r>    8.4935   -0.0000 </r>
       <r>    8.4936   -0.0000 </r>
       <r>   12.2499    0.0000 </r>
       <r>   12.2499    0.0000 </r>
      </set>
      <set comment="kpoint 88">
       <r>   -2.0160    1.0000 </r>
       <r>   -2.0160    1.0000 </r>
       <r>    2.1052    1.0000 </r>
       <r>    2.1052    1.0000 </r>
       <r>    8.2367   -0.0000 </r>
       <r>    8.2368   -0.0000 </r>
       <r>   12.5844    0.0000 </r>
       <r>   12.5844    0.0000 </r>
      </set>
      <set comment="kpoint 89">
       <r>   -2.0286    1.0000 </r>
       <r>   -2.0286    1.0000 </r>
       <r>    2.1733    1.0000 </r>
       <r>    2.1733    1.0000 </r>
       <r>    7.9893   -0.0000 </r>
       <r>    7.9893   -0.0000 </r>
       <r>   12.9203    0.0000 </r>
       <r>   12.9204    0.0000 </r>
      </set>
      <set comment="kpoint 90">
       <r>   -2.0415    1.0000 </r>
       <r>   -2.0415    1.0000 </r>
       <r>    2.2466    1.0000 </r>
       <r>    2.2466    1.0000 </r>
       <r>    7.7526   -0.0000 </r>
       <r>    7.7527   -0.0000 </r>
       <r>   13.2588    0.0000 </r>
       <r>   13.2588    0.0000 </r>
      </set>
      <set comment="kpoint 91">
       <r>   -2.0543    1.0000 </r>
       <r>   -2.0543    1.0000 </r>
       <r>    2.3239    1.0000 </r>
       <r>    2.3239    1.0000 </r>
       <r>    7.5282   -0.0000 </r>
       <r>    7.5282   -0.0000 </r>
       <r>   13.5966    0.0000 </r>
       <r>   13.5967    0.0000 </r>
      </set>
      <set comment="kpoint 92">
       <r>   -2.0667    1.0000 </r>
       <r>   -2.0667    1.0000 </r>
       <r>    2.4034    1.0000 </r>
       <r>    2.4034    1.0000 </r>
       <r>    7.3178   -0.0000 </r>
       <r>    7.3178   -0.0000 </r>
       <r>   13.9325    0.0000 </r>
       <r>   13.9326    0.0000 </r>
      </set>
      <set comment="kpoint 93">
       <r>   -2.0785    1.0000 </r>
       <r>   -2.0785    1.0000 </r>
       <r>    2.4830    1.0000 </r>
       <r>    2.4830    1.0000 </r>
       <r>    7.1228   -0.0000 </r>
       <r>    7.1228   -0.0000 </r>
       <r>   14.2611    0.0000 </r>
       <r>   14.2611    0.0000 </r>
      </set>
      <set comment="kpoint 94">
       <r>   -2.0893    1.0000 </r>
       <r>   -2.0893    1.0000 </r>
       <r>    2.5606    1.0000 </r>
       <r>    2.5606    1.0000 </r>
       <r>    6.9455   -0.0000 </r>
       <r>    6.9456   -0.0000 </r>
       <r>   14.5778    0.0000 </r>
       <r>   14.5782    0.0000 </r>
      </set>
      <set comment="kpoint 95">
       <r>   -2.0988    1.0000 </r>
       <r>   -2.0988    1.0000 </r>
       <r>    2.6339    1.0000 </r>
       <r>    2.6339    1.0000 </r>
       <r>    6.7899   -0.0000 </r>
       <r>    6.7899   -0.0000 </r>
       <r>   14.8770    0.0000 </r>
       <r>   14.8771    0.0000 </r>
      </set>
      <set comment="kpoint 96">
       <r>   -2.1070    1.0000 </r>
       <r>   -2.1070    1.0000 </r>
       <r>    2.6994    1.0000 </r>
       <r>    2.6994    1.0000 </r>
       <r>    6.6558   -0.0000 </r>
       <r>    6.6558   -0.0000 </r>
       <r>   15.1393    0.0000 </r>
       <r>   15.1395    0.0000 </r>
      </set>
      <set comment="kpoint 97">
       <r>   -2.1134    1.0000 </r>
       <r>   -2.1134    1.0000 </r>
       <r>    2.7549    1.0000 </r>
       <r>    2.7549    1.0000 </r>
       <r>    6.5477   -0.0000 </r>
       <r>    6.5477   -0.0000 </r>
       <r>   15.3516    0.0000 </r>
       <r>   15.3522    0.0000 </r>
      </set>
      <set comment="kpoint 98">
       <r>   -2.1182    1.0000 </r>
       <r>   -2.1182    1.0000 </r>
       <r>    2.7968    1.0000 </r>
       <r>    2.7968    1.0000 </r>
       <r>    6.4678   -0.0000 </r>
       <r>    6.4678   -0.0000 </r>
       <r>   15.4988    0.0000 </r>
       <r>   15.4990    0.0000 </r>
      </set>
      <set comment="kpoint 99">
       <r>   -2.1211    1.0000 </r>
       <r>   -2.1211    1.0000 </r>
       <r>    2.8233    1.0000 </r>
       <r>    2.8233    1.0000 </r>
       <r>    6.4192   -0.0000 </r>
       <r>    6.4192   -0.0000 </r>
       <r>   15.5832    0.0000 </r>
       <r>   15.5838    0.0000 </r>
      </set>
      <set comment="kpoint 100">
       <r>   -2.1220    1.0000 </r>
       <r>   -2.1220    1.0000 </r>
       <r>    2.8322    1.0000 </r>
       <r>    2.8322    1.0000 </r>
       <r>    6.4027   -0.0000 </r>
       <r>    6.4027   -0.0000 </r>
       <r>   15.6088    0.0000 </r>
       <r>   15.6089    0.0000 </r>
      </set>
     </set>
    </set>
   </array>
  </eigenvalues>
  <separator name="orbital magnetization" >
   <v name="MAGDIPOLOUT">      0.00000000      0.00000000      0.00000000</v>
  </separator>
  <dos>
   <i name="efermi">      5.77217642 </i>
   <total>
    <array>
     <dimension dim="1">gridpoints</dimension>
     <dimension dim="2">spin</dimension>
     <field>energy</field>
     <field>total</field>
     <field>integrated</field>
     <set>
      <set comment="spin 1">
       <r>    -8.2010     0.0000     0.0000 </r>
       <r>    -8.1150     0.0000     0.0000 </r>
       <r>    -8.0290     0.0000     0.0000 </r>
       <r>    -7.9429     0.0000     0.0000 </r>
       <r>    -7.8569    -0.0000    -0.0000 </r>
       <r>    -7.7709    -0.0000    -0.0000 </r>
       <r>    -7.6848    -0.0000    -0.0000 </r>
       <r>    -7.5988    -0.0000    -0.0000 </r>
       <r>    -7.5128    -0.0000    -0.0000 </r>
       <r>    -7.4267    -0.0000    -0.0000 </r>
       <r>    -7.3407    -0.0000    -0.0000 </r>
       <r>    -7.2547    -0.0000    -0.0000 </r>
       <r>    -7.1686    -0.0000    -0.0000 </r>
       <r>    -7.0826    -0.0000    -0.0000 </r>
       <r>    -6.9966    -0.0000    -0.0000 </r>
       <r>    -6.9105    -0.0000    -0.0000 </r>
       <r>    -6.8245    -0.0000    -0.0000 </r>
       <r>    -6.7384    -0.0005    -0.0000 </r>
       <r>    -6.6524    -0.0031    -0.0003 </r>
       <r>    -6.5664    -0.0130    -0.0014 </r>
       <r>    -6.4803    -0.0305    -0.0041 </r>
       <r>    -6.3943    -0.0145    -0.0053 </r>
       <r>    -6.3083     0.1306     0.0059 </r>
       <r>    -6.2222     0.4263     0.0426 </r>
       <r>    -6.1362     0.6875     0.1018 </r>
       <r>    -6.0502     0.7139     0.1632 </r>
       <r>    -5.9641     0.5588     0.2113 </r>
       <r>    -5.8781     0.4055     0.2461 </r>
       <r>    -5.7921     0.3263     0.2742 </r>
       <r>    -5.7060     0.2922     0.2994 </r>
       <r>    -5.6200     0.2714     0.3227 </r>
       <r>    -5.5340     0.2545     0.3446 </r>
       <r>    -5.4479     0.2402     0.3653 </r>
       <r>    -5.3619     0.2279     0.3849 </r>
       <r>    -5.2759     0.2181     0.4036 </r>
       <r>    -5.1898     0.2093     0.4217 </r>
       <r>    -5.1038     0.2015     0.4390 </r>
       <r>    -5.0178     0.1965     0.4559 </r>
       <r>    -4.9317     0.1897     0.4722 </r>
       <r>    -4.8457     0.1848     0.4881 </r>
       <r>    -4.7597     0.1843     0.5040 </r>
       <r>    -4.6736     0.1778     0.5193 </r>
       <r>    -4.5876     0.1744     0.5343 </r>
       <r>    -4.5016     0.1791     0.5497 </r>
       <r>    -4.4155     0.1739     0.5646 </r>
       <r>    -4.3295     0.1653     0.5789 </r>
       <r>    -4.2435     0.1681     0.5933 </r>
       <r>    -4.1574     0.1765     0.6085 </r>
       <r>    -4.0714     0.2364     0.6288 </r>
       <r>    -3.9854     0.4201     0.6650 </r>
       <r>    -3.8993     0.6327     0.7194 </r>
       <r>    -3.8133     0.6678     0.7769 </r>
       <r>    -3.7273     0.5225     0.8218 </r>
       <r>    -3.6412     0.3772     0.8543 </r>
       <r>    -3.5552     0.3046     0.8805 </r>
       <r>    -3.4691     0.2573     0.9026 </r>
       <r>    -3.3831     0.2277     0.9222 </r>
       <r>    -3.2971     0.2331     0.9423 </r>
       <r>    -3.2110     0.2390     0.9628 </r>
       <r>    -3.1250     0.2120     0.9811 </r>
       <r>    -3.0390     0.1845     0.9969 </r>
       <r>    -2.9529     0.1940     1.0136 </r>
       <r>    -2.8669     0.2122     1.0319 </r>
       <r>    -2.7809     0.1949     1.0487 </r>
       <r>    -2.6948     0.1617     1.0626 </r>
       <r>    -2.6088     0.1555     1.0759 </r>
       <r>    -2.5228     0.1432     1.0883 </r>
       <r>    -2.4367     0.0325     1.0911 </r>
       <r>    -2.3507    -0.0871     1.0836 </r>
       <r>    -2.2647     0.3733     1.1157 </r>
       <r>    -2.1786     2.1543     1.3010 </r>
       <r>    -2.0926     4.7667     1.7111 </r>
       <r>    -2.0066     6.1273     2.2383 </r>
       <r>    -1.9205     4.9005     2.6599 </r>
       <r>    -1.8345     2.3341     2.8607 </r>
       <r>    -1.7485     0.5093     2.9045 </r>
       <r>    -1.6624    -0.0400     2.9011 </r>
       <r>    -1.5764    -0.0155     2.8997 </r>
       <r>    -1.4904     0.0593     2.9048 </r>
       <r>    -1.4043     0.1934     2.9215 </r>
       <r>    -1.3183     0.5438     2.9683 </r>
       <r>    -1.2323     1.0331     3.0572 </r>
       <r>    -1.1462     1.2991     3.1689 </r>
       <r>    -1.0602     1.0961     3.2632 </r>
       <r>    -0.9742     0.6216     3.3167 </r>
       <r>    -0.8881     0.2581     3.3389 </r>
       <r>    -0.8021     0.1237     3.3495 </r>
       <r>    -0.7161     0.0831     3.3567 </r>
       <r>    -0.6300     0.0597     3.3618 </r>
       <r>    -0.5440     0.0836     3.3690 </r>
       <r>    -0.4580     0.1329     3.3805 </r>
       <r>    -0.3719     0.1359     3.3922 </r>
       <r>    -0.2859     0.0959     3.4004 </r>
       <r>    -0.1999     0.0758     3.4069 </r>
       <r>    -0.1138     0.0892     3.4146 </r>
       <r>    -0.0278     0.1046     3.4236 </r>
       <r>     0.0583     0.1091     3.4330 </r>
       <r>     0.1443     0.1071     3.4422 </r>
       <r>     0.2303     0.0969     3.4505 </r>
       <r>     0.3164     0.0774     3.4572 </r>
       <r>     0.4024     0.0705     3.4633 </r>
       <r>     0.4884     0.0954     3.4715 </r>
       <r>     0.5745     0.1238     3.4821 </r>
       <r>     0.6605     0.1134     3.4919 </r>
       <r>     0.7465     0.0698     3.4979 </r>
       <r>     0.8326     0.0469     3.5019 </r>
       <r>     0.9186     0.0798     3.5088 </r>
       <r>     1.0046     0.1295     3.5199 </r>
       <r>     1.0907     0.1294     3.5311 </r>
       <r>     1.1767     0.0726     3.5373 </r>
       <r>     1.2627     0.0205     3.5391 </r>
       <r>     1.3488     0.0344     3.5420 </r>
       <r>     1.4348     0.1267     3.5529 </r>
       <r>     1.5208     0.2575     3.5751 </r>
       <r>     1.6069     0.3687     3.6068 </r>
       <r>     1.6929     0.5407     3.6533 </r>
       <r>     1.7789     1.0536     3.7440 </r>
       <r>     1.8650     1.9043     3.9078 </r>
       <r>     1.9510     2.4811     4.1213 </r>
       <r>     2.0370     2.3346     4.3221 </r>
       <r>     2.1231     1.8027     4.4772 </r>
       <r>     2.2091     1.4150     4.5990 </r>
       <r>     2.2951     1.3001     4.7108 </r>
       <r>     2.3812     1.3104     4.8236 </r>
       <r>     2.4672     1.3017     4.9355 </r>
       <r>     2.5532     1.2870     5.0463 </r>
       <r>     2.6393     1.4402     5.1702 </r>
       <r>     2.7253     1.8803     5.3320 </r>
       <r>     2.8113     2.3294     5.5324 </r>
       <r>     2.8974     2.2397     5.7251 </r>
       <r>     2.9834     1.5533     5.8587 </r>
       <r>     3.0694     0.8497     5.9318 </r>
       <r>     3.1555     0.5393     5.9782 </r>
       <r>     3.2415     0.5137     6.0224 </r>
       <r>     3.3275     0.5484     6.0696 </r>
       <r>     3.4136     0.5599     6.1178 </r>
       <r>     3.4996     0.5307     6.1634 </r>
       <r>     3.5857     0.4781     6.2045 </r>
       <r>     3.6717     0.4645     6.2445 </r>
       <r>     3.7577     0.4949     6.2871 </r>
       <r>     3.8438     0.5123     6.3312 </r>
       <r>     3.9298     0.5030     6.3744 </r>
       <r>     4.0158     0.4887     6.4165 </r>
       <r>     4.1019     0.4766     6.4575 </r>
       <r>     4.1879     0.4882     6.4995 </r>
       <r>     4.2739     0.6225     6.5530 </r>
       <r>     4.3600     0.9889     6.6381 </r>
       <r>     4.4460     1.4591     6.7636 </r>
       <r>     4.5320     1.6533     6.9059 </r>
       <r>     4.6181     1.4088     7.0271 </r>
       <r>     4.7041     1.0173     7.1146 </r>
       <r>     4.7901     0.7920     7.1828 </r>
       <r>     4.8762     0.7339     7.2459 </r>
       <r>     4.9622     0.7184     7.3077 </r>
       <r>     5.0482     0.6879     7.3669 </r>
       <r>     5.1343     0.6557     7.4233 </r>
       <r>     5.2203     0.6663     7.4806 </r>
       <r>     5.3063     0.7120     7.5419 </r>
       <r>     5.3924     0.7930     7.6101 </r>
       <r>     5.4784     1.0006     7.6962 </r>
       <r>     5.5644     1.2727     7.8057 </r>
       <r>     5.6505     1.2667     7.9146 </r>
       <r>     5.7365     0.8227     7.9854 </r>
       <r>     5.8225     0.2718     8.0088 </r>
       <r>     5.9086    -0.0284     8.0064 </r>
       <r>     5.9946    -0.0935     7.9983 </r>
       <r>     6.0806    -0.0719     7.9921 </r>
       <r>     6.1667     0.0529     7.9967 </r>
       <r>     6.2527     0.4180     8.0327 </r>
       <r>     6.3387     1.0289     8.1212 </r>
       <r>     6.4248     1.5842     8.2575 </r>
       <r>     6.5108     1.7107     8.4047 </r>
       <r>     6.5968     1.4188     8.5267 </r>
       <r>     6.6829     1.0527     8.6173 </r>
       <r>     6.7689     0.8294     8.6886 </r>
       <r>     6.8549     0.7247     8.7510 </r>
       <r>     6.9410     0.7031     8.8115 </r>
       <r>     7.0270     0.8204     8.8821 </r>
       <r>     7.1131     1.0642     8.9736 </r>
       <r>     7.1991     1.2493     9.0811 </r>
       <r>     7.2851     1.2288     9.1868 </r>
       <r>     7.3712     1.0670     9.2786 </r>
       <r>     7.4572     0.9239     9.3581 </r>
       <r>     7.5432     0.8666     9.4327 </r>
       <r>     7.6293     0.8387     9.5048 </r>
       <r>     7.7153     0.8082     9.5744 </r>
       <r>     7.8013     0.7878     9.6421 </r>
       <r>     7.8874     0.7727     9.7086 </r>
       <r>     7.9734     0.7855     9.7762 </r>
       <r>     8.0594     0.9340     9.8565 </r>
       <r>     8.1455     1.3555     9.9732 </r>
       <r>     8.2315     1.8452    10.1319 </r>
       <r>     8.3175     1.8874    10.2943 </r>
       <r>     8.4036     1.4600    10.4199 </r>
       <r>     8.4896     1.0453    10.5098 </r>
       <r>     8.5756     0.8816    10.5857 </r>
       <r>     8.6617     0.9939    10.6712 </r>
       <r>     8.7477     1.3726    10.7893 </r>
       <r>     8.8337     1.8203    10.9459 </r>
       <r>     8.9198     2.2768    11.1418 </r>
       <r>     9.0058     2.8617    11.3880 </r>
       <r>     9.0918     3.2302    11.6659 </r>
       <r>     9.1779     2.8692    11.9127 </r>
       <r>     9.2639     2.0075    12.0854 </r>
       <r>     9.3499     1.3044    12.1977 </r>
       <r>     9.4360     0.9828    12.2822 </r>
       <r>     9.5220     0.8499    12.3553 </r>
       <r>     9.6080     0.7811    12.4225 </r>
       <r>     9.6941     0.8389    12.4947 </r>
       <r>     9.7801     1.0806    12.5877 </r>
       <r>     9.8661     1.3461    12.7035 </r>
       <r>     9.9522     1.3137    12.8165 </r>
       <r>    10.0382     0.8910    12.8932 </r>
       <r>    10.1242     0.4018    12.9278 </r>
       <r>    10.2103     0.1811    12.9433 </r>
       <r>    10.2963     0.1830    12.9591 </r>
       <r>    10.3823     0.2141    12.9775 </r>
       <r>    10.4684     0.3099    13.0042 </r>
       <r>    10.5544     0.6018    13.0559 </r>
       <r>    10.6405     0.9624    13.1387 </r>
       <r>    10.7265     1.0902    13.2325 </r>
       <r>    10.8125     0.9126    13.3111 </r>
       <r>    10.8986     0.6653    13.3683 </r>
       <r>    10.9846     0.5559    13.4161 </r>
       <r>    11.0706     0.5583    13.4642 </r>
       <r>    11.1567     0.6076    13.5164 </r>
       <r>    11.2427     0.6796    13.5749 </r>
       <r>    11.3287     0.6538    13.6311 </r>
       <r>    11.4148     0.5057    13.6747 </r>
       <r>    11.5008     0.4604    13.7143 </r>
       <r>    11.5868     0.5940    13.7654 </r>
       <r>    11.6729     0.6671    13.8228 </r>
       <r>    11.7589     0.5737    13.8721 </r>
       <r>    11.8449     0.4966    13.9148 </r>
       <r>    11.9310     0.5295    13.9604 </r>
       <r>    12.0170     0.5545    14.0081 </r>
       <r>    12.1030     0.5374    14.0544 </r>
       <r>    12.1891     0.5740    14.1037 </r>
       <r>    12.2751     0.6052    14.1558 </r>
       <r>    12.3611     0.5027    14.1991 </r>
       <r>    12.4472     0.4079    14.2341 </r>
       <r>    12.5332     0.4988    14.2771 </r>
       <r>    12.6192     0.5828    14.3272 </r>
       <r>    12.7053     0.4384    14.3649 </r>
       <r>    12.7913     0.2709    14.3882 </r>
       <r>    12.8773     0.3514    14.4184 </r>
       <r>    12.9634     0.5259    14.4637 </r>
       <r>    13.0494     0.5008    14.5068 </r>
       <r>    13.1354     0.3725    14.5388 </r>
       <r>    13.2215     0.4701    14.5793 </r>
       <r>    13.3075     0.8128    14.6492 </r>
       <r>    13.3935     1.1133    14.7450 </r>
       <r>    13.4796     1.2009    14.8483 </r>
       <r>    13.5656     1.1012    14.9430 </r>
       <r>    13.6516     0.8520    15.0163 </r>
       <r>    13.7377     0.5338    15.0623 </r>
       <r>    13.8237     0.3473    15.0921 </r>
       <r>    13.9098     0.3832    15.1251 </r>
       <r>    13.9958     0.4384    15.1628 </r>
       <r>    14.0818     0.3458    15.1926 </r>
       <r>    14.1679     0.2494    15.2140 </r>
       <r>    14.2539     0.2743    15.2376 </r>
       <r>    14.3399     0.3163    15.2648 </r>
       <r>    14.4260     0.3326    15.2935 </r>
       <r>    14.5120     0.3888    15.3269 </r>
       <r>    14.5980     0.4109    15.3623 </r>
       <r>    14.6841     0.3140    15.3893 </r>
       <r>    14.7701     0.2437    15.4102 </r>
       <r>    14.8561     0.3347    15.4390 </r>
       <r>    14.9422     0.4502    15.4778 </r>
       <r>    15.0282     0.4438    15.5159 </r>
       <r>    15.1142     0.3825    15.5489 </r>
       <r>    15.2003     0.3601    15.5798 </r>
       <r>    15.2863     0.4148    15.6155 </r>
       <r>    15.3723     0.5832    15.6657 </r>
       <r>    15.4584     0.8478    15.7386 </r>
       <r>    15.5444     1.0924    15.8326 </r>
       <r>    15.6304     1.0841    15.9259 </r>
       <r>    15.7165     0.7115    15.9871 </r>
       <r>    15.8025     0.2411    16.0078 </r>
       <r>    15.8885    -0.0123    16.0068 </r>
       <r>    15.9746    -0.0497    16.0025 </r>
       <r>    16.0606    -0.0227    16.0006 </r>
       <r>    16.1466    -0.0055    16.0001 </r>
       <r>    16.2327    -0.0008    16.0000 </r>
       <r>    16.3187    -0.0001    16.0000 </r>
       <r>    16.4047    -0.0000    16.0000 </r>
       <r>    16.4908    -0.0000    16.0000 </r>
       <r>    16.5768    -0.0000    16.0000 </r>
       <r>    16.6628    -0.0000    16.0000 </r>
       <r>    16.7489    -0.0000    16.0000 </r>
       <r>    16.8349    -0.0000    16.0000 </r>
       <r>    16.9209     0.0000    16.0000 </r>
       <r>    17.0070     0.0000    16.0000 </r>
       <r>    17.0930     0.0000    16.0000 </r>
       <r>    17.1790     0.0000    16.0000 </r>
       <r>    17.2651     0.0000    16.0000 </r>
       <r>    17.3511     0.0000    16.0000 </r>
       <r>    17.4372     0.0000    16.0000 </r>
       <r>    17.5232     0.0000    16.0000 </r>
       <r>    17.6092     0.0000    16.0000 </r>
      </set>
     </set>
    </array>
   </total>
   <partial>
    <array>
     <dimension dim="1">gridpoints</dimension>
     <dimension dim="2">spin</dimension>
     <dimension dim="3">ion</dimension>
     <field>energy</field>
     <field>  s  </field>
     <field>  p  </field>
     <field>  d  </field>
     <set>
      <set comment="ion 1">
       <set comment="spin 1">
        <r>    -8.2010     0.0000     0.0000     0.0000 </r>
        <r>    -8.1150     0.0000     0.0000     0.0000 </r>
        <r>    -8.0290     0.0000     0.0000     0.0000 </r>
        <r>    -7.9429     0.0000     0.0000     0.0000 </r>
        <r>    -7.8569    -0.0000    -0.0000    -0.0000 </r>
        <r>    -7.7709    -0.0000    -0.0000    -0.0000 </r>
        <r>    -7.6848    -0.0000    -0.0000    -0.0000 </r>
        <r>    -7.5988    -0.0000    -0.0000    -0.0000 </r>
        <r>    -7.5128    -0.0000    -0.0000    -0.0000 </r>
        <r>    -7.4267    -0.0000    -0.0000    -0.0000 </r>
        <r>    -7.3407    -0.0000    -0.0000    -0.0000 </r>
        <r>    -7.2547    -0.0000    -0.0000    -0.0000 </r>
        <r>    -7.1686    -0.0000    -0.0000    -0.0000 </r>
        <r>    -7.0826    -0.0000    -0.0000    -0.0000 </r>
        <r>    -6.9966    -0.0000    -0.0000    -0.0000 </r>
        <r>    -6.9105    -0.0000    -0.0000    -0.0000 </r>
        <r>    -6.8245    -0.0000    -0.0000    -0.0000 </r>
        <r>    -6.7384    -0.0001    -0.0000    -0.0000 </r>
        <r>    -6.6524    -0.0010    -0.0000    -0.0000 </r>
        <r>    -6.5664    -0.0041    -0.0000    -0.0000 </r>
        <r>    -6.4803    -0.0096    -0.0000    -0.0000 </r>
        <r>    -6.3943    -0.0045    -0.0000    -0.0000 </r>
        <r>    -6.3083     0.0412    -0.0000    -0.0000 </r>
        <r>    -6.2222     0.1343     0.0002     0.0000 </r>
        <r>    -6.1362     0.2164     0.0006     0.0000 </r>
        <r>    -6.0502     0.2244     0.0012     0.0001 </r>
[...]
        <r>  0.0589  0.1450  0.0821 </r>
       </set>
       <set comment="band 8">
        <r>  0.0589  0.1450  0.0821 </r>
        <r>  0.0589  0.1450  0.0821 </r>
       </set>
      </set>
      <set comment="kpoint 83">
       <set comment="band 1">
        <r>  0.2799  0.0724  0.0116 </r>
        <r>  0.2799  0.0724  0.0116 </r>
       </set>
       <set comment="band 2">
        <r>  0.2799  0.0724  0.0116 </r>
        <r>  0.2799  0.0724  0.0116 </r>
       </set>
       <set comment="band 3">
        <r>  0.0003  0.2619  0.0104 </r>
        <r>  0.0003  0.2619  0.0104 </r>
       </set>
       <set comment="band 4">
        <r>  0.0003  0.2619  0.0104 </r>
        <r>  0.0003  0.2619  0.0104 </r>
       </set>
       <set comment="band 5">
        <r>  0.0211  0.1219  0.1072 </r>
        <r>  0.0211  0.1219  0.1072 </r>
       </set>
       <set comment="band 6">
        <r>  0.0211  0.1219  0.1072 </r>
        <r>  0.0211  0.1219  0.1072 </r>
       </set>
       <set comment="band 7">
        <r>  0.0482  0.1445  0.0903 </r>
        <r>  0.0482  0.1446  0.0903 </r>
       </set>
       <set comment="band 8">
        <r>  0.0482  0.1446  0.0903 </r>
        <r>  0.0482  0.1445  0.0903 </r>
       </set>
      </set>
      <set comment="kpoint 84">
       <set comment="band 1">
        <r>  0.2793  0.0726  0.0115 </r>
        <r>  0.2793  0.0726  0.0115 </r>
       </set>
       <set comment="band 2">
        <r>  0.2793  0.0726  0.0115 </r>
        <r>  0.2793  0.0726  0.0115 </r>
       </set>
       <set comment="band 3">
        <r>  0.0006  0.2627  0.0105 </r>
        <r>  0.0006  0.2627  0.0105 </r>
       </set>
       <set comment="band 4">
        <r>  0.0006  0.2627  0.0105 </r>
        <r>  0.0006  0.2627  0.0105 </r>
       </set>
       <set comment="band 5">
        <r>  0.0275  0.1204  0.1022 </r>
        <r>  0.0275  0.1204  0.1022 </r>
       </set>
       <set comment="band 6">
        <r>  0.0275  0.1204  0.1022 </r>
        <r>  0.0275  0.1204  0.1022 </r>
       </set>
       <set comment="band 7">
        <r>  0.0418  0.1457  0.0955 </r>
        <r>  0.0418  0.1457  0.0955 </r>
       </set>
       <set comment="band 8">
        <r>  0.0418  0.1457  0.0955 </r>
        <r>  0.0418  0.1457  0.0955 </r>
       </set>
      </set>
      <set comment="kpoint 85">
       <set comment="band 1">
        <r>  0.2785  0.0730  0.0114 </r>
        <r>  0.2785  0.0730  0.0114 </r>
       </set>
       <set comment="band 2">
        <r>  0.2785  0.0730  0.0114 </r>
        <r>  0.2785  0.0730  0.0114 </r>
       </set>
       <set comment="band 3">
        <r>  0.0010  0.2637  0.0105 </r>
        <r>  0.0010  0.2637  0.0105 </r>
       </set>
       <set comment="band 4">
        <r>  0.0010  0.2637  0.0105 </r>
        <r>  0.0010  0.2637  0.0105 </r>
       </set>
       <set comment="band 5">
        <r>  0.0319  0.1180  0.0988 </r>
        <r>  0.0319  0.1180  0.0988 </r>
       </set>
       <set comment="band 6">
        <r>  0.0319  0.1180  0.0988 </r>
        <r>  0.0319  0.1180  0.0988 </r>
       </set>
       <set comment="band 7">
        <r>  0.0374  0.1476  0.0993 </r>
        <r>  0.0375  0.1476  0.0993 </r>
       </set>
       <set comment="band 8">
        <r>  0.0375  0.1476  0.0993 </r>
        <r>  0.0374  0.1476  0.0993 </r>
       </set>
      </set>
      <set comment="kpoint 86">
       <set comment="band 1">
        <r>  0.2775  0.0733  0.0113 </r>
        <r>  0.2775  0.0733  0.0113 </r>
       </set>
       <set comment="band 2">
        <r>  0.2775  0.0733  0.0113 </r>
        <r>  0.2775  0.0733  0.0113 </r>
       </set>
       <set comment="band 3">
        <r>  0.0015  0.2651  0.0105 </r>
        <r>  0.0015  0.2651  0.0105 </r>
       </set>
       <set comment="band 4">
        <r>  0.0015  0.2651  0.0105 </r>
        <r>  0.0015  0.2651  0.0105 </r>
       </set>
       <set comment="band 5">
        <r>  0.0353  0.1151  0.0962 </r>
        <r>  0.0353  0.1151  0.0962 </r>
       </set>
       <set comment="band 6">
        <r>  0.0353  0.1151  0.0962 </r>
        <r>  0.0353  0.1151  0.0962 </r>
       </set>
       <set comment="band 7">
        <r>  0.0341  0.1501  0.1021 </r>
        <r>  0.0341  0.1502  0.1021 </r>
       </set>
       <set comment="band 8">
        <r>  0.0341  0.1502  0.1021 </r>
        <r>  0.0341  0.1501  0.1021 </r>
       </set>
      </set>
      <set comment="kpoint 87">
       <set comment="band 1">
        <r>  0.2765  0.0738  0.0112 </r>
        <r>  0.2765  0.0738  0.0112 </r>
       </set>
       <set comment="band 2">
        <r>  0.2765  0.0738  0.0112 </r>
        <r>  0.2765  0.0738  0.0112 </r>
       </set>
       <set comment="band 3">
        <r>  0.0020  0.2668  0.0105 </r>
        <r>  0.0020  0.2668  0.0105 </r>
       </set>
       <set comment="band 4">
        <r>  0.0020  0.2668  0.0105 </r>
        <r>  0.0020  0.2668  0.0105 </r>
       </set>
       <set comment="band 5">
        <r>  0.0381  0.1118  0.0941 </r>
        <r>  0.0381  0.1118  0.0941 </r>
       </set>
       <set comment="band 6">
        <r>  0.0381  0.1118  0.0941 </r>
        <r>  0.0381  0.1118  0.0941 </r>
       </set>
       <set comment="band 7">
        <r>  0.0309  0.1533  0.1049 </r>
        <r>  0.0317  0.1527  0.1042 </r>
       </set>
       <set comment="band 8">
        <r>  0.0317  0.1527  0.1043 </r>
        <r>  0.0309  0.1533  0.1049 </r>
       </set>
      </set>
      <set comment="kpoint 88">
       <set comment="band 1">
        <r>  0.2753  0.0742  0.0111 </r>
        <r>  0.2753  0.0742  0.0111 </r>
       </set>
       <set comment="band 2">
        <r>  0.2753  0.0742  0.0111 </r>
        <r>  0.2753  0.0742  0.0111 </r>
       </set>
       <set comment="band 3">
        <r>  0.0024  0.2690  0.0105 </r>
        <r>  0.0024  0.2690  0.0105 </r>
       </set>
       <set comment="band 4">
        <r>  0.0024  0.2690  0.0105 </r>
        <r>  0.0024  0.2690  0.0105 </r>
       </set>
       <set comment="band 5">
        <r>  0.0407  0.1080  0.0923 </r>
        <r>  0.0407  0.1080  0.0923 </r>
       </set>
       <set comment="band 6">
        <r>  0.0407  0.1080  0.0923 </r>
        <r>  0.0407  0.1080  0.0923 </r>
       </set>
       <set comment="band 7">
        <r>  0.0288  0.1563  0.1066 </r>
        <r>  0.0287  0.1564  0.1067 </r>
       </set>
       <set comment="band 8">
        <r>  0.0287  0.1563  0.1066 </r>
        <r>  0.0288  0.1563  0.1066 </r>
       </set>
      </set>
      <set comment="kpoint 89">
       <set comment="band 1">
        <r>  0.2741  0.0747  0.0109 </r>
        <r>  0.2741  0.0747  0.0109 </r>
       </set>
       <set comment="band 2">
        <r>  0.2741  0.0747  0.0109 </r>
        <r>  0.2741  0.0747  0.0109 </r>
       </set>
       <set comment="band 3">
        <r>  0.0028  0.2716  0.0104 </r>
        <r>  0.0028  0.2716  0.0104 </r>
       </set>
       <set comment="band 4">
        <r>  0.0028  0.2716  0.0104 </r>
        <r>  0.0028  0.2716  0.0104 </r>
       </set>
       <set comment="band 5">
        <r>  0.0431  0.1039  0.0909 </r>
        <r>  0.0431  0.1039  0.0909 </r>
       </set>
       <set comment="band 6">
        <r>  0.0431  0.1039  0.0909 </r>
        <r>  0.0431  0.1039  0.0909 </r>
       </set>
       <set comment="band 7">
        <r>  0.0260  0.1603  0.1087 </r>
        <r>  0.0267  0.1600  0.1079 </r>
       </set>
       <set comment="band 8">
        <r>  0.0267  0.1600  0.1079 </r>
        <r>  0.0260  0.1603  0.1087 </r>
       </set>
      </set>
      <set comment="kpoint 90">
       <set comment="band 1">
        <r>  0.2729  0.0752  0.0108 </r>
        <r>  0.2729  0.0752  0.0108 </r>
       </set>
       <set comment="band 2">
        <r>  0.2729  0.0752  0.0108 </r>
        <r>  0.2729  0.0752  0.0108 </r>
       </set>
       <set comment="band 3">
        <r>  0.0031  0.2747  0.0103 </r>
        <r>  0.0031  0.2747  0.0103 </r>
       </set>
       <set comment="band 4">
        <r>  0.0031  0.2747  0.0103 </r>
        <r>  0.0031  0.2747  0.0103 </r>
       </set>
       <set comment="band 5">
        <r>  0.0453  0.0994  0.0897 </r>
        <r>  0.0453  0.0994  0.0897 </r>
       </set>
       <set comment="band 6">
        <r>  0.0453  0.0994  0.0897 </r>
        <r>  0.0453  0.0994  0.0897 </r>
       </set>
       <set comment="band 7">
        <r>  0.0250  0.1647  0.1078 </r>
        <r>  0.0230  0.1653  0.1109 </r>
       </set>
       <set comment="band 8">
        <r>  0.0230  0.1653  0.1109 </r>
        <r>  0.0250  0.1648  0.1079 </r>
       </set>
      </set>
      <set comment="kpoint 91">
       <set comment="band 1">
        <r>  0.2717  0.0756  0.0106 </r>
        <r>  0.2717  0.0756  0.0106 </r>
       </set>
       <set comment="band 2">
        <r>  0.2717  0.0756  0.0106 </r>
        <r>  0.2717  0.0756  0.0106 </r>
       </set>
       <set comment="band 3">
        <r>  0.0033  0.2783  0.0101 </r>
        <r>  0.0033  0.2783  0.0101 </r>
       </set>
       <set comment="band 4">
        <r>  0.0033  0.2783  0.0101 </r>
        <r>  0.0033  0.2783  0.0101 </r>
       </set>
       <set comment="band 5">
        <r>  0.0475  0.0945  0.0887 </r>
        <r>  0.0475  0.0945  0.0887 </r>
       </set>
       <set comment="band 6">
        <r>  0.0475  0.0945  0.0887 </r>
        <r>  0.0475  0.0945  0.0887 </r>
       </set>
       <set comment="band 7">
        <r>  0.0232  0.1708  0.1071 </r>
        <r>  0.0202  0.1710  0.1124 </r>
       </set>
       <set comment="band 8">
        <r>  0.0202  0.1709  0.1125 </r>
        <r>  0.0232  0.1708  0.1072 </r>
       </set>
      </set>
      <set comment="kpoint 92">
       <set comment="band 1">
        <r>  0.2706  0.0761  0.0105 </r>
        <r>  0.2706  0.0761  0.0105 </r>
       </set>
       <set comment="band 2">
        <r>  0.2706  0.0761  0.0105 </r>
        <r>  0.2706  0.0761  0.0105 </r>
       </set>
       <set comment="band 3">
        <r>  0.0032  0.2823  0.0098 </r>
        <r>  0.0032  0.2823  0.0098 </r>
       </set>
       <set comment="band 4">
        <r>  0.0032  0.2823  0.0098 </r>
        <r>  0.0032  0.2823  0.0098 </r>
       </set>
       <set comment="band 5">
        <r>  0.0496  0.0893  0.0880 </r>
        <r>  0.0496  0.0893  0.0880 </r>
       </set>
       <set comment="band 6">
        <r>  0.0496  0.0893  0.0880 </r>
        <r>  0.0496  0.0893  0.0880 </r>
       </set>
       <set comment="band 7">
        <r>  0.0197  0.1788  0.1082 </r>
        <r>  0.0190  0.1786  0.1097 </r>
       </set>
       <set comment="band 8">
        <r>  0.0190  0.1786  0.1097 </r>
        <r>  0.0197  0.1788  0.1083 </r>
       </set>
      </set>
      <set comment="kpoint 93">
       <set comment="band 1">
        <r>  0.2696  0.0765  0.0104 </r>
        <r>  0.2696  0.0765  0.0104 </r>
       </set>
       <set comment="band 2">
        <r>  0.2696  0.0765  0.0104 </r>
        <r>  0.2696  0.0765  0.0104 </r>
       </set>
       <set comment="band 3">
        <r>  0.0030  0.2868  0.0094 </r>
        <r>  0.0030  0.2868  0.0094 </r>
       </set>
       <set comment="band 4">
        <r>  0.0030  0.2868  0.0094 </r>
        <r>  0.0030  0.2868  0.0094 </r>
       </set>
       <set comment="band 5">
        <r>  0.0517  0.0837  0.0875 </r>
        <r>  0.0517  0.0837  0.0875 </r>
       </set>
       <set comment="band 6">
        <r>  0.0517  0.0837  0.0875 </r>
        <r>  0.0517  0.0837  0.0875 </r>
       </set>
       <set comment="band 7">
        <r>  0.0185  0.1895  0.1026 </r>
        <r>  0.0151  0.1879  0.1113 </r>
       </set>
       <set comment="band 8">
        <r>  0.0151  0.1879  0.1113 </r>
        <r>  0.0185  0.1897  0.1024 </r>
       </set>
      </set>
      <set comment="kpoint 94">
       <set comment="band 1">
        <r>  0.2687  0.0768  0.0102 </r>
        <r>  0.2687  0.0768  0.0102 </r>
       </set>
       <set comment="band 2">
        <r>  0.2687  0.0768  0.0102 </r>
        <r>  0.2687  0.0768  0.0102 </r>
       </set>
       <set comment="band 3">
        <r>  0.0027  0.2916  0.0090 </r>
        <r>  0.0027  0.2916  0.0090 </r>
       </set>
       <set comment="band 4">
        <r>  0.0027  0.2916  0.0090 </r>
        <r>  0.0027  0.2916  0.0090 </r>
       </set>
       <set comment="band 5">
        <r>  0.0537  0.0780  0.0873 </r>
        <r>  0.0537  0.0780  0.0873 </r>
       </set>
       <set comment="band 6">
        <r>  0.0537  0.0780  0.0873 </r>
        <r>  0.0537  0.0780  0.0873 </r>
       </set>
       <set comment="band 7">
        <r>  0.0016  0.1907  0.1440 </r>
        <r>  0.0266  0.2148  0.0608 </r>
       </set>
       <set comment="band 8">
        <r>  0.0267  0.2137  0.0621 </r>
        <r>  0.0016  0.1902  0.1434 </r>
       </set>
      </set>
      <set comment="kpoint 95">
       <set comment="band 1">
        <r>  0.2678  0.0772  0.0101 </r>
        <r>  0.2678  0.0772  0.0101 </r>
       </set>
       <set comment="band 2">
        <r>  0.2678  0.0772  0.0101 </r>
        <r>  0.2678  0.0772  0.0101 </r>
       </set>
       <set comment="band 3">
        <r>  0.0022  0.2965  0.0084 </r>
        <r>  0.0022  0.2965  0.0084 </r>
       </set>
       <set comment="band 4">
        <r>  0.0022  0.2965  0.0084 </r>
        <r>  0.0022  0.2965  0.0084 </r>
       </set>
       <set comment="band 5">
        <r>  0.0557  0.0723  0.0871 </r>
        <r>  0.0557  0.0723  0.0871 </r>
       </set>
       <set comment="band 6">
        <r>  0.0557  0.0723  0.0871 </r>
        <r>  0.0557  0.0723  0.0871 </r>
       </set>
       <set comment="band 7">
        <r>  0.0133  0.2256  0.0850 </r>
        <r>  0.0089  0.2185  0.1040 </r>
       </set>
       <set comment="band 8">
        <r>  0.0089  0.2185  0.1041 </r>
        <r>  0.0133  0.2255  0.0851 </r>
       </set>
      </set>
      <set comment="kpoint 96">
       <set comment="band 1">
        <r>  0.2671  0.0774  0.0100 </r>
        <r>  0.2671  0.0774  0.0100 </r>
       </set>
       <set comment="band 2">
        <r>  0.2671  0.0774  0.0100 </r>
        <r>  0.2671  0.0774  0.0100 </r>
       </set>
       <set comment="band 3">
        <r>  0.0016  0.3014  0.0079 </r>
        <r>  0.0016  0.3014  0.0079 </r>
       </set>
       <set comment="band 4">
        <r>  0.0016  0.3014  0.0079 </r>
        <r>  0.0016  0.3014  0.0079 </r>
       </set>
       <set comment="band 5">
        <r>  0.0574  0.0667  0.0872 </r>
        <r>  0.0574  0.0667  0.0872 </r>
       </set>
       <set comment="band 6">
        <r>  0.0574  0.0667  0.0872 </r>
        <r>  0.0574  0.0667  0.0872 </r>
       </set>
       <set comment="band 7">
        <r>  0.0149  0.2641  0.0437 </r>
        <r>  0.0008  0.2288  0.1233 </r>
       </set>
       <set comment="band 8">
        <r>  0.0007  0.2295  0.1228 </r>
        <r>  0.0150  0.2638  0.0437 </r>
       </set>
      </set>
      <set comment="kpoint 97">
       <set comment="band 1">
        <r>  0.2666  0.0776  0.0100 </r>
        <r>  0.2666  0.0776  0.0100 </r>
       </set>
       <set comment="band 2">
        <r>  0.2666  0.0776  0.0100 </r>
        <r>  0.2666  0.0776  0.0100 </r>
       </set>
       <set comment="band 3">
        <r>  0.0010  0.3058  0.0073 </r>
        <r>  0.0010  0.3058  0.0073 </r>
       </set>
       <set comment="band 4">
        <r>  0.0010  0.3058  0.0073 </r>
        <r>  0.0010  0.3058  0.0073 </r>
       </set>
       <set comment="band 5">
        <r>  0.0589  0.0618  0.0873 </r>
        <r>  0.0589  0.0618  0.0873 </r>
       </set>
       <set comment="band 6">
        <r>  0.0589  0.0618  0.0873 </r>
        <r>  0.0589  0.0618  0.0873 </r>
       </set>
       <set comment="band 7">
        <r>  0.0075  0.2832  0.0493 </r>
        <r>  0.0016  0.2613  0.0937 </r>
       </set>
       <set comment="band 8">
        <r>  0.0016  0.2633  0.0913 </r>
        <r>  0.0075  0.2836  0.0499 </r>
       </set>
      </set>
      <set comment="kpoint 98">
       <set comment="band 1">
        <r>  0.2662  0.0778  0.0099 </r>
        <r>  0.2662  0.0778  0.0099 </r>
       </set>
       <set comment="band 2">
        <r>  0.2662  0.0778  0.0099 </r>
        <r>  0.2662  0.0778  0.0099 </r>
       </set>
       <set comment="band 3">
        <r>  0.0005  0.3094  0.0069 </r>
        <r>  0.0005  0.3094  0.0069 </r>
       </set>
       <set comment="band 4">
        <r>  0.0005  0.3094  0.0069 </r>
        <r>  0.0005  0.3094  0.0069 </r>
       </set>
       <set comment="band 5">
        <r>  0.0601  0.0578  0.0875 </r>
        <r>  0.0601  0.0578  0.0875 </r>
       </set>
       <set comment="band 6">
        <r>  0.0601  0.0578  0.0875 </r>
        <r>  0.0601  0.0578  0.0875 </r>
       </set>
       <set comment="band 7">
        <r>  0.0009  0.2867  0.0732 </r>
        <r>  0.0031  0.2984  0.0511 </r>
       </set>
       <set comment="band 8">
        <r>  0.0030  0.2985  0.0510 </r>
        <r>  0.0009  0.2862  0.0736 </r>
       </set>
      </set>
      <set comment="kpoint 99">
       <set comment="band 1">
        <r>  0.2660  0.0779  0.0099 </r>
        <r>  0.2660  0.0779  0.0099 </r>
       </set>
       <set comment="band 2">
        <r>  0.2660  0.0779  0.0099 </r>
        <r>  0.2660  0.0779  0.0099 </r>
       </set>
       <set comment="band 3">
        <r>  0.0001  0.3117  0.0066 </r>
        <r>  0.0001  0.3117  0.0066 </r>
       </set>
       <set comment="band 4">
        <r>  0.0001  0.3117  0.0066 </r>
        <r>  0.0001  0.3117  0.0066 </r>
       </set>
       <set comment="band 5">
        <r>  0.0608  0.0552  0.0877 </r>
        <r>  0.0608  0.0552  0.0877 </r>
       </set>
       <set comment="band 6">
        <r>  0.0608  0.0552  0.0877 </r>
        <r>  0.0608  0.0552  0.0877 </r>
       </set>
       <set comment="band 7">
        <r>  0.0008  0.3044  0.0555 </r>
        <r>  0.0001  0.3014  0.0604 </r>
       </set>
       <set comment="band 8">
        <r>  0.0001  0.2998  0.0635 </r>
        <r>  0.0008  0.3059  0.0525 </r>
       </set>
      </set>
      <set comment="kpoint 100">
       <set comment="band 1">
        <r>  0.2659  0.0779  0.0099 </r>
        <r>  0.2659  0.0779  0.0099 </r>
       </set>
       <set comment="band 2">
        <r>  0.2659  0.0779  0.0099 </r>
        <r>  0.2659  0.0779  0.0099 </r>
       </set>
       <set comment="band 3">
        <r>  0.0000  0.3126  0.0065 </r>
        <r>  0.0000  0.3126  0.0065 </r>
       </set>
       <set comment="band 4">
        <r>  0.0000  0.3126  0.0065 </r>
        <r>  0.0000  0.3126  0.0065 </r>
       </set>
       <set comment="band 5">
        <r>  0.0611  0.0543  0.0877 </r>
        <r>  0.0611  0.0543  0.0877 </r>
       </set>
       <set comment="band 6">
        <r>  0.0611  0.0543  0.0877 </r>
        <r>  0.0611  0.0543  0.0877 </r>
       </set>
       <set comment="band 7">
        <r>  0.0000  0.3057  0.0568 </r>
        <r>  0.0000  0.3053  0.0574 </r>
       </set>
       <set comment="band 8">
        <r>  0.0000  0.3053  0.0576 </r>
        <r>  0.0000  0.3060  0.0566 </r>
       </set>
      </set>
     </set>
    </set>
   </array>
  </projected>
 </calculation>
 <structure name="finalpos" >
  <crystal>
   <varray name="basis" >
    <v>       2.73068632       2.73068632       0.00000000 </v>
    <v>       0.00000000       2.73068632       2.73068632 </v>
    <v>       2.73068632       0.00000000       2.73068632 </v>
   </varray>
   <i name="volume">     40.72353211 </i>
   <varray name="rec_basis" >
    <v>       0.18310415       0.18310415      -0.18310415 </v>
    <v>      -0.18310415       0.18310415       0.18310415 </v>
    <v>       0.18310415      -0.18310415       0.18310415 </v>
   </varray>
  </crystal>
  <varray name="positions" >
   <v>       0.00000000       0.00000000       0.00000000 </v>
   <v>       0.25000000       0.25000000       0.25000000 </v>
  </varray>
 </structure>
</modeling>
