   2   2   1   0
  0.2001288E+02  0.3839590E-09  0.3839590E-09  0.3839590E-09  0.5000000E-15
  1.000000000000000E-004
  CAR 
 diamond Si                              
     17.80959410     -8.13646692  301      5.79873002      1.00000000
     -8.136  0.0000E+00  0.0000E+00
     -8.050  0.0000E+00  0.0000E+00
     -7.963  0.0000E+00  0.0000E+00
     -7.877  0.0000E+00  0.0000E+00
     -7.791  0.0000E+00  0.0000E+00
     -7.704  0.0000E+00  0.0000E+00
     -7.618  0.0000E+00  0.0000E+00
     -7.531  0.0000E+00  0.0000E+00
     -7.445  0.0000E+00  0.0000E+00
     -7.358  0.0000E+00  0.0000E+00
     -7.272  0.0000E+00  0.0000E+00
     -7.185  0.0000E+00  0.0000E+00
     -7.099  0.0000E+00  0.0000E+00
     -7.012  0.0000E+00  0.0000E+00
     -6.926  0.0000E+00  0.0000E+00
     -6.839  0.0000E+00  0.0000E+00
     -6.753  0.0000E+00  0.0000E+00
     -6.666  0.0000E+00  0.0000E+00
     -6.580  0.0000E+00  0.0000E+00
     -6.493  0.0000E+00  0.0000E+00
     -6.407  0.0000E+00  0.0000E+00
     -6.320  0.0000E+00  0.0000E+00
     -6.234  0.0000E+00  0.0000E+00
     -6.147  0.0000E+00  0.0000E+00
     -6.061  0.9745E-01  0.5056E-02
     -5.974  0.1396E+00  0.1541E-01
     -5.888  0.1740E+00  0.2909E-01
     -5.801  0.2043E+00  0.4545E-01
     -5.715  0.2288E+00  0.6412E-01
     -5.628  0.2523E+00  0.8499E-01
     -5.542  0.2755E+00  0.1078E+00
     -5.455  0.2952E+00  0.1325E+00
     -5.369  0.3166E+00  0.1589E+00
     -5.282  0.3352E+00  0.1871E+00
     -5.196  0.3549E+00  0.2170E+00
     -5.109  0.3735E+00  0.2485E+00
     -5.023  0.3921E+00  0.2816E+00
     -4.936  0.4116E+00  0.3163E+00
     -4.850  0.4295E+00  0.3527E+00
     -4.763  0.4489E+00  0.3907E+00
     -4.677  0.4686E+00  0.4304E+00
     -4.591  0.4881E+00  0.4717E+00
     -4.504  0.5096E+00  0.5149E+00
     -4.418  0.5317E+00  0.5599E+00
     -4.331  0.5550E+00  0.6069E+00
     -4.245  0.5813E+00  0.6560E+00
     -4.158  0.6109E+00  0.7075E+00
     -4.072  0.6443E+00  0.7618E+00
     -3.985  0.6875E+00  0.8193E+00
     -3.899  0.7486E+00  0.8812E+00
     -3.812  0.8888E+00  0.9512E+00
     -3.726  0.8698E+00  0.1028E+01
     -3.639  0.8482E+00  0.1103E+01
     -3.553  0.8170E+00  0.1175E+01
     -3.466  0.7886E+00  0.1245E+01
     -3.380  0.7575E+00  0.1312E+01
     -3.293  0.7311E+00  0.1376E+01
     -3.207  0.7030E+00  0.1438E+01
     -3.120  0.6709E+00  0.1497E+01
     -3.034  0.6418E+00  0.1554E+01
     -2.947  0.6133E+00  0.1608E+01
     -2.861  0.5793E+00  0.1660E+01
     -2.774  0.5496E+00  0.1709E+01
     -2.688  0.5174E+00  0.1755E+01
     -2.601  0.4810E+00  0.1798E+01
     -2.515  0.4491E+00  0.1838E+01
     -2.428  0.4138E+00  0.1876E+01
     -2.342  0.3665E+00  0.1910E+01
     -2.255  0.3292E+00  0.1940E+01
     -2.169  0.4500E+00  0.1973E+01
     -2.082  0.1246E+00  0.1993E+01
     -1.996  0.0000E+00  0.2000E+01
     -1.909  0.0000E+00  0.2000E+01
     -1.823  0.0000E+00  0.2000E+01
     -1.736  0.2086E+00  0.2014E+01
     -1.650  0.2538E+00  0.2036E+01
     -1.563  0.2925E+00  0.2059E+01
     -1.477  0.3482E+00  0.2087E+01
     -1.390  0.4055E+00  0.2120E+01
     -1.304  0.4580E+00  0.2157E+01
     -1.218  0.5213E+00  0.2199E+01
     -1.131  0.7201E+00  0.2249E+01
     -1.045  0.1183E+01  0.2330E+01
     -0.958  0.2069E+01  0.2470E+01
     -0.872  0.1192E+01  0.2599E+01
     -0.785  0.9769E+00  0.2691E+01
     -0.699  0.8527E+00  0.2770E+01
     -0.612  0.7675E+00  0.2840E+01
     -0.526  0.7018E+00  0.2903E+01
     -0.439  0.6495E+00  0.2962E+01
     -0.353  0.6052E+00  0.3016E+01
     -0.266  0.5672E+00  0.3067E+01
     -0.180  0.5334E+00  0.3114E+01
     -0.093  0.5029E+00  0.3159E+01
     -0.007  0.4760E+00  0.3201E+01
      0.080  0.4510E+00  0.3241E+01
      0.166  0.4285E+00  0.3279E+01
      0.253  0.4071E+00  0.3316E+01
      0.339  0.3871E+00  0.3350E+01
      0.426  0.3690E+00  0.3383E+01
      0.512  0.3517E+00  0.3414E+01
      0.599  0.3355E+00  0.3443E+01
      0.685  0.3202E+00  0.3472E+01
      0.772  0.3054E+00  0.3499E+01
      0.858  0.2918E+00  0.3525E+01
      0.945  0.2788E+00  0.3549E+01
      1.031  0.2663E+00  0.3573E+01
      1.118  0.2546E+00  0.3595E+01
      1.204  0.2432E+00  0.3617E+01
      1.291  0.2323E+00  0.3637E+01
      1.377  0.2221E+00  0.3657E+01
      1.464  0.5160E+00  0.3687E+01
      1.550  0.7535E+00  0.3742E+01
      1.637  0.9917E+00  0.3816E+01
      1.723  0.1266E+01  0.3919E+01
      1.810  0.1184E+01  0.4025E+01
      1.896  0.1108E+01  0.4125E+01
      1.982  0.1039E+01  0.4218E+01
      2.069  0.1004E+01  0.4306E+01
      2.155  0.1016E+01  0.4394E+01
      2.242  0.1022E+01  0.4482E+01
      2.328  0.1042E+01  0.4572E+01
      2.415  0.1056E+01  0.4662E+01
      2.501  0.1084E+01  0.4755E+01
      2.588  0.1113E+01  0.4850E+01
      2.674  0.1157E+01  0.4948E+01
      2.761  0.1210E+01  0.5050E+01
      2.847  0.1286E+01  0.5158E+01
      2.934  0.1415E+01  0.5274E+01
      3.020  0.1532E+01  0.5407E+01
      3.107  0.1505E+01  0.5539E+01
      3.193  0.1496E+01  0.5668E+01
      3.280  0.1452E+01  0.5795E+01
      3.366  0.1444E+01  0.5920E+01
      3.453  0.1403E+01  0.6043E+01
      3.539  0.1394E+01  0.6164E+01
      3.626  0.1359E+01  0.6283E+01
      3.712  0.1340E+01  0.6399E+01
      3.799  0.1317E+01  0.6514E+01
      3.885  0.1292E+01  0.6627E+01
      3.972  0.1270E+01  0.6738E+01
      4.058  0.1251E+01  0.6847E+01
      4.145  0.1227E+01  0.6954E+01
      4.231  0.1214E+01  0.7060E+01
      4.318  0.1192E+01  0.7164E+01
      4.404  0.1171E+01  0.7266E+01
      4.491  0.1164E+01  0.7367E+01
      4.577  0.1124E+01  0.7467E+01
      4.664  0.8819E+00  0.7553E+01
      4.750  0.7429E+00  0.7623E+01
      4.837  0.6501E+00  0.7683E+01
      4.923  0.5800E+00  0.7736E+01
      5.010  0.5070E+00  0.7783E+01
      5.096  0.4560E+00  0.7825E+01
      5.183  0.3939E+00  0.7862E+01
      5.269  0.3520E+00  0.7894E+01
      5.355  0.2971E+00  0.7922E+01
      5.442  0.2622E+00  0.7946E+01
      5.528  0.2105E+00  0.7967E+01
      5.615  0.1560E+00  0.7983E+01
      5.701  0.1110E+00  0.7995E+01
      5.788  0.0000E+00  0.8000E+01
      5.874  0.0000E+00  0.8000E+01
      5.961  0.0000E+00  0.8000E+01
      6.047  0.0000E+00  0.8000E+01
      6.134  0.0000E+00  0.8000E+01
      6.220  0.0000E+00  0.8000E+01
      6.307  0.0000E+00  0.8000E+01
      6.393  0.0000E+00  0.8000E+01
      6.480  0.9617E-01  0.8005E+01
      6.566  0.2029E+00  0.8018E+01
      6.653  0.2572E+00  0.8036E+01
      6.739  0.3250E+00  0.8062E+01
      6.826  0.3705E+00  0.8093E+01
      6.912  0.4345E+00  0.8127E+01
      6.999  0.4705E+00  0.8166E+01
      7.085  0.5230E+00  0.8209E+01
      7.172  0.5573E+00  0.8255E+01
      7.258  0.6060E+00  0.8306E+01
      7.345  0.6532E+00  0.8360E+01
      7.431  0.7548E+00  0.8420E+01
      7.518  0.8295E+00  0.8488E+01
      7.604  0.9153E+00  0.8564E+01
      7.691  0.9931E+00  0.8646E+01
      7.777  0.1094E+01  0.8737E+01
      7.864  0.1207E+01  0.8836E+01
      7.950  0.1375E+01  0.8947E+01
      8.037  0.1652E+01  0.9079E+01
      8.123  0.1643E+01  0.9222E+01
      8.210  0.1608E+01  0.9363E+01
      8.296  0.1565E+01  0.9499E+01
      8.383  0.1456E+01  0.9630E+01
      8.469  0.1272E+01  0.9749E+01
      8.555  0.1208E+01  0.9856E+01
      8.642  0.1133E+01  0.9958E+01
      8.728  0.1145E+01  0.1006E+02
      8.815  0.1074E+01  0.1015E+02
      8.901  0.9972E+00  0.1024E+02
      8.988  0.1031E+01  0.1033E+02
      9.074  0.1932E+01  0.1045E+02
      9.161  0.2364E+01  0.1065E+02
      9.247  0.2087E+01  0.1084E+02
      9.334  0.1678E+01  0.1100E+02
      9.420  0.1651E+01  0.1114E+02
      9.507  0.1726E+01  0.1129E+02
      9.593  0.1793E+01  0.1144E+02
      9.680  0.1692E+01  0.1160E+02
      9.766  0.1397E+01  0.1173E+02
      9.853  0.1239E+01  0.1184E+02
      9.939  0.1162E+01  0.1195E+02
     10.026  0.1114E+01  0.1205E+02
     10.112  0.1143E+01  0.1214E+02
     10.199  0.1181E+01  0.1224E+02
     10.285  0.1351E+01  0.1235E+02
     10.372  0.1424E+01  0.1247E+02
     10.458  0.1291E+01  0.1259E+02
     10.545  0.1208E+01  0.1270E+02
     10.631  0.1234E+01  0.1280E+02
     10.718  0.1253E+01  0.1291E+02
     10.804  0.1208E+01  0.1302E+02
     10.891  0.1223E+01  0.1312E+02
     10.977  0.1201E+01  0.1322E+02
     11.064  0.1193E+01  0.1333E+02
     11.150  0.1167E+01  0.1343E+02
     11.237  0.1180E+01  0.1353E+02
     11.323  0.1173E+01  0.1363E+02
     11.410  0.1150E+01  0.1373E+02
     11.496  0.1112E+01  0.1383E+02
     11.583  0.1077E+01  0.1393E+02
     11.669  0.1062E+01  0.1402E+02
     11.756  0.1051E+01  0.1411E+02
     11.842  0.1023E+01  0.1420E+02
     11.928  0.1003E+01  0.1429E+02
     12.015  0.9994E+00  0.1437E+02
     12.101  0.9921E+00  0.1446E+02
     12.188  0.9041E+00  0.1454E+02
     12.274  0.8562E+00  0.1462E+02
     12.361  0.8814E+00  0.1469E+02
     12.447  0.9730E+00  0.1477E+02
     12.534  0.9890E+00  0.1486E+02
     12.620  0.9636E+00  0.1494E+02
     12.707  0.8600E+00  0.1502E+02
     12.793  0.7855E+00  0.1509E+02
     12.880  0.7255E+00  0.1516E+02
     12.966  0.6925E+00  0.1522E+02
     13.053  0.6574E+00  0.1528E+02
     13.139  0.6308E+00  0.1533E+02
     13.226  0.5995E+00  0.1539E+02
     13.312  0.5688E+00  0.1544E+02
     13.399  0.5511E+00  0.1549E+02
     13.485  0.5356E+00  0.1553E+02
     13.572  0.5787E+00  0.1558E+02
     13.658  0.6151E+00  0.1564E+02
     13.745  0.5189E+00  0.1569E+02
     13.831  0.4512E+00  0.1573E+02
     13.918  0.3646E+00  0.1576E+02
     14.004  0.2480E+00  0.1579E+02
     14.091  0.2344E+00  0.1581E+02
     14.177  0.2175E+00  0.1583E+02
     14.264  0.2038E+00  0.1585E+02
     14.350  0.1911E+00  0.1587E+02
     14.437  0.1773E+00  0.1588E+02
     14.523  0.1580E+00  0.1590E+02
     14.610  0.1475E+00  0.1591E+02
     14.696  0.1347E+00  0.1592E+02
     14.783  0.1233E+00  0.1593E+02
     14.869  0.1149E+00  0.1594E+02
     14.956  0.1023E+00  0.1595E+02
     15.042  0.9174E-01  0.1596E+02
     15.129  0.8027E-01  0.1597E+02
     15.215  0.6954E-01  0.1598E+02
     15.301  0.6014E-01  0.1598E+02
     15.388  0.6743E-01  0.1599E+02
     15.474  0.4484E-01  0.1599E+02
     15.561  0.3410E-01  0.1599E+02
     15.647  0.2580E-01  0.1600E+02
     15.734  0.2314E-01  0.1600E+02
     15.820  0.0000E+00  0.1600E+02
     15.907  0.0000E+00  0.1600E+02
     15.993  0.0000E+00  0.1600E+02
     16.080  0.0000E+00  0.1600E+02
     16.166  0.0000E+00  0.1600E+02
     16.253  0.0000E+00  0.1600E+02
     16.339  0.0000E+00  0.1600E+02
     16.426  0.0000E+00  0.1600E+02
     16.512  0.0000E+00  0.1600E+02
     16.599  0.0000E+00  0.1600E+02
     16.685  0.0000E+00  0.1600E+02
     16.772  0.0000E+00  0.1600E+02
     16.858  0.0000E+00  0.1600E+02
     16.945  0.0000E+00  0.1600E+02
     17.031  0.0000E+00  0.1600E+02
     17.118  0.0000E+00  0.1600E+02
     17.204  0.0000E+00  0.1600E+02
     17.291  0.0000E+00  0.1600E+02
     17.377  0.0000E+00  0.1600E+02
     17.464  0.0000E+00  0.1600E+02
     17.550  0.0000E+00  0.1600E+02
     17.637  0.0000E+00  0.1600E+02
     17.723  0.0000E+00  0.1600E+02
     17.810  0.0000E+00  0.1600E+02
     17.80959410     -8.13646692  301      5.79873002      1.00000000
     -8.136  0.0000E+00  0.0000E+00  0.0000E+00
     -8.050  0.0000E+00  0.0000E+00  0.0000E+00
     -7.963  0.0000E+00  0.0000E+00  0.0000E+00
     -7.877  0.0000E+00  0.0000E+00  0.0000E+00
     -7.791  0.0000E+00  0.0000E+00  0.0000E+00
     -7.704  0.0000E+00  0.0000E+00  0.0000E+00
     -7.618  0.0000E+00  0.0000E+00  0.0000E+00
     -7.531  0.0000E+00  0.0000E+00  0.0000E+00
     -7.445  0.0000E+00  0.0000E+00  0.0000E+00
     -7.358  0.0000E+00  0.0000E+00  0.0000E+00
     -7.272  0.0000E+00  0.0000E+00  0.0000E+00
     -7.185  0.0000E+00  0.0000E+00  0.0000E+00
     -7.099  0.0000E+00  0.0000E+00  0.0000E+00
     -7.012  0.0000E+00  0.0000E+00  0.0000E+00
     -6.926  0.0000E+00  0.0000E+00  0.0000E+00
     -6.839  0.0000E+00  0.0000E+00  0.0000E+00
     -6.753  0.0000E+00  0.0000E+00  0.0000E+00
     -6.666  0.0000E+00  0.0000E+00  0.0000E+00
     -6.580  0.0000E+00  0.0000E+00  0.0000E+00
     -6.493  0.0000E+00  0.0000E+00  0.0000E+00
     -6.407  0.0000E+00  0.0000E+00  0.0000E+00
     -6.320  0.0000E+00  0.0000E+00  0.0000E+00
     -6.234  0.0000E+00  0.0000E+00  0.0000E+00
     -6.147  0.0000E+00  0.0000E+00  0.0000E+00
     -6.061  0.2080E-01  0.9246E-04  0.0000E+00
     -5.974  0.2973E-01  0.2679E-03  0.0000E+00
     -5.888  0.3698E-01  0.4937E-03  0.0000E+00
     -5.801  0.4334E-01  0.7619E-03  0.0000E+00
     -5.715  0.4845E-01  0.1067E-02  0.0000E+00
     -5.628  0.5333E-01  0.1409E-02  0.0000E+00
     -5.542  0.5815E-01  0.1778E-02  0.0000E+00
     -5.455  0.6221E-01  0.2175E-02  0.0000E+00
     -5.369  0.6664E-01  0.2593E-02  0.0000E+00
     -5.282  0.7045E-01  0.3049E-02  0.0000E+00
     -5.196  0.7452E-01  0.3522E-02  0.0000E+00
     -5.109  0.7833E-01  0.4017E-02  0.0000E+00
     -5.023  0.8216E-01  0.4545E-02  0.0000E+00
     -4.936  0.8618E-01  0.5085E-02  0.0000E+00
     -4.850  0.8988E-01  0.5663E-02  0.0000E+00
     -4.763  0.9391E-01  0.6254E-02  0.0000E+00
     -4.677  0.9802E-01  0.6881E-02  0.0000E+00
     -4.591  0.1021E+00  0.7530E-02  0.0000E+00
     -4.504  0.1066E+00  0.8211E-02  0.0000E+00
     -4.418  0.1113E+00  0.8928E-02  0.0000E+00
     -4.331  0.1163E+00  0.9687E-02  0.0000E+00
     -4.245  0.1219E+00  0.1049E-01  0.0000E+00
     -4.158  0.1284E+00  0.1137E-01  0.0000E+00
     -4.072  0.1357E+00  0.1232E-01  0.0000E+00
     -3.985  0.1452E+00  0.1344E-01  0.0000E+00
     -3.899  0.1589E+00  0.1481E-01  0.0000E+00
     -3.812  0.1904E+00  0.1740E-01  0.0000E+00
     -3.726  0.1861E+00  0.1778E-01  0.0000E+00
     -3.639  0.1813E+00  0.1814E-01  0.0000E+00
     -3.553  0.1743E+00  0.1826E-01  0.0000E+00
     -3.466  0.1680E+00  0.1839E-01  0.0000E+00
     -3.380  0.1611E+00  0.1841E-01  0.0000E+00
     -3.293  0.1552E+00  0.1844E-01  0.0000E+00
     -3.207  0.1490E+00  0.1845E-01  0.0000E+00
     -3.120  0.1419E+00  0.1827E-01  0.0000E+00
     -3.034  0.1355E+00  0.1813E-01  0.0000E+00
     -2.947  0.1293E+00  0.1791E-01  0.0000E+00
     -2.861  0.1218E+00  0.1749E-01  0.0000E+00
     -2.774  0.1153E+00  0.1721E-01  0.0000E+00
     -2.688  0.1083E+00  0.1673E-01  0.0000E+00
     -2.601  0.1004E+00  0.1602E-01  0.0000E+00
     -2.515  0.9350E-01  0.1545E-01  0.0000E+00
     -2.428  0.8584E-01  0.1478E-01  0.0000E+00
     -2.342  0.7570E-01  0.1350E-01  0.0000E+00
     -2.255  0.6766E-01  0.1250E-01  0.0000E+00
     -2.169  0.9072E-01  0.1825E-01  0.0000E+00
     -2.082  0.2557E-01  0.4950E-02  0.0000E+00
     -1.996  0.0000E+00  0.0000E+00  0.0000E+00
     -1.909  0.0000E+00  0.0000E+00  0.0000E+00
     -1.823  0.0000E+00  0.0000E+00  0.0000E+00
     -1.736  0.4065E-01  0.9975E-02  0.0000E+00
     -1.650  0.4955E-01  0.1234E-01  0.0000E+00
     -1.563  0.5683E-01  0.1453E-01  0.0000E+00
     -1.477  0.6727E-01  0.1768E-01  0.0000E+00
     -1.390  0.7765E-01  0.2132E-01  0.0000E+00
     -1.304  0.8676E-01  0.2490E-01  0.0000E+00
     -1.218  0.9753E-01  0.2922E-01  0.0000E+00
     -1.131  0.1232E+00  0.4582E-01  0.0000E+00
     -1.045  0.1797E+00  0.8595E-01  0.0000E+00
     -0.958  0.3016E+00  0.1574E+00  0.0000E+00
     -0.872  0.1788E+00  0.8939E-01  0.0000E+00
     -0.785  0.1478E+00  0.7343E-01  0.0000E+00
     -0.699  0.1294E+00  0.6458E-01  0.0000E+00
     -0.612  0.1165E+00  0.5871E-01  0.0000E+00
     -0.526  0.1063E+00  0.5427E-01  0.0000E+00
     -0.439  0.9824E-01  0.5077E-01  0.0000E+00
     -0.353  0.9125E-01  0.4788E-01  0.0000E+00
     -0.266  0.8520E-01  0.4544E-01  0.0000E+00
     -0.180  0.7974E-01  0.4331E-01  0.0000E+00
     -0.093  0.7481E-01  0.4137E-01  0.0000E+00
     -0.007  0.7047E-01  0.3965E-01  0.0000E+00
      0.080  0.6639E-01  0.3806E-01  0.0000E+00
      0.166  0.6270E-01  0.3664E-01  0.0000E+00
      0.253  0.5918E-01  0.3530E-01  0.0000E+00
      0.339  0.5591E-01  0.3401E-01  0.0000E+00
      0.426  0.5295E-01  0.3283E-01  0.0000E+00
      0.512  0.5010E-01  0.3170E-01  0.0000E+00
      0.599  0.4746E-01  0.3065E-01  0.0000E+00
      0.685  0.4494E-01  0.2964E-01  0.0000E+00
      0.772  0.4253E-01  0.2865E-01  0.0000E+00
      0.858  0.4032E-01  0.2771E-01  0.0000E+00
      0.945  0.3822E-01  0.2682E-01  0.0000E+00
      1.031  0.3619E-01  0.2595E-01  0.0000E+00
      1.118  0.3429E-01  0.2514E-01  0.0000E+00
      1.204  0.3247E-01  0.2432E-01  0.0000E+00
      1.291  0.3073E-01  0.2352E-01  0.0000E+00
      1.377  0.2912E-01  0.2277E-01  0.0000E+00
      1.464  0.2890E-01  0.6857E-01  0.0000E+00
      1.550  0.2930E-01  0.1060E+00  0.0000E+00
      1.637  0.3044E-01  0.1437E+00  0.0000E+00
      1.723  0.3273E-01  0.1873E+00  0.0000E+00
      1.810  0.3277E-01  0.1755E+00  0.0000E+00
      1.896  0.3275E-01  0.1648E+00  0.0000E+00
      1.982  0.3250E-01  0.1550E+00  0.0000E+00
      2.069  0.3217E-01  0.1506E+00  0.0000E+00
      2.155  0.3172E-01  0.1540E+00  0.0000E+00
      2.242  0.3122E-01  0.1566E+00  0.0000E+00
      2.328  0.3068E-01  0.1614E+00  0.0000E+00
      2.415  0.3000E-01  0.1656E+00  0.0000E+00
      2.501  0.2933E-01  0.1722E+00  0.0000E+00
      2.588  0.2859E-01  0.1793E+00  0.0000E+00
      2.674  0.2783E-01  0.1892E+00  0.0000E+00
      2.761  0.2702E-01  0.2013E+00  0.0000E+00
      2.847  0.2614E-01  0.2179E+00  0.0000E+00
      2.934  0.2520E-01  0.2452E+00  0.0000E+00
      3.020  0.2425E-01  0.2709E+00  0.0000E+00
      3.107  0.2316E-01  0.2681E+00  0.0000E+00
      3.193  0.2216E-01  0.2686E+00  0.0000E+00
      3.280  0.2117E-01  0.2624E+00  0.0000E+00
      3.366  0.2015E-01  0.2632E+00  0.0000E+00
      3.453  0.1910E-01  0.2575E+00  0.0000E+00
      3.539  0.1816E-01  0.2582E+00  0.0000E+00
      3.626  0.1719E-01  0.2536E+00  0.0000E+00
      3.712  0.1617E-01  0.2522E+00  0.0000E+00
      3.799  0.1519E-01  0.2500E+00  0.0000E+00
      3.885  0.1427E-01  0.2472E+00  0.0000E+00
      3.972  0.1328E-01  0.2454E+00  0.0000E+00
      4.058  0.1233E-01  0.2440E+00  0.0000E+00
      4.145  0.1138E-01  0.2415E+00  0.0000E+00
      4.231  0.1033E-01  0.2414E+00  0.0000E+00
      4.318  0.9341E-02  0.2394E+00  0.0000E+00
      4.404  0.8338E-02  0.2373E+00  0.0000E+00
      4.491  0.7383E-02  0.2386E+00  0.0000E+00
      4.577  0.6506E-02  0.2325E+00  0.0000E+00
      4.664  0.5795E-02  0.1817E+00  0.0000E+00
      4.750  0.5153E-02  0.1532E+00  0.0000E+00
      4.837  0.4549E-02  0.1343E+00  0.0000E+00
      4.923  0.3898E-02  0.1204E+00  0.0000E+00
      5.010  0.3327E-02  0.1055E+00  0.0000E+00
      5.096  0.2784E-02  0.9541E-01  0.0000E+00
      5.183  0.2286E-02  0.8271E-01  0.0000E+00
      5.269  0.1836E-02  0.7427E-01  0.0000E+00
      5.355  0.1404E-02  0.6293E-01  0.0000E+00
      5.442  0.1038E-02  0.5585E-01  0.0000E+00
      5.528  0.6947E-03  0.4499E-01  0.0000E+00
      5.615  0.4010E-03  0.3344E-01  0.0000E+00
      5.701  0.1619E-03  0.2392E-01  0.0000E+00
      5.788  0.0000E+00  0.0000E+00  0.0000E+00
      5.874  0.0000E+00  0.0000E+00  0.0000E+00
      5.961  0.0000E+00  0.0000E+00  0.0000E+00
      6.047  0.0000E+00  0.0000E+00  0.0000E+00
      6.134  0.0000E+00  0.0000E+00  0.0000E+00
      6.220  0.0000E+00  0.0000E+00  0.0000E+00
      6.307  0.0000E+00  0.0000E+00  0.0000E+00
      6.393  0.0000E+00  0.0000E+00  0.0000E+00
      6.480  0.4984E-02  0.4437E-02  0.0000E+00
      6.566  0.1032E-01  0.9414E-02  0.0000E+00
      6.653  0.1287E-01  0.1231E-01  0.0000E+00
      6.739  0.1601E-01  0.1609E-01  0.0000E+00
      6.826  0.1793E-01  0.1905E-01  0.0000E+00
      6.912  0.2078E-01  0.2288E-01  0.0000E+00
      6.999  0.2214E-01  0.2574E-01  0.0000E+00
      7.085  0.2430E-01  0.2942E-01  0.0000E+00
      7.172  0.2550E-01  0.3247E-01  0.0000E+00
      7.258  0.2742E-01  0.3622E-01  0.0000E+00
      7.345  0.2925E-01  0.4011E-01  0.0000E+00
      7.431  0.4158E-01  0.4551E-01  0.0000E+00
      7.518  0.4742E-01  0.5091E-01  0.0000E+00
      7.604  0.5529E-01  0.5724E-01  0.0000E+00
      7.691  0.6094E-01  0.6374E-01  0.0000E+00
      7.777  0.6885E-01  0.7196E-01  0.0000E+00
      7.864  0.7816E-01  0.8143E-01  0.0000E+00
      7.950  0.9223E-01  0.9512E-01  0.0000E+00
      8.037  0.1164E+00  0.1163E+00  0.0000E+00
      8.123  0.1124E+00  0.1212E+00  0.0000E+00
      8.210  0.1061E+00  0.1245E+00  0.0000E+00
      8.296  0.9878E-01  0.1257E+00  0.0000E+00
      8.383  0.8477E-01  0.1221E+00  0.0000E+00
      8.469  0.7120E-01  0.1052E+00  0.0000E+00
      8.555  0.6478E-01  0.1012E+00  0.0000E+00
      8.642  0.5734E-01  0.9772E-01  0.0000E+00
      8.728  0.5552E-01  0.1023E+00  0.0000E+00
      8.815  0.4790E-01  0.9886E-01  0.0000E+00
      8.901  0.3771E-01  0.9601E-01  0.0000E+00
      8.988  0.3311E-01  0.9919E-01  0.0000E+00
      9.074  0.4476E-01  0.1869E+00  0.0000E+00
      9.161  0.5479E-01  0.2382E+00  0.0000E+00
      9.247  0.5486E-01  0.2126E+00  0.0000E+00
      9.334  0.5258E-01  0.1659E+00  0.0000E+00
      9.420  0.5199E-01  0.1650E+00  0.0000E+00
      9.507  0.5447E-01  0.1734E+00  0.0000E+00
      9.593  0.5966E-01  0.1797E+00  0.0000E+00
      9.680  0.6232E-01  0.1699E+00  0.0000E+00
      9.766  0.4227E-01  0.1437E+00  0.0000E+00
      9.853  0.3378E-01  0.1295E+00  0.0000E+00
      9.939  0.2989E-01  0.1229E+00  0.0000E+00
     10.026  0.2882E-01  0.1169E+00  0.0000E+00
     10.112  0.3033E-01  0.1188E+00  0.0000E+00
     10.199  0.3205E-01  0.1220E+00  0.0000E+00
     10.285  0.3766E-01  0.1393E+00  0.0000E+00
     10.372  0.3917E-01  0.1461E+00  0.0000E+00
     10.458  0.4056E-01  0.1346E+00  0.0000E+00
     10.545  0.4049E-01  0.1255E+00  0.0000E+00
     10.631  0.4098E-01  0.1292E+00  0.0000E+00
     10.718  0.4240E-01  0.1317E+00  0.0000E+00
     10.804  0.4111E-01  0.1269E+00  0.0000E+00
     10.891  0.4130E-01  0.1288E+00  0.0000E+00
     10.977  0.3973E-01  0.1270E+00  0.0000E+00
     11.064  0.3918E-01  0.1267E+00  0.0000E+00
     11.150  0.3818E-01  0.1242E+00  0.0000E+00
     11.237  0.3806E-01  0.1259E+00  0.0000E+00
     11.323  0.3784E-01  0.1253E+00  0.0000E+00
     11.410  0.3615E-01  0.1235E+00  0.0000E+00
     11.496  0.3378E-01  0.1204E+00  0.0000E+00
     11.583  0.3148E-01  0.1175E+00  0.0000E+00
     11.669  0.3003E-01  0.1168E+00  0.0000E+00
     11.756  0.2875E-01  0.1160E+00  0.0000E+00
     11.842  0.2731E-01  0.1138E+00  0.0000E+00
     11.928  0.2586E-01  0.1122E+00  0.0000E+00
     12.015  0.2491E-01  0.1124E+00  0.0000E+00
     12.101  0.2406E-01  0.1124E+00  0.0000E+00
     12.188  0.2147E-01  0.1037E+00  0.0000E+00
     12.274  0.2009E-01  0.9937E-01  0.0000E+00
     12.361  0.2019E-01  0.1024E+00  0.0000E+00
     12.447  0.2201E-01  0.1127E+00  0.0000E+00
     12.534  0.2194E-01  0.1152E+00  0.0000E+00
     12.620  0.2092E-01  0.1131E+00  0.0000E+00
     12.707  0.1822E-01  0.1017E+00  0.0000E+00
     12.793  0.1607E-01  0.9360E-01  0.0000E+00
     12.880  0.1387E-01  0.8681E-01  0.0000E+00
     12.966  0.1276E-01  0.8342E-01  0.0000E+00
     13.053  0.1166E-01  0.7972E-01  0.0000E+00
     13.139  0.1083E-01  0.7723E-01  0.0000E+00
     13.226  0.9947E-02  0.7403E-01  0.0000E+00
     13.312  0.9029E-02  0.7068E-01  0.0000E+00
     13.399  0.8306E-02  0.6881E-01  0.0000E+00
     13.485  0.7669E-02  0.6716E-01  0.0000E+00
     13.572  0.7179E-02  0.6893E-01  0.0000E+00
     13.658  0.6645E-02  0.7207E-01  0.0000E+00
     13.745  0.5649E-02  0.6435E-01  0.0000E+00
     13.831  0.4877E-02  0.5836E-01  0.0000E+00
     13.918  0.4197E-02  0.4979E-01  0.0000E+00
     14.004  0.3509E-02  0.3650E-01  0.0000E+00
     14.091  0.3240E-02  0.3492E-01  0.0000E+00
     14.177  0.2880E-02  0.3289E-01  0.0000E+00
     14.264  0.2622E-02  0.3119E-01  0.0000E+00
     14.350  0.2425E-02  0.2961E-01  0.0000E+00
     14.437  0.2158E-02  0.2783E-01  0.0000E+00
     14.523  0.1837E-02  0.2524E-01  0.0000E+00
     14.610  0.1638E-02  0.2393E-01  0.0000E+00
     14.696  0.1418E-02  0.2216E-01  0.0000E+00
     14.783  0.1250E-02  0.2053E-01  0.0000E+00
     14.869  0.1117E-02  0.1950E-01  0.0000E+00
     14.956  0.9480E-03  0.1762E-01  0.0000E+00
     15.042  0.7582E-03  0.1625E-01  0.0000E+00
     15.129  0.6178E-03  0.1445E-01  0.0000E+00
     15.215  0.5063E-03  0.1270E-01  0.0000E+00
     15.301  0.4109E-03  0.1117E-01  0.0000E+00
     15.388  0.3909E-03  0.1300E-01  0.0000E+00
     15.474  0.2256E-03  0.8905E-02  0.0000E+00
     15.561  0.1457E-03  0.6953E-02  0.0000E+00
     15.647  0.9769E-04  0.5385E-02  0.0000E+00
     15.734  0.6150E-04  0.5043E-02  0.0000E+00
     15.820  0.0000E+00  0.0000E+00  0.0000E+00
     15.907  0.0000E+00  0.0000E+00  0.0000E+00
     15.993  0.0000E+00  0.0000E+00  0.0000E+00
     16.080  0.0000E+00  0.0000E+00  0.0000E+00
     16.166  0.0000E+00  0.0000E+00  0.0000E+00
     16.253  0.0000E+00  0.0000E+00  0.0000E+00
     16.339  0.0000E+00  0.0000E+00  0.0000E+00
     16.426  0.0000E+00  0.0000E+00  0.0000E+00
     16.512  0.0000E+00  0.0000E+00  0.0000E+00
     16.599  0.0000E+00  0.0000E+00  0.0000E+00
     16.685  0.0000E+00  0.0000E+00  0.0000E+00
     16.772  0.0000E+00  0.0000E+00  0.0000E+00
     16.858  0.0000E+00  0.0000E+00  0.0000E+00
     16.945  0.0000E+00  0.0000E+00  0.0000E+00
     17.031  0.0000E+00  0.0000E+00  0.0000E+00
     17.118  0.0000E+00  0.0000E+00  0.0000E+00
     17.204  0.0000E+00  0.0000E+00  0.0000E+00
     17.291  0.0000E+00  0.0000E+00  0.0000E+00
     17.377  0.0000E+00  0.0000E+00  0.0000E+00
     17.464  0.0000E+00  0.0000E+00  0.0000E+00
     17.550  0.0000E+00  0.0000E+00  0.0000E+00
     17.637  0.0000E+00  0.0000E+00  0.0000E+00
     17.723  0.0000E+00  0.0000E+00  0.0000E+00
     17.810  0.0000E+00  0.0000E+00  0.0000E+00
     17.80959410     -8.13646692  301      5.79873002      1.00000000
     -8.136  0.0000E+00  0.0000E+00  0.0000E+00
     -8.050  0.0000E+00  0.0000E+00  0.0000E+00
     -7.963  0.0000E+00  0.0000E+00  0.0000E+00
     -7.877  0.0000E+00  0.0000E+00  0.0000E+00
     -7.791  0.0000E+00  0.0000E+00  0.0000E+00
     -7.704  0.0000E+00  0.0000E+00  0.0000E+00
     -7.618  0.0000E+00  0.0000E+00  0.0000E+00
     -7.531  0.0000E+00  0.0000E+00  0.0000E+00
     -7.445  0.0000E+00  0.0000E+00  0.0000E+00
     -7.358  0.0000E+00  0.0000E+00  0.0000E+00
     -7.272  0.0000E+00  0.0000E+00  0.0000E+00
     -7.185  0.0000E+00  0.0000E+00  0.0000E+00
     -7.099  0.0000E+00  0.0000E+00  0.0000E+00
     -7.012  0.0000E+00  0.0000E+00  0.0000E+00
     -6.926  0.0000E+00  0.0000E+00  0.0000E+00
     -6.839  0.0000E+00  0.0000E+00  0.0000E+00
     -6.753  0.0000E+00  0.0000E+00  0.0000E+00
     -6.666  0.0000E+00  0.0000E+00  0.0000E+00
     -6.580  0.0000E+00  0.0000E+00  0.0000E+00
     -6.493  0.0000E+00  0.0000E+00  0.0000E+00
     -6.407  0.0000E+00  0.0000E+00  0.0000E+00
     -6.320  0.0000E+00  0.0000E+00  0.0000E+00
     -6.234  0.0000E+00  0.0000E+00  0.0000E+00
     -6.147  0.0000E+00  0.0000E+00  0.0000E+00
     -6.061  0.2080E-01  0.9246E-04  0.0000E+00
     -5.974  0.2973E-01  0.2679E-03  0.0000E+00
     -5.888  0.3698E-01  0.4937E-03  0.0000E+00
     -5.801  0.4334E-01  0.7619E-03  0.0000E+00
     -5.715  0.4845E-01  0.1067E-02  0.0000E+00
     -5.628  0.5333E-01  0.1409E-02  0.0000E+00
     -5.542  0.5815E-01  0.1778E-02  0.0000E+00
     -5.455  0.6221E-01  0.2175E-02  0.0000E+00
     -5.369  0.6664E-01  0.2593E-02  0.0000E+00
     -5.282  0.7045E-01  0.3049E-02  0.0000E+00
     -5.196  0.7452E-01  0.3522E-02  0.0000E+00
     -5.109  0.7833E-01  0.4017E-02  0.0000E+00
     -5.023  0.8216E-01  0.4545E-02  0.0000E+00
     -4.936  0.8618E-01  0.5085E-02  0.0000E+00
     -4.850  0.8988E-01  0.5663E-02  0.0000E+00
     -4.763  0.9391E-01  0.6254E-02  0.0000E+00
     -4.677  0.9802E-01  0.6881E-02  0.0000E+00
     -4.591  0.1021E+00  0.7530E-02  0.0000E+00
     -4.504  0.1066E+00  0.8211E-02  0.0000E+00
     -4.418  0.1113E+00  0.8928E-02  0.0000E+00
     -4.331  0.1163E+00  0.9687E-02  0.0000E+00
     -4.245  0.1219E+00  0.1049E-01  0.0000E+00
     -4.158  0.1284E+00  0.1137E-01  0.0000E+00
     -4.072  0.1357E+00  0.1232E-01  0.0000E+00
     -3.985  0.1452E+00  0.1344E-01  0.0000E+00
     -3.899  0.1589E+00  0.1481E-01  0.0000E+00
     -3.812  0.1904E+00  0.1740E-01  0.0000E+00
     -3.726  0.1861E+00  0.1778E-01  0.0000E+00
     -3.639  0.1813E+00  0.1814E-01  0.0000E+00
     -3.553  0.1743E+00  0.1826E-01  0.0000E+00
     -3.466  0.1680E+00  0.1839E-01  0.0000E+00
     -3.380  0.1611E+00  0.1841E-01  0.0000E+00
     -3.293  0.1552E+00  0.1844E-01  0.0000E+00
     -3.207  0.1490E+00  0.1845E-01  0.0000E+00
     -3.120  0.1419E+00  0.1827E-01  0.0000E+00
     -3.034  0.1355E+00  0.1813E-01  0.0000E+00
     -2.947  0.1293E+00  0.1791E-01  0.0000E+00
     -2.861  0.1218E+00  0.1749E-01  0.0000E+00
     -2.774  0.1153E+00  0.1721E-01  0.0000E+00
     -2.688  0.1083E+00  0.1673E-01  0.0000E+00
     -2.601  0.1004E+00  0.1602E-01  0.0000E+00
     -2.515  0.9350E-01  0.1545E-01  0.0000E+00
     -2.428  0.8584E-01  0.1478E-01  0.0000E+00
     -2.342  0.7570E-01  0.1350E-01  0.0000E+00
     -2.255  0.6766E-01  0.1250E-01  0.0000E+00
     -2.169  0.9072E-01  0.1825E-01  0.0000E+00
     -2.082  0.2557E-01  0.4950E-02  0.0000E+00
     -1.996  0.0000E+00  0.0000E+00  0.0000E+00
     -1.909  0.0000E+00  0.0000E+00  0.0000E+00
     -1.823  0.0000E+00  0.0000E+00  0.0000E+00
     -1.736  0.4065E-01  0.9975E-02  0.0000E+00
     -1.650  0.4955E-01  0.1234E-01  0.0000E+00
     -1.563  0.5683E-01  0.1453E-01  0.0000E+00
     -1.477  0.6727E-01  0.1768E-01  0.0000E+00
     -1.390  0.7765E-01  0.2132E-01  0.0000E+00
     -1.304  0.8676E-01  0.2490E-01  0.0000E+00
     -1.218  0.9753E-01  0.2922E-01  0.0000E+00
     -1.131  0.1232E+00  0.4582E-01  0.0000E+00
     -1.045  0.1797E+00  0.8595E-01  0.0000E+00
     -0.958  0.3016E+00  0.1574E+00  0.0000E+00
     -0.872  0.1788E+00  0.8939E-01  0.0000E+00
     -0.785  0.1478E+00  0.7343E-01  0.0000E+00
     -0.699  0.1294E+00  0.6458E-01  0.0000E+00
     -0.612  0.1165E+00  0.5871E-01  0.0000E+00
     -0.526  0.1063E+00  0.5427E-01  0.0000E+00
     -0.439  0.9824E-01  0.5077E-01  0.0000E+00