    2    2    1    1
  0.2001288E+02  0.3839590E-09  0.3839590E-09  0.3839590E-09  0.5000000E-15
  1.000000000000000E-004
  CAR 
 diamond Si                              
      8    770      8
 
  0.2500000E-01  0.2500000E-01  0.2500000E-01  0.2500000E-03
    1       -6.136467   1.000000
    2        5.699475   1.000000
    3        5.781795   1.000000
    4        5.781795   1.000000
    5        8.402930   0.000000
    6        8.402930   0.000000
    7        8.406531   0.000000
    8        9.225343   0.000000
 
  0.7500000E-01  0.2500000E-01  0.2500000E-01  0.7500000E-03
    1       -6.092773   1.000000
    2        5.300378   1.000000
    3        5.615808   1.000000
    4        5.763022   1.000000
    5        8.446894   0.000000
    6        8.465729   0.000000
    7        8.557755   0.000000
    8        9.543038   0.000000
 
  0.1250000E+00  0.2500000E-01  0.2500000E-01  0.7500000E-03
    1       -5.983950   1.000000
    2        4.497169   1.000000
    3        5.425353   1.000000
    4        5.647110   1.000000
    5        8.411627   0.000000
    6        8.629442   0.000000
    7        8.800447   0.000000
    8       10.255799   0.000000
 
  0.1750000E+00  0.2500000E-01  0.2500000E-01  0.7500000E-03
    1       -5.811314   1.000000
    2        3.577636   1.000000
    3        5.220698   1.000000
    4        5.474889   1.000000
    5        8.246787   0.000000
    6        8.879527   0.000000
    7        9.086264   0.000000
    8       11.103507   0.000000
 
  0.2250000E+00  0.2500000E-01  0.2500000E-01  0.7500000E-03
    1       -5.577259   1.000000
    2        2.642699   1.000000
    3        5.025836   1.000000
    4        5.284662   1.000000
    5        8.053284   0.000000
    6        9.109416   0.000000
    7        9.317017   0.000000
    8       11.938498   0.000000
 
  0.2750000E+00  0.2500000E-01  0.2500000E-01  0.7500000E-03
    1       -5.286149   1.000000
    2        1.734755   1.000000
    3        4.855711   1.000000
    4        5.100876   1.000000
    5        7.865879   0.000000
    6        9.248469   0.000000
    7        9.430030   0.000000
    8       12.662623   0.000000
 
  0.3250000E+00  0.2500000E-01  0.2500000E-01  0.7500000E-03
    1       -4.945919   1.000000
    2        0.879912   1.000000
    3        4.718226   1.000000
    4        4.937144   1.000000
    5        7.701915   0.000000
    6        9.282522   0.000000
    7        9.424188   0.000000
    8       13.250868   0.000000
 
  0.3750000E+00  0.2500000E-01  0.2500000E-01  0.7500000E-03
    1       -4.572391   1.000000
    2        0.103722   1.000000
    3        4.617141   1.000000
    4        4.800743   1.000000
    5        7.570550   0.000000
    6        9.251805   0.000000
    7        9.348436   0.000000
    8       13.618174   0.000000
 
  0.4250000E+00  0.2500000E-01  0.2500000E-01  0.7500000E-03
    1       -4.199589   1.000000
    2       -0.553968   1.000000
    3        4.553859   1.000000
    4        4.695616   1.000000
    5        7.476541   0.000000
    6        9.206508   0.000000
    7        9.255687   0.000000
    8       13.639915   0.000000
 
  0.4750000E+00  0.2500000E-01  0.2500000E-01  0.7500000E-03
    1       -3.903303   1.000000
    2       -1.014118   1.000000
    3        4.528468   1.000000
    4        4.624075   1.000000
    5        7.422318   0.000000
    6        9.180960   0.000000
    7        9.181200   0.000000
    8       13.585105   0.000000
 
 -0.4750000E+00  0.2500000E-01  0.2500000E-01  0.7500000E-03
    1       -3.812156   1.000000
    2       -1.146313   1.000000
    3        4.540337   1.000000
    4        4.587647   1.000000
    5        7.408935   0.000000
    6        9.143037   0.000000
    7        9.192116   0.000000
    8       13.566356   0.000000
 
 -0.4250000E+00  0.2500000E-01  0.2500000E-01  0.7500000E-03
    1       -3.986236   1.000000
    2       -0.890182   1.000000
    3        4.587503   1.000000
    4        4.588458   1.000000
    5        7.436556   0.000000
    6        9.145953   0.000000
    7        9.243309   0.000000
    8       13.596481   0.000000
 
 -0.3750000E+00  0.2500000E-01  0.2500000E-01  0.7500000E-03
    1       -4.320269   1.000000
    2       -0.351690   1.000000
    3        4.624561   1.000000
    4        4.671601   1.000000
    5        7.504711   0.000000
    6        9.182368   0.000000
    7        9.325650   0.000000
    8       13.621860   0.000000
 
 -0.3250000E+00  0.2500000E-01  0.2500000E-01  0.7500000E-03
    1       -4.699035   1.000000
    2        0.351662   1.000000
    3        4.699240   1.000000
    4        4.788109   1.000000
    5        7.611887   0.000000
    6        9.229812   0.000000
    7        9.415994   0.000000
    8       13.344618   0.000000
 
 -0.2750000E+00  0.2500000E-01  0.2500000E-01  0.7500000E-03
    1       -5.064013   1.000000
    2        1.157433   1.000000
    3        4.811045   1.000000
    4        4.935323   1.000000
    5        7.754923   0.000000
    6        9.247127   0.000000
    7        9.473401   0.000000
    8       12.816651   0.000000
 
 -0.2250000E+00  0.2500000E-01  0.2500000E-01  0.7500000E-03
    1       -5.389120   1.000000
    2        2.032667   1.000000
    3        4.957838   1.000000
    4        5.108500   1.000000
    5        7.927686   0.000000
    6        9.181571   0.000000
    7        9.443853   0.000000
    8       12.321387   0.000000
 
 -0.1750000E+00  0.2500000E-01  0.2500000E-01  0.7500000E-03
    1       -5.661858   1.000000
    2        2.953146   1.000000
    3        5.134531   1.000000
    4        5.298706   1.000000
    5        8.118280   0.000000
    6        9.006605   0.000000
    7        9.291566   0.000000
    8       11.647144   0.000000
 
 -0.1250000E+00  0.2500000E-01  0.2500000E-01  0.7500000E-03
    1       -5.875822   1.000000
    2        3.890003   1.000000
    3        5.330898   1.000000
    4        5.489150   1.000000
    5        8.302305   0.000000
    6        8.763301   0.000000
    7        9.038457   0.000000
    8       10.808935   0.000000
 
 -0.7500000E-01  0.2500000E-01  0.2500000E-01  0.7500000E-03
    1       -6.027381   1.000000
    2        4.790322   1.000000
    3        5.527836   1.000000
    4        5.650065   1.000000
    5        8.407658   0.000000
    6        8.566083   0.000000
    7        8.754078   0.000000
    8        9.982339   0.000000
 
 -0.2500000E-01  0.2500000E-01  0.2500000E-01  0.7500000E-03
    1       -6.114609   1.000000
    2        5.521499   1.000000
    3        5.692813   1.000000
    4        5.737754   1.000000
    5        8.350661   0.000000
    6        8.502446   0.000000
    7        8.518473   0.000000
    8        9.373089   0.000000
 
  0.7500000E-01  0.7500000E-01  0.2500000E-01  0.7500000E-03
    1       -6.070899   1.000000
    2        5.260925   1.000000
    3        5.535193   1.000000
    4        5.596777   1.000000
    5        8.249977   0.000000
    6        8.691424   0.000000
    7        8.729080   0.000000
    8        9.624055   0.000000
 
  0.1250000E+00  0.7500000E-01  0.2500000E-01  0.1500000E-02
    1       -5.983734   1.000000
    2        4.695870   1.000000
    3        5.257327   1.000000
    4        5.535774   1.000000
    5        8.227267   0.000000
    6        8.834548   0.000000
    7        8.979070   0.000000
    8       10.125604   0.000000
 
  0.1750000E+00  0.7500000E-01  0.2500000E-01  0.1500000E-02
    1       -5.832283   1.000000
    2        3.849781   1.000000
    3        5.020778   1.000000
    4        5.415696   1.000000
    5        8.319595   0.000000
    6        8.806743   0.000000
    7        9.295899   0.000000
    8       10.816566   0.000000
 
  0.2250000E+00  0.7500000E-01  0.2500000E-01  0.1500000E-02
    1       -5.618481   1.000000
    2        2.939242   1.000000
    3        4.810539   1.000000
    4        5.237906   1.000000
    5        8.317193   0.000000
    6        8.882387   0.000000
    7        9.564561   0.000000
    8       11.348635   0.000000
 
  0.2750000E+00  0.7500000E-01  0.2500000E-01  0.1500000E-02
    1       -5.345929   1.000000
    2        2.033898   1.000000
    3        4.631212   1.000000
    4        5.042095   1.000000
    5        8.190746   0.000000
    6        9.034602   0.000000
    7        9.714683   0.000000
    8       11.671542   0.000000
 
  0.3250000E+00  0.7500000E-01  0.2500000E-01  0.1500000E-02
    1       -5.021003   1.000000
    2        1.168039   1.000000
    3        4.486827   1.000000
    4        4.855142   1.000000
    5        8.041923   0.000000
    6        9.118466   0.000000
    7        9.729266   0.000000
    8       12.062552   0.000000
 
  0.3750000E+00  0.7500000E-01  0.2500000E-01  0.1500000E-02
    1       -4.656140   1.000000
    2        0.368231   1.000000
    3        4.376992   1.000000
    4        4.694561   1.000000
    5        7.909721   0.000000
    6        9.122192   0.000000
    7        9.651503   0.000000
    8       12.613556   0.000000
 
  0.4250000E+00  0.7500000E-01  0.2500000E-01  0.1500000E-02
    1       -4.277285   1.000000
    2       -0.331518   1.000000
    3        4.296152   1.000000
    4        4.574922   1.000000
    5        7.807867   0.000000
    6        9.094005   0.000000
    7        9.539725   0.000000
    8       13.232255   0.000000
 
  0.4750000E+00  0.7500000E-01  0.2500000E-01  0.1500000E-02
    1       -3.942872   1.000000
    2       -0.868263   1.000000
    3        4.235063   1.000000
    4        4.510037   1.000000
    5        7.742289   0.000000
    6        9.074336   0.000000
    7        9.437639   0.000000
    8       13.638225   0.000000
 
 -0.4750000E+00  0.7500000E-01  0.2500000E-01  0.1500000E-02
    1       -3.768445   1.000000
    2       -1.123871   1.000000
    3        4.189913   1.000000
    4        4.505887   1.000000
    5        7.715682   0.000000
    6        9.081475   0.000000
    7        9.372851   0.000000
    8       13.734319   0.000000
 
 -0.4250000E+00  0.7500000E-01  0.2500000E-01  0.1500000E-02
    1       -3.859977   1.000000
    2       -0.991565   1.000000
    3        4.167522   1.000000
    4        4.556325   1.000000
    5        7.728909   0.000000
    6        9.114575   0.000000
    7        9.362598   0.000000
    8       13.735577   0.000000
 
 -0.3750000E+00  0.7500000E-01  0.2500000E-01  0.1500000E-02
    1       -4.156823   1.000000
    2       -0.532353   1.000000
    3        4.176949   1.000000
    4        4.651835   1.000000
    5        7.781742   0.000000
    6        9.160108   0.000000
    7        9.412498   0.000000
    8       13.588108   0.000000
 
 -0.3250000E+00  0.7500000E-01  0.2500000E-01  0.1500000E-02
    1       -4.529817   1.000000
    2        0.122523   1.000000
    3        4.224252   1.000000
    4        4.784600   1.000000
    5        7.872719   0.000000
    6        9.201606   0.000000
    7        9.503799   0.000000
    8       13.084729   0.000000
 
 -0.2750000E+00  0.7500000E-01  0.2500000E-01  0.1500000E-02
    1       -4.903254   1.000000
    2        0.893529   1.000000
    3        4.312764   1.000000
    4        4.947599   1.000000
    5        7.998633   0.000000
    6        9.212703   0.000000
    7        9.590750   0.000000
    8       12.498755   0.000000
 
 -0.2250000E+00  0.7500000E-01  0.2500000E-01  0.1500000E-02
    1       -5.243267   1.000000
    2        1.739714   1.000000
    3        4.443854   1.000000
    4        5.132436   1.000000
    5        8.153020   0.000000
    6        9.149560   0.000000
    7        9.607615   0.000000
    8       12.030917   0.000000
 
 -0.1750000E+00  0.7500000E-01  0.2500000E-01  0.1500000E-02
    1       -5.534142   1.000000
    2        2.632816   1.000000
    3        4.617393   1.000000
    4        5.326434   1.000000
    5        8.321865   0.000000
    6        8.986462   0.000000
    7        9.490228   0.000000
    8       11.639723   0.000000
 
 -0.1250000E+00  0.7500000E-01  0.2500000E-01  0.1500000E-02
    1       -5.767971   1.000000
    2        3.539533   1.000000
    3        4.832973   1.000000
    4        5.508373   1.000000
    5        8.462770   0.000000
    6        8.782687   0.000000
    7        9.233222   0.000000
    8       11.110615   0.000000
 
 -0.7500000E-01  0.7500000E-01  0.2500000E-01  0.1500000E-02
    1       -5.940435   1.000000
    2        4.393123   1.000000
    3        5.098576   1.000000
    4        5.644260   1.000000
    5        8.433291   0.000000
    6        8.729885   0.000000
    7        8.909840   0.000000
    8       10.427972   0.000000
 
 -0.2500000E-01  0.7500000E-01  0.2500000E-01  0.1500000E-02
    1       -6.049120   1.000000
    2        5.016397   1.000000
    3        5.458637   1.000000
    4        5.695599   1.000000
    5        8.360802   0.000000
    6        8.621815   0.000000
    7        8.712231   0.000000
    8        9.817163   0.000000
 
  0.1250000E+00  0.1250000E+00  0.2500000E-01  0.7500000E-03
    1       -5.918238   1.000000
    2        4.581579   1.000000
    3        5.112297   1.000000
    4        5.157595   1.000000
    5        7.948035   0.000000
    6        9.272246   0.000000
    7        9.336091   0.000000
    8       10.181395   0.000000
 
  0.1750000E+00  0.1250000E+00  0.2500000E-01  0.1500000E-02
    1       -5.788148   1.000000
    2        3.985597   1.000000
    3        4.800078   1.000000
    4        5.065385   1.000000
    5        7.890666   0.000000
    6        9.426858   0.000000
    7        9.662957   0.000000
    8       10.509375   0.000000
 
  0.2250000E+00  0.1250000E+00  0.2500000E-01  0.1500000E-02
    1       -5.595051   1.000000
    2        3.171627   1.000000
    3        4.554062   1.000000
    4        4.926172   1.000000
    5        8.003462   0.000000
    6        9.370833   0.000000
    7        9.978115   0.000000
    8       10.703501   0.000000
 
  0.2750000E+00  0.1250000E+00  0.2500000E-01  0.1500000E-02
    1       -5.341868   1.000000
    2        2.307709   1.000000
    3        4.348851   1.000000
    4        4.737812   1.000000
    5        8.137334   0.000000
    6        9.332195   0.000000
    7       10.181074   0.000000
    8       10.762495   0.000000
 
  0.3250000E+00  0.1250000E+00  0.2500000E-01  0.1500000E-02
    1       -5.033747   1.000000
    2        1.455332   1.000000
    3        4.172882   1.000000
    4        4.548184   1.000000
    5        8.178672   0.000000
    6        9.326433   0.000000
    7       10.234256   0.000000
    8       10.967122   0.000000
 
  0.3750000E+00  0.1250000E+00  0.2500000E-01  0.1500000E-02
    1       -4.680477   1.000000
    2        0.649605   1.000000
    3        4.014966   1.000000
    4        4.395802   1.000000
    5        8.141268   0.000000
    6        9.290929   0.000000
    7       10.170381   0.000000
    8       11.426504   0.000000
 
  0.4250000E+00  0.1250000E+00  0.2500000E-01  0.1500000E-02
    1       -4.301911   1.000000
    2       -0.076214   1.000000
    3        3.866730   1.000000
    4        4.304363   1.000000
    5        8.085145   0.000000
    6        9.229149   0.000000
    7       10.048473   0.000000
    8       12.086780   0.000000
 
  0.4750000E+00  0.1250000E+00  0.2500000E-01  0.1500000E-02
    1       -3.942380   1.000000
    2       -0.670283   1.000000
    3        3.732268   1.000000
    4        4.278047   1.000000
    5        8.047012   0.000000
    6        9.176347   0.000000
    7        9.917846   0.000000
    8       12.854842   0.000000
 
 -0.4750000E+00  0.1250000E+00  0.2500000E-01  0.1500000E-02
    1       -3.698105   1.000000
    2       -1.032226   1.000000
    3        3.622848   1.000000
    4        4.309921   1.000000
    5        8.042241   0.000000
    6        9.154064   0.000000
    7        9.809496   0.000000
    8       13.606885   0.000000
 
 -0.4250000E+00  0.1250000E+00  0.2500000E-01  0.1500000E-02
    1       -3.699330   1.000000
    2       -1.030011   1.000000
    3        3.548293   1.000000
    4        4.392023   1.000000
    5        8.075109   0.000000
    6        9.169739   0.000000
    7        9.739875   0.000000
    8       13.992022   0.000000
 
 -0.3750000E+00  0.1250000E+00  0.2500000E-01  0.1500000E-02
    1       -3.945129   1.000000
    2       -0.664717   1.000000
    3        3.515539   1.000000
    4        4.517361   1.000000
    5        8.144433   0.000000
    6        9.218907   0.000000
    7        9.714896   0.000000
    8       13.609296   0.000000
 
 -0.3250000E+00  0.1250000E+00  0.2500000E-01  0.1500000E-02
    1       -4.304996   1.000000
    2       -0.069093   1.000000
    3        3.529763   1.000000
    4        4.678947   1.000000
    5        8.246486   0.000000
    6        9.281361   0.000000
    7        9.730624   0.000000
    8       12.907922   0.000000
 
 -0.2750000E+00  0.1250000E+00  0.2500000E-01  0.1500000E-02
    1       -4.683348   1.000000
    2        0.656056   1.000000
    3        3.595597   1.000000
    4        4.868439   1.000000
    5        8.375978   0.000000
    6        9.314157   0.000000
    7        9.767285   0.000000
    8       12.250134   0.000000
 
 -0.2250000E+00  0.1250000E+00  0.2500000E-01  0.1500000E-02
    1       -5.036210   1.000000
    2        1.456243   1.000000
    3        3.718866   1.000000
    4        5.074366   1.000000
    5        8.524676   0.000000
    6        9.258114   0.000000
    7        9.769905   0.000000
    8       11.749733   0.000000
 
 -0.1750000E+00  0.1250000E+00  0.2500000E-01  0.1500000E-02
    1       -5.343875   1.000000
    2        2.289172   1.000000
    3        3.911261   1.000000
    4        5.279377   1.000000
    5        8.674062   0.000000
    6        9.086993   0.000000
    7        9.643734   0.000000
    8       11.453259   0.000000
 
 -0.1250000E+00  0.1250000E+00  0.2500000E-01  0.1500000E-02
    1       -5.596594   1.000000
    2        3.090308   1.000000
    3        4.205269   1.000000
    4        5.456266   1.000000
    5        8.733178   0.000000
    6        8.907065   0.000000
    7        9.364530   0.000000
    8       11.277351   0.000000
 
 -0.7500000E-01  0.1250000E+00  0.2500000E-01  0.1500000E-02
    1       -5.789238   1.000000
    2        3.738986   1.000000
    3        4.668654   1.000000
    4        5.566485   1.000000
    5        8.561214   0.000000
    6        8.824939   0.000000
    7        9.124270   0.000000
    8       10.987058   0.000000
 
 -0.2500000E-01  0.1250000E+00  0.2500000E-01  0.1500000E-02
    1       -5.918887   1.000000
    2        4.179424   1.000000
    3        5.238089   1.000000
    4        5.577830   1.000000
    5        8.406519   0.000000
    6        8.661604   0.000000
    7        9.005671   0.000000
    8       10.564257   0.000000
 
  0.1750000E+00  0.1750000E+00  0.2500000E-01  0.7500000E-03
    1       -5.679353   1.000000
    2        3.782236   1.000000
    3        4.651919   1.000000
    4        4.669326   1.000000
    5        7.583717   0.000000
    6        9.955067   0.000000
    7       10.081807   0.000000
    8       10.262128   0.000000
 
  0.2250000E+00  0.1750000E+00  0.2500000E-01  0.1500000E-02
    1       -5.507151   1.000000
    2        3.211361   1.000000
    3        4.340162   1.000000
    4        4.551063   1.000000
    5        7.525587   0.000000
    6        9.853721   0.000000
    7       10.403959   0.000000
    8       10.451185   0.000000
 
  0.2750000E+00  0.1750000E+00  0.2500000E-01  0.1500000E-02
    1       -5.273868   1.000000
    2        2.471394   1.000000
    3        4.081894   1.000000
    4        4.389049   1.000000
    5        7.654216   0.000000
    6        9.724007   0.000000
    7       10.400949   0.000000
    8       10.732546   0.000000
 
  0.3250000E+00  0.1750000E+00  0.2500000E-01  0.1500000E-02
    1       -4.983673   1.000000
    2        1.682950   1.000000
    3        3.845565   1.000000
    4        4.215784   1.000000
    5        7.809863   0.000000
    6        9.809824   0.000000
    7       10.295084   0.000000
    8       10.856978   0.000000
 
  0.3750000E+00  0.1750000E+00  0.2500000E-01  0.1500000E-02
    1       -4.644296   1.000000
    2        0.905013   1.000000
    3        3.612897   1.000000
    4        4.085084   1.000000
    5        7.883280   0.000000
    6       10.014029   0.000000
    7       10.331858   0.000000
    8       10.833685   0.000000
 
  0.4250000E+00  0.1750000E+00  0.2500000E-01  0.1500000E-02
    1       -4.270937   1.000000
    2        0.178725   1.000000
    3        3.388792   1.000000
    4        4.016332   1.000000
    5        7.894092   0.000000
    6        9.932398   0.000000
    7       10.712049   0.000000
    8       10.909352   0.000000
 
  0.4750000E+00  0.1750000E+00  0.2500000E-01  0.1500000E-02
    1       -3.897001   1.000000
    2       -0.448315   1.000000
    3        3.187797   1.000000
    4        4.008198   1.000000
    5        7.901049   0.000000
    6        9.819381   0.000000
    7       10.576279   0.000000
    8       11.680827   0.000000
 
 -0.4750000E+00  0.1750000E+00  0.2500000E-01  0.1500000E-02
    1       -3.598648   1.000000
    2       -0.892086   1.000000
    3        3.022098   1.000000
    4        4.055525   1.000000
    5        7.938843   0.000000
    6        9.729901   0.000000
    7       10.444705   0.000000
    8       12.559726   0.000000
 
 -0.4250000E+00  0.1750000E+00  0.2500000E-01  0.1500000E-02
    1       -3.509598   1.000000
    2       -1.015181   1.000000
    3        2.900371   1.000000
    4        4.153223   1.000000
    5        8.020555   0.000000
    6        9.672033   0.000000
    7       10.341778   0.000000
    8       13.488694   0.000000
 
 -0.3750000E+00  0.1750000E+00  0.2500000E-01  0.1500000E-02
    1       -3.690758   1.000000
    2       -0.756323   1.000000
    3        2.829462   1.000000
    4        4.295841   1.000000
    5        8.147100   0.000000
    6        9.645714   0.000000
    7       10.274129   0.000000
    8       13.603696   0.000000
 
 -0.3250000E+00  0.1750000E+00  0.2500000E-01  0.1500000E-02
    1       -4.029077   1.000000
    2       -0.231983   1.000000
    3        2.816187   1.000000
    4        4.476604   1.000000
    5        8.311761   0.000000
    6        9.640392   0.000000
    7       10.236111   0.000000
    8       12.791716   0.000000
 
 -0.2750000E+00  0.1750000E+00  0.2500000E-01  0.1500000E-02
    1       -4.408077   1.000000
    2        0.432026   1.000000
    3        2.869951   1.000000
    4        4.686208   1.000000
    5        8.501718   0.000000
    6        9.621831   0.000000
    7       10.207193   0.000000
    8       12.079911   0.000000
 
 -0.2250000E+00  0.1750000E+00  0.2500000E-01  0.1500000E-02
    1       -4.771269   1.000000
    2        1.157330   1.000000
    3        3.008748   1.000000
    4        4.910924   1.000000
    5        8.697497   0.000000
    6        9.518904   0.000000
    7       10.140011   0.000000
    8       11.548196   0.000000
 
 -0.1750000E+00  0.1750000E+00  0.2500000E-01  0.1500000E-02
    1       -5.093850   1.000000
    2        1.868351   1.000000
    3        3.273754   1.000000
    4        5.129665   1.000000
    5        8.865927   0.000000
    6        9.280519   0.000000
    7        9.942132   0.000000
    8       11.294042   0.000000
 
 -0.1250000E+00  0.1750000E+00  0.2500000E-01  0.1500000E-02
    1       -5.364078   1.000000
    2        2.463856   1.000000
    3        3.734178   1.000000
    4        5.310421   1.000000
    5        8.876892   0.000000
    6        9.026073   0.000000
    7        9.635870   0.000000
    8       11.311909   0.000000
 
 -0.7500000E-01  0.1750000E+00  0.2500000E-01  0.1500000E-02
    1       -5.575757   1.000000
    2        2.903835   1.000000
    3        4.379675   1.000000
    4        5.411369   1.000000
    5        8.562106   0.000000
    6        8.926364   0.000000
    7        9.440411   0.000000
    8       11.403881   0.000000
 
 -0.2500000E-01  0.1750000E+00  0.2500000E-01  0.1500000E-02
    1       -5.725481   1.000000
    2        3.258600   1.000000
    3        5.026926   1.000000
    4        5.403919   1.000000
    5        8.274542   0.000000
    6        8.867630   0.000000
    7        9.291167   0.000000
    8       11.343008   0.000000
 
  0.2250000E+00  0.2250000E+00  0.2500000E-01  0.7500000E-03
    1       -5.355687   1.000000
    2        2.926033   1.000000
    3        4.212070   1.000000
    4        4.215741   1.000000
    5        7.222171   0.000000
    6        9.532897   0.000000
    7       10.870568   0.000000
    8       10.900641   0.000000
 
  0.2750000E+00  0.2250000E+00  0.2500000E-01  0.1500000E-02
    1       -5.142517   1.000000
    2        2.391942   1.000000
    3        3.917840   1.000000
    4        4.081795   1.000000
    5        7.184181   0.000000
    6        9.225490   0.000000
    7       11.100108   0.000000
    8       11.297761   0.000000
 
  0.3250000E+00  0.2250000E+00  0.2500000E-01  0.1500000E-02
    1       -4.871009   1.000000
    2        1.740717   1.000000
    3        3.620367   1.000000
    4        3.925653   1.000000
    5        7.331713   0.000000
    6        9.112136   0.000000
    7       11.093674   0.000000
    8       11.532322   0.000000
 
  0.3750000E+00  0.2250000E+00  0.2500000E-01  0.1500000E-02
    1       -4.547229   1.000000
    2        1.048712   1.000000
    3        3.305677   1.000000
    4        3.805305   1.000000
    5        7.483576   0.000000
    6        9.295066   0.000000
    7       10.985809   0.000000
    8       11.582312   0.000000
 
  0.4250000E+00  0.2250000E+00  0.2500000E-01  0.1500000E-02
    1       -4.182859   1.000000
    2        0.366778   1.000000
    3        2.998484   1.000000
    4        3.742501   1.000000
    5        7.551861   0.000000
    6        9.789208   0.000000
    7       10.849486   0.000000
    8       11.504765   0.000000
 
  0.4750000E+00  0.2250000E+00  0.2500000E-01  0.1500000E-02
    1       -3.802968   1.000000
    2       -0.256148   1.000000
    3        2.723246   1.000000
    4        3.737521   1.000000
    5        7.585661   0.000000
    6       10.458854   0.000000
    7       10.758631   0.000000
    8       11.372818   0.000000
 
 -0.4750000E+00  0.2250000E+00  0.2500000E-01  0.1500000E-02
    1       -3.465912   1.000000
    2       -0.747212   1.000000
    3        2.494401   1.000000
    4        3.787570   1.000000
    5        7.640304   0.000000
    6       10.544497   0.000000
    7       11.214918   0.000000
    8       11.424637   0.000000
 
 -0.4250000E+00  0.2250000E+00  0.2500000E-01  0.1500000E-02
    1       -3.294419   1.000000
    2       -0.976358   1.000000
    3        2.321233   1.000000
    4        3.889213   1.000000
    5        7.740009   0.000000
    6       10.448301   0.000000
    7       11.104818   0.000000
    8       12.354704   0.000000
 
 -0.3750000E+00  0.2250000E+00  0.2500000E-01  0.1500000E-02
    1       -3.400709   1.000000
    2       -0.830021   1.000000
    3        2.212043   1.000000
    4        4.037974   1.000000
    5        7.890778   0.000000
    6       10.367672   0.000000
    7       11.010392   0.000000
    8       13.318430   0.000000
 
 -0.3250000E+00  0.2250000E+00  0.2500000E-01  0.1500000E-02
    1       -3.708945   1.000000
    2       -0.390396   1.000000
    3        2.177969   1.000000
    4        4.227558   1.000000
    5        8.088512   0.000000
    6       10.296541   0.000000
    7       10.933718   0.000000
    8       12.729365   0.000000
 
 -0.2750000E+00  0.2250000E+00  0.2500000E-01  0.1500000E-02
    1       -4.083902   1.000000
    2        0.187972   1.000000
    3        2.239359   1.000000
    4        4.448588   1.000000
    5        8.320398   0.000000
    6       10.192555   0.000000
    7       10.845332   0.000000
    8       11.996106   0.000000
 
 -0.2250000E+00  0.2250000E+00  0.2500000E-01  0.1500000E-02
    1       -4.454141   1.000000
    2        0.788767   1.000000
    3        2.438046   1.000000
    4        4.686610   1.000000
    5        8.560704   0.000000
    6        9.966479   0.000000
    7       10.667617   0.000000
    8       11.485266   0.000000
 
 -0.1750000E+00  0.2250000E+00  0.2500000E-01  0.1500000E-02
    1       -4.789061   1.000000
    2        1.308901   1.000000
    3        2.837873   1.000000
    4        4.918966   1.000000
    5        8.752862   0.000000
    6        9.599830   0.000000
    7       10.285747   0.000000
    8       11.340868   0.000000
 
 -0.1250000E+00  0.2250000E+00  0.2500000E-01  0.1500000E-02
    1       -5.074596   1.000000
    2        1.705000   1.000000
    3        3.449202   1.000000
    4        5.111200   1.000000
    5        8.739839   0.000000
    6        9.275096   0.000000
    7        9.868715   0.000000
    8       11.464676   0.000000
 
 -0.7500000E-01  0.2250000E+00  0.2500000E-01  0.1500000E-02
    1       -5.303548   1.000000
    2        2.028761   1.000000
    3        4.171049   1.000000
    4        5.218922   1.000000
    5        8.418510   0.000000
    6        9.120041   0.000000
    7        9.638351   0.000000
    8       11.705018   0.000000
 
 -0.2500000E-01  0.2250000E+00  0.2500000E-01  0.1500000E-02
    1       -5.471870   1.000000
    2        2.335094   1.000000
    3        4.838326   1.000000
    4        5.211946   1.000000
    5        8.093072   0.000000
    6        9.075598   0.000000
    7        9.486716   0.000000
    8       11.955711   0.000000
 
  0.2750000E+00  0.2750000E+00  0.2500000E-01  0.7500000E-03
    1       -4.949246   1.000000
    2        2.045092   1.000000
    3        3.812267   1.000000
    4        3.830417   1.000000
    5        6.903985   0.000000
    6        8.780134   0.000000
    7       11.734789   0.000000
    8       11.762872   0.000000
 