       N       E                     dE             d eps       ncg     rms          rms(c)
DAV:   1     0.654685845717E+01    0.65469E+01   -0.32115E+03 12336   0.748E+02
DAV:   2    -0.106204777656E+02   -0.17167E+02   -0.16867E+02 18608   0.807E+01
DAV:   3    -0.108568988111E+02   -0.23642E+00   -0.23642E+00 15592   0.117E+01
DAV:   4    -0.108580476680E+02   -0.11489E-02   -0.11489E-02 19736   0.874E-01
DAV:   5    -0.108580488127E+02   -0.11447E-05   -0.11447E-05 16136   0.219E-02
DAV:   6    -0.108580488159E+02   -0.32288E-08   -0.32287E-08 19912   0.108E-03
   1 F= -.10858049E+02 E0= -.10858049E+02  d E =0.000000E+00
