 vasp.5.4.4.18Apr17-6-g9f103f2a35 (build May 20 2018 16:52:39) complex          
  
 executed on             LinuxIFC date 2022.10.01  22:33:25
 running on    1 total cores
 distrk:  each k-point on    1 cores,    1 groups
 distr:  one band on NCORES_PER_BAND=   1 cores,    1 groups


--------------------------------------------------------------------------------------------------------


 INCAR:
 POTCAR:    PAW Si                                
 POTCAR:    PAW Si                                
   VRHFIN =Si: s2p2                                                             
   LEXCH  = 91                                                                  
   EATOM  =   103.3076 eV,    7.5929 Ry                                         
                                                                                
   TITEL  = PAW Si                                                              
   LULTRA =        F    use ultrasoft PP ?                                      
   IUNSCR =        1    unscreen: 0-lin 1-nonlin 2-no                           
   RPACOR =    1.500    partial core radius                                     
   POMASS =   28.085; ZVAL   =    4.000    mass and valenz                      
   RCORE  =    1.900    outmost cutoff radius                                   
   RWIGS  =    2.480; RWIGS  =    1.312    wigner-seitz radius (au A)           
   ENMAX  =  245.435; ENMIN  =  184.076 eV                                      
   ICORE  =        2    local potential                                         
   LCOR   =        T    correct aug charges                                     
   LPAW   =        T    paw PP                                                  
   EAUG   =  322.069                                                            
   DEXC   =    -.001                                                            
   RMAX   =    2.943    core radius for proj-oper                               
   RAUG   =    1.300    factor for augmentation sphere                          
   RDEP   =    1.993    core radius for depl-charge                             
   QCUT   =   -4.247; QGAM   =    8.494    optimization parameters              
                                                                                
   Description                                                                  
     l     E      TYP  RCUT    TYP  RCUT                                        
     0   .000     23  1.900                                                     
     0   .000     23  1.900                                                     
     1   .000     23  1.900                                                     
     1   .000     23  1.900                                                     
     2   .000      7  1.900                                                     
  local pseudopotential read in
  partial core-charges read in
  atomic valenz-charges read in
  non local Contribution for L=           0  read in
    real space projection operators read in
  non local Contribution for L=           0  read in
    real space projection operators read in
  non local Contribution for L=           1  read in
    real space projection operators read in
  non local Contribution for L=           1  read in
    real space projection operators read in
    PAW grid and wavefunctions read in
 
   number of l-projection  operators is LMAX  =           4
   number of lm-projection operators is LMMAX =           8
 
  PAW Si                                :
 energy of atom  1       EATOM= -103.3076
 kinetic energy error for atom=    0.0006 (will be added to EATOM!!)
 
 
 POSCAR: Si diamond structure                    
  positions in direct lattice
  No initial velocities read in
 exchange correlation table for  LEXCH =        7
   RHO(1)=    0.500       N(1)  =     2000
   RHO(2)=  100.500       N(2)  =     4000
 


--------------------------------------------------------------------------------------------------------


 ion  position               nearest neighbor table
   1  0.000  0.000  0.000-   2 2.35   2 2.35   2 2.35   2 2.35
   2  0.250  0.250  0.250-   1 2.35   1 2.35   1 2.35   1 2.35
 
  LATTYP: Found a face centered cubic cell.
 ALAT       =     5.4300000000
  
  Lattice vectors:
  
 A1 = (   0.0000000000,   2.7150000000,   2.7150000000)
 A2 = (   2.7150000000,   0.0000000000,   2.7150000000)
 A3 = (   2.7150000000,   2.7150000000,   0.0000000000)


Analysis of symmetry for initial positions (statically):
=====================================================================
 Subroutine PRICEL returns:
 Original cell was already a primitive cell.
 

 Routine SETGRP: Setting up the symmetry group for a 
 face centered cubic supercell.


 Subroutine GETGRP returns: Found 48 space group operations
 (whereof 24 operations were pure point group operations)
 out of a pool of 48 trial point group operations.


The static configuration has the point symmetry T_d .
 The point group associated with its full space group is O_h .


Analysis of symmetry for dynamics (positions and initial velocities):
=====================================================================
 Subroutine PRICEL returns:
 Original cell was already a primitive cell.
 

 Routine SETGRP: Setting up the symmetry group for a 
 face centered cubic supercell.


 Subroutine GETGRP returns: Found 48 space group operations
 (whereof 24 operations were pure point group operations)
 out of a pool of 48 trial point group operations.


The dynamic configuration has the point symmetry T_d .
 The point group associated with its full space group is O_h .


 Subroutine INISYM returns: Found 48 space group operations
 (whereof 24 operations are pure point group operations),
 and found     1 'primitive' translations

 
 
 KPOINTS: K-Points                                

Automatic generation of k-mesh.
Space group operators:
 irot       det(A)        alpha          n_x          n_y          n_z        tau_x        tau_y        tau_z
    1     1.000000     0.000001     1.000000     0.000000     0.000000     0.000000     0.000000     0.000000
    2     1.000000   120.000000    -0.577350    -0.577350    -0.577350     0.000000     0.000000     0.000000
    3     1.000000   120.000000     0.577350     0.577350     0.577350     0.000000     0.000000     0.000000
    4    -1.000000    90.000000     0.000000     0.000000    -1.000000     0.000000     0.000000     0.000000
    5    -1.000000   180.000000     0.000000     0.707107     0.707107     0.000000     0.000000     0.000000
    6    -1.000000    90.000000     0.000000     1.000000     0.000000     0.000000     0.000000     0.000000
    7     1.000000   180.000000     0.000000     0.000000     1.000000     0.000000     0.000000     0.000000
    8     1.000000   120.000000    -0.577350     0.577350     0.577350     0.000000     0.000000     0.000000
    9     1.000000   120.000000    -0.577350     0.577350    -0.577350     0.000000     0.000000     0.000000
   10    -1.000000    90.000000     0.000000     0.000000     1.000000     0.000000     0.000000     0.000000
   11    -1.000000    90.000000    -1.000000     0.000000     0.000000     0.000000     0.000000     0.000000
   12    -1.000000   180.000000     0.707107     0.000000     0.707107     0.000000     0.000000     0.000000
   13     1.000000   120.000000     0.577350    -0.577350     0.577350     0.000000     0.000000     0.000000
   14     1.000000   120.000000    -0.577350    -0.577350     0.577350     0.000000     0.000000     0.000000
   15     1.000000   180.000000     1.000000     0.000000     0.000000     0.000000     0.000000     0.000000
   16    -1.000000    90.000000     0.000000    -1.000000     0.000000     0.000000     0.000000     0.000000
   17    -1.000000   180.000000     0.707107     0.707107     0.000000     0.000000     0.000000     0.000000
   18    -1.000000    90.000000     1.000000     0.000000     0.000000     0.000000     0.000000     0.000000
   19     1.000000   120.000000     0.577350    -0.577350    -0.577350     0.000000     0.000000     0.000000
   20     1.000000   180.000000     0.000000     1.000000     0.000000     0.000000     0.000000     0.000000
   21     1.000000   120.000000     0.577350     0.577350    -0.577350     0.000000     0.000000     0.000000
   22    -1.000000   180.000000     0.000000    -0.707107     0.707107     0.000000     0.000000     0.000000
   23    -1.000000   180.000000     0.707107    -0.707107     0.000000     0.000000     0.000000     0.000000
   24    -1.000000   180.000000     0.707107     0.000000    -0.707107     0.000000     0.000000     0.000000
   25    -1.000000     0.000001     1.000000     0.000000     0.000000     0.250000     0.250000     0.250000
   26    -1.000000   120.000000    -0.577350    -0.577350    -0.577350     0.250000     0.250000     0.250000
   27    -1.000000   120.000000     0.577350     0.577350     0.577350     0.250000     0.250000     0.250000
   28     1.000000    90.000000     0.000000     0.000000    -1.000000     0.250000     0.250000     0.250000
   29     1.000000   180.000000     0.000000     0.707107     0.707107     0.250000     0.250000     0.250000
   30     1.000000    90.000000     0.000000     1.000000     0.000000     0.250000     0.250000     0.250000
   31    -1.000000   180.000000     0.000000     0.000000     1.000000     0.250000     0.250000     0.250000
   32    -1.000000   120.000000    -0.577350     0.577350     0.577350     0.250000     0.250000     0.250000
   33    -1.000000   120.000000    -0.577350     0.577350    -0.577350     0.250000     0.250000     0.250000
   34     1.000000    90.000000     0.000000     0.000000     1.000000     0.250000     0.250000     0.250000
   35     1.000000    90.000000    -1.000000     0.000000     0.000000     0.250000     0.250000     0.250000
   36     1.000000   180.000000     0.707107     0.000000     0.707107     0.250000     0.250000     0.250000
   37    -1.000000   120.000000     0.577350    -0.577350     0.577350     0.250000     0.250000     0.250000
   38    -1.000000   120.000000    -0.577350    -0.577350     0.577350     0.250000     0.250000     0.250000
   39    -1.000000   180.000000     1.000000     0.000000     0.000000     0.250000     0.250000     0.250000
   40     1.000000    90.000000     0.000000    -1.000000     0.000000     0.250000     0.250000     0.250000
   41     1.000000   180.000000     0.707107     0.707107     0.000000     0.250000     0.250000     0.250000
   42     1.000000    90.000000     1.000000     0.000000     0.000000     0.250000     0.250000     0.250000
   43    -1.000000   120.000000     0.577350    -0.577350    -0.577350     0.250000     0.250000     0.250000
   44    -1.000000   180.000000     0.000000     1.000000     0.000000     0.250000     0.250000     0.250000
   45    -1.000000   120.000000     0.577350     0.577350    -0.577350     0.250000     0.250000     0.250000
   46     1.000000   180.000000     0.000000    -0.707107     0.707107     0.250000     0.250000     0.250000
   47     1.000000   180.000000     0.707107    -0.707107     0.000000     0.250000     0.250000     0.250000
   48     1.000000   180.000000     0.707107     0.000000    -0.707107     0.250000     0.250000     0.250000
 
 Subroutine IBZKPT returns following result:
 ===========================================
 
 Found    770 irreducible k-points:
 
 Following reciprocal coordinates:
            Coordinates               Weight
  0.025000  0.025000  0.025000     96.000000
  0.075000  0.025000  0.025000    288.000000
  0.125000  0.025000  0.025000    288.000000
  0.175000  0.025000  0.025000    288.000000
  0.225000  0.025000  0.025000    288.000000
  0.275000  0.025000  0.025000    288.000000
  0.325000  0.025000  0.025000    288.000000
  0.375000  0.025000  0.025000    288.000000
  0.425000  0.025000  0.025000    288.000000
  0.475000  0.025000  0.025000    288.000000
 -0.475000  0.025000  0.025000    288.000000
 -0.425000  0.025000  0.025000    288.000000
 -0.375000  0.025000  0.025000    288.000000
 -0.325000  0.025000  0.025000    288.000000
 -0.275000  0.025000  0.025000    288.000000
 -0.225000  0.025000  0.025000    288.000000
 -0.175000  0.025000  0.025000    288.000000
 -0.125000  0.025000  0.025000    288.000000
 -0.075000  0.025000  0.025000    288.000000
 -0.025000  0.025000  0.025000    288.000000
  0.075000  0.075000  0.025000    288.000000
  0.125000  0.075000  0.025000    576.000000
  0.175000  0.075000  0.025000    576.000000
  0.225000  0.075000  0.025000    576.000000
  0.275000  0.075000  0.025000    576.000000
  0.325000  0.075000  0.025000    576.000000
  0.375000  0.075000  0.025000    576.000000
  0.425000  0.075000  0.025000    576.000000
  0.475000  0.075000  0.025000    576.000000
 -0.475000  0.075000  0.025000    576.000000
 -0.425000  0.075000  0.025000    576.000000
 -0.375000  0.075000  0.025000    576.000000
 -0.325000  0.075000  0.025000    576.000000
 -0.275000  0.075000  0.025000    576.000000
 -0.225000  0.075000  0.025000    576.000000
 -0.175000  0.075000  0.025000    576.000000
 -0.125000  0.075000  0.025000    576.000000
 -0.075000  0.075000  0.025000    576.000000
 -0.025000  0.075000  0.025000    576.000000
  0.125000  0.125000  0.025000    288.000000
  0.175000  0.125000  0.025000    576.000000
  0.225000  0.125000  0.025000    576.000000
  0.275000  0.125000  0.025000    576.000000
  0.325000  0.125000  0.025000    576.000000
  0.375000  0.125000  0.025000    576.000000
  0.425000  0.125000  0.025000    576.000000
  0.475000  0.125000  0.025000    576.000000
 -0.475000  0.125000  0.025000    576.000000
 -0.425000  0.125000  0.025000    576.000000
 -0.375000  0.125000  0.025000    576.000000
 -0.325000  0.125000  0.025000    576.000000
 -0.275000  0.125000  0.025000    576.000000
 -0.225000  0.125000  0.025000    576.000000
 -0.175000  0.125000  0.025000    576.000000
 -0.125000  0.125000  0.025000    576.000000
 -0.075000  0.125000  0.025000    576.000000
 -0.025000  0.125000  0.025000    576.000000
  0.175000  0.175000  0.025000    288.000000
  0.225000  0.175000  0.025000    576.000000
  0.275000  0.175000  0.025000    576.000000
  0.325000  0.175000  0.025000    576.000000
  0.375000  0.175000  0.025000    576.000000
  0.425000  0.175000  0.025000    576.000000
  0.475000  0.175000  0.025000    576.000000
 -0.475000  0.175000  0.025000    576.000000
 -0.425000  0.175000  0.025000    576.000000
 -0.375000  0.175000  0.025000    576.000000
 -0.325000  0.175000  0.025000    576.000000
 -0.275000  0.175000  0.025000    576.000000
 -0.225000  0.175000  0.025000    576.000000
 -0.175000  0.175000  0.025000    576.000000
 -0.125000  0.175000  0.025000    576.000000
 -0.075000  0.175000  0.025000    576.000000
 -0.025000  0.175000  0.025000    576.000000
  0.225000  0.225000  0.025000    288.000000
  0.275000  0.225000  0.025000    576.000000
  0.325000  0.225000  0.025000    576.000000
  0.375000  0.225000  0.025000    576.000000
  0.425000  0.225000  0.025000    576.000000
  0.475000  0.225000  0.025000    576.000000
 -0.475000  0.225000  0.025000    576.000000
 -0.425000  0.225000  0.025000    576.000000
 -0.375000  0.225000  0.025000    576.000000
 -0.325000  0.225000  0.025000    576.000000
 -0.275000  0.225000  0.025000    576.000000
 -0.225000  0.225000  0.025000    576.000000
 -0.175000  0.225000  0.025000    576.000000
 -0.125000  0.225000  0.025000    576.000000
 -0.075000  0.225000  0.025000    576.000000
 -0.025000  0.225000  0.025000    576.000000
  0.275000  0.275000  0.025000    288.000000
  0.325000  0.275000  0.025000    576.000000
  0.375000  0.275000  0.025000    576.000000
  0.425000  0.275000  0.025000    576.000000
  0.475000  0.275000  0.025000    576.000000
 -0.475000  0.275000  0.025000    576.000000
 -0.425000  0.275000  0.025000    576.000000
 -0.375000  0.275000  0.025000    576.000000
 -0.325000  0.275000  0.025000    576.000000
 -0.275000  0.275000  0.025000    576.000000
 -0.225000  0.275000  0.025000    576.000000
 -0.175000  0.275000  0.025000    576.000000
 -0.125000  0.275000  0.025000    576.000000
 -0.075000  0.275000  0.025000    576.000000
 -0.025000  0.275000  0.025000    576.000000
  0.325000  0.325000  0.025000    288.000000
  0.375000  0.325000  0.025000    576.000000
  0.425000  0.325000  0.025000    576.000000
  0.475000  0.325000  0.025000    576.000000
 -0.475000  0.325000  0.025000    576.000000
 -0.425000  0.325000  0.025000    576.000000
 -0.375000  0.325000  0.025000    576.000000
 -0.325000  0.325000  0.025000    576.000000
 -0.275000  0.325000  0.025000    576.000000
 -0.225000  0.325000  0.025000    576.000000
 -0.175000  0.325000  0.025000    576.000000
 -0.125000  0.325000  0.025000    576.000000
 -0.075000  0.325000  0.025000    576.000000
 -0.025000  0.325000  0.025000    576.000000
  0.375000  0.375000  0.025000    288.000000
  0.425000  0.375000  0.025000    576.000000
  0.475000  0.375000  0.025000    576.000000
 -0.475000  0.375000  0.025000    576.000000
 -0.425000  0.375000  0.025000    576.000000
 -0.375000  0.375000  0.025000    576.000000
 -0.325000  0.375000  0.025000    576.000000
 -0.275000  0.375000  0.025000    576.000000
 -0.225000  0.375000  0.025000    576.000000
 -0.175000  0.375000  0.025000    576.000000
 -0.125000  0.375000  0.025000    576.000000
 -0.075000  0.375000  0.025000    576.000000
 -0.025000  0.375000  0.025000    576.000000
  0.425000  0.425000  0.025000    288.000000
  0.475000  0.425000  0.025000    576.000000
 -0.475000  0.425000  0.025000    576.000000
 -0.425000  0.425000  0.025000    576.000000
 -0.375000  0.425000  0.025000    576.000000
 -0.325000  0.425000  0.025000    576.000000
 -0.275000  0.425000  0.025000    576.000000
 -0.225000  0.425000  0.025000    576.000000
 -0.175000  0.425000  0.025000    576.000000
 -0.125000  0.425000  0.025000    576.000000
 -0.075000  0.425000  0.025000    576.000000
 -0.025000  0.425000  0.025000    576.000000
  0.475000  0.475000  0.025000    288.000000
 -0.475000  0.475000  0.025000    576.000000
 -0.425000  0.475000  0.025000    576.000000
 -0.375000  0.475000  0.025000    576.000000
 -0.325000  0.475000  0.025000    576.000000
 -0.275000  0.475000  0.025000    576.000000
 -0.225000  0.475000  0.025000    576.000000
 -0.175000  0.475000  0.025000    576.000000
 -0.125000  0.475000  0.025000    576.000000
 -0.075000  0.475000  0.025000    576.000000
 -0.025000  0.475000  0.025000    576.000000
 -0.475000 -0.475000  0.025000    288.000000
 -0.425000 -0.475000  0.025000    576.000000
 -0.375000 -0.475000  0.025000    576.000000
 -0.325000 -0.475000  0.025000    576.000000
 -0.275000 -0.475000  0.025000    576.000000
 -0.225000 -0.475000  0.025000    576.000000
 -0.175000 -0.475000  0.025000    576.000000
 -0.125000 -0.475000  0.025000    576.000000
 -0.075000 -0.475000  0.025000    576.000000
 -0.425000 -0.425000  0.025000    288.000000
 -0.375000 -0.425000  0.025000    576.000000
 -0.325000 -0.425000  0.025000    576.000000
 -0.275000 -0.425000  0.025000    576.000000
 -0.225000 -0.425000  0.025000    576.000000
 -0.175000 -0.425000  0.025000    576.000000
 -0.125000 -0.425000  0.025000    576.000000
 -0.075000 -0.425000  0.025000    576.000000
 -0.375000 -0.375000  0.025000    288.000000
 -0.325000 -0.375000  0.025000    576.000000
 -0.275000 -0.375000  0.025000    576.000000
 -0.225000 -0.375000  0.025000    576.000000
 -0.175000 -0.375000  0.025000    576.000000
 -0.125000 -0.375000  0.025000    576.000000
 -0.075000 -0.375000  0.025000    576.000000
 -0.325000 -0.325000  0.025000    288.000000
 -0.275000 -0.325000  0.025000    576.000000
 -0.225000 -0.325000  0.025000    576.000000
 -0.175000 -0.325000  0.025000    576.000000
 -0.125000 -0.325000  0.025000    576.000000
 -0.075000 -0.325000  0.025000    576.000000
 -0.275000 -0.275000  0.025000    288.000000
 -0.225000 -0.275000  0.025000    576.000000
 -0.175000 -0.275000  0.025000    576.000000
 -0.125000 -0.275000  0.025000    576.000000
 -0.075000 -0.275000  0.025000    576.000000
 -0.225000 -0.225000  0.025000    288.000000
 -0.175000 -0.225000  0.025000    576.000000
 -0.125000 -0.225000  0.025000    576.000000
 -0.075000 -0.225000  0.025000    576.000000
 -0.175000 -0.175000  0.025000    288.000000
 -0.125000 -0.175000  0.025000    576.000000
 -0.075000 -0.175000  0.025000    576.000000
 -0.125000 -0.125000  0.025000    288.000000
 -0.075000 -0.125000  0.025000    576.000000
 -0.075000 -0.075000  0.025000    288.000000
  0.075000  0.075000  0.075000     96.000000
  0.125000  0.075000  0.075000    288.000000
  0.175000  0.075000  0.075000    288.000000
  0.225000  0.075000  0.075000    288.000000
  0.275000  0.075000  0.075000    288.000000
  0.325000  0.075000  0.075000    288.000000
  0.375000  0.075000  0.075000    288.000000
  0.425000  0.075000  0.075000    288.000000
  0.475000  0.075000  0.075000    288.000000
 -0.475000  0.075000  0.075000    288.000000
 -0.425000  0.075000  0.075000    288.000000
 -0.375000  0.075000  0.075000    288.000000
 -0.325000  0.075000  0.075000    288.000000
 -0.275000  0.075000  0.075000    288.000000
 -0.225000  0.075000  0.075000    288.000000
 -0.175000  0.075000  0.075000    288.000000
 -0.125000  0.075000  0.075000    288.000000
 -0.075000  0.075000  0.075000    288.000000
  0.125000  0.125000  0.075000    288.000000
  0.175000  0.125000  0.075000    576.000000
  0.225000  0.125000  0.075000    576.000000
  0.275000  0.125000  0.075000    576.000000
  0.325000  0.125000  0.075000    576.000000
  0.375000  0.125000  0.075000    576.000000
  0.425000  0.125000  0.075000    576.000000
  0.475000  0.125000  0.075000    576.000000
 -0.475000  0.125000  0.075000    576.000000
 -0.425000  0.125000  0.075000    576.000000
 -0.375000  0.125000  0.075000    576.000000
 -0.325000  0.125000  0.075000    576.000000
 -0.275000  0.125000  0.075000    576.000000
 -0.225000  0.125000  0.075000    576.000000
 -0.175000  0.125000  0.075000    576.000000
 -0.125000  0.125000  0.075000    576.000000
 -0.075000  0.125000  0.075000    576.000000
  0.175000  0.175000  0.075000    288.000000
  0.225000  0.175000  0.075000    576.000000
  0.275000  0.175000  0.075000    576.000000
  0.325000  0.175000  0.075000    576.000000
  0.375000  0.175000  0.075000    576.000000
  0.425000  0.175000  0.075000    576.000000
  0.475000  0.175000  0.075000    576.000000
 -0.475000  0.175000  0.075000    576.000000
 -0.425000  0.175000  0.075000    576.000000
 -0.375000  0.175000  0.075000    576.000000
 -0.325000  0.175000  0.075000    576.000000
 -0.275000  0.175000  0.075000    576.000000
 -0.225000  0.175000  0.075000    576.000000
 -0.175000  0.175000  0.075000    576.000000
 -0.125000  0.175000  0.075000    576.000000
 -0.075000  0.175000  0.075000    576.000000
  0.225000  0.225000  0.075000    288.000000
  0.275000  0.225000  0.075000    576.000000
  0.325000  0.225000  0.075000    576.000000
  0.375000  0.225000  0.075000    576.000000
  0.425000  0.225000  0.075000    576.000000
  0.475000  0.225000  0.075000    576.000000
 -0.475000  0.225000  0.075000    576.000000
 -0.425000  0.225000  0.075000    576.000000
 -0.375000  0.225000  0.075000    576.000000
 -0.325000  0.225000  0.075000    576.000000
 -0.275000  0.225000  0.075000    576.000000
 -0.225000  0.225000  0.075000    576.000000
 -0.175000  0.225000  0.075000    576.000000
 -0.125000  0.225000  0.075000    576.000000
 -0.075000  0.225000  0.075000    576.000000
  0.275000  0.275000  0.075000    288.000000
  0.325000  0.275000  0.075000    576.000000
  0.375000  0.275000  0.075000    576.000000
  0.425000  0.275000  0.075000    576.000000
  0.475000  0.275000  0.075000    576.000000
 -0.475000  0.275000  0.075000    576.000000
 -0.425000  0.275000  0.075000    576.000000
 -0.375000  0.275000  0.075000    576.000000
 -0.325000  0.275000  0.075000    576.000000
 -0.275000  0.275000  0.075000    576.000000
 -0.225000  0.275000  0.075000    576.000000
 -0.175000  0.275000  0.075000    576.000000
 -0.125000  0.275000  0.075000    576.000000
 -0.075000  0.275000  0.075000    576.000000
  0.325000  0.325000  0.075000    288.000000
  0.375000  0.325000  0.075000    576.000000
  0.425000  0.325000  0.075000    576.000000
  0.475000  0.325000  0.075000    576.000000
 -0.475000  0.325000  0.075000    576.000000
 -0.425000  0.325000  0.075000    576.000000
 -0.375000  0.325000  0.075000    576.000000
 -0.325000  0.325000  0.075000    576.000000
 -0.275000  0.325000  0.075000    576.000000
 -0.225000  0.325000  0.075000    576.000000
 -0.175000  0.325000  0.075000    576.000000
 -0.125000  0.325000  0.075000    576.000000
 -0.075000  0.325000  0.075000    576.000000
  0.375000  0.375000  0.075000    288.000000
  0.425000  0.375000  0.075000    576.000000
  0.475000  0.375000  0.075000    576.000000
 -0.475000  0.375000  0.075000    576.000000
 -0.425000  0.375000  0.075000    576.000000
 -0.375000  0.375000  0.075000    576.000000
 -0.325000  0.375000  0.075000    576.000000
 -0.275000  0.375000  0.075000    576.000000
 -0.225000  0.375000  0.075000    576.000000
 -0.175000  0.375000  0.075000    576.000000
 -0.125000  0.375000  0.075000    576.000000
 -0.075000  0.375000  0.075000    576.000000
  0.425000  0.425000  0.075000    288.000000
  0.475000  0.425000  0.075000    576.000000
 -0.475000  0.425000  0.075000    576.000000
 -0.425000  0.425000  0.075000    576.000000
 -0.375000  0.425000  0.075000    576.000000
 -0.325000  0.425000  0.075000    576.000000
 -0.275000  0.425000  0.075000    576.000000
 -0.225000  0.425000  0.075000    576.000000
 -0.175000  0.425000  0.075000    576.000000
 -0.125000  0.425000  0.075000    576.000000
 -0.075000  0.425000  0.075000    576.000000
  0.475000  0.475000  0.075000    288.000000
 -0.475000  0.475000  0.075000    576.000000
 -0.425000  0.475000  0.075000    576.000000
 -0.375000  0.475000  0.075000    576.000000
 -0.325000  0.475000  0.075000    576.000000
 -0.275000  0.475000  0.075000    576.000000
 -0.225000  0.475000  0.075000    576.000000
 -0.175000  0.475000  0.075000    576.000000
 -0.125000  0.475000  0.075000    576.000000
 -0.075000  0.475000  0.075000    576.000000
 -0.475000 -0.475000  0.075000    288.000000
 -0.425000 -0.475000  0.075000    576.000000
 -0.375000 -0.475000  0.075000    576.000000
 -0.325000 -0.475000  0.075000    576.000000
 -0.275000 -0.475000  0.075000    576.000000
 -0.225000 -0.475000  0.075000    576.000000
 -0.175000 -0.475000  0.075000    576.000000
 -0.125000 -0.475000  0.075000    576.000000
 -0.425000 -0.425000  0.075000    288.000000
 -0.375000 -0.425000  0.075000    576.000000
 -0.325000 -0.425000  0.075000    576.000000
 -0.275000 -0.425000  0.075000    576.000000
 -0.225000 -0.425000  0.075000    576.000000
 -0.175000 -0.425000  0.075000    576.000000
 -0.125000 -0.425000  0.075000    576.000000
 -0.375000 -0.375000  0.075000    288.000000
 -0.325000 -0.375000  0.075000    576.000000
 -0.275000 -0.375000  0.075000    576.000000
 -0.225000 -0.375000  0.075000    576.000000
 -0.175000 -0.375000  0.075000    576.000000
 -0.125000 -0.375000  0.075000    576.000000
 -0.325000 -0.325000  0.075000    288.000000
 -0.275000 -0.325000  0.075000    576.000000
 -0.225000 -0.325000  0.075000    576.000000
 -0.175000 -0.325000  0.075000    576.000000
 -0.125000 -0.325000  0.075000    576.000000
 -0.275000 -0.275000  0.075000    288.000000
 -0.225000 -0.275000  0.075000    576.000000
 -0.175000 -0.275000  0.075000    576.000000
 -0.125000 -0.275000  0.075000    576.000000
 -0.225000 -0.225000  0.075000    288.000000
 -0.175000 -0.225000  0.075000    576.000000
 -0.125000 -0.225000  0.075000    576.000000
 -0.175000 -0.175000  0.075000    288.000000
 -0.125000 -0.175000  0.075000    576.000000
 -0.125000 -0.125000  0.075000    288.000000
  0.125000  0.125000  0.125000     96.000000
  0.175000  0.125000  0.125000    288.000000
  0.225000  0.125000  0.125000    288.000000
  0.275000  0.125000  0.125000    288.000000
  0.325000  0.125000  0.125000    288.000000
  0.375000  0.125000  0.125000    288.000000
  0.425000  0.125000  0.125000    288.000000
  0.475000  0.125000  0.125000    288.000000
 -0.475000  0.125000  0.125000    288.000000
 -0.425000  0.125000  0.125000    288.000000
 -0.375000  0.125000  0.125000    288.000000
 -0.325000  0.125000  0.125000    288.000000
 -0.275000  0.125000  0.125000    288.000000
 -0.225000  0.125000  0.125000    288.000000
 -0.175000  0.125000  0.125000    288.000000
 -0.125000  0.125000  0.125000    288.000000
  0.175000  0.175000  0.125000    288.000000
  0.225000  0.175000  0.125000    576.000000
  0.275000  0.175000  0.125000    576.000000
  0.325000  0.175000  0.125000    576.000000
  0.375000  0.175000  0.125000    576.000000
  0.425000  0.175000  0.125000    576.000000
  0.475000  0.175000  0.125000    576.000000
 -0.475000  0.175000  0.125000    576.000000
 -0.425000  0.175000  0.125000    576.000000
 -0.375000  0.175000  0.125000    576.000000
 -0.325000  0.175000  0.125000    576.000000
 -0.275000  0.175000  0.125000    576.000000
 -0.225000  0.175000  0.125000    576.000000
 -0.175000  0.175000  0.125000    576.000000
 -0.125000  0.175000  0.125000    576.000000
  0.225000  0.225000  0.125000    288.000000
  0.275000  0.225000  0.125000    576.000000
  0.325000  0.225000  0.125000    576.000000
  0.375000  0.225000  0.125000    576.000000
  0.425000  0.225000  0.125000    576.000000
  0.475000  0.225000  0.125000    576.000000
 -0.475000  0.225000  0.125000    576.000000
 -0.425000  0.225000  0.125000    576.000000
 -0.375000  0.225000  0.125000    576.000000
 -0.325000  0.225000  0.125000    576.000000
 -0.275000  0.225000  0.125000    576.000000
 -0.225000  0.225000  0.125000    576.000000
 -0.175000  0.225000  0.125000    576.000000
 -0.125000  0.225000  0.125000    576.000000
  0.275000  0.275000  0.125000    288.000000
  0.325000  0.275000  0.125000    576.000000
  0.375000  0.275000  0.125000    576.000000
  0.425000  0.275000  0.125000    576.000000
  0.475000  0.275000  0.125000    576.000000
 -0.475000  0.275000  0.125000    576.000000
 -0.425000  0.275000  0.125000    576.000000
 -0.375000  0.275000  0.125000    576.000000
 -0.325000  0.275000  0.125000    576.000000
 -0.275000  0.275000  0.125000    576.000000
 -0.225000  0.275000  0.125000    576.000000
 -0.175000  0.275000  0.125000    576.000000
 -0.125000  0.275000  0.125000    576.000000
  0.325000  0.325000  0.125000    288.000000
  0.375000  0.325000  0.125000    576.000000
  0.425000  0.325000  0.125000    576.000000
  0.475000  0.325000  0.125000    576.000000
 -0.475000  0.325000  0.125000    576.000000
 -0.425000  0.325000  0.125000    576.000000
 -0.375000  0.325000  0.125000    576.000000
 -0.325000  0.325000  0.125000    576.000000
 -0.275000  0.325000  0.125000    576.000000
 -0.225000  0.325000  0.125000    576.000000
 -0.175000  0.325000  0.125000    576.000000
 -0.125000  0.325000  0.125000    576.000000
  0.375000  0.375000  0.125000    288.000000
  0.425000  0.375000  0.125000    576.000000
  0.475000  0.375000  0.125000    576.000000
 -0.475000  0.375000  0.125000    576.000000
 -0.425000  0.375000  0.125000    576.000000
 -0.375000  0.375000  0.125000    576.000000
 -0.325000  0.375000  0.125000    576.000000
 -0.275000  0.375000  0.125000    576.000000
 -0.225000  0.375000  0.125000    576.000000
 -0.175000  0.375000  0.125000    576.000000
 -0.125000  0.375000  0.125000    576.000000
  0.425000  0.425000  0.125000    288.000000
  0.475000  0.425000  0.125000    576.000000
 -0.475000  0.425000  0.125000    576.000000
 -0.425000  0.425000  0.125000    576.000000
 -0.375000  0.425000  0.125000    576.000000
 -0.325000  0.425000  0.125000    576.000000
 -0.275000  0.425000  0.125000    576.000000
 -0.225000  0.425000  0.125000    576.000000
 -0.175000  0.425000  0.125000    576.000000
 -0.125000  0.425000  0.125000    576.000000
  0.475000  0.475000  0.125000    288.000000
 -0.475000  0.475000  0.125000    576.000000
 -0.425000  0.475000  0.125000    576.000000
 -0.375000  0.475000  0.125000    576.000000
 -0.325000  0.475000  0.125000    576.000000
 -0.275000  0.475000  0.125000    576.000000
 -0.225000  0.475000  0.125000    576.000000
 -0.175000  0.475000  0.125000    576.000000
 -0.125000  0.475000  0.125000    576.000000
 -0.475000 -0.475000  0.125000    288.000000
 -0.425000 -0.475000  0.125000    576.000000
 -0.375000 -0.475000  0.125000    576.000000
 -0.325000 -0.475000  0.125000    576.000000
 -0.275000 -0.475000  0.125000    576.000000
 -0.225000 -0.475000  0.125000    576.000000
 -0.175000 -0.475000  0.125000    576.000000
 -0.425000 -0.425000  0.125000    288.000000
 -0.375000 -0.425000  0.125000    576.000000
 -0.325000 -0.425000  0.125000    576.000000
 -0.275000 -0.425000  0.125000    576.000000
 -0.225000 -0.425000  0.125000    576.000000
 -0.175000 -0.425000  0.125000    576.000000
 -0.375000 -0.375000  0.125000    288.000000
 -0.325000 -0.375000  0.125000    576.000000
 -0.275000 -0.375000  0.125000    576.000000
 -0.225000 -0.375000  0.125000    576.000000
 -0.175000 -0.375000  0.125000    576.000000
 -0.325000 -0.325000  0.125000    288.000000
 -0.275000 -0.325000  0.125000    576.000000
 -0.225000 -0.325000  0.125000    576.000000
 -0.175000 -0.325000  0.125000    576.000000
 -0.275000 -0.275000  0.125000    288.000000
 -0.225000 -0.275000  0.125000    576.000000
 -0.175000 -0.275000  0.125000    576.000000
 -0.225000 -0.225000  0.125000    288.000000
 -0.175000 -0.225000  0.125000    576.000000
 -0.175000 -0.175000  0.125000    288.000000
  0.175000  0.175000  0.175000     96.000000
  0.225000  0.175000  0.175000    288.000000
  0.275000  0.175000  0.175000    288.000000
  0.325000  0.175000  0.175000    288.000000
  0.375000  0.175000  0.175000    288.000000
  0.425000  0.175000  0.175000    288.000000
  0.475000  0.175000  0.175000    288.000000
 -0.475000  0.175000  0.175000    288.000000
 -0.425000  0.175000  0.175000    288.000000
 -0.375000  0.175000  0.175000    288.000000
 -0.325000  0.175000  0.175000    288.000000
 -0.275000  0.175000  0.175000    288.000000
 -0.225000  0.175000  0.175000    288.000000
 -0.175000  0.175000  0.175000    288.000000
  0.225000  0.225000  0.175000    288.000000
  0.275000  0.225000  0.175000    576.000000
  0.325000  0.225000  0.175000    576.000000
  0.375000  0.225000  0.175000    576.000000
  0.425000  0.225000  0.175000    576.000000
  0.475000  0.225000  0.175000    576.000000
 -0.475000  0.225000  0.175000    576.000000
 -0.425000  0.225000  0.175000    576.000000
 -0.375000  0.225000  0.175000    576.000000
 -0.325000  0.225000  0.175000    576.000000
 -0.275000  0.225000  0.175000    576.000000
 -0.225000  0.225000  0.175000    576.000000
 -0.175000  0.225000  0.175000    576.000000
  0.275000  0.275000  0.175000    288.000000
  0.325000  0.275000  0.175000    576.000000
  0.375000  0.275000  0.175000    576.000000
  0.425000  0.275000  0.175000    576.000000
  0.475000  0.275000  0.175000    576.000000
 -0.475000  0.275000  0.175000    576.000000
 -0.425000  0.275000  0.175000    576.000000
 -0.375000  0.275000  0.175000    576.000000
 -0.325000  0.275000  0.175000    576.000000
 -0.275000  0.275000  0.175000    576.000000
 -0.225000  0.275000  0.175000    576.000000
 -0.175000  0.275000  0.175000    576.000000
  0.325000  0.325000  0.175000    288.000000
  0.375000  0.325000  0.175000    576.000000
  0.425000  0.325000  0.175000    576.000000
  0.475000  0.325000  0.175000    576.000000
 -0.475000  0.325000  0.175000    576.000000
 -0.425000  0.325000  0.175000    576.000000
 -0.375000  0.325000  0.175000    576.000000
 -0.325000  0.325000  0.175000    576.000000
 -0.275000  0.325000  0.175000    576.000000
 -0.225000  0.325000  0.175000    576.000000
 -0.175000  0.325000  0.175000    576.000000
  0.375000  0.375000  0.175000    288.000000
  0.425000  0.375000  0.175000    576.000000
  0.475000  0.375000  0.175000    576.000000
 -0.475000  0.375000  0.175000    576.000000
 -0.425000  0.375000  0.175000    576.000000
 -0.375000  0.375000  0.175000    576.000000
 -0.325000  0.375000  0.175000    576.000000
 -0.275000  0.375000  0.175000    576.000000
 -0.225000  0.375000  0.175000    576.000000
 -0.175000  0.375000  0.175000    576.000000
  0.425000  0.425000  0.175000    288.000000
  0.475000  0.425000  0.175000    576.000000
 -0.475000  0.425000  0.175000    576.000000
 -0.425000  0.425000  0.175000    576.000000
 -0.375000  0.425000  0.175000    576.000000
 -0.325000  0.425000  0.175000    576.000000
 -0.275000  0.425000  0.175000    576.000000
 -0.225000  0.425000  0.175000    576.000000
 -0.175000  0.425000  0.175000    576.000000
  0.475000  0.475000  0.175000    288.000000
 -0.475000  0.475000  0.175000    576.000000
 -0.425000  0.475000  0.175000    576.000000
 -0.375000  0.475000  0.175000    576.000000
 -0.325000  0.475000  0.175000    576.000000
 -0.275000  0.475000  0.175000    576.000000
 -0.225000  0.475000  0.175000    576.000000
 -0.175000  0.475000  0.175000    576.000000
 -0.475000 -0.475000  0.175000    288.000000
 -0.425000 -0.475000  0.175000    576.000000
 -0.375000 -0.475000  0.175000    576.000000
 -0.325000 -0.475000  0.175000    576.000000
 -0.275000 -0.475000  0.175000    576.000000
 -0.225000 -0.475000  0.175000    576.000000
 -0.425000 -0.425000  0.175000    288.000000
 -0.375000 -0.425000  0.175000    576.000000
 -0.325000 -0.425000  0.175000    576.000000
 -0.275000 -0.425000  0.175000    576.000000
 -0.225000 -0.425000  0.175000    576.000000
 -0.375000 -0.375000  0.175000    288.000000
 -0.325000 -0.375000  0.175000    576.000000
 -0.275000 -0.375000  0.175000    576.000000
 -0.225000 -0.375000  0.175000    576.000000
 -0.325000 -0.325000  0.175000    288.000000
 -0.275000 -0.325000  0.175000    576.000000
 -0.225000 -0.325000  0.175000    576.000000
 -0.275000 -0.275000  0.175000    288.000000
 -0.225000 -0.275000  0.175000    576.000000
 -0.225000 -0.225000  0.175000    288.000000
  0.225000  0.225000  0.225000     96.000000
  0.275000  0.225000  0.225000    288.000000
  0.325000  0.225000  0.225000    288.000000
  0.375000  0.225000  0.225000    288.000000
  0.425000  0.225000  0.225000    288.000000
  0.475000  0.225000  0.225000    288.000000
 -0.475000  0.225000  0.225000    288.000000
 -0.425000  0.225000  0.225000    288.000000
 -0.375000  0.225000  0.225000    288.000000
 -0.325000  0.225000  0.225000    288.000000
 -0.275000  0.225000  0.225000    288.000000
 -0.225000  0.225000  0.225000    288.000000
  0.275000  0.275000  0.225000    288.000000
  0.325000  0.275000  0.225000    576.000000
  0.375000  0.275000  0.225000    576.000000
  0.425000  0.275000  0.225000    576.000000
  0.475000  0.275000  0.225000    576.000000
 -0.475000  0.275000  0.225000    576.000000
 -0.425000  0.275000  0.225000    576.000000
 -0.375000  0.275000  0.225000    576.000000
 -0.325000  0.275000  0.225000    576.000000
 -0.275000  0.275000  0.225000    576.000000
 -0.225000  0.275000  0.225000    576.000000
  0.325000  0.325000  0.225000    288.000000
  0.375000  0.325000  0.225000    576.000000
  0.425000  0.325000  0.225000    576.000000
  0.475000  0.325000  0.225000    576.000000
 -0.475000  0.325000  0.225000    576.000000
 -0.425000  0.325000  0.225000    576.000000
 -0.375000  0.325000  0.225000    576.000000
 -0.325000  0.325000  0.225000    576.000000
 -0.275000  0.325000  0.225000    576.000000
 -0.225000  0.325000  0.225000    576.000000
  0.375000  0.375000  0.225000    288.000000
  0.425000  0.375000  0.225000    576.000000
  0.475000  0.375000  0.225000    576.000000
 -0.475000  0.375000  0.225000    576.000000
 -0.425000  0.375000  0.225000    576.000000
 -0.375000  0.375000  0.225000    576.000000
 -0.325000  0.375000  0.225000    576.000000
 -0.275000  0.375000  0.225000    576.000000
 -0.225000  0.375000  0.225000    576.000000
  0.425000  0.425000  0.225000    288.000000
  0.475000  0.425000  0.225000    576.000000
 -0.475000  0.425000  0.225000    576.000000
 -0.425000  0.425000  0.225000    576.000000
 -0.375000  0.425000  0.225000    576.000000
 -0.325000  0.425000  0.225000    576.000000
 -0.275000  0.425000  0.225000    576.000000
 -0.225000  0.425000  0.225000    576.000000
  0.475000  0.475000  0.225000    288.000000
 -0.475000  0.475000  0.225000    576.000000
 -0.425000  0.475000  0.225000    576.000000
 -0.375000  0.475000  0.225000    576.000000
 -0.325000  0.475000  0.225000    576.000000
 -0.275000  0.475000  0.225000    576.000000
 -0.225000  0.475000  0.225000    576.000000
 -0.475000 -0.475000  0.225000    288.000000
 -0.425000 -0.475000  0.225000    576.000000
 -0.375000 -0.475000  0.225000    576.000000
 -0.325000 -0.475000  0.225000    576.000000
 -0.275000 -0.475000  0.225000    576.000000
 -0.425000 -0.425000  0.225000    288.000000
 -0.375000 -0.425000  0.225000    576.000000
 -0.325000 -0.425000  0.225000    576.000000
 -0.275000 -0.425000  0.225000    576.000000
 -0.375000 -0.375000  0.225000    288.000000
 -0.325000 -0.375000  0.225000    576.000000
 -0.275000 -0.375000  0.225000    576.000000
 -0.325000 -0.325000  0.225000    288.000000
 -0.275000 -0.325000  0.225000    576.000000
 -0.275000 -0.275000  0.225000    288.000000
  0.275000  0.275000  0.275000     96.000000
  0.325000  0.275000  0.275000    288.000000
  0.375000  0.275000  0.275000    288.000000
  0.425000  0.275000  0.275000    288.000000
  0.475000  0.275000  0.275000    288.000000
 -0.475000  0.275000  0.275000    288.000000
 -0.425000  0.275000  0.275000    288.000000
 -0.375000  0.275000  0.275000    288.000000
 -0.325000  0.275000  0.275000    288.000000
 -0.275000  0.275000  0.275000    288.000000
  0.325000  0.325000  0.275000    288.000000
  0.375000  0.325000  0.275000    576.000000
  0.425000  0.325000  0.275000    576.000000
  0.475000  0.325000  0.275000    576.000000
 -0.475000  0.325000  0.275000    576.000000
 -0.425000  0.325000  0.275000    576.000000
 -0.375000  0.325000  0.275000    576.000000
 -0.325000  0.325000  0.275000    576.000000
 -0.275000  0.325000  0.275000    576.000000
  0.375000  0.375000  0.275000    288.000000
  0.425000  0.375000  0.275000    576.000000
  0.475000  0.375000  0.275000    576.000000
 -0.475000  0.375000  0.275000    576.000000
 -0.425000  0.375000  0.275000    576.000000
 -0.375000  0.375000  0.275000    576.000000
 -0.325000  0.375000  0.275000    576.000000
 -0.275000  0.375000  0.275000    576.000000
  0.425000  0.425000  0.275000    288.000000
  0.475000  0.425000  0.275000    576.000000
 -0.475000  0.425000  0.275000    576.000000
 -0.425000  0.425000  0.275000    576.000000
 -0.375000  0.425000  0.275000    576.000000
 -0.325000  0.425000  0.275000    576.000000
 -0.275000  0.425000  0.275000    576.000000
  0.475000  0.475000  0.275000    288.000000
 -0.475000  0.475000  0.275000    576.000000
 -0.425000  0.475000  0.275000    576.000000
 -0.375000  0.475000  0.275000    576.000000
 -0.325000  0.475000  0.275000    576.000000
 -0.275000  0.475000  0.275000    576.000000
 -0.475000 -0.475000  0.275000    288.000000
 -0.425000 -0.475000  0.275000    576.000000
 -0.375000 -0.475000  0.275000    576.000000
 -0.325000 -0.475000  0.275000    576.000000
 -0.425000 -0.425000  0.275000    288.000000
 -0.375000 -0.425000  0.275000    576.000000
 -0.325000 -0.425000  0.275000    576.000000
 -0.375000 -0.375000  0.275000    288.000000
 -0.325000 -0.375000  0.275000    576.000000
 -0.325000 -0.325000  0.275000    288.000000
  0.325000  0.325000  0.325000     96.000000
  0.375000  0.325000  0.325000    288.000000
  0.425000  0.325000  0.325000    288.000000
  0.475000  0.325000  0.325000    288.000000
 -0.475000  0.325000  0.325000    288.000000
 -0.425000  0.325000  0.325000    288.000000
 -0.375000  0.325000  0.325000    288.000000
 -0.325000  0.325000  0.325000    288.000000
  0.375000  0.375000  0.325000    288.000000
  0.425000  0.375000  0.325000    576.000000
  0.475000  0.375000  0.325000    576.000000
 -0.475000  0.375000  0.325000    576.000000
 -0.425000  0.375000  0.325000    576.000000
 -0.375000  0.375000  0.325000    576.000000
 -0.325000  0.375000  0.325000    576.000000
  0.425000  0.425000  0.325000    288.000000
  0.475000  0.425000  0.325000    576.000000
 -0.475000  0.425000  0.325000    576.000000
 -0.425000  0.425000  0.325000    576.000000
 -0.375000  0.425000  0.325000    576.000000
 -0.325000  0.425000  0.325000    576.000000
  0.475000  0.475000  0.325000    288.000000
 -0.475000  0.475000  0.325000    576.000000
 -0.425000  0.475000  0.325000    576.000000
 -0.375000  0.475000  0.325000    576.000000
 -0.325000  0.475000  0.325000    576.000000
 -0.475000 -0.475000  0.325000    288.000000
 -0.425000 -0.475000  0.325000    576.000000
 -0.375000 -0.475000  0.325000    576.000000
 -0.425000 -0.425000  0.325000    288.000000
 -0.375000 -0.425000  0.325000    576.000000
 -0.375000 -0.375000  0.325000    288.000000
  0.375000  0.375000  0.375000     96.000000
  0.425000  0.375000  0.375000    288.000000
  0.475000  0.375000  0.375000    288.000000
 -0.475000  0.375000  0.375000    288.000000
 -0.425000  0.375000  0.375000    288.000000
 -0.375000  0.375000  0.375000    288.000000
  0.425000  0.425000  0.375000    288.000000
  0.475000  0.425000  0.375000    576.000000
 -0.475000  0.425000  0.375000    576.000000
 -0.425000  0.425000  0.375000    576.000000
 -0.375000  0.425000  0.375000    576.000000
  0.475000  0.475000  0.375000    288.000000
 -0.475000  0.475000  0.375000    576.000000
 -0.425000  0.475000  0.375000    576.000000
 -0.375000  0.475000  0.375000    576.000000
 -0.475000 -0.475000  0.375000    288.000000
 -0.425000 -0.475000  0.375000    576.000000
 -0.425000 -0.425000  0.375000    288.000000
  0.425000  0.425000  0.425000     96.000000
  0.475000  0.425000  0.425000    288.000000
 -0.475000  0.425000  0.425000    288.000000
 -0.425000  0.425000  0.425000    288.000000
  0.475000  0.475000  0.425000    288.000000
 -0.475000  0.475000  0.425000    576.000000
 -0.425000  0.475000  0.425000    576.000000
 -0.475000 -0.475000  0.425000    288.000000
  0.475000  0.475000  0.475000     96.000000
 -0.475000  0.475000  0.475000    288.000000
 
 Following cartesian coordinates:
            Coordinates               Weight
  0.025000  0.025000  0.025000     96.000000
 -0.025000  0.075000  0.075000    288.000000
 -0.075000  0.125000  0.125000    288.000000
 -0.125000  0.175000  0.175000    288.000000
 -0.175000  0.225000  0.225000    288.000000
 -0.225000  0.275000  0.275000    288.000000
 -0.275000  0.325000  0.325000    288.000000
 -0.325000  0.375000  0.375000    288.000000
 -0.375000  0.425000  0.425000    288.000000
 -0.425000  0.475000  0.475000    288.000000
  0.525000 -0.475000 -0.475000    288.000000
  0.475000 -0.425000 -0.425000    288.000000
  0.425000 -0.375000 -0.375000    288.000000
  0.375000 -0.325000 -0.325000    288.000000
  0.325000 -0.275000 -0.275000    288.000000
  0.275000 -0.225000 -0.225000    288.000000
  0.225000 -0.175000 -0.175000    288.000000
  0.175000 -0.125000 -0.125000    288.000000
  0.125000 -0.075000 -0.075000    288.000000
  0.075000 -0.025000 -0.025000    288.000000
  0.025000  0.025000  0.125000    288.000000
 -0.025000  0.075000  0.175000    576.000000
 -0.075000  0.125000  0.225000    576.000000
 -0.125000  0.175000  0.275000    576.000000
 -0.175000  0.225000  0.325000    576.000000
 -0.225000  0.275000  0.375000    576.000000
 -0.275000  0.325000  0.425000    576.000000
 -0.325000  0.375000  0.475000    576.000000
 -0.375000  0.425000  0.525000    576.000000
  0.575000 -0.525000 -0.425000    576.000000
  0.525000 -0.475000 -0.375000    576.000000
  0.475000 -0.425000 -0.325000    576.000000
  0.425000 -0.375000 -0.275000    576.000000
  0.375000 -0.325000 -0.225000    576.000000
  0.325000 -0.275000 -0.175000    576.000000
  0.275000 -0.225000 -0.125000    576.000000
  0.225000 -0.175000 -0.075000    576.000000
  0.175000 -0.125000 -0.025000    576.000000
  0.125000 -0.075000  0.025000    576.000000
  0.025000  0.025000  0.225000    288.000000
 -0.025000  0.075000  0.275000    576.000000
 -0.075000  0.125000  0.325000    576.000000
 -0.125000  0.175000  0.375000    576.000000
 -0.175000  0.225000  0.425000    576.000000
 -0.225000  0.275000  0.475000    576.000000
 -0.275000  0.325000  0.525000    576.000000
 -0.325000  0.375000  0.575000    576.000000
  0.625000 -0.575000 -0.375000    576.000000
  0.575000 -0.525000 -0.325000    576.000000
  0.525000 -0.475000 -0.275000    576.000000
  0.475000 -0.425000 -0.225000    576.000000
  0.425000 -0.375000 -0.175000    576.000000
  0.375000 -0.325000 -0.125000    576.000000
  0.325000 -0.275000 -0.075000    576.000000
  0.275000 -0.225000 -0.025000    576.000000
  0.225000 -0.175000  0.025000    576.000000
  0.175000 -0.125000  0.075000    576.000000
  0.025000  0.025000  0.325000    288.000000
 -0.025000  0.075000  0.375000    576.000000
 -0.075000  0.125000  0.425000    576.000000
 -0.125000  0.175000  0.475000    576.000000
 -0.175000  0.225000  0.525000    576.000000
 -0.225000  0.275000  0.575000    576.000000
 -0.275000  0.325000  0.625000    576.000000
  0.675000 -0.625000 -0.325000    576.000000
  0.625000 -0.575000 -0.275000    576.000000
  0.575000 -0.525000 -0.225000    576.000000
  0.525000 -0.475000 -0.175000    576.000000
  0.475000 -0.425000 -0.125000    576.000000
  0.425000 -0.375000 -0.075000    576.000000
  0.375000 -0.325000 -0.025000    576.000000
  0.325000 -0.275000  0.025000    576.000000
  0.275000 -0.225000  0.075000    576.000000
  0.225000 -0.175000  0.125000    576.000000
  0.025000  0.025000  0.425000    288.000000
 -0.025000  0.075000  0.475000    576.000000
 -0.075000  0.125000  0.525000    576.000000
 -0.125000  0.175000  0.575000    576.000000
 -0.175000  0.225000  0.625000    576.000000
 -0.225000  0.275000  0.675000    576.000000
  0.725000 -0.675000 -0.275000    576.000000
  0.675000 -0.625000 -0.225000    576.000000
  0.625000 -0.575000 -0.175000    576.000000
  0.575000 -0.525000 -0.125000    576.000000
  0.525000 -0.475000 -0.075000    576.000000
  0.475000 -0.425000 -0.025000    576.000000
  0.425000 -0.375000  0.025000    576.000000
  0.375000 -0.325000  0.075000    576.000000
  0.325000 -0.275000  0.125000    576.000000
  0.275000 -0.225000  0.175000    576.000000
  0.025000  0.025000  0.525000    288.000000
 -0.025000  0.075000  0.575000    576.000000
 -0.075000  0.125000  0.625000    576.000000
 -0.125000  0.175000  0.675000    576.000000
 -0.175000  0.225000  0.725000    576.000000
  0.775000 -0.725000 -0.225000    576.000000
  0.725000 -0.675000 -0.175000    576.000000
  0.675000 -0.625000 -0.125000    576.000000
  0.625000 -0.575000 -0.075000    576.000000
  0.575000 -0.525000 -0.025000    576.000000
  0.525000 -0.475000  0.025000    576.000000
  0.475000 -0.425000  0.075000    576.000000
  0.425000 -0.375000  0.125000    576.000000
  0.375000 -0.325000  0.175000    576.000000
  0.325000 -0.275000  0.225000    576.000000
  0.025000  0.025000  0.625000    288.000000
 -0.025000  0.075000  0.675000    576.000000
 -0.075000  0.125000  0.725000    576.000000
 -0.125000  0.175000  0.775000    576.000000
  0.825000 -0.775000 -0.175000    576.000000
  0.775000 -0.725000 -0.125000    576.000000
  0.725000 -0.675000 -0.075000    576.000000
  0.675000 -0.625000 -0.025000    576.000000
  0.625000 -0.575000  0.025000    576.000000
  0.575000 -0.525000  0.075000    576.000000
  0.525000 -0.475000  0.125000    576.000000
  0.475000 -0.425000  0.175000    576.000000
  0.425000 -0.375000  0.225000    576.000000
  0.375000 -0.325000  0.275000    576.000000
  0.025000  0.025000  0.725000    288.000000
 -0.025000  0.075000  0.775000    576.000000
 -0.075000  0.125000  0.825000    576.000000
  0.875000 -0.825000 -0.125000    576.000000
  0.825000 -0.775000 -0.075000    576.000000
  0.775000 -0.725000 -0.025000    576.000000
  0.725000 -0.675000  0.025000    576.000000
  0.675000 -0.625000  0.075000    576.000000
  0.625000 -0.575000  0.125000    576.000000
  0.575000 -0.525000  0.175000    576.000000
  0.525000 -0.475000  0.225000    576.000000
  0.475000 -0.425000  0.275000    576.000000
  0.425000 -0.375000  0.325000    576.000000
  0.025000  0.025000  0.825000    288.000000
 -0.025000  0.075000  0.875000    576.000000
  0.925000 -0.875000 -0.075000    576.000000
  0.875000 -0.825000 -0.025000    576.000000
  0.825000 -0.775000  0.025000    576.000000
  0.775000 -0.725000  0.075000    576.000000
  0.725000 -0.675000  0.125000    576.000000
  0.675000 -0.625000  0.175000    576.000000
  0.625000 -0.575000  0.225000    576.000000
  0.575000 -0.525000  0.275000    576.000000
  0.525000 -0.475000  0.325000    576.000000
  0.475000 -0.425000  0.375000    576.000000
  0.025000  0.025000  0.925000    288.000000
  0.975000 -0.925000 -0.025000    576.000000
  0.925000 -0.875000  0.025000    576.000000
  0.875000 -0.825000  0.075000    576.000000
  0.825000 -0.775000  0.125000    576.000000
  0.775000 -0.725000  0.175000    576.000000
  0.725000 -0.675000  0.225000    576.000000
  0.675000 -0.625000  0.275000    576.000000
  0.625000 -0.575000  0.325000    576.000000
  0.575000 -0.525000  0.375000    576.000000
  0.525000 -0.475000  0.425000    576.000000
  0.025000  0.025000 -0.975000    288.000000
 -0.025000  0.075000 -0.925000    576.000000
 -0.075000  0.125000 -0.875000    576.000000
 -0.125000  0.175000 -0.825000    576.000000
 -0.175000  0.225000 -0.775000    576.000000
 -0.225000  0.275000 -0.725000    576.000000
 -0.275000  0.325000 -0.675000    576.000000
 -0.325000  0.375000 -0.625000    576.000000
 -0.375000  0.425000 -0.575000    576.000000
  0.025000  0.025000 -0.875000    288.000000
 -0.025000  0.075000 -0.825000    576.000000
 -0.075000  0.125000 -0.775000    576.000000
 -0.125000  0.175000 -0.725000    576.000000
 -0.175000  0.225000 -0.675000    576.000000
 -0.225000  0.275000 -0.625000    576.000000
 -0.275000  0.325000 -0.575000    576.000000
 -0.325000  0.375000 -0.525000    576.000000
  0.025000  0.025000 -0.775000    288.000000
 -0.025000  0.075000 -0.725000    576.000000
 -0.075000  0.125000 -0.675000    576.000000
 -0.125000  0.175000 -0.625000    576.000000
 -0.175000  0.225000 -0.575000    576.000000
 -0.225000  0.275000 -0.525000    576.000000
 -0.275000  0.325000 -0.475000    576.000000
  0.025000  0.025000 -0.675000    288.000000
 -0.025000  0.075000 -0.625000    576.000000
 -0.075000  0.125000 -0.575000    576.000000
 -0.125000  0.175000 -0.525000    576.000000
 -0.175000  0.225000 -0.475000    576.000000
 -0.225000  0.275000 -0.425000    576.000000
  0.025000  0.025000 -0.575000    288.000000
 -0.025000  0.075000 -0.525000    576.000000
 -0.075000  0.125000 -0.475000    576.000000
 -0.125000  0.175000 -0.425000    576.000000
 -0.175000  0.225000 -0.375000    576.000000
  0.025000  0.025000 -0.475000    288.000000
 -0.025000  0.075000 -0.425000    576.000000
 -0.075000  0.125000 -0.375000    576.000000
 -0.125000  0.175000 -0.325000    576.000000
  0.025000  0.025000 -0.375000    288.000000
 -0.025000  0.075000 -0.325000    576.000000
 -0.075000  0.125000 -0.275000    576.000000
  0.025000  0.025000 -0.275000    288.000000
 -0.025000  0.075000 -0.225000    576.000000
  0.025000  0.025000 -0.175000    288.000000
  0.075000  0.075000  0.075000     96.000000
  0.025000  0.125000  0.125000    288.000000
 -0.025000  0.175000  0.175000    288.000000
 -0.075000  0.225000  0.225000    288.000000
 -0.125000  0.275000  0.275000    288.000000
 -0.175000  0.325000  0.325000    288.000000
 -0.225000  0.375000  0.375000    288.000000
 -0.275000  0.425000  0.425000    288.000000
 -0.325000  0.475000  0.475000    288.000000
  0.625000 -0.475000 -0.475000    288.000000
  0.575000 -0.425000 -0.425000    288.000000
  0.525000 -0.375000 -0.375000    288.000000
  0.475000 -0.325000 -0.325000    288.000000
  0.425000 -0.275000 -0.275000    288.000000
  0.375000 -0.225000 -0.225000    288.000000
  0.325000 -0.175000 -0.175000    288.000000
  0.275000 -0.125000 -0.125000    288.000000
  0.225000 -0.075000 -0.075000    288.000000
  0.075000  0.075000  0.175000    288.000000
  0.025000  0.125000  0.225000    576.000000
 -0.025000  0.175000  0.275000    576.000000
 -0.075000  0.225000  0.325000    576.000000
 -0.125000  0.275000  0.375000    576.000000
 -0.175000  0.325000  0.425000    576.000000
 -0.225000  0.375000  0.475000    576.000000
 -0.275000  0.425000  0.525000    576.000000
  0.675000 -0.525000 -0.425000    576.000000
  0.625000 -0.475000 -0.375000    576.000000
  0.575000 -0.425000 -0.325000    576.000000
  0.525000 -0.375000 -0.275000    576.000000
  0.475000 -0.325000 -0.225000    576.000000
  0.425000 -0.275000 -0.175000    576.000000
  0.375000 -0.225000 -0.125000    576.000000
  0.325000 -0.175000 -0.075000    576.000000
  0.275000 -0.125000 -0.025000    576.000000
  0.075000  0.075000  0.275000    288.000000
  0.025000  0.125000  0.325000    576.000000
 -0.025000  0.175000  0.375000    576.000000
 -0.075000  0.225000  0.425000    576.000000
 -0.125000  0.275000  0.475000    576.000000
 -0.175000  0.325000  0.525000    576.000000
 -0.225000  0.375000  0.575000    576.000000
  0.725000 -0.575000 -0.375000    576.000000
  0.675000 -0.525000 -0.325000    576.000000
  0.625000 -0.475000 -0.275000    576.000000
  0.575000 -0.425000 -0.225000    576.000000
  0.525000 -0.375000 -0.175000    576.000000
  0.475000 -0.325000 -0.125000    576.000000
  0.425000 -0.275000 -0.075000    576.000000
  0.375000 -0.225000 -0.025000    576.000000
  0.325000 -0.175000  0.025000    576.000000
  0.075000  0.075000  0.375000    288.000000
  0.025000  0.125000  0.425000    576.000000
 -0.025000  0.175000  0.475000    576.000000
 -0.075000  0.225000  0.525000    576.000000
 -0.125000  0.275000  0.575000    576.000000
 -0.175000  0.325000  0.625000    576.000000
  0.775000 -0.625000 -0.325000    576.000000
  0.725000 -0.575000 -0.275000    576.000000
  0.675000 -0.525000 -0.225000    576.000000
  0.625000 -0.475000 -0.175000    576.000000
  0.575000 -0.425000 -0.125000    576.000000
  0.525000 -0.375000 -0.075000    576.000000
  0.475000 -0.325000 -0.025000    576.000000
  0.425000 -0.275000  0.025000    576.000000
  0.375000 -0.225000  0.075000    576.000000
  0.075000  0.075000  0.475000    288.000000
  0.025000  0.125000  0.525000    576.000000
 -0.025000  0.175000  0.575000    576.000000
 -0.075000  0.225000  0.625000    576.000000
 -0.125000  0.275000  0.675000    576.000000
  0.825000 -0.675000 -0.275000    576.000000
  0.775000 -0.625000 -0.225000    576.000000
  0.725000 -0.575000 -0.175000    576.000000
  0.675000 -0.525000 -0.125000    576.000000
  0.625000 -0.475000 -0.075000    576.000000
  0.575000 -0.425000 -0.025000    576.000000
  0.525000 -0.375000  0.025000    576.000000
  0.475000 -0.325000  0.075000    576.000000
  0.425000 -0.275000  0.125000    576.000000
  0.075000  0.075000  0.575000    288.000000
  0.025000  0.125000  0.625000    576.000000
 -0.025000  0.175000  0.675000    576.000000
 -0.075000  0.225000  0.725000    576.000000
  0.875000 -0.725000 -0.225000    576.000000
  0.825000 -0.675000 -0.175000    576.000000
  0.775000 -0.625000 -0.125000    576.000000
  0.725000 -0.575000 -0.075000    576.000000
  0.675000 -0.525000 -0.025000    576.000000
  0.625000 -0.475000  0.025000    576.000000
  0.575000 -0.425000  0.075000    576.000000
  0.525000 -0.375000  0.125000    576.000000
  0.475000 -0.325000  0.175000    576.000000
  0.075000  0.075000  0.675000    288.000000
  0.025000  0.125000  0.725000    576.000000
 -0.025000  0.175000  0.775000    576.000000
  0.925000 -0.775000 -0.175000    576.000000
  0.875000 -0.725000 -0.125000    576.000000
  0.825000 -0.675000 -0.075000    576.000000
  0.775000 -0.625000 -0.025000    576.000000
  0.725000 -0.575000  0.025000    576.000000
  0.675000 -0.525000  0.075000    576.000000
  0.625000 -0.475000  0.125000    576.000000
  0.575000 -0.425000  0.175000    576.000000
  0.525000 -0.375000  0.225000    576.000000
  0.075000  0.075000  0.775000    288.000000
  0.025000  0.125000  0.825000    576.000000
  0.975000 -0.825000 -0.125000    576.000000
  0.925000 -0.775000 -0.075000    576.000000
  0.875000 -0.725000 -0.025000    576.000000
  0.825000 -0.675000  0.025000    576.000000
  0.775000 -0.625000  0.075000    576.000000
  0.725000 -0.575000  0.125000    576.000000
  0.675000 -0.525000  0.175000    576.000000
  0.625000 -0.475000  0.225000    576.000000
  0.575000 -0.425000  0.275000    576.000000
  0.075000  0.075000  0.875000    288.000000
  1.025000 -0.875000 -0.075000    576.000000
  0.975000 -0.825000 -0.025000    576.000000
  0.925000 -0.775000  0.025000    576.000000
  0.875000 -0.725000  0.075000    576.000000
  0.825000 -0.675000  0.125000    576.000000
  0.775000 -0.625000  0.175000    576.000000
  0.725000 -0.575000  0.225000    576.000000
  0.675000 -0.525000  0.275000    576.000000
  0.625000 -0.475000  0.325000    576.000000
  0.075000  0.075000 -1.025000    288.000000
  0.025000  0.125000 -0.975000    576.000000
 -0.025000  0.175000 -0.925000    576.000000
 -0.075000  0.225000 -0.875000    576.000000
 -0.125000  0.275000 -0.825000    576.000000
 -0.175000  0.325000 -0.775000    576.000000
 -0.225000  0.375000 -0.725000    576.000000
 -0.275000  0.425000 -0.675000    576.000000
  0.075000  0.075000 -0.925000    288.000000
  0.025000  0.125000 -0.875000    576.000000
 -0.025000  0.175000 -0.825000    576.000000
 -0.075000  0.225000 -0.775000    576.000000
 -0.125000  0.275000 -0.725000    576.000000
 -0.175000  0.325000 -0.675000    576.000000
 -0.225000  0.375000 -0.625000    576.000000
  0.075000  0.075000 -0.825000    288.000000
  0.025000  0.125000 -0.775000    576.000000
 -0.025000  0.175000 -0.725000    576.000000
 -0.075000  0.225000 -0.675000    576.000000
 -0.125000  0.275000 -0.625000    576.000000
 -0.175000  0.325000 -0.575000    576.000000
  0.075000  0.075000 -0.725000    288.000000
  0.025000  0.125000 -0.675000    576.000000
 -0.025000  0.175000 -0.625000    576.000000
 -0.075000  0.225000 -0.575000    576.000000
 -0.125000  0.275000 -0.525000    576.000000
  0.075000  0.075000 -0.625000    288.000000
  0.025000  0.125000 -0.575000    576.000000
 -0.025000  0.175000 -0.525000    576.000000
 -0.075000  0.225000 -0.475000    576.000000
  0.075000  0.075000 -0.525000    288.000000
  0.025000  0.125000 -0.475000    576.000000
 -0.025000  0.175000 -0.425000    576.000000
  0.075000  0.075000 -0.425000    288.000000
  0.025000  0.125000 -0.375000    576.000000
  0.075000  0.075000 -0.325000    288.000000
  0.125000  0.125000  0.125000     96.000000
  0.075000  0.175000  0.175000    288.000000
  0.025000  0.225000  0.225000    288.000000
 -0.025000  0.275000  0.275000    288.000000
 -0.075000  0.325000  0.325000    288.000000
 -0.125000  0.375000  0.375000    288.000000
 -0.175000  0.425000  0.425000    288.000000
 -0.225000  0.475000  0.475000    288.000000
  0.725000 -0.475000 -0.475000    288.000000
  0.675000 -0.425000 -0.425000    288.000000
  0.625000 -0.375000 -0.375000    288.000000
  0.575000 -0.325000 -0.325000    288.000000
  0.525000 -0.275000 -0.275000    288.000000
  0.475000 -0.225000 -0.225000    288.000000
  0.425000 -0.175000 -0.175000    288.000000
  0.375000 -0.125000 -0.125000    288.000000
  0.125000  0.125000  0.225000    288.000000
  0.075000  0.175000  0.275000    576.000000
  0.025000  0.225000  0.325000    576.000000
 -0.025000  0.275000  0.375000    576.000000
 -0.075000  0.325000  0.425000    576.000000
 -0.125000  0.375000  0.475000    576.000000
 -0.175000  0.425000  0.525000    576.000000
  0.775000 -0.525000 -0.425000    576.000000
  0.725000 -0.475000 -0.375000    576.000000
  0.675000 -0.425000 -0.325000    576.000000
  0.625000 -0.375000 -0.275000    576.000000
  0.575000 -0.325000 -0.225000    576.000000
  0.525000 -0.275000 -0.175000    576.000000
  0.475000 -0.225000 -0.125000    576.000000
  0.425000 -0.175000 -0.075000    576.000000
  0.125000  0.125000  0.325000    288.000000
  0.075000  0.175000  0.375000    576.000000
  0.025000  0.225000  0.425000    576.000000
 -0.025000  0.275000  0.475000    576.000000
 -0.075000  0.325000  0.525000    576.000000
 -0.125000  0.375000  0.575000    576.000000
  0.825000 -0.575000 -0.375000    576.000000
  0.775000 -0.525000 -0.325000    576.000000
  0.725000 -0.475000 -0.275000    576.000000
  0.675000 -0.425000 -0.225000    576.000000
  0.625000 -0.375000 -0.175000    576.000000
  0.575000 -0.325000 -0.125000    576.000000
  0.525000 -0.275000 -0.075000    576.000000
  0.475000 -0.225000 -0.025000    576.000000
  0.125000  0.125000  0.425000    288.000000
  0.075000  0.175000  0.475000    576.000000
  0.025000  0.225000  0.525000    576.000000
 -0.025000  0.275000  0.575000    576.000000
 -0.075000  0.325000  0.625000    576.000000
  0.875000 -0.625000 -0.325000    576.000000
  0.825000 -0.575000 -0.275000    576.000000
  0.775000 -0.525000 -0.225000    576.000000
  0.725000 -0.475000 -0.175000    576.000000
  0.675000 -0.425000 -0.125000    576.000000
  0.625000 -0.375000 -0.075000    576.000000
  0.575000 -0.325000 -0.025000    576.000000
  0.525000 -0.275000  0.025000    576.000000
  0.125000  0.125000  0.525000    288.000000
  0.075000  0.175000  0.575000    576.000000
  0.025000  0.225000  0.625000    576.000000
 -0.025000  0.275000  0.675000    576.000000
  0.925000 -0.675000 -0.275000    576.000000
  0.875000 -0.625000 -0.225000    576.000000
  0.825000 -0.575000 -0.175000    576.000000
  0.775000 -0.525000 -0.125000    576.000000
  0.725000 -0.475000 -0.075000    576.000000
  0.675000 -0.425000 -0.025000    576.000000
  0.625000 -0.375000  0.025000    576.000000
  0.575000 -0.325000  0.075000    576.000000
  0.125000  0.125000  0.625000    288.000000
  0.075000  0.175000  0.675000    576.000000
  0.025000  0.225000  0.725000    576.000000
  0.975000 -0.725000 -0.225000    576.000000
  0.925000 -0.675000 -0.175000    576.000000
  0.875000 -0.625000 -0.125000    576.000000
  0.825000 -0.575000 -0.075000    576.000000
  0.775000 -0.525000 -0.025000    576.000000
  0.725000 -0.475000  0.025000    576.000000
  0.675000 -0.425000  0.075000    576.000000
  0.625000 -0.375000  0.125000    576.000000
  0.125000  0.125000  0.725000    288.000000
  0.075000  0.175000  0.775000    576.000000
  1.025000 -0.775000 -0.175000    576.000000
  0.975000 -0.725000 -0.125000    576.000000
  0.925000 -0.675000 -0.075000    576.000000
  0.875000 -0.625000 -0.025000    576.000000
  0.825000 -0.575000  0.025000    576.000000
  0.775000 -0.525000  0.075000    576.000000
  0.725000 -0.475000  0.125000    576.000000
  0.675000 -0.425000  0.175000    576.000000
  0.125000  0.125000  0.825000    288.000000
  1.075000 -0.825000 -0.125000    576.000000
  1.025000 -0.775000 -0.075000    576.000000
  0.975000 -0.725000 -0.025000    576.000000
  0.925000 -0.675000  0.025000    576.000000
  0.875000 -0.625000  0.075000    576.000000
  0.825000 -0.575000  0.125000    576.000000
  0.775000 -0.525000  0.175000    576.000000
  0.725000 -0.475000  0.225000    576.000000
  0.125000  0.125000 -1.075000    288.000000
  0.075000  0.175000 -1.025000    576.000000
  0.025000  0.225000 -0.975000    576.000000
 -0.025000  0.275000 -0.925000    576.000000
 -0.075000  0.325000 -0.875000    576.000000
 -0.125000  0.375000 -0.825000    576.000000
 -0.175000  0.425000 -0.775000    576.000000
  0.125000  0.125000 -0.975000    288.000000
  0.075000  0.175000 -0.925000    576.000000
  0.025000  0.225000 -0.875000    576.000000
 -0.025000  0.275000 -0.825000    576.000000
 -0.075000  0.325000 -0.775000    576.000000
 -0.125000  0.375000 -0.725000    576.000000
  0.125000  0.125000 -0.875000    288.000000
  0.075000  0.175000 -0.825000    576.000000
  0.025000  0.225000 -0.775000    576.000000
 -0.025000  0.275000 -0.725000    576.000000
 -0.075000  0.325000 -0.675000    576.000000
  0.125000  0.125000 -0.775000    288.000000
  0.075000  0.175000 -0.725000    576.000000
  0.025000  0.225000 -0.675000    576.000000
 -0.025000  0.275000 -0.625000    576.000000
  0.125000  0.125000 -0.675000    288.000000
  0.075000  0.175000 -0.625000    576.000000
  0.025000  0.225000 -0.575000    576.000000
  0.125000  0.125000 -0.575000    288.000000
  0.075000  0.175000 -0.525000    576.000000
  0.125000  0.125000 -0.475000    288.000000
  0.175000  0.175000  0.175000     96.000000
  0.125000  0.225000  0.225000    288.000000
  0.075000  0.275000  0.275000    288.000000
  0.025000  0.325000  0.325000    288.000000
 -0.025000  0.375000  0.375000    288.000000
 -0.075000  0.425000  0.425000    288.000000
 -0.125000  0.475000  0.475000    288.000000
  0.825000 -0.475000 -0.475000    288.000000
  0.775000 -0.425000 -0.425000    288.000000
  0.725000 -0.375000 -0.375000    288.000000
  0.675000 -0.325000 -0.325000    288.000000
  0.625000 -0.275000 -0.275000    288.000000
  0.575000 -0.225000 -0.225000    288.000000
  0.525000 -0.175000 -0.175000    288.000000
  0.175000  0.175000  0.275000    288.000000
  0.125000  0.225000  0.325000    576.000000
  0.075000  0.275000  0.375000    576.000000
  0.025000  0.325000  0.425000    576.000000
 -0.025000  0.375000  0.475000    576.000000
 -0.075000  0.425000  0.525000    576.000000
  0.875000 -0.525000 -0.425000    576.000000
  0.825000 -0.475000 -0.375000    576.000000
  0.775000 -0.425000 -0.325000    576.000000
  0.725000 -0.375000 -0.275000    576.000000
  0.675000 -0.325000 -0.225000    576.000000
  0.625000 -0.275000 -0.175000    576.000000
  0.575000 -0.225000 -0.125000    576.000000
  0.175000  0.175000  0.375000    288.000000
  0.125000  0.225000  0.425000    576.000000
  0.075000  0.275000  0.475000    576.000000
  0.025000  0.325000  0.525000    576.000000
 -0.025000  0.375000  0.575000    576.000000
  0.925000 -0.575000 -0.375000    576.000000
  0.875000 -0.525000 -0.325000    576.000000
  0.825000 -0.475000 -0.275000    576.000000
  0.775000 -0.425000 -0.225000    576.000000
  0.725000 -0.375000 -0.175000    576.000000
  0.675000 -0.325000 -0.125000    576.000000
  0.625000 -0.275000 -0.075000    576.000000
  0.175000  0.175000  0.475000    288.000000
  0.125000  0.225000  0.525000    576.000000
  0.075000  0.275000  0.575000    576.000000
  0.025000  0.325000  0.625000    576.000000
  0.975000 -0.625000 -0.325000    576.000000
  0.925000 -0.575000 -0.275000    576.000000
  0.875000 -0.525000 -0.225000    576.000000
  0.825000 -0.475000 -0.175000    576.000000
  0.775000 -0.425000 -0.125000    576.000000
  0.725000 -0.375000 -0.075000    576.000000
  0.675000 -0.325000 -0.025000    576.000000
  0.175000  0.175000  0.575000    288.000000
  0.125000  0.225000  0.625000    576.000000
  0.075000  0.275000  0.675000    576.000000
  1.025000 -0.675000 -0.275000    576.000000
  0.975000 -0.625000 -0.225000    576.000000
  0.925000 -0.575000 -0.175000    576.000000
  0.875000 -0.525000 -0.125000    576.000000
  0.825000 -0.475000 -0.075000    576.000000
  0.775000 -0.425000 -0.025000    576.000000
  0.725000 -0.375000  0.025000    576.000000
  0.175000  0.175000  0.675000    288.000000
  0.125000  0.225000  0.725000    576.000000
  1.075000 -0.725000 -0.225000    576.000000
  1.025000 -0.675000 -0.175000    576.000000
  0.975000 -0.625000 -0.125000    576.000000
  0.925000 -0.575000 -0.075000    576.000000
  0.875000 -0.525000 -0.025000    576.000000
  0.825000 -0.475000  0.025000    576.000000
  0.775000 -0.425000  0.075000    576.000000
  0.175000  0.175000  0.775000    288.000000
  1.125000 -0.775000 -0.175000    576.000000
  1.075000 -0.725000 -0.125000    576.000000
  1.025000 -0.675000 -0.075000    576.000000
  0.975000 -0.625000 -0.025000    576.000000
  0.925000 -0.575000  0.025000    576.000000
  0.875000 -0.525000  0.075000    576.000000
  0.825000 -0.475000  0.125000    576.000000
  0.175000  0.175000 -1.125000    288.000000
  0.125000  0.225000 -1.075000    576.000000
  0.075000  0.275000 -1.025000    576.000000
  0.025000  0.325000 -0.975000    576.000000
 -0.025000  0.375000 -0.925000    576.000000
 -0.075000  0.425000 -0.875000    576.000000
  0.175000  0.175000 -1.025000    288.000000
  0.125000  0.225000 -0.975000    576.000000
  0.075000  0.275000 -0.925000    576.000000
  0.025000  0.325000 -0.875000    576.000000
 -0.025000  0.375000 -0.825000    576.000000
  0.175000  0.175000 -0.925000    288.000000
  0.125000  0.225000 -0.875000    576.000000
  0.075000  0.275000 -0.825000    576.000000
  0.025000  0.325000 -0.775000    576.000000
  0.175000  0.175000 -0.825000    288.000000
  0.125000  0.225000 -0.775000    576.000000
  0.075000  0.275000 -0.725000    576.000000
  0.175000  0.175000 -0.725000    288.000000
  0.125000  0.225000 -0.675000    576.000000
  0.175000  0.175000 -0.625000    288.000000
  0.225000  0.225000  0.225000     96.000000
  0.175000  0.275000  0.275000    288.000000
  0.125000  0.325000  0.325000    288.000000
  0.075000  0.375000  0.375000    288.000000
  0.025000  0.425000  0.425000    288.000000
 -0.025000  0.475000  0.475000    288.000000
  0.925000 -0.475000 -0.475000    288.000000
  0.875000 -0.425000 -0.425000    288.000000
  0.825000 -0.375000 -0.375000    288.000000
  0.775000 -0.325000 -0.325000    288.000000
  0.725000 -0.275000 -0.275000    288.000000
  0.675000 -0.225000 -0.225000    288.000000
  0.225000  0.225000  0.325000    288.000000
  0.175000  0.275000  0.375000    576.000000
  0.125000  0.325000  0.425000    576.000000
  0.075000  0.375000  0.475000    576.000000
  0.025000  0.425000  0.525000    576.000000
  0.975000 -0.525000 -0.425000    576.000000
  0.925000 -0.475000 -0.375000    576.000000
  0.875000 -0.425000 -0.325000    576.000000
  0.825000 -0.375000 -0.275000    576.000000
  0.775000 -0.325000 -0.225000    576.000000
  0.725000 -0.275000 -0.175000    576.000000
  0.225000  0.225000  0.425000    288.000000
  0.175000  0.275000  0.475000    576.000000
  0.125000  0.325000  0.525000    576.000000
  0.075000  0.375000  0.575000    576.000000
  1.025000 -0.575000 -0.375000    576.000000
  0.975000 -0.525000 -0.325000    576.000000
  0.925000 -0.475000 -0.275000    576.000000
  0.875000 -0.425000 -0.225000    576.000000
  0.825000 -0.375000 -0.175000    576.000000
  0.775000 -0.325000 -0.125000    576.000000
  0.225000  0.225000  0.525000    288.000000
  0.175000  0.275000  0.575000    576.000000
  0.125000  0.325000  0.625000    576.000000
  1.075000 -0.625000 -0.325000    576.000000
  1.025000 -0.575000 -0.275000    576.000000
  0.975000 -0.525000 -0.225000    576.000000
  0.925000 -0.475000 -0.175000    576.000000
  0.875000 -0.425000 -0.125000    576.000000
  0.825000 -0.375000 -0.075000    576.000000
  0.225000  0.225000  0.625000    288.000000
  0.175000  0.275000  0.675000    576.000000
  1.125000 -0.675000 -0.275000    576.000000
  1.075000 -0.625000 -0.225000    576.000000
  1.025000 -0.575000 -0.175000    576.000000
  0.975000 -0.525000 -0.125000    576.000000
  0.925000 -0.475000 -0.075000    576.000000
  0.875000 -0.425000 -0.025000    576.000000
  0.225000  0.225000  0.725000    288.000000
  1.175000 -0.725000 -0.225000    576.000000
  1.125000 -0.675000 -0.175000    576.000000
  1.075000 -0.625000 -0.125000    576.000000
  1.025000 -0.575000 -0.075000    576.000000
  0.975000 -0.525000 -0.025000    576.000000
  0.925000 -0.475000  0.025000    576.000000
  0.225000  0.225000 -1.175000    288.000000
  0.175000  0.275000 -1.125000    576.000000
  0.125000  0.325000 -1.075000    576.000000
  0.075000  0.375000 -1.025000    576.000000
  0.025000  0.425000 -0.975000    576.000000
  0.225000  0.225000 -1.075000    288.000000
  0.175000  0.275000 -1.025000    576.000000
  0.125000  0.325000 -0.975000    576.000000
  0.075000  0.375000 -0.925000    576.000000
  0.225000  0.225000 -0.975000    288.000000
  0.175000  0.275000 -0.925000    576.000000
  0.125000  0.325000 -0.875000    576.000000
  0.225000  0.225000 -0.875000    288.000000
  0.175000  0.275000 -0.825000    576.000000
  0.225000  0.225000 -0.775000    288.000000
  0.275000  0.275000  0.275000     96.000000
  0.225000  0.325000  0.325000    288.000000
  0.175000  0.375000  0.375000    288.000000
  0.125000  0.425000  0.425000    288.000000
  0.075000  0.475000  0.475000    288.000000
  1.025000 -0.475000 -0.475000    288.000000
  0.975000 -0.425000 -0.425000    288.000000
  0.925000 -0.375000 -0.375000    288.000000
  0.875000 -0.325000 -0.325000    288.000000
  0.825000 -0.275000 -0.275000    288.000000
  0.275000  0.275000  0.375000    288.000000
  0.225000  0.325000  0.425000    576.000000
  0.175000  0.375000  0.475000    576.000000
  0.125000  0.425000  0.525000    576.000000
  1.075000 -0.525000 -0.425000    576.000000
  1.025000 -0.475000 -0.375000    576.000000
  0.975000 -0.425000 -0.325000    576.000000
  0.925000 -0.375000 -0.275000    576.000000
  0.875000 -0.325000 -0.225000    576.000000
  0.275000  0.275000  0.475000    288.000000
  0.225000  0.325000  0.525000    576.000000
  0.175000  0.375000  0.575000    576.000000
  1.125000 -0.575000 -0.375000    576.000000
  1.075000 -0.525000 -0.325000    576.000000
  1.025000 -0.475000 -0.275000    576.000000
  0.975000 -0.425000 -0.225000    576.000000
  0.925000 -0.375000 -0.175000    576.000000
  0.275000  0.275000  0.575000    288.000000
  0.225000  0.325000  0.625000    576.000000
  1.175000 -0.625000 -0.325000    576.000000
  1.125000 -0.575000 -0.275000    576.000000
  1.075000 -0.525000 -0.225000    576.000000
  1.025000 -0.475000 -0.175000    576.000000
  0.975000 -0.425000 -0.125000    576.000000
  0.275000  0.275000  0.675000    288.000000
  1.225000 -0.675000 -0.275000    576.000000
  1.175000 -0.625000 -0.225000    576.000000
  1.125000 -0.575000 -0.175000    576.000000
  1.075000 -0.525000 -0.125000    576.000000
  1.025000 -0.475000 -0.075000    576.000000
  0.275000  0.275000 -1.225000    288.000000
  0.225000  0.325000 -1.175000    576.000000
  0.175000  0.375000 -1.125000    576.000000
  0.125000  0.425000 -1.075000    576.000000
  0.275000  0.275000 -1.125000    288.000000
  0.225000  0.325000 -1.075000    576.000000
  0.175000  0.375000 -1.025000    576.000000
  0.275000  0.275000 -1.025000    288.000000
  0.225000  0.325000 -0.975000    576.000000
  0.275000  0.275000 -0.925000    288.000000
  0.325000  0.325000  0.325000     96.000000
  0.275000  0.375000  0.375000    288.000000
  0.225000  0.425000  0.425000    288.000000
  0.175000  0.475000  0.475000    288.000000
  1.125000 -0.475000 -0.475000    288.000000
  1.075000 -0.425000 -0.425000    288.000000
  1.025000 -0.375000 -0.375000    288.000000
  0.975000 -0.325000 -0.325000    288.000000
  0.325000  0.325000  0.425000    288.000000
  0.275000  0.375000  0.475000    576.000000
  0.225000  0.425000  0.525000    576.000000
  1.175000 -0.525000 -0.425000    576.000000
  1.125000 -0.475000 -0.375000    576.000000
  1.075000 -0.425000 -0.325000    576.000000
  1.025000 -0.375000 -0.275000    576.000000
  0.325000  0.325000  0.525000    288.000000
  0.275000  0.375000  0.575000    576.000000
  1.225000 -0.575000 -0.375000    576.000000
  1.175000 -0.525000 -0.325000    576.000000
  1.125000 -0.475000 -0.275000    576.000000
  1.075000 -0.425000 -0.225000    576.000000
  0.325000  0.325000  0.625000    288.000000
  1.275000 -0.625000 -0.325000    576.000000
  1.225000 -0.575000 -0.275000    576.000000
  1.175000 -0.525000 -0.225000    576.000000
  1.125000 -0.475000 -0.175000    576.000000
  0.325000  0.325000 -1.275000    288.000000
  0.275000  0.375000 -1.225000    576.000000
  0.225000  0.425000 -1.175000    576.000000
  0.325000  0.325000 -1.175000    288.000000
  0.275000  0.375000 -1.125000    576.000000
  0.325000  0.325000 -1.075000    288.000000
  0.375000  0.375000  0.375000     96.000000
  0.325000  0.425000  0.425000    288.000000
  0.275000  0.475000  0.475000    288.000000
  1.225000 -0.475000 -0.475000    288.000000
  1.175000 -0.425000 -0.425000    288.000000
  1.125000 -0.375000 -0.375000    288.000000
  0.375000  0.375000  0.475000    288.000000
  0.325000  0.425000  0.525000    576.000000
[...]
  band No.  band energies     occupation 
      1      -3.2458      2.00000
      2      -0.9364      2.00000
      3       2.2221      2.00000
      4       3.7179      2.00000
      5       7.7792      0.00000
      6      10.3852      0.00000
      7      11.6025      0.00000
      8      11.8664      0.00000

 k-point   739 :      -0.3750   -0.4750    0.3250
  band No.  band energies     occupation 
      1      -3.0224      2.00000
      2      -0.9910      2.00000
      3       1.9110      2.00000
      4       3.3746      2.00000
      5       8.2213      0.00000
      6      10.1086      0.00000
      7      11.7894      0.00000
      8      12.6420      0.00000

 k-point   740 :      -0.4250   -0.4250    0.3250
  band No.  band energies     occupation 
      1      -3.1059      2.00000
      2      -0.9858      2.00000
      3       1.9415      2.00000
      4       3.7589      2.00000
      5       7.4887      0.00000
      6      11.2331      0.00000
      7      11.4651      0.00000
      8      11.8442      0.00000

 k-point   741 :      -0.3750   -0.4250    0.3250
  band No.  band energies     occupation 
      1      -2.9536      2.00000
      2      -1.0118      2.00000
      3       1.6963      2.00000
      4       3.5847      2.00000
      5       7.6212      0.00000
      6      11.0562      0.00000
      7      11.7125      0.00000
      8      12.4928      0.00000

 k-point   742 :      -0.3750   -0.3750    0.3250
  band No.  band energies     occupation 
      1      -2.8831      2.00000
      2      -1.0125      2.00000
      3       1.5068      2.00000
      4       3.6799      2.00000
      5       7.3687      0.00000
      6      11.4479      0.00000
      7      12.1154      0.00000
      8      12.4330      0.00000

 k-point   743 :       0.3750    0.3750    0.3750
  band No.  band energies     occupation 
      1      -4.4526      2.00000
      2      -0.1349      2.00000
      3       4.7163      2.00000
      4       4.7163      2.00000
      5       7.4728      0.00000
      6       9.2694      0.00000
      7       9.2694      0.00000
      8      13.6857      0.00000

 k-point   744 :       0.4250    0.3750    0.3750
  band No.  band energies     occupation 
      1      -4.2990      2.00000
      2      -0.3409      2.00000
      3       4.3422      2.00000
      4       4.7382      2.00000
      5       7.6673      0.00000
      6       9.2515      0.00000
      7       9.3035      0.00000
      8      13.6427      0.00000

 k-point   745 :       0.4750    0.3750    0.3750
  band No.  band energies     occupation 
      1      -4.0937      2.00000
      2      -0.5010      2.00000
      3       3.6987      2.00000
      4       4.6308      2.00000
      5       8.0594      0.00000
      6       9.3170      0.00000
      7       9.4852      0.00000
      8      13.6910      0.00000

 k-point   746 :      -0.4750    0.3750    0.3750
  band No.  band energies     occupation 
      1      -3.8415      2.00000
      2      -0.6202      2.00000
      3       2.9964      2.00000
      4       4.4284      2.00000
      5       8.1693      0.00000
      6       9.6726      0.00000
      7       9.9362      0.00000
      8      13.7486      0.00000

 k-point   747 :      -0.4250    0.3750    0.3750
  band No.  band energies     occupation 
      1      -3.5490      2.00000
      2      -0.7165      2.00000
      3       2.3433      2.00000
      4       4.1788      2.00000
      5       7.9565      0.00000
      6      10.4030      0.00000
      7      10.5546      0.00000
      8      13.6919      0.00000

 k-point   748 :      -0.3750    0.3750    0.3750
  band No.  band energies     occupation 
      1      -3.2250      2.00000
      2      -0.8290      2.00000
      3       1.8197      2.00000
      4       3.9207      2.00000
      5       7.6583      0.00000
      6      11.2625      0.00000
      7      11.2955      0.00000
      8      12.7676      0.00000

 k-point   749 :       0.4250    0.4250    0.3750
  band No.  band energies     occupation 
      1      -4.1780      2.00000
      2      -0.5435      2.00000
      3       4.4932      2.00000
      4       4.5285      2.00000
      5       7.6447      0.00000
      6       9.1023      0.00000
      7       9.4201      0.00000
      8      13.5224      0.00000

 k-point   750 :       0.4750    0.4250    0.3750
  band No.  band energies     occupation 
      1      -4.0079      2.00000
      2      -0.6960      2.00000
      3       3.9709      2.00000
      4       4.5088      2.00000
      5       7.9501      0.00000
      6       9.0638      0.00000
      7       9.5982      0.00000
      8      13.4682      0.00000

 k-point   751 :      -0.4750    0.4250    0.3750
  band No.  band energies     occupation 
      1      -3.7939      2.00000
      2      -0.7983      2.00000
      3       3.3152      2.00000
      4       4.3526      2.00000
      5       8.2783      0.00000
      6       9.0854      0.00000
      7      10.0458      0.00000
      8      13.4540      0.00000

 k-point   752 :      -0.4250    0.4250    0.3750
  band No.  band energies     occupation 
      1      -3.5422      2.00000
      2      -0.8614      2.00000
      3       2.6621      2.00000
      4       4.1124      2.00000
      5       8.2040      0.00000
      6       9.5405      0.00000
      7      10.7254      0.00000
      8      13.4329      0.00000

 k-point   753 :      -0.3750    0.4250    0.3750
  band No.  band energies     occupation 
      1      -3.2596      2.00000
      2      -0.9143      2.00000
      3       2.0950      2.00000
      4       3.8442      2.00000
      5       7.9213      0.00000
      6      10.2751      0.00000
      7      11.5404      0.00000
      8      12.8135      0.00000

 k-point   754 :       0.4750    0.4750    0.3750
  band No.  band energies     occupation 
      1      -3.8775      2.00000
      2      -0.8389      2.00000
      3       3.8886      2.00000
      4       4.3351      2.00000
      5       7.9664      0.00000
      6       9.1243      0.00000
      7       9.7180      0.00000
      8      13.2941      0.00000

 k-point   755 :      -0.4750    0.4750    0.3750
  band No.  band energies     occupation 
      1      -3.7079      2.00000
      2      -0.9253      2.00000
      3       3.4128      2.00000
      4       4.2154      2.00000
      5       8.1749      0.00000
      6       9.1200      0.00000
      7      10.1115      0.00000
      8      13.2121      0.00000

 k-point   756 :      -0.4250    0.4750    0.3750
  band No.  band energies     occupation 
      1      -3.5052      2.00000
      2      -0.9607      2.00000
      3       2.8524      2.00000
      4       3.9811      2.00000
      5       8.5903      0.00000
      6       8.9258      0.00000
      7      10.8318      0.00000
      8      13.1712      0.00000

 k-point   757 :      -0.3750    0.4750    0.3750
  band No.  band energies     occupation 
      1      -3.2754      2.00000
      2      -0.9668      2.00000
      3       2.3238      2.00000
      4       3.6806      2.00000
      5       8.5225      0.00000
      6       9.3383      0.00000
      7      11.6976      0.00000
      8      12.8981      0.00000

 k-point   758 :      -0.4750   -0.4750    0.3750
  band No.  band energies     occupation 
      1      -3.5892      2.00000
      2      -0.9916      2.00000
      3       3.1553      2.00000
      4       4.1585      2.00000
      5       7.9614      0.00000
      6       9.6377      0.00000
      7      10.1468      0.00000
      8      13.0666      0.00000

 k-point   759 :      -0.4250   -0.4750    0.3750
  band No.  band energies     occupation 
      1      -3.4437      2.00000
      2      -0.9996      2.00000
      3       2.7414      2.00000
      4       3.9946      2.00000
      5       8.0782      0.00000
      6       9.6136      0.00000
      7      10.7802      0.00000
      8      12.9886      0.00000

 k-point   760 :      -0.4250   -0.4250    0.3750
  band No.  band energies     occupation 
      1      -3.3615      2.00000
      2      -0.9783      2.00000
      3       2.4297      2.00000
      4       4.0164      2.00000
      5       7.7979      0.00000
      6      10.4203      0.00000
      7      10.6856      0.00000
      8      12.8816      0.00000

 k-point   761 :       0.4250    0.4250    0.4250
  band No.  band energies     occupation 
      1      -4.0940      2.00000
      2      -0.7388      2.00000
      3       4.6450      2.00000
      4       4.6450      2.00000
      5       7.3910      0.00000
      6       9.2035      0.00000
      7       9.2035      0.00000
      8      13.6002      0.00000

 k-point   762 :       0.4750    0.4250    0.4250
  band No.  band energies     occupation 
      1      -3.9647      2.00000
      2      -0.8787      2.00000
      3       4.3215      2.00000
      4       4.6321      2.00000
      5       7.6014      0.00000
      6       9.1984      0.00000
      7       9.2416      0.00000
      8      13.6796      0.00000

 k-point   763 :      -0.4750    0.4250    0.4250
  band No.  band energies     occupation 
      1      -3.7957      2.00000
      2      -0.9592      2.00000
      3       3.7175      2.00000
      4       4.4945      2.00000
      5       7.9906      0.00000
      6       9.2102      0.00000
      7       9.5301      0.00000
      8      13.9436      0.00000

 k-point   764 :      -0.4250    0.4250    0.4250
  band No.  band energies     occupation 
      1      -3.5928      2.00000
      2      -0.9854      2.00000
      3       3.0496      2.00000
      4       4.2735      2.00000
      5       8.0444      0.00000
      6       9.6346      0.00000
      7      10.0277      0.00000
      8      13.9413      0.00000

 k-point   765 :       0.4750    0.4750    0.4250
  band No.  band energies     occupation 
      1      -3.8815      2.00000
      2      -1.0030      2.00000
      3       4.3989      2.00000
      4       4.5250      2.00000
      5       7.5901      0.00000
      6       9.0946      0.00000
      7       9.3251      0.00000
      8      13.6445      0.00000

 k-point   766 :      -0.4750    0.4750    0.4250
  band No.  band energies     occupation 
      1      -3.7637      2.00000
      2      -1.0610      2.00000
      3       3.9500      2.00000
      4       4.4494      2.00000
      5       7.9119      0.00000
      6       9.0381      0.00000
      7       9.5458      0.00000
      8      13.8114      0.00000

 k-point   767 :      -0.4250    0.4750    0.4250
  band No.  band energies     occupation 
      1      -3.6167      2.00000
      2      -1.0545      2.00000
      3       3.3476      2.00000
      4       4.2559      2.00000
      5       8.2099      0.00000
      6       9.0817      0.00000
      7      10.0588      0.00000
      8      13.9367      0.00000

 k-point   768 :      -0.4750   -0.4750    0.4250
  band No.  band energies     occupation 
      1      -3.7030      2.00000
      2      -1.0926      2.00000
      3       3.7819      2.00000
      4       4.3947      2.00000
      5       7.9592      0.00000
      6       9.1445      0.00000
      7       9.6069      0.00000
      8      13.8301      0.00000

 k-point   769 :       0.4750    0.4750    0.4750
  band No.  band energies     occupation 
      1      -3.8508      2.00000
      2      -1.1051      2.00000
      3       4.6092      2.00000
      4       4.6092      2.00000
      5       7.3497      0.00000
      6       9.1643      0.00000
      7       9.1643      0.00000
      8      13.5404      0.00000

 k-point   770 :      -0.4750    0.4750    0.4750
  band No.  band energies     occupation 
      1      -3.7903      2.00000
      2      -1.1349      2.00000
      3       4.3410      2.00000
      4       4.5602      2.00000
      5       7.5755      0.00000
      6       9.1257      0.00000
      7       9.2638      0.00000
      8      13.6607      0.00000


--------------------------------------------------------------------------------------------------------


 soft charge-density along one line, spin component           1
         0         1         2         3         4         5         6         7         8         9
 total charge-density along one line
 
 pseudopotential strength for first ion, spin component:           1
 18.617   0.000  -0.001   0.000   0.000   0.000   0.000   0.000   0.000   0.000  -0.000   0.000  -0.000   0.000  -0.000   0.000
 -0.001   0.000   0.006   0.000  -0.000   0.000  -0.000   0.000  -0.000   0.000   0.000   0.000   0.000   0.000   0.000   0.000
  0.000   0.000  -0.000   0.000   4.224   0.000  -0.000   0.000  -0.000   0.000  -0.005   0.000   0.000   0.000   0.000   0.000
  0.000   0.000  -0.000   0.000  -0.000   0.000   4.224   0.000  -0.000   0.000   0.000   0.000  -0.005   0.000   0.000   0.000
  0.000   0.000  -0.000   0.000  -0.000   0.000  -0.000   0.000   4.224   0.000   0.000   0.000   0.000   0.000  -0.005   0.000
 -0.000   0.000   0.000   0.000  -0.005   0.000   0.000   0.000   0.000   0.000   0.005   0.000  -0.000   0.000  -0.000   0.000
 -0.000   0.000   0.000   0.000   0.000   0.000  -0.005   0.000   0.000   0.000  -0.000   0.000   0.005   0.000  -0.000   0.000
 -0.000   0.000   0.000   0.000   0.000   0.000   0.000   0.000  -0.005   0.000  -0.000   0.000  -0.000   0.000   0.005   0.000
 total augmentation occupancy for first ion, spin component:           1
  2.000   0.000   0.000   0.000   0.000   0.000   0.000   0.000
  0.000   0.000   0.000   0.000   0.000   0.000   0.000   0.000
  0.000   0.000   0.667   0.000   0.000   0.000   0.000   0.000
  0.000   0.000   0.000   0.667   0.000   0.000   0.000   0.000
  0.000   0.000   0.000   0.000   0.667   0.000   0.000   0.000
  0.000   0.000   0.000   0.000   0.000   0.000   0.000   0.000
  0.000   0.000   0.000   0.000   0.000   0.000   0.000   0.000
  0.000   0.000   0.000   0.000   0.000   0.000   0.000   0.000


------------------------ aborting loop because EDIFF is reached ----------------------------------------


 


 total charge     
 
# of ion       s       p       d       tot
------------------------------------------
    1        0.753   0.945   0.000   1.698
    2        0.753   0.945   0.000   1.698
--------------------------------------------------
tot          1.505   1.890   0.000   3.396
 
    CHARGE:  cpu time    0.5704: real time    0.6350
    FORLOC:  cpu time    0.0051: real time    0.0051
    FORNL :  cpu time    0.8199: real time    0.8227
    STRESS:  cpu time    2.4508: real time    2.7710
    FORCOR:  cpu time    0.0801: real time    0.0803
    FORHAR:  cpu time    0.0183: real time    0.0184
    OFIELD:  cpu time    0.0005: real time    0.0005

  FORCE on cell =-STRESS in cart. coord.  units (eV):
  Direction    XX          YY          ZZ          XY          YZ          ZX
  --------------------------------------------------------------------------------------
  Alpha Z     3.24299     3.24299     3.24299
  Ewald     -76.18788   -76.18788   -76.18788     0.00000    -0.00000     0.00000
  Hartree     5.00289     5.00289     5.00289     0.00000     0.00000     0.00000
  E(xc)     -25.47564   -25.47564   -25.47564     0.00000     0.00000     0.00000
  Local     -29.52640   -29.52640   -29.52640     0.00001     0.00001     0.00001
  n-local    78.46137    80.87783    75.72097     1.05531    -1.06031     0.00498
  augment   -11.83945   -11.83945   -11.83945    -0.00001    -0.00001    -0.00001
  Kinetic    58.61371    56.20982    55.91082     0.89133    -0.89648     0.00514
  Fock        0.00000     0.00000     0.00000     0.00000     0.00000     0.00000
  -------------------------------------------------------------------------------------
  Total       0.48136     0.48136     0.48136     0.00000     0.00000    -0.00000
  in kB      19.26809    19.26809    19.26809     0.00000     0.00000    -0.00000
  external pressure =       19.27 kB  Pullay stress =        0.00 kB


 VOLUME and BASIS-vectors are now :
 -----------------------------------------------------------------------------
  energy-cutoff  :      500.00
  volume of cell :       40.03
      direct lattice vectors                 reciprocal lattice vectors
     0.000000000  2.715000000  2.715000000    -0.184162063  0.184162063  0.184162063
     2.715000000  0.000000000  2.715000000     0.184162063 -0.184162063  0.184162063
     2.715000000  2.715000000  0.000000000     0.184162063  0.184162063 -0.184162063

  length of vectors
     3.839589822  3.839589822  3.839589822     0.318978049  0.318978049  0.318978049


 FORCES acting on ions
    electron-ion (+dipol)            ewald-force                    non-local-force                 convergence-correction
 -----------------------------------------------------------------------------------------------
   0.204E-06 0.204E-06 0.204E-06   0.132E-14 -.451E-14 -.305E-14   0.139E-16 0.139E-16 0.122E-16   0.483E-10 0.483E-10 0.483E-10
   -.204E-06 -.204E-06 -.204E-06   -.113E-14 0.493E-14 0.317E-14   -.104E-16 -.139E-16 -.109E-16   -.483E-10 -.483E-10 -.483E-10
 -----------------------------------------------------------------------------------------------
   -.393E-13 0.133E-13 0.971E-14   0.187E-15 0.422E-15 0.120E-15   0.347E-17 0.000E+00 0.125E-17   -.683E-15 -.802E-15 -.408E-15
 
 
 POSITION                                       TOTAL-FORCE (eV/Angst)
 -----------------------------------------------------------------------------------
      0.00000      0.00000      0.00000         0.000000     -0.000000     -0.000000
      1.35750      1.35750      1.35750        -0.000000      0.000000      0.000000
 -----------------------------------------------------------------------------------
    total drift:                               -0.000000      0.000000      0.000000


--------------------------------------------------------------------------------------------------------



  FREE ENERGIE OF THE ION-ELECTRON SYSTEM (eV)
  ---------------------------------------------------
  free  energy   TOTEN  =       -10.85804882 eV

  energy  without entropy=      -10.85804882  energy(sigma->0) =      -10.85804882
 


--------------------------------------------------------------------------------------------------------


    POTLOK:  cpu time    0.0754: real time    0.0756


--------------------------------------------------------------------------------------------------------


     LOOP+:  cpu time   73.9751: real time   92.2507
    4ORBIT:  cpu time    0.0000: real time    0.0000
 


 total charge     
 
# of ion       s       p       d       tot
------------------------------------------
    1        0.753   0.945   0.000   1.698
    2        0.753   0.945   0.000   1.698
--------------------------------------------------
tot          1.505   1.890   0.000   3.396
 
 BZINTS: Fermi energy:  5.798730;  8.000000 electrons
         Band energy:   5.969896;  BLOECHL correction:  0.000000

 total amount of memory used by VASP MPI-rank0   201135. kBytes
=======================================================================

   base      :      30000. kBytes
   nonl-proj :      50939. kBytes
   fftplans  :       7512. kBytes
   grid      :       9289. kBytes
   one-center:          6. kBytes
   wavefun   :     103389. kBytes
 
  
  
 General timing and accounting informations for this job:
 ========================================================
  
                  Total CPU time used (sec):       92.211
                            User time (sec):       90.692
                          System time (sec):        1.518
                         Elapsed time (sec):      119.195
  
                   Maximum memory used (kb):      260940.
                   Average memory used (kb):           0.
  
                          Minor page faults:        30056
                          Major page faults:            0
                 Voluntary context switches:          252
