   2   2   0   0
  0.2379889E+02  0.4067871E-09  0.4067871E-09  0.4067871E-09  0.5000000E-15
  1.000000000000000E-004
  CAR 
 GaAs                                    
     14.11713924    -11.99295441  301      2.46078135      1.00000000
    -11.993  0.0000E+00  0.0000E+00
    -11.906  0.0000E+00  0.0000E+00
    -11.819  0.0000E+00  0.0000E+00
    -11.732  0.0000E+00  0.0000E+00
    -11.645 -0.3277E-29 -0.2852E-30
    -11.558 -0.3549E-26 -0.3092E-27
    -11.471 -0.2576E-23 -0.2245E-24
    -11.384 -0.1277E-20 -0.1114E-21
    -11.297 -0.4326E-18 -0.3776E-19
    -11.210 -0.1001E-15 -0.8747E-17
    -11.123 -0.1531E-13 -0.1341E-14
    -11.036 -0.1639E-11 -0.1440E-12
    -10.949 -0.1194E-09 -0.1054E-10
    -10.862 -0.5904E-08 -0.5244E-09
    -10.774 -0.1976E-06 -0.1772E-07
    -10.687 -0.4458E-05 -0.4057E-06
    -10.600 -0.6730E-04 -0.6263E-05
    -10.513 -0.6717E-03 -0.6473E-04
    -10.426 -0.4331E-02 -0.4417E-03
    -10.339 -0.1711E-01 -0.1931E-02
    -10.252 -0.3498E-01 -0.4976E-02
    -10.165  0.1634E-03 -0.4962E-02
    -10.078  0.1948E+00  0.1199E-01
     -9.991  0.5341E+00  0.5848E-01
     -9.904  0.7835E+00  0.1267E+00
     -9.817  0.7665E+00  0.1934E+00
     -9.730  0.5932E+00  0.2450E+00
     -9.643  0.4487E+00  0.2841E+00
     -9.556  0.3793E+00  0.3171E+00
     -9.469  0.3479E+00  0.3474E+00
     -9.382  0.3279E+00  0.3759E+00
     -9.295  0.3123E+00  0.4031E+00
     -9.208  0.3004E+00  0.4292E+00
     -9.121  0.2917E+00  0.4546E+00
     -9.034  0.2857E+00  0.4795E+00
     -8.947  0.2810E+00  0.5039E+00
     -8.860  0.2748E+00  0.5278E+00
     -8.773  0.2726E+00  0.5516E+00
     -8.686  0.3157E+00  0.5790E+00
     -8.599  0.4743E+00  0.6203E+00
     -8.512  0.7251E+00  0.6834E+00
     -8.425  0.8803E+00  0.7600E+00
     -8.338  0.8065E+00  0.8302E+00
     -8.251  0.5972E+00  0.8822E+00
     -8.163  0.3954E+00  0.9166E+00
     -8.076  0.3502E+00  0.9471E+00
     -7.989  0.8965E+00  0.1025E+01
     -7.902  0.2361E+01  0.1231E+01
     -7.815  0.3764E+01  0.1558E+01
     -7.728  0.3475E+01  0.1861E+01
     -7.641  0.1715E+01  0.2010E+01
     -7.554  0.2474E+00  0.2031E+01
     -7.467 -0.1915E+00  0.2015E+01
     -7.380 -0.1266E+00  0.2004E+01
     -7.293 -0.3654E-01  0.2001E+01
     -7.206 -0.6204E-02  0.2000E+01
     -7.119 -0.6685E-03  0.2000E+01
     -7.032 -0.4717E-04  0.2000E+01
     -6.945 -0.2215E-05  0.2000E+01
     -6.858 -0.6985E-07  0.2000E+01
     -6.771 -0.1487E-08  0.2000E+01
     -6.684 -0.2147E-10  0.2000E+01
     -6.597 -0.2108E-12  0.2000E+01
     -6.510 -0.1123E-14  0.2000E+01
     -6.423  0.0000E+00  0.2000E+01
     -6.336  0.0000E+00  0.2000E+01
     -6.249  0.0000E+00  0.2000E+01
     -6.162  0.0000E+00  0.2000E+01
     -6.075  0.0000E+00  0.2000E+01
     -5.988  0.0000E+00  0.2000E+01
     -5.901  0.0000E+00  0.2000E+01
     -5.814 -0.3270E-27  0.2000E+01
     -5.727 -0.2873E-24  0.2000E+01
     -5.639 -0.1726E-21  0.2000E+01
     -5.552 -0.7087E-19  0.2000E+01
     -5.465 -0.1988E-16  0.2000E+01
     -5.378 -0.3704E-14  0.2000E+01
     -5.291 -0.4811E-12  0.2000E+01
     -5.204 -0.4262E-10  0.2000E+01
     -5.117 -0.2568E-08  0.2000E+01
     -5.030 -0.1050E-06  0.2000E+01
     -4.943 -0.2904E-05  0.2000E+01
     -4.856 -0.5407E-04  0.2000E+01
     -4.769 -0.6725E-03  0.2000E+01
     -4.682 -0.5510E-02  0.1999E+01
     -4.595 -0.2891E-01  0.1997E+01
     -4.508 -0.9058E-01  0.1989E+01
     -4.421 -0.1275E+00  0.1978E+01
     -4.334  0.1505E+00  0.1991E+01
     -4.247  0.1086E+01  0.2086E+01
     -4.160  0.2481E+01  0.2301E+01
     -4.073  0.3531E+01  0.2609E+01
     -3.986  0.3616E+01  0.2924E+01
     -3.899  0.2789E+01  0.3166E+01
     -3.812  0.1583E+01  0.3304E+01
     -3.725  0.6091E+00  0.3357E+01
     -3.638  0.1577E+00  0.3371E+01
     -3.551  0.8292E-01  0.3378E+01
     -3.464  0.1191E+00  0.3388E+01
     -3.377  0.1423E+00  0.3401E+01
     -3.290  0.1449E+00  0.3413E+01
     -3.203  0.1409E+00  0.3426E+01
     -3.116  0.1363E+00  0.3437E+01
     -3.028  0.1322E+00  0.3449E+01
     -2.941  0.1287E+00  0.3460E+01
     -2.854  0.1255E+00  0.3471E+01
     -2.767  0.1227E+00  0.3482E+01
     -2.680  0.1202E+00  0.3492E+01
     -2.593  0.1180E+00  0.3503E+01
     -2.506  0.1160E+00  0.3513E+01
     -2.419  0.1142E+00  0.3523E+01
     -2.332  0.1126E+00  0.3532E+01
     -2.245  0.1111E+00  0.3542E+01
     -2.158  0.1097E+00  0.3552E+01
     -2.071  0.1084E+00  0.3561E+01
     -1.984  0.1072E+00  0.3570E+01
     -1.897  0.1061E+00  0.3580E+01
     -1.810  0.1051E+00  0.3589E+01
     -1.723  0.1041E+00  0.3598E+01
     -1.636  0.1027E+00  0.3607E+01
     -1.549  0.9861E-01  0.3615E+01
     -1.462  0.8673E-01  0.3623E+01
     -1.375  0.6883E-01  0.3629E+01
     -1.288  0.8414E-01  0.3636E+01
     -1.201  0.2149E+00  0.3655E+01
     -1.114  0.5107E+00  0.3699E+01
     -1.027  0.9179E+00  0.3779E+01
     -0.940  0.1321E+01  0.3894E+01
     -0.853  0.1674E+01  0.4040E+01
     -0.766  0.2034E+01  0.4217E+01
     -0.679  0.2329E+01  0.4420E+01
     -0.592  0.2330E+01  0.4622E+01
     -0.505  0.2068E+01  0.4802E+01
     -0.417  0.1861E+01  0.4964E+01
     -0.330  0.1969E+01  0.5136E+01
     -0.243  0.2387E+01  0.5344E+01
     -0.156  0.2705E+01  0.5579E+01
     -0.069  0.2404E+01  0.5788E+01
      0.018  0.1595E+01  0.5927E+01
      0.105  0.9042E+00  0.6006E+01
      0.192  0.6274E+00  0.6060E+01
      0.279  0.5893E+00  0.6112E+01
      0.366  0.5932E+00  0.6163E+01
      0.453  0.5868E+00  0.6214E+01
      0.540  0.5761E+00  0.6265E+01
      0.627  0.5679E+00  0.6314E+01
      0.714  0.5638E+00  0.6363E+01
      0.801  0.5628E+00  0.6412E+01
      0.888  0.5610E+00  0.6461E+01
      0.975  0.5596E+00  0.6510E+01
      1.062  0.6061E+00  0.6562E+01
      1.149  0.8196E+00  0.6634E+01
      1.236  0.1236E+01  0.6741E+01
      1.323  0.1592E+01  0.6880E+01
      1.410  0.1570E+01  0.7016E+01
      1.497  0.1249E+01  0.7125E+01
      1.584  0.9537E+00  0.7208E+01
      1.671  0.8195E+00  0.7279E+01
      1.758  0.7809E+00  0.7347E+01
      1.845  0.7694E+00  0.7414E+01
      1.932  0.7676E+00  0.7481E+01
      2.019  0.7896E+00  0.7550E+01
      2.106  0.8838E+00  0.7627E+01
      2.194  0.1089E+01  0.7721E+01
      2.281  0.1277E+01  0.7833E+01
      2.368  0.1167E+01  0.7934E+01
      2.455  0.7244E+00  0.7997E+01
      2.542  0.2856E+00  0.8022E+01
      2.629  0.9464E-01  0.8030E+01
      2.716  0.7488E-01  0.8037E+01
      2.803  0.8783E-01  0.8044E+01
      2.890  0.8611E-01  0.8052E+01
      2.977  0.7694E-01  0.8059E+01
      3.064  0.1153E+00  0.8069E+01
      3.151  0.2871E+00  0.8094E+01
      3.238  0.5670E+00  0.8143E+01
      3.325  0.7604E+00  0.8209E+01
      3.412  0.7418E+00  0.8274E+01
      3.499  0.6154E+00  0.8327E+01
      3.586  0.5409E+00  0.8374E+01
      3.673  0.5948E+00  0.8426E+01
      3.760  0.8047E+00  0.8496E+01
      3.847  0.1142E+01  0.8596E+01
      3.934  0.1493E+01  0.8726E+01
      4.021  0.1717E+01  0.8875E+01
      4.108  0.1732E+01  0.9026E+01
      4.195  0.1545E+01  0.9160E+01
      4.282  0.1285E+01  0.9272E+01
      4.369  0.1089E+01  0.9367E+01
      4.456  0.9897E+00  0.9453E+01
      4.543  0.9516E+00  0.9536E+01
      4.630  0.9445E+00  0.9618E+01
      4.718  0.9300E+00  0.9699E+01
      4.805  0.8617E+00  0.9774E+01
      4.892  0.7472E+00  0.9839E+01
      4.979  0.6488E+00  0.9895E+01
      5.066  0.6021E+00  0.9948E+01
      5.153  0.6044E+00  0.1000E+02
      5.240  0.6710E+00  0.1006E+02
      5.327  0.8120E+00  0.1013E+02
      5.414  0.9550E+00  0.1021E+02
      5.501  0.9787E+00  0.1030E+02
      5.588  0.8535E+00  0.1037E+02
      5.675  0.6821E+00  0.1043E+02
      5.762  0.5671E+00  0.1048E+02
      5.849  0.5408E+00  0.1053E+02
      5.936  0.6811E+00  0.1059E+02
      6.023  0.1096E+01  0.1068E+02
      6.110  0.1619E+01  0.1082E+02
      6.197  0.1827E+01  0.1098E+02
      6.284  0.1611E+01  0.1112E+02
      6.371  0.1335E+01  0.1124E+02
      6.458  0.1338E+01  0.1136E+02
      6.545  0.1601E+01  0.1149E+02
      6.632  0.1844E+01  0.1166E+02
      6.719  0.1859E+01  0.1182E+02
      6.806  0.1822E+01  0.1198E+02
      6.893  0.2163E+01  0.1216E+02
      6.980  0.2786E+01  0.1241E+02
      7.067  0.2826E+01  0.1265E+02
      7.154  0.1904E+01  0.1282E+02
      7.241  0.7979E+00  0.1289E+02
      7.329  0.2407E+00  0.1291E+02
      7.416  0.1783E+00  0.1292E+02
      7.503  0.3323E+00  0.1295E+02
      7.590  0.5651E+00  0.1300E+02
      7.677  0.7317E+00  0.1307E+02
      7.764  0.7220E+00  0.1313E+02
      7.851  0.6088E+00  0.1318E+02
      7.938  0.5203E+00  0.1323E+02
      8.025  0.4815E+00  0.1327E+02
      8.112  0.4625E+00  0.1331E+02
      8.199  0.4771E+00  0.1335E+02
      8.286  0.5939E+00  0.1340E+02
      8.373  0.8258E+00  0.1347E+02
      8.460  0.1038E+01  0.1356E+02
      8.547  0.1078E+01  0.1366E+02
      8.634  0.9428E+00  0.1374E+02
      8.721  0.7488E+00  0.1381E+02
      8.808  0.6063E+00  0.1386E+02
      8.895  0.5470E+00  0.1391E+02
      8.982  0.5358E+00  0.1395E+02
      9.069  0.5350E+00  0.1400E+02
      9.156  0.5325E+00  0.1405E+02
      9.243  0.5293E+00  0.1409E+02
      9.330  0.5264E+00  0.1414E+02
      9.417  0.5229E+00  0.1418E+02
      9.504  0.5170E+00  0.1423E+02
      9.591  0.5175E+00  0.1427E+02
      9.678  0.5594E+00  0.1432E+02
      9.765  0.6801E+00  0.1438E+02
      9.852  0.8630E+00  0.1446E+02
      9.940  0.1050E+01  0.1455E+02
     10.027  0.1180E+01  0.1465E+02
     10.114  0.1184E+01  0.1475E+02
     10.201  0.1038E+01  0.1484E+02
     10.288  0.8053E+00  0.1491E+02
     10.375  0.5734E+00  0.1496E+02
     10.462  0.4213E+00  0.1500E+02
     10.549  0.3722E+00  0.1503E+02
     10.636  0.3791E+00  0.1507E+02
     10.723  0.3934E+00  0.1510E+02
     10.810  0.4020E+00  0.1513E+02
     10.897  0.4078E+00  0.1517E+02
     10.984  0.4138E+00  0.1521E+02
     11.071  0.4205E+00  0.1524E+02
     11.158  0.4285E+00  0.1528E+02
     11.245  0.4385E+00  0.1532E+02
     11.332  0.4511E+00  0.1536E+02
     11.419  0.4663E+00  0.1540E+02
     11.506  0.4840E+00  0.1544E+02
     11.593  0.5048E+00  0.1548E+02
     11.680  0.5306E+00  0.1553E+02
     11.767  0.5706E+00  0.1558E+02
     11.854  0.6637E+00  0.1564E+02
     11.941  0.8681E+00  0.1571E+02
     12.028  0.1124E+01  0.1581E+02
     12.115  0.1159E+01  0.1591E+02
     12.202  0.7997E+00  0.1598E+02
     12.289  0.2972E+00  0.1601E+02
     12.376  0.3367E-02  0.1601E+02
     12.463 -0.5197E-01  0.1600E+02
     12.551 -0.2587E-01  0.1600E+02
     12.638 -0.6613E-02  0.1600E+02
     12.725 -0.1034E-02  0.1600E+02
     12.812 -0.1042E-03  0.1600E+02
     12.899 -0.6947E-05  0.1600E+02
     12.986 -0.3097E-06  0.1600E+02
     13.073 -0.9300E-08  0.1600E+02
     13.160 -0.1890E-09  0.1600E+02
     13.247 -0.2607E-11  0.1600E+02
     13.334 -0.2449E-13  0.1600E+02
     13.421 -0.1633E-15  0.1600E+02
     13.508  0.0000E+00  0.1600E+02
     13.595  0.0000E+00  0.1600E+02
     13.682  0.0000E+00  0.1600E+02
     13.769  0.0000E+00  0.1600E+02
     13.856  0.0000E+00  0.1600E+02
     13.943  0.0000E+00  0.1600E+02
     14.030  0.0000E+00  0.1600E+02
     14.117  0.0000E+00  0.1600E+02
