    2    2    1    1
  0.2379889E+02  0.4067871E-09  0.4067871E-09  0.4067871E-09  0.5000000E-15
  1.000000000000000E-004
  CAR 
 GaAs                                    
      8    250      8
 
  0.5000000E+00  0.2500000E+00  0.7500000E+00  0.4000000E-02
    1       -7.800354   1.000000
    2       -4.029492   1.000000
    3       -0.949395   1.000000
    4       -0.739601   1.000000
    5        6.746833  -0.000000
    6        7.045089  -0.000000
    7        7.613000  -0.000000
    8        8.380480   0.000000
 
  0.5000000E+00  0.2551020E+00  0.7448980E+00  0.4000000E-02
    1       -7.801285   1.000000
    2       -4.028666   1.000000
    3       -0.956550   1.000000
    4       -0.729923   1.000000
    5        6.734139  -0.000000
    6        7.053368  -0.000000
    7        7.611416  -0.000000
    8        8.389567   0.000000
 
  0.5000000E+00  0.2602041E+00  0.7397959E+00  0.4000000E-02
    1       -7.804070   1.000000
    2       -4.026204   1.000000
    3       -0.974742   1.000000
    4       -0.704164   1.000000
    5        6.700392  -0.000000
    6        7.073056  -0.000000
    7        7.608296  -0.000000
    8        8.416003   0.000000
 
  0.5000000E+00  0.2653061E+00  0.7346939E+00  0.4000000E-02
    1       -7.808683   1.000000
    2       -4.022159   1.000000
    3       -0.998344   1.000000
    4       -0.667931   1.000000
    5        6.653510  -0.000000
    6        7.093970  -0.000000
    7        7.607977  -0.000000
    8        8.457688   0.000000
 
  0.5000000E+00  0.2704082E+00  0.7295918E+00  0.4000000E-02
    1       -7.815080   1.000000
    2       -4.016575   1.000000
    3       -1.023342   1.000000
    4       -0.625147   1.000000
    5        6.599313  -0.000000
    6        7.107424  -0.000000
    7        7.615971  -0.000000
    8        8.512009   0.000000
 
  0.5000000E+00  0.2755102E+00  0.7244898E+00  0.4000000E-02
    1       -7.823216   1.000000
    2       -4.009646   1.000000
    3       -1.047521   1.000000
    4       -0.577959   1.000000
    5        6.540985  -0.000000
    6        7.108297  -0.000000
    7        7.636694  -0.000000
    8        8.576586   0.000000
 
  0.5000000E+00  0.2806122E+00  0.7193878E+00  0.4000000E-02
    1       -7.833026   1.000000
    2       -4.001526   1.000000
    3       -1.069740   1.000000
    4       -0.527700   1.000000
    5        6.480213  -0.000000
    6        7.095219  -0.000000
    7        7.671378  -0.000000
    8        8.649116   0.000000
 
  0.5000000E+00  0.2857143E+00  0.7142857E+00  0.4000000E-02
    1       -7.844394   1.000000
    2       -3.992345   1.000000
    3       -1.089098   1.000000
    4       -0.474896   1.000000
    5        6.418079  -0.000000
    6        7.070385  -0.000000
    7        7.718507  -0.000000
    8        8.728117   0.000000
 
  0.5000000E+00  0.2908163E+00  0.7091837E+00  0.4000000E-02
    1       -7.857331   1.000000
    2       -3.982444   1.000000
    3       -1.105284   1.000000
    4       -0.420355   1.000000
    5        6.354945  -0.000000
    6        7.037057  -0.000000
    7        7.775183  -0.000000
    8        8.812286   0.000000
 
  0.5000000E+00  0.2959184E+00  0.7040816E+00  0.4000000E-02
    1       -7.871625   1.000000
    2       -3.971836   1.000000
    3       -1.117525   1.000000
    4       -0.364175   1.000000
    5        6.291402  -0.000000
    6        6.998352  -0.000000
    7        7.838907  -0.000000
    8        8.900708   0.000000
 
  0.5000000E+00  0.3010204E+00  0.6989796E+00  0.4000000E-02
    1       -7.887210   1.000000
    2       -3.960842   1.000000
    3       -1.125642   1.000000
    4       -0.306698   1.000000
    5        6.227496  -0.000000
    6        6.956631  -0.000000
    7        7.907473  -0.000000
    8        8.992621   0.000000
 
  0.5000000E+00  0.3061224E+00  0.6938776E+00  0.4000000E-02
    1       -7.903967   1.000000
    2       -3.949647   1.000000
    3       -1.129304   1.000000
    4       -0.248132   1.000000
    5        6.163334  -0.000000
    6        6.913632  -0.000000
    7        7.979340   0.000000
    8        9.087392   0.000000
 
  0.5000000E+00  0.3112245E+00  0.6887755E+00  0.4000000E-02
    1       -7.921795   1.000000
    2       -3.938585   1.000000
    3       -1.128352   1.000000
    4       -0.188742   1.000000
    5        6.098859  -0.000000
    6        6.870575  -0.000000
    7        8.053172   0.000000
    8        9.184425   0.000000
 
  0.5000000E+00  0.3163265E+00  0.6836735E+00  0.4000000E-02
    1       -7.940568   1.000000
    2       -3.927835   1.000000
    3       -1.122531   1.000000
    4       -0.128694   1.000000
    5        6.034069  -0.000000
    6        6.828375  -0.000000
    7        8.127980   0.000000
    8        9.283120   0.000000
 
  0.5000000E+00  0.3214286E+00  0.6785714E+00  0.4000000E-02
    1       -7.960189   1.000000
    2       -3.917635   1.000000
    3       -1.111743   1.000000
    4       -0.068217   1.000000
    5        5.968886  -0.000000
    6        6.787647  -0.000000
    7        8.202724   0.000000
    8        9.382762   0.000000
 
  0.5000000E+00  0.3265306E+00  0.6734694E+00  0.4000000E-02
    1       -7.980489   1.000000
    2       -3.908083   1.000000
    3       -1.095582   1.000000
    4       -0.007354   1.000000
    5        5.903308  -0.000000
    6        6.749033  -0.000000
    7        8.276551   0.000000
    8        9.482411   0.000000
 
  0.5000000E+00  0.3316327E+00  0.6683673E+00  0.4000000E-02
    1       -8.001391   1.000000
    2       -3.899470   1.000000
    3       -1.074222   1.000000
    4        0.053614   1.000000
    5        5.837094  -0.000000
    6        6.712861  -0.000000
    7        8.348132   0.000000
    8        9.580517   0.000000
 
  0.5000000E+00  0.3367347E+00  0.6632653E+00  0.4000000E-02
    1       -8.022773   1.000000
    2       -3.891887   1.000000
    3       -1.047495   1.000000
    4        0.114557   1.000000
    5        5.770189  -0.000000
    6        6.679456  -0.000000
    7        8.416042   0.000000
    8        9.674534   0.000000
 
  0.5000000E+00  0.3418367E+00  0.6581633E+00  0.4000000E-02
    1       -8.044521   1.000000
    2       -3.885446   1.000000
    3       -1.015372   1.000000
    4        0.175315   1.000000
    5        5.702465  -0.000000
    6        6.649072  -0.000000
    7        8.478380   0.000000
    8        9.759680   0.000000
 
  0.5000000E+00  0.3469388E+00  0.6530612E+00  0.4000000E-02
    1       -8.066519   1.000000
    2       -3.880152   1.000000
    3       -0.977783   1.000000
    4        0.235738   1.000000
    5        5.633833  -0.000000
    6        6.621933  -0.000000
    7        8.532814   0.000000
    8        9.827184   0.000000
 
  0.5000000E+00  0.3520408E+00  0.6479592E+00  0.4000000E-02
    1       -8.088679   1.000000
    2       -3.876194   1.000000
    3       -0.934935   1.000000
    4        0.295651   1.000000
    5        5.564062  -0.000000
    6        6.598159  -0.000000
    7        8.575746   0.000000
    8        9.864255   0.000000
 
  0.5000000E+00  0.3571429E+00  0.6428571E+00  0.4000000E-02
    1       -8.110895   1.000000
    2       -3.873513   1.000000
    3       -0.886832   1.000000
    4        0.354911   1.000000
    5        5.493054  -0.000000
    6        6.577894  -0.000000
    7        8.603409   0.000000
    8        9.865219   0.000000
 
  0.5000000E+00  0.3622449E+00  0.6377551E+00  0.4000000E-02
    1       -8.133070   1.000000
    2       -3.872092   1.000000
    3       -0.833589   1.000000
    4        0.413367   1.000000
    5        5.420663  -0.000000
    6        6.561232  -0.000000
    7        8.611643   0.000000
    8        9.844271   0.000000
 
  0.5000000E+00  0.3673469E+00  0.6326531E+00  0.4000000E-02
    1       -8.155113   1.000000
    2       -3.871889   1.000000
    3       -0.775356   1.000000
    4        0.470872   1.000000
    5        5.346742  -0.000000
    6        6.548237  -0.000000
    7        8.597211   0.000000
    8        9.822980   0.000000
 
  0.5000000E+00  0.3724490E+00  0.6275510E+00  0.4000000E-02
    1       -8.176990   1.000000
    2       -3.873039   1.000000
    3       -0.712396   1.000000
    4        0.527019   1.000000
    5        5.271054  -0.000000
    6        6.538819  -0.000000
    7        8.559113   0.000000
    8        9.814450   0.000000
 
  0.5000000E+00  0.3775510E+00  0.6224490E+00  0.4000000E-02
    1       -8.198541   1.000000
    2       -3.875152   1.000000
    3       -0.644622   1.000000
    4        0.582248   1.000000
    5        5.193658  -0.000000
    6        6.533237  -0.000000
    7        8.499644   0.000000
    8        9.823489   0.000000
 
  0.5000000E+00  0.3826531E+00  0.6173469E+00  0.4000000E-02
    1       -8.219698   1.000000
    2       -3.878166   1.000000
    3       -0.572563   1.000000
    4        0.636038   1.000000
    5        5.114280  -0.000000
    6        6.531367  -0.000000
    7        8.422885   0.000000
    8        9.848286   0.000000
 
  0.5000000E+00  0.3877551E+00  0.6122449E+00  0.4000000E-02
    1       -8.240403   1.000000
    2       -3.881937   1.000000
    3       -0.496316   1.000000
    4        0.688326   1.000000
    5        5.032855  -0.000000
    6        6.533165  -0.000000
    7        8.333949   0.000000
    8        9.885717   0.000000
 
  0.5000000E+00  0.3928571E+00  0.6071429E+00  0.4000000E-02
    1       -8.260605   1.000000
    2       -3.886578   1.000000
    3       -0.416204   1.000000
    4        0.738983   1.000000
    5        4.949220  -0.000000
    6        6.538561  -0.000000
    7        8.237292   0.000000
    8        9.931396   0.000000
 
  0.5000000E+00  0.3979592E+00  0.6020408E+00  0.4000000E-02
    1       -8.280235   1.000000
    2       -3.891862   1.000000
    3       -0.332462   1.000000
    4        0.787893   1.000000
    5        4.863327  -0.000000
    6        6.547465  -0.000000
    7        8.136661   0.000000
    8        9.981878   0.000000
 
  0.5000000E+00  0.4030612E+00  0.5969388E+00  0.4000000E-02
    1       -8.299234   1.000000
    2       -3.897672   1.000000
    3       -0.245377   1.000000
    4        0.834945   1.000000
    5        4.775133  -0.000000
    6        6.559755  -0.000000
    7        8.034858   0.000000
    8       10.034048   0.000000
 
  0.5000000E+00  0.4081633E+00  0.5918367E+00  0.4000000E-02
    1       -8.317577   1.000000
    2       -3.903894   1.000000
    3       -0.155390   1.000000
    4        0.879955   1.000000
    5        4.684444  -0.000000
    6        6.575206  -0.000000
    7        7.933755   0.000000
    8       10.085135   0.000000
 
  0.5000000E+00  0.4132653E+00  0.5867347E+00  0.4000000E-02
    1       -8.335148   1.000000
    2       -3.910373   1.000000
    3       -0.062419   1.000000
    4        0.923014   1.000000
    5        4.591730  -0.000000
    6        6.593797  -0.000000
    7        7.835345  -0.000000
    8       10.133176   0.000000
 
  0.5000000E+00  0.4183673E+00  0.5816327E+00  0.4000000E-02
    1       -8.351950   1.000000
    2       -3.917083   1.000000
    3        0.032782   1.000000
    4        0.963901   1.000000
    5        4.496833  -0.000000
    6        6.615171  -0.000000
    7        7.740446  -0.000000
    8       10.175577   0.000000
 
  0.5000000E+00  0.4234694E+00  0.5765306E+00  0.4000000E-02
    1       -8.367929   1.000000
    2       -3.923882   1.000000
    3        0.129979   1.000000
    4        1.002571   1.000000
    5        4.399981  -0.000000
    6        6.639092  -0.000000
    7        7.649936  -0.000000
    8       10.210738   0.000000
 
  0.5000000E+00  0.4285714E+00  0.5714286E+00  0.4000000E-02
    1       -8.383049   1.000000
    2       -3.930673   1.000000
    3        0.228752   1.000000
    4        1.038952   1.000000
    5        4.301440  -0.000000
    6        6.665246  -0.000000
    7        7.564420  -0.000000
    8       10.237177   0.000000
 
  0.5000000E+00  0.4336735E+00  0.5663265E+00  0.4000000E-02
    1       -8.397293   1.000000
    2       -3.937476   1.000000
    3        0.328599   1.000000
    4        1.072987   1.000000
    5        4.201548  -0.000000
    6        6.693258  -0.000000
    7        7.484318  -0.000000
    8       10.253809   0.000000
 
  0.5000000E+00  0.4387755E+00  0.5612245E+00  0.4000000E-02
    1       -8.410585   1.000000
    2       -3.943993   1.000000
    3        0.429085   1.000000
    4        1.104629   1.000000
    5        4.100809  -0.000000
    6        6.722749  -0.000000
    7        7.409952  -0.000000
    8       10.260340   0.000000
 
  0.5000000E+00  0.4438776E+00  0.5561224E+00  0.4000000E-02
    1       -8.422917   1.000000
    2       -3.950255   1.000000
    3        0.529556   1.000000
    4        1.133833   1.000000
    5        3.999784  -0.000000
    6        6.753241  -0.000000
    7        7.341508  -0.000000
    8       10.256977   0.000000
 
  0.5000000E+00  0.4489796E+00  0.5510204E+00  0.4000000E-02
    1       -8.434263   1.000000
    2       -3.956192   1.000000
    3        0.629301   1.000000
    4        1.160567   1.000000
    5        3.899203  -0.000000
    6        6.784222  -0.000000
    7        7.279105  -0.000000
    8       10.244680   0.000000
 
  0.5000000E+00  0.4540816E+00  0.5459184E+00  0.4000000E-02
    1       -8.444602   1.000000
    2       -3.961765   1.000000
    3        0.727346   1.000000
    4        1.184697   1.000000
    5        3.799893  -0.000000
    6        6.815103  -0.000000
    7        7.222757  -0.000000
    8       10.224866   0.000000
 
  0.5000000E+00  0.4591837E+00  0.5408163E+00  0.4000000E-02
    1       -8.453905   1.000000
    2       -3.966876   1.000000
    3        0.822906   1.000000
    4        1.206414   1.000000
    5        3.703066  -0.000000
    6        6.845322  -0.000000
    7        7.172559  -0.000000
    8       10.199706   0.000000
 
  0.5000000E+00  0.4642857E+00  0.5357143E+00  0.4000000E-02
    1       -8.462166   1.000000
    2       -3.971524   1.000000
    3        0.914252   1.000000
    4        1.225481   1.000000
    5        3.609791  -0.000000
    6        6.874107  -0.000000
    7        7.128365  -0.000000
    8       10.171039   0.000000
 
  0.5000000E+00  0.4693878E+00  0.5306122E+00  0.4000000E-02
    1       -8.469350   1.000000
    2       -3.975613   1.000000
    3        1.000567   1.000000
    4        1.242117   1.000000
    5        3.522054  -0.000000
    6        6.900985  -0.000000
    7        7.090303  -0.000000
    8       10.141349   0.000000
 
  0.5000000E+00  0.4744898E+00  0.5255102E+00  0.4000000E-02
    1       -8.475431   1.000000
    2       -3.979111   1.000000
    3        1.079873   1.000000
    4        1.256269   1.000000
    5        3.441562  -0.000000
    6        6.925277  -0.000000
    7        7.058244  -0.000000
    8       10.112589   0.000000
 
  0.5000000E+00  0.4795918E+00  0.5204082E+00  0.4000000E-02
    1       -8.480439   1.000000
    2       -3.982033   1.000000
    3        1.149661   1.000000
    4        1.267793   1.000000
    5        3.370528  -0.000000
    6        6.946153  -0.000000
    7        7.032103  -0.000000
    8       10.086362   0.000000
 
  0.5000000E+00  0.4846939E+00  0.5153061E+00  0.4000000E-02
    1       -8.484345   1.000000
    2       -3.984331   1.000000
    3        1.207718   1.000000
    4        1.276757   1.000000
    5        3.311421  -0.000000
    6        6.963101  -0.000000
    7        7.011836  -0.000000
    8       10.064305   0.000000
 
  0.5000000E+00  0.4897959E+00  0.5102041E+00  0.4000000E-02
    1       -8.487139   1.000000
    2       -3.985986   1.000000
    3        1.251568   1.000000
    4        1.283161   1.000000
    5        3.266780  -0.000000
    6        6.975610  -0.000000
    7        6.997397  -0.000000
    8       10.047648   0.000000
 
  0.5000000E+00  0.4948980E+00  0.5051020E+00  0.4000000E-02
    1       -8.488818   1.000000
    2       -3.986985   1.000000
    3        1.278960   1.000000
    4        1.287004   1.000000
    5        3.238897  -0.000000
    6        6.983283  -0.000000
    7        6.988750  -0.000000
    8       10.037290   0.000000
 
  0.5000000E+00  0.5000000E+00  0.5000000E+00  0.4000000E-02
    1       -8.489379   1.000000
    2       -3.987318   1.000000
    3        1.288285   1.000000
    4        1.288285   1.000000
    5        3.229405  -0.000000
    6        6.985870  -0.000000
    7        6.985870  -0.000000
    8       10.033777   0.000000
 
  0.5000000E+00  0.5000000E+00  0.5000000E+00  0.4000000E-02
    1       -8.489379   1.000000
    2       -3.987318   1.000000
    3        1.288285   1.000000
    4        1.288285   1.000000
    5        3.229405  -0.000000
    6        6.985870  -0.000000
    7        6.985870  -0.000000
    8       10.033777   0.000000
 
  0.4897959E+00  0.4897959E+00  0.4897959E+00  0.4000000E-02
    1       -8.491914   1.000000
    2       -3.982404   1.000000
    3        1.289060   1.000000
    4        1.289060   1.000000
    5        3.230226  -0.000000
    6        6.986251  -0.000000
    7        6.986251  -0.000000
    8       10.033740   0.000000
 
  0.4795918E+00  0.4795918E+00  0.4795918E+00  0.4000000E-02
    1       -8.499483   1.000000
    2       -3.967699   1.000000
    3        1.291383   1.000000
    4        1.291383   1.000000
    5        3.232689  -0.000000
    6        6.987384  -0.000000
    7        6.987384  -0.000000
    8       10.033544   0.000000
 
  0.4693878E+00  0.4693878E+00  0.4693878E+00  0.4000000E-02
    1       -8.511976   1.000000
    2       -3.943321   1.000000
    3        1.295253   1.000000
    4        1.295253   1.000000
    5        3.236789  -0.000000
    6        6.989238  -0.000000
    7        6.989238  -0.000000
    8       10.032925   0.000000
 
  0.4591837E+00  0.4591837E+00  0.4591837E+00  0.4000000E-02
    1       -8.529232   1.000000
    2       -3.909659   1.000000
    3        1.300656   1.000000
    4        1.300656   1.000000
    5        3.242472  -0.000000
    6        6.991753  -0.000000
    7        6.991753  -0.000000
    8       10.031324   0.000000
 
  0.4489796E+00  0.4489796E+00  0.4489796E+00  0.4000000E-02
    1       -8.550969   1.000000
    2       -3.866571   1.000000
    3        1.307601   1.000000
    4        1.307601   1.000000
    5        3.249819  -0.000000
    6        6.994871  -0.000000
    7        6.994871  -0.000000
    8       10.028190   0.000000
 
  0.4387755E+00  0.4387755E+00  0.4387755E+00  0.4000000E-02
    1       -8.576875   1.000000
    2       -3.814163   1.000000
    3        1.316141   1.000000
    4        1.316141   1.000000
    5        3.258822  -0.000000
    6        6.998511  -0.000000
    7        6.998511  -0.000000
    8       10.022616   0.000000
 
  0.4285714E+00  0.4285714E+00  0.4285714E+00  0.4000000E-02
    1       -8.606695   1.000000
    2       -3.753558   1.000000
    3        1.326125   1.000000
    4        1.326125   1.000000
    5        3.269360  -0.000000
    6        7.002515  -0.000000
    7        7.002515  -0.000000
    8       10.012776   0.000000
 
  0.4183673E+00  0.4183673E+00  0.4183673E+00  0.4000000E-02
    1       -8.640032   1.000000
    2       -3.684743   1.000000
    3        1.337613   1.000000
    4        1.337613   1.000000
    5        3.281465  -0.000000
    6        7.006767  -0.000000
    7        7.006767  -0.000000
    8        9.996964   0.000000
 
  0.4081633E+00  0.4081633E+00  0.4081633E+00  0.4000000E-02
    1       -8.676509   1.000000
    2       -3.608108   1.000000
    3        1.350590   1.000000
    4        1.350590   1.000000
    5        3.295111  -0.000000
    6        7.011107  -0.000000
    7        7.011107  -0.000000
    8        9.972740   0.000000
 
  0.3979592E+00  0.3979592E+00  0.3979592E+00  0.4000000E-02
    1       -8.715747   1.000000
    2       -3.524053   1.000000
    3        1.365037   1.000000
    4        1.365037   1.000000
    5        3.310267  -0.000000
    6        7.015353  -0.000000
    7        7.015353  -0.000000
    8        9.937213   0.000000
 
  0.3877551E+00  0.3877551E+00  0.3877551E+00  0.4000000E-02
    1       -8.757359   1.000000
    2       -3.432883   1.000000
    3        1.381344   1.000000
    4        1.381344   1.000000
    5        3.326909  -0.000000
    6        7.019406  -0.000000
    7        7.019406  -0.000000
    8        9.887707   0.000000
 
  0.3775510E+00  0.3775510E+00  0.3775510E+00  0.4000000E-02
    1       -8.800997   1.000000
    2       -3.335191   1.000000
    3        1.398663   1.000000
    4        1.398663   1.000000
    5        3.344963  -0.000000
    6        7.022829  -0.000000
    7        7.022829  -0.000000
    8        9.820997   0.000000
 
  0.3673469E+00  0.3673469E+00  0.3673469E+00  0.4000000E-02
    1       -8.846350   1.000000
    2       -3.231272   1.000000
    3        1.417194   1.000000
    4        1.417194   1.000000
    5        3.364368  -0.000000
    6        7.025429  -0.000000
    7        7.025429  -0.000000
    8        9.736099   0.000000
 
  0.3571429E+00  0.3571429E+00  0.3571429E+00  0.4000000E-02
    1       -8.892985   1.000000
    2       -3.121468   1.000000
    3        1.437287   1.000000
    4        1.437287   1.000000
    5        3.385117  -0.000000
    6        7.027056  -0.000000
    7        7.027056  -0.000000
    8        9.633653   0.000000
 
  0.3469388E+00  0.3469388E+00  0.3469388E+00  0.4000000E-02
    1       -8.940662   1.000000
    2       -3.006256   1.000000
    3        1.458557   1.000000
    4        1.458557   1.000000
    5        3.407032  -0.000000
    6        7.027329  -0.000000
    7        7.027329  -0.000000
    8        9.515101   0.000000
 
  0.3367347E+00  0.3367347E+00  0.3367347E+00  0.4000000E-02
    1       -8.989023   1.000000
    2       -2.885749   1.000000
    3        1.481294   1.000000
    4        1.481294   1.000000
    5        3.430189  -0.000000
    6        7.026053  -0.000000
    7        7.026053  -0.000000
    8        9.384058   0.000000
 
  0.3265306E+00  0.3265306E+00  0.3265306E+00  0.4000000E-02
    1       -9.037829   1.000000
    2       -2.760375   1.000000
    3        1.505298   1.000000
    4        1.505298   1.000000
    5        3.454415  -0.000000
    6        7.022894  -0.000000
    7        7.022894  -0.000000
    8        9.243052   0.000000
 
  0.3163265E+00  0.3163265E+00  0.3163265E+00  0.4000000E-02
    1       -9.086820   1.000000
    2       -2.630217   1.000000
    3        1.530647   1.000000
    4        1.530647   1.000000
    5        3.479728  -0.000000
    6        7.017634  -0.000000
    7        7.017634  -0.000000
    8        9.094853   0.000000
 
  0.3061224E+00  0.3061224E+00  0.3061224E+00  0.4000000E-02
    1       -9.135781   1.000000
    2       -2.495983   1.000000
    3        1.557047   1.000000
    4        1.557047   1.000000
    5        3.505732  -0.000000
    6        7.009850  -0.000000
    7        7.009850  -0.000000
    8        8.941339   0.000000
 
  0.2959184E+00  0.2959184E+00  0.2959184E+00  0.4000000E-02
    1       -9.184487   1.000000
    2       -2.357445   1.000000
    3        1.584810   1.000000
    4        1.584810   1.000000
    5        3.532472  -0.000000
    6        6.999461  -0.000000
    7        6.999461  -0.000000
    8        8.784627   0.000000
 
  0.2857143E+00  0.2857143E+00  0.2857143E+00  0.4000000E-02
    1       -9.232759   1.000000
    2       -2.215376   1.000000
    3        1.613641   1.000000
    4        1.613641   1.000000
    5        3.559712  -0.000000
    6        6.986074  -0.000000
    7        6.986074  -0.000000
    8        8.625651   0.000000
 
  0.2755102E+00  0.2755102E+00  0.2755102E+00  0.4000000E-02
    1       -9.280428   1.000000
    2       -2.069795   1.000000
    3        1.643215   1.000000
    4        1.643215   1.000000
    5        3.587150  -0.000000
    6        6.969508  -0.000000
    7        6.969508  -0.000000
    8        8.465684   0.000000
 
  0.2653061E+00  0.2653061E+00  0.2653061E+00  0.4000000E-02
    1       -9.327365   1.000000
    2       -1.920946   1.000000
    3        1.673315   1.000000
    4        1.673315   1.000000
    5        3.614491  -0.000000
    6        6.949361  -0.000000
    7        6.949361  -0.000000
    8        8.305272   0.000000
 
  0.2551020E+00  0.2551020E+00  0.2551020E+00  0.4000000E-02
    1       -9.373343   1.000000
    2       -1.768952   1.000000
    3        1.704647   1.000001
    4        1.704647   1.000001
    5        3.641682  -0.000000
    6        6.926172  -0.000000
    7        6.926172  -0.000000
    8        8.145928   0.000000
 
  0.2448980E+00  0.2448980E+00  0.2448980E+00  0.4000000E-02
    1       -9.418272   1.000000
    2       -1.614067   1.000000
    3        1.736738   1.000002
    4        1.736738   1.000002
    5        3.668263  -0.000000
    6        6.899628  -0.000000
    7        6.899628  -0.000000
    8        7.987942   0.000000
 
  0.2346939E+00  0.2346939E+00  0.2346939E+00  0.4000000E-02
    1       -9.462029   1.000000
    2       -1.456244   1.000000
    3        1.769522   1.000006
    4        1.769522   1.000006
    5        3.693942  -0.000000
    6        6.869797  -0.000000
    7        6.869797  -0.000000
    8        7.832014  -0.000000
 
  0.2244898E+00  0.2244898E+00  0.2244898E+00  0.4000000E-02
    1       -9.504521   1.000000
    2       -1.296193   1.000000
    3        1.802839   1.000017
    4        1.802839   1.000017
    5        3.718019  -0.000000
    6        6.836790  -0.000000
    7        6.836790  -0.000000
    8        7.678589  -0.000000
 
  0.2142857E+00  0.2142857E+00  0.2142857E+00  0.4000000E-02
    1       -9.545646   1.000000
    2       -1.133845   1.000000
    3        1.836603   1.000047
    4        1.836603   1.000047
    5        3.740055  -0.000000
    6        6.800820  -0.000000
    7        6.800820  -0.000000
    8        7.528369  -0.000000
 
  0.2040816E+00  0.2040816E+00  0.2040816E+00  0.4000000E-02
    1       -9.585313   1.000000
    2       -0.969391   1.000000
    3        1.870691   1.000123
    4        1.870691   1.000123
    5        3.759409  -0.000000
    6        6.762154  -0.000000
    7        6.762154  -0.000000
    8        7.381998  -0.000000
 
  0.1938776E+00  0.1938776E+00  0.1938776E+00  0.4000000E-02
    1       -9.623443   1.000000
    2       -0.803020   1.000000
    3        1.904972   1.000304
    4        1.904972   1.000304
    5        3.775338  -0.000000
    6        6.721121  -0.000000
    7        6.721121  -0.000000
    8        7.240178  -0.000000
 
  0.1836735E+00  0.1836735E+00  0.1836735E+00  0.4000000E-02
    1       -9.659971   1.000000
    2       -0.634922   1.000000
    3        1.939301   1.000707
    4        1.939301   1.000707
    5        3.786997  -0.000000
    6        6.678104  -0.000000
    7        6.678104  -0.000000
    8        7.103670  -0.000000
 
  0.1734694E+00  0.1734694E+00  0.1734694E+00  0.4000000E-02
    1       -9.694829   1.000000
    2       -0.465291   1.000000
    3        1.973521   1.001532
    4        1.973521   1.001532
    5        3.793434  -0.000000
    6        6.633524  -0.000000
    7        6.633524  -0.000000
    8        6.973295  -0.000000
 
  0.1632653E+00  0.1632653E+00  0.1632653E+00  0.4000000E-02
    1       -9.727957   1.000000
    2       -0.294324   1.000000
    3        2.007465   1.003081
    4        2.007465   1.003081
    5        3.793599  -0.000000
    6        6.587839  -0.000000
    7        6.587839  -0.000000
    8        6.849933  -0.000000
 
  0.1530612E+00  0.1530612E+00  0.1530612E+00  0.4000000E-02
    1       -9.759371   1.000000
    2       -0.122318   1.000000
    3        2.040664   1.005699
    4        2.040664   1.005699
    5        3.786215  -0.000000
    6        6.541381  -0.000000
    7        6.541381  -0.000000
    8        6.734310  -0.000000
 
  0.1428571E+00  0.1428571E+00  0.1428571E+00  0.4000000E-02
    1       -9.788887   1.000000
    2        0.050706   1.000000
    3        2.073491   1.009763
    4        2.073491   1.009763
    5        3.770440  -0.000000
    6        6.494944  -0.000000
    7        6.494944  -0.000000
    8        6.627721  -0.000000
 
  0.1326531E+00  0.1326531E+00  0.1326531E+00  0.4000000E-02
    1       -9.816530   1.000000
    2        0.224438   1.000000
    3        2.105466   1.015348
    4        2.105466   1.015348
    5        3.745017  -0.000000
    6        6.448884  -0.000000
    7        6.448884  -0.000000
    8        6.530795  -0.000000
 
  0.1224490E+00  0.1224490E+00  0.1224490E+00  0.4000000E-02
    1       -9.842276   1.000000
    2        0.398409   1.000000
    3        2.136368   1.022048
    4        2.136368   1.022048
    5        3.708690  -0.000000
    6        6.403701  -0.000000
    7        6.403701  -0.000000
    8        6.443769  -0.000000
 
  0.1122449E+00  0.1122449E+00  0.1122449E+00  0.4000000E-02
    1       -9.866062   1.000000
    2        0.572867   1.000000
    3        2.165990   1.028796
    4        2.165990   1.028796
    5        3.661155  -0.000000
    6        6.359907  -0.000000
    7        6.359907  -0.000000
    8        6.367996  -0.000000
 
  0.1020408E+00  0.1020408E+00  0.1020408E+00  0.4000000E-02
    1       -9.887872   1.000000
    2        0.747321   1.000000
    3        2.194098   1.033895
    4        2.194098   1.033895
    5        3.601670  -0.000000
    6        6.303172  -0.000000
    7        6.317982  -0.000000
    8        6.317982  -0.000000
 
  0.9183673E-01  0.9183673E-01  0.9183673E-01  0.4000000E-02
    1       -9.907714   1.000000
    2        0.921350   1.000000
    3        2.220394   1.035375
    4        2.220394   1.035375
    5        3.529871  -0.000000
    6        6.248897  -0.000000
    7        6.278386  -0.000000
    8        6.278386  -0.000000
 