 vasp.5.4.4.18Apr17-6-g9f103f2a35 (build May 20 2018 16:52:39) complex          
  
 executed on             LinuxIFC date 2022.10.31  01:34:06
 running on    1 total cores
 distrk:  each k-point on    1 cores,    1 groups
 distr:  one band on NCORES_PER_BAND=   1 cores,    1 groups


--------------------------------------------------------------------------------------------------------


 INCAR:
 POTCAR:    PAW Ga                                
 POTCAR:    PAW As                                
 POTCAR:    PAW Ga                                
   VRHFIN =Ga: s2p1                                                             
   LEXCH  = 91                                                                  
   EATOM  =    59.0602 eV,    4.3408 Ry                                         
                                                                                
   TITEL  = PAW Ga                                                              
   LULTRA =        F    use ultrasoft PP ?                                      
   IUNSCR =        1    unscreen: 0-lin 1-nonlin 2-no                           
   RPACOR =    2.170    partial core radius                                     
   POMASS =   69.723; ZVAL   =    3.000    mass and valenz                      
   RCORE  =    2.600    outmost cutoff radius                                   
   RWIGS  =    2.650; RWIGS  =    1.402    wigner-seitz radius (au A)           
   ENMAX  =  134.733; ENMIN  =  101.050 eV                                      
   ICORE  =        3    local potential                                         
   LCOR   =        T    correct aug charges                                     
   LPAW   =        T    paw PP                                                  
   EAUG   =  320.264                                                            
   DEXC   =    -.088                                                            
   RMAX   =    3.972    core radius for proj-oper                               
   RAUG   =    1.300    factor for augmentation sphere                          
   RDEP   =    2.684    radius for radial grids                                 
   QCUT   =   -3.147; QGAM   =    6.294    optimization parameters              
                                                                                
   Description                                                                  
     l     E      TYP  RCUT    TYP  RCUT                                        
     0   .000     23  2.600                                                     
     0   .000     23  2.600                                                     
     1   .000     23  2.600                                                     
     1   .000     23  2.600                                                     
     2   .100     23  2.600                                                     
     3  -.100      7  2.600                                                     
  local pseudopotential read in
  partial core-charges read in
  atomic valenz-charges read in
  non local Contribution for L=           0  read in
    real space projection operators read in
  non local Contribution for L=           0  read in
    real space projection operators read in
  non local Contribution for L=           1  read in
    real space projection operators read in
  non local Contribution for L=           1  read in
    real space projection operators read in
  non local Contribution for L=           2  read in
    real space projection operators read in
    PAW grid and wavefunctions read in
 
   number of l-projection  operators is LMAX  =           5
   number of lm-projection operators is LMMAX =          13
 
 POTCAR:    PAW As                                
   VRHFIN =As: s2p3                                                             
   LEXCH  = 91                                                                  
   EATOM  =   170.5562 eV,   12.5355 Ry                                         
                                                                                
   TITEL  = PAW As                                                              
   LULTRA =        F    use ultrasoft PP ?                                      
   IUNSCR =        1    unscreen: 0-lin 1-nonlin 2-no                           
   RPACOR =    1.900    partial core radius                                     
   POMASS =   74.922; ZVAL   =    5.000    mass and valenz                      
   RCORE  =    2.100    outmost cutoff radius                                   
   RWIGS  =    2.300; RWIGS  =    1.217    wigner-seitz radius (au A)           
   ENMAX  =  208.733; ENMIN  =  156.550 eV                                      
   ICORE  =        3    local potential                                         
   LCOR   =        T    correct aug charges                                     
   LPAW   =        T    paw PP                                                  
   EAUG   =  462.758                                                            
   DEXC   =    -.071                                                            
   RMAX   =    3.191    core radius for proj-oper                               
   RAUG   =    1.300    factor for augmentation sphere                          
   RDEP   =    2.140    core radius for depl-charge                             
   QCUT   =   -3.917; QGAM   =    7.834    optimization parameters              
                                                                                
   Description                                                                  
     l     E      TYP  RCUT    TYP  RCUT                                        
     0   .000     23  2.100                                                     
     0   .000     23  2.100                                                     
     1   .000     23  2.100                                                     
     1   .000     23  2.100                                                     
     2   .000     23  2.100                                                     
     3  -.100      7  2.100                                                     
  local pseudopotential read in
  partial core-charges read in
  atomic valenz-charges read in
  non local Contribution for L=           0  read in
    real space projection operators read in
  non local Contribution for L=           0  read in
    real space projection operators read in
  non local Contribution for L=           1  read in
    real space projection operators read in
  non local Contribution for L=           1  read in
    real space projection operators read in
  non local Contribution for L=           2  read in
    real space projection operators read in
    PAW grid and wavefunctions read in
 
   number of l-projection  operators is LMAX  =           5
   number of lm-projection operators is LMMAX =          13
 
  PAW Ga                                :
 energy of atom  1       EATOM=  -59.0602
 kinetic energy error for atom=    0.0006 (will be added to EATOM!!)
  PAW As                                :
 energy of atom  2       EATOM= -170.5562
 kinetic energy error for atom=    0.0108 (will be added to EATOM!!)
 
 
 POSCAR: GaAs                                    
  positions in direct lattice
  velocities in cartesian coordinates
 exchange correlation table for  LEXCH =        7
   RHO(1)=    0.500       N(1)  =     2000
   RHO(2)=  100.500       N(2)  =     4000
 


--------------------------------------------------------------------------------------------------------


 ion  position               nearest neighbor table
   1  0.000  0.000  0.000-   2 2.49   2 2.49   2 2.49   2 2.49
   2  0.250  0.250  0.250-   1 2.49   1 2.49   1 2.49   1 2.49
 
  LATTYP: Found a face centered cubic cell.
 ALAT       =     5.7528388383
  
  Lattice vectors:
  
 A1 = (   0.0000000000,   2.8764194191,   2.8764194191)
 A2 = (   2.8764194191,   0.0000000000,   2.8764194191)
 A3 = (   2.8764194191,   2.8764194191,   0.0000000000)


Analysis of symmetry for initial positions (statically):
=====================================================================
 Subroutine PRICEL returns:
 Original cell was already a primitive cell.
 

 Routine SETGRP: Setting up the symmetry group for a 
 face centered cubic supercell.


 Subroutine GETGRP returns: Found 24 space group operations
 (whereof 24 operations were pure point group operations)
 out of a pool of 48 trial point group operations.


The static configuration has the point symmetry T_d .


Analysis of symmetry for dynamics (positions and initial velocities):
=====================================================================
 Subroutine PRICEL returns:
 Original cell was already a primitive cell.
 

 Routine SETGRP: Setting up the symmetry group for a 
 face centered cubic supercell.


 Subroutine GETGRP returns: Found 24 space group operations
 (whereof 24 operations were pure point group operations)
 out of a pool of 48 trial point group operations.


The dynamic configuration has the point symmetry T_d .


 Subroutine INISYM returns: Found 24 space group operations
 (whereof 24 operations are pure point group operations),
 and found     1 'primitive' translations

 
 
 KPOINTS: K-points along high symmetry lines for F
  interpolating k-points between supplied coordinates
  k-points in reciprocal lattice
Space group operators:
 irot       det(A)        alpha          n_x          n_y          n_z        tau_x        tau_y        tau_z
    1     1.000000     0.000001     1.000000     0.000000     0.000000     0.000000     0.000000     0.000000
    2     1.000000   120.000000    -0.577350    -0.577350    -0.577350     0.000000     0.000000     0.000000
    3     1.000000   120.000000     0.577350     0.577350     0.577350     0.000000     0.000000     0.000000
    4    -1.000000    90.000000     0.000000     0.000000    -1.000000     0.000000     0.000000     0.000000
    5    -1.000000   180.000000     0.000000     0.707107     0.707107     0.000000     0.000000     0.000000
    6    -1.000000    90.000000     0.000000     1.000000     0.000000     0.000000     0.000000     0.000000
    7     1.000000   180.000000     0.000000     0.000000     1.000000     0.000000     0.000000     0.000000
    8     1.000000   120.000000    -0.577350     0.577350     0.577350     0.000000     0.000000     0.000000
    9     1.000000   120.000000    -0.577350     0.577350    -0.577350     0.000000     0.000000     0.000000
   10    -1.000000    90.000000     0.000000     0.000000     1.000000     0.000000     0.000000     0.000000
   11    -1.000000    90.000000    -1.000000     0.000000     0.000000     0.000000     0.000000     0.000000
   12    -1.000000   180.000000     0.707107     0.000000     0.707107     0.000000     0.000000     0.000000
   13     1.000000   120.000000     0.577350    -0.577350     0.577350     0.000000     0.000000     0.000000
   14     1.000000   120.000000    -0.577350    -0.577350     0.577350     0.000000     0.000000     0.000000
   15     1.000000   180.000000     1.000000     0.000000     0.000000     0.000000     0.000000     0.000000
   16    -1.000000    90.000000     0.000000    -1.000000     0.000000     0.000000     0.000000     0.000000
   17    -1.000000   180.000000     0.707107     0.707107     0.000000     0.000000     0.000000     0.000000
   18    -1.000000    90.000000     1.000000     0.000000     0.000000     0.000000     0.000000     0.000000
   19     1.000000   120.000000     0.577350    -0.577350    -0.577350     0.000000     0.000000     0.000000
   20     1.000000   180.000000     0.000000     1.000000     0.000000     0.000000     0.000000     0.000000
   21     1.000000   120.000000     0.577350     0.577350    -0.577350     0.000000     0.000000     0.000000
   22    -1.000000   180.000000     0.000000    -0.707107     0.707107     0.000000     0.000000     0.000000
   23    -1.000000   180.000000     0.707107    -0.707107     0.000000     0.000000     0.000000     0.000000
   24    -1.000000   180.000000     0.707107     0.000000    -0.707107     0.000000     0.000000     0.000000


--------------------------------------------------------------------------------------------------------




 Dimension of arrays:
   k-points           NKPTS =    250   k-points in BZ     NKDIM =    250   number of bands    NBANDS=      8
   number of dos      NEDOS =    301   number of ions     NIONS =      2
   non local maximal  LDIM  =      5   non local SUM 2l+1 LMDIM =     13
   total plane-waves  NPLWV =   2744
   max r-space proj   IRMAX =      1   max aug-charges    IRDMAX=   4342
   dimension x,y,z NGX =    14 NGY =   14 NGZ =   14
   dimension x,y,z NGXF=    28 NGYF=   28 NGZF=   28
   support grid    NGXF=    28 NGYF=   28 NGZF=   28
   ions per type =               1   1
   NGX,Y,Z   is equivalent  to a cutoff of   5.72,  5.72,  5.72 a.u.
   NGXF,Y,Z  is equivalent  to a cutoff of  11.44, 11.44, 11.44 a.u.

 SYSTEM =  GaAs                                    
 POSCAR =  GaAs                                    

 Startparameter for this run:
   NWRITE =      2    write-flag & timer
   PREC   = normal    normal or accurate (medium, high low for compatibility)
   ISTART =      0    job   : 0-new  1-cont  2-samecut
   ICHARG =     11    charge: 1-file 2-atom 10-const
   ISPIN  =      1    spin polarized calculation?
   LNONCOLLINEAR =      F non collinear calculations
   LSORBIT =      F    spin-orbit coupling
   INIWAV =      1    electr: 0-lowe 1-rand  2-diag
   LASPH  =      F    aspherical Exc in radial PAW
   METAGGA=      F    non-selfconsistent MetaGGA calc.

 Electronic Relaxation 1
   ENCUT  =  208.7 eV  15.34 Ry    3.92 a.u.   4.79  4.79  4.79*2*pi/ulx,y,z
   ENINI  =  208.7     initial cutoff
   ENAUG  =  462.8 eV  augmentation charge cutoff
   NELM   =     60;   NELMIN=  2; NELMDL=  0     # of ELM steps 
   EDIFF  = 0.1E-05   stopping-criterion for ELM
   LREAL  =      F    real-space projection
   NLSPLINE    = F    spline interpolate recip. space projectors
   LCOMPAT=      F    compatible to vasp.4.4
   GGA_COMPAT  = T    GGA compatible to vasp.4.4-vasp.4.6
   LMAXPAW     = -100 max onsite density
   LMAXMIX     =    2 max onsite mixed and CHGCAR
   VOSKOWN=      0    Vosko Wilk Nusair interpolation
   ROPT   =    0.00000   0.00000
 Ionic relaxation
   EDIFFG = 0.1E-04   stopping-criterion for IOM
   NSW    =      0    number of steps for IOM
   NBLOCK =      1;   KBLOCK =      1    inner block; outer block 
   IBRION =     -1    ionic relax: 0-MD 1-quasi-New 2-CG
   NFREE  =      0    steps in history (QN), initial steepest desc. (CG)
   ISIF   =      2    stress and relaxation
   IWAVPR =     10    prediction:  0-non 1-charg 2-wave 3-comb
   ISYM   =      2    0-nonsym 1-usesym 2-fastsym
   LCORR  =      T    Harris-Foulkes like correction to forces

   POTIM  = 0.5000    time-step for ionic-motion
   TEIN   =    0.0    initial temperature
   TEBEG  =    0.0;   TEEND  =   0.0 temperature during run
   SMASS  =  -3.00    Nose mass-parameter (am)
   estimated Nose-frequenzy (Omega)   =  0.10E-29 period in steps =****** mass=  -0.378E-27a.u.
   SCALEE = 1.0000    scale energy and forces
   NPACO  =    256;   APACO  = 16.0  distance and # of slots for P.C.
   PSTRESS=    0.0 pullay stress

  Mass of Ions in am
   POMASS =  69.72 74.92
  Ionic Valenz
   ZVAL   =   3.00  5.00
  Atomic Wigner-Seitz radii
   RWIGS  =  -1.00 -1.00
  virtual crystal weights 
   VCA    =   1.00  1.00
   NELECT =       8.0000    total number of electrons
   NUPDOWN=      -1.0000    fix difference up-down

 DOS related values:
   EMIN   =  10.00;   EMAX   =-10.00  energy-range for DOS
   EFERMI =   0.00
   ISMEAR =     1;   SIGMA  =   0.20  broadening in eV -4-tet -1-fermi 0-gaus

 Electronic relaxation 2 (details)
   IALGO  =     38    algorithm
   LDIAG  =      T    sub-space diagonalisation (order eigenvalues)
   LSUBROT=      F    optimize rotation matrix (better conditioning)
   TURBO    =      0    0=normal 1=particle mesh
   IRESTART =      0    0=no restart 2=restart with 2 vectors
   NREBOOT  =      0    no. of reboots
   NMIN     =      0    reboot dimension
   EREF     =   0.00    reference energy to select bands
   IMIX   =      4    mixing-type and parameters
     AMIX     =   0.40;   BMIX     =  1.00
     AMIX_MAG =   1.60;   BMIX_MAG =  1.00
     AMIN     =   0.10
     WC   =   100.;   INIMIX=   1;  MIXPRE=   1;  MAXMIX= -45

 Intra band minimization:
   WEIMIN = 0.0000     energy-eigenvalue tresh-hold
   EBREAK =  0.31E-07  absolut break condition
   DEPER  =   0.30     relativ break condition  

   TIME   =   0.40     timestep for ELM

  volume/ion in A,a.u.               =      23.80       160.60
  Fermi-wavevector in a.u.,A,eV,Ry     =   0.903461  1.707293 11.105637  0.816241
  Thomas-Fermi vector in A             =   2.026789
 
 Write flags
   LWAVE        =      F    write WAVECAR
   LDOWNSAMPLE  =      F    k-point downsampling of WAVECAR
   LCHARG       =      F    write CHGCAR
   LVTOT        =      F    write LOCPOT, total local potential
   LVHAR        =      F    write LOCPOT, Hartree potential only
   LELF         =      F    write electronic localiz. function (ELF)
   LORBIT       =      0    0 simple, 1 ext, 2 COOP (PROOUT), +10 PAW based schemes


 Dipole corrections
   LMONO  =      F    monopole corrections only (constant potential shift)
   LDIPOL =      F    correct potential (dipole corrections)
   IDIPOL =      0    1-x, 2-y, 3-z, 4-all directions 
   EPSILON=  1.0000000 bulk dielectric constant

 Exchange correlation treatment:
   GGA     =    --    GGA type
   LEXCH   =     7    internal setting for exchange type
   VOSKOWN=      0    Vosko Wilk Nusair interpolation
   LHFCALC =     F    Hartree Fock is set to
   LHFONE  =     F    Hartree Fock one center treatment
   AEXX    =    0.0000 exact exchange contribution

 Linear response parameters
   LEPSILON=     F    determine dielectric tensor
   LRPA    =     F    only Hartree local field effects (RPA)
   LNABLA  =     F    use nabla operator in PAW spheres
   LVEL    =     F    velocity operator in full k-point grid
   LINTERFAST=   F  fast interpolation
   KINTER  =     0    interpolate to denser k-point grid
   CSHIFT  =0.1000    complex shift for real part using Kramers Kronig
   OMEGAMAX=  -1.0    maximum frequency
   DEG_THRESHOLD= 0.2000000E-02 threshold for treating states as degnerate
   RTIME   =   -0.100 relaxation time in fs
  (WPLASMAI=    0.000 imaginary part of plasma frequency in eV, 0.658/RTIME)
   DFIELD  = 0.0000000 0.0000000 0.0000000 field for delta impulse in time
 
 Orbital magnetization related:
   ORBITALMAG=     F  switch on orbital magnetization
   LCHIMAG   =     F  perturbation theory with respect to B field
   DQ        =  0.001000  dq finite difference perturbation B field
   LLRAUG    =     F  two centre corrections for induced B field



--------------------------------------------------------------------------------------------------------


 Static calculation
 charge density and potential remain constant during run
 non-spin polarized calculation
 Variant of blocked Davidson
 Davidson routine will perform the subspace rotation
 perform sub-space diagonalisation
    after iterative eigenvector-optimisation
 no mixing
 using additional bands            4
 reciprocal scheme for non local part
 use partial core corrections
 calculate Harris-corrections to forces 
   (improved forces if not selfconsistent)
 use gradient corrections 
 WARNING: stress and forces are not correct
  (second derivative of E(xc) not defined)
 use of overlap-Matrix (Vanderbilt PP)
 Methfessel and Paxton  Order N= 1 SIGMA  =   0.20


--------------------------------------------------------------------------------------------------------


  energy-cutoff  :      208.73
  volume of cell :       47.60
      direct lattice vectors                 reciprocal lattice vectors
     0.000000000  2.876419419  2.876419419    -0.173827223  0.173827223  0.173827223
     2.876419419  0.000000000  2.876419419     0.173827223 -0.173827223  0.173827223
     2.876419419  2.876419419  0.000000000     0.173827223  0.173827223 -0.173827223

  length of vectors
     4.067871354  4.067871354  4.067871354     0.301077582  0.301077582  0.301077582


 
 k-points in units of 2pi/SCALE and weight: K-points along high symmetry lines for F
   0.49975327  0.99950653  0.00000000       0.004
   0.49975327  0.98930749  0.01019905       0.004
   0.49975327  0.97910844  0.02039809       0.004
   0.49975327  0.96890939  0.03059714       0.004
   0.49975327  0.95871035  0.04079619       0.004
   0.49975327  0.94851130  0.05099523       0.004
   0.49975327  0.93831226  0.06119428       0.004
   0.49975327  0.92811321  0.07139332       0.004
   0.49975327  0.91791416  0.08159237       0.004
   0.49975327  0.90771512  0.09179142       0.004
   0.49975327  0.89751607  0.10199046       0.004
   0.49975327  0.88731702  0.11218951       0.004
   0.49975327  0.87711798  0.12238856       0.004
   0.49975327  0.86691893  0.13258760       0.004
   0.49975327  0.85671989  0.14278665       0.004
   0.49975327  0.84652084  0.15298569       0.004
   0.49975327  0.83632179  0.16318474       0.004
   0.49975327  0.82612275  0.17338379       0.004
   0.49975327  0.81592370  0.18358283       0.004
   0.49975327  0.80572465  0.19378188       0.004
   0.49975327  0.79552561  0.20398093       0.004
   0.49975327  0.78532656  0.21417997       0.004
   0.49975327  0.77512752  0.22437902       0.004
   0.49975327  0.76492847  0.23457806       0.004
   0.49975327  0.75472942  0.24477711       0.004
   0.49975327  0.74453038  0.25497616       0.004
   0.49975327  0.73433133  0.26517520       0.004
   0.49975327  0.72413228  0.27537425       0.004
   0.49975327  0.71393324  0.28557330       0.004
   0.49975327  0.70373419  0.29577234       0.004
   0.49975327  0.69353515  0.30597139       0.004
   0.49975327  0.68333610  0.31617043       0.004
   0.49975327  0.67313705  0.32636948       0.004
   0.49975327  0.66293801  0.33656853       0.004
   0.49975327  0.65273896  0.34676757       0.004
   0.49975327  0.64253991  0.35696662       0.004
   0.49975327  0.63234087  0.36716567       0.004
   0.49975327  0.62214182  0.37736471       0.004
   0.49975327  0.61194278  0.38756376       0.004
   0.49975327  0.60174373  0.39776280       0.004
   0.49975327  0.59154468  0.40796185       0.004
   0.49975327  0.58134564  0.41816090       0.004
   0.49975327  0.57114659  0.42835994       0.004
   0.49975327  0.56094754  0.43855899       0.004
   0.49975327  0.55074850  0.44875804       0.004
   0.49975327  0.54054945  0.45895708       0.004
   0.49975327  0.53035041  0.46915613       0.004
   0.49975327  0.52015136  0.47935517       0.004
   0.49975327  0.50995231  0.48955422       0.004
   0.49975327  0.49975327  0.49975327       0.004
   0.49975327  0.49975327  0.49975327       0.004
   0.48955422  0.48955422  0.48955422       0.004
   0.47935517  0.47935517  0.47935517       0.004
   0.46915613  0.46915613  0.46915613       0.004
   0.45895708  0.45895708  0.45895708       0.004
   0.44875804  0.44875804  0.44875804       0.004
   0.43855899  0.43855899  0.43855899       0.004
   0.42835994  0.42835994  0.42835994       0.004
   0.41816090  0.41816090  0.41816090       0.004
   0.40796185  0.40796185  0.40796185       0.004
   0.39776280  0.39776280  0.39776280       0.004
   0.38756376  0.38756376  0.38756376       0.004
   0.37736471  0.37736471  0.37736471       0.004
   0.36716567  0.36716567  0.36716567       0.004
   0.35696662  0.35696662  0.35696662       0.004
   0.34676757  0.34676757  0.34676757       0.004
   0.33656853  0.33656853  0.33656853       0.004
   0.32636948  0.32636948  0.32636948       0.004
   0.31617043  0.31617043  0.31617043       0.004
   0.30597139  0.30597139  0.30597139       0.004
   0.29577234  0.29577234  0.29577234       0.004
   0.28557330  0.28557330  0.28557330       0.004
   0.27537425  0.27537425  0.27537425       0.004
   0.26517520  0.26517520  0.26517520       0.004
   0.25497616  0.25497616  0.25497616       0.004
   0.24477711  0.24477711  0.24477711       0.004
   0.23457806  0.23457806  0.23457806       0.004
   0.22437902  0.22437902  0.22437902       0.004
   0.21417997  0.21417997  0.21417997       0.004
   0.20398093  0.20398093  0.20398093       0.004
   0.19378188  0.19378188  0.19378188       0.004
   0.18358283  0.18358283  0.18358283       0.004
   0.17338379  0.17338379  0.17338379       0.004
   0.16318474  0.16318474  0.16318474       0.004
   0.15298569  0.15298569  0.15298569       0.004
   0.14278665  0.14278665  0.14278665       0.004
   0.13258760  0.13258760  0.13258760       0.004
   0.12238856  0.12238856  0.12238856       0.004
   0.11218951  0.11218951  0.11218951       0.004
   0.10199046  0.10199046  0.10199046       0.004
   0.09179142  0.09179142  0.09179142       0.004
   0.08159237  0.08159237  0.08159237       0.004
   0.07139332  0.07139332  0.07139332       0.004
   0.06119428  0.06119428  0.06119428       0.004
   0.05099523  0.05099523  0.05099523       0.004
   0.04079619  0.04079619  0.04079619       0.004
   0.03059714  0.03059714  0.03059714       0.004
   0.02039809  0.02039809  0.02039809       0.004
   0.01019905  0.01019905  0.01019905       0.004
   0.00000000  0.00000000  0.00000000       0.004
   0.00000000  0.00000000  0.00000000       0.004
   0.00000000  0.02039809  0.00000000       0.004
   0.00000000  0.04079619  0.00000000       0.004
   0.00000000  0.06119428  0.00000000       0.004
   0.00000000  0.08159237  0.00000000       0.004
   0.00000000  0.10199046  0.00000000       0.004
   0.00000000  0.12238856  0.00000000       0.004
   0.00000000  0.14278665  0.00000000       0.004
   0.00000000  0.16318474  0.00000000       0.004
   0.00000000  0.18358283  0.00000000       0.004
   0.00000000  0.20398093  0.00000000       0.004
   0.00000000  0.22437902  0.00000000       0.004
   0.00000000  0.24477711  0.00000000       0.004
   0.00000000  0.26517520  0.00000000       0.004
   0.00000000  0.28557330  0.00000000       0.004
   0.00000000  0.30597139  0.00000000       0.004
   0.00000000  0.32636948  0.00000000       0.004
   0.00000000  0.34676757  0.00000000       0.004
   0.00000000  0.36716567  0.00000000       0.004
   0.00000000  0.38756376  0.00000000       0.004
   0.00000000  0.40796185  0.00000000       0.004
   0.00000000  0.42835994  0.00000000       0.004
   0.00000000  0.44875804  0.00000000       0.004
   0.00000000  0.46915613  0.00000000       0.004
   0.00000000  0.48955422  0.00000000       0.004
   0.00000000  0.50995231  0.00000000       0.004
   0.00000000  0.53035041  0.00000000       0.004
   0.00000000  0.55074850  0.00000000       0.004
   0.00000000  0.57114659  0.00000000       0.004
   0.00000000  0.59154468  0.00000000       0.004
   0.00000000  0.61194278  0.00000000       0.004
   0.00000000  0.63234087  0.00000000       0.004
   0.00000000  0.65273896  0.00000000       0.004
   0.00000000  0.67313705  0.00000000       0.004
   0.00000000  0.69353515  0.00000000       0.004
   0.00000000  0.71393324  0.00000000       0.004
   0.00000000  0.73433133  0.00000000       0.004
   0.00000000  0.75472942  0.00000000       0.004
   0.00000000  0.77512752  0.00000000       0.004
   0.00000000  0.79552561  0.00000000       0.004
   0.00000000  0.81592370  0.00000000       0.004
   0.00000000  0.83632179  0.00000000       0.004
   0.00000000  0.85671989  0.00000000       0.004
   0.00000000  0.87711798  0.00000000       0.004
   0.00000000  0.89751607  0.00000000       0.004
   0.00000000  0.91791416  0.00000000       0.004
   0.00000000  0.93831226  0.00000000       0.004
   0.00000000  0.95871035  0.00000000       0.004
   0.00000000  0.97910844  0.00000000       0.004
   0.00000000  0.99950653  0.00000000       0.004
   0.00000000  0.99950653  0.00000000       0.004
   0.01019905  0.99950653  0.00000000       0.004
   0.02039809  0.99950653  0.00000000       0.004
   0.03059714  0.99950653  0.00000000       0.004
   0.04079619  0.99950653  0.00000000       0.004
   0.05099523  0.99950653  0.00000000       0.004
   0.06119428  0.99950653  0.00000000       0.004
   0.07139332  0.99950653  0.00000000       0.004
   0.08159237  0.99950653 -0.00000000       0.004
   0.09179142  0.99950653  0.00000000       0.004
   0.10199046  0.99950653  0.00000000       0.004
   0.11218951  0.99950653  0.00000000       0.004
   0.12238856  0.99950653  0.00000000       0.004
   0.13258760  0.99950653  0.00000000       0.004
   0.14278665  0.99950653  0.00000000       0.004
   0.15298569  0.99950653 -0.00000000       0.004
   0.16318474  0.99950653  0.00000000       0.004
   0.17338379  0.99950653  0.00000000       0.004
   0.18358283  0.99950653  0.00000000       0.004
   0.19378188  0.99950653  0.00000000       0.004
   0.20398093  0.99950653  0.00000000       0.004
   0.21417997  0.99950653  0.00000000       0.004
   0.22437902  0.99950653  0.00000000       0.004
   0.23457806  0.99950653  0.00000000       0.004
   0.24477711  0.99950653  0.00000000       0.004
   0.25497616  0.99950653  0.00000000       0.004
   0.26517520  0.99950653 -0.00000000       0.004
   0.27537425  0.99950653  0.00000000       0.004
   0.28557330  0.99950653  0.00000000       0.004
   0.29577234  0.99950653  0.00000000       0.004
   0.30597139  0.99950653  0.00000000       0.004
   0.31617043  0.99950653  0.00000000       0.004
   0.32636948  0.99950653  0.00000000       0.004
   0.33656853  0.99950653 -0.00000000       0.004
   0.34676757  0.99950653  0.00000000       0.004
   0.35696662  0.99950653  0.00000000       0.004
   0.36716567  0.99950653  0.00000000       0.004
   0.37736471  0.99950653  0.00000000       0.004
   0.38756376  0.99950653  0.00000000       0.004
   0.39776280  0.99950653  0.00000000       0.004
   0.40796185  0.99950653 -0.00000000       0.004
   0.41816090  0.99950653  0.00000000       0.004
   0.42835994  0.99950653 -0.00000000       0.004
   0.43855899  0.99950653  0.00000000       0.004
   0.44875804  0.99950653  0.00000000       0.004
   0.45895708  0.99950653  0.00000000       0.004
   0.46915613  0.99950653  0.00000000       0.004
   0.47935517  0.99950653  0.00000000       0.004
   0.48955422  0.99950653  0.00000000       0.004
   0.49975327  0.99950653  0.00000000       0.004
   0.49975327  0.99950653  0.00000000       0.004
   0.48955422  0.99950653  0.00000000       0.004
   0.47935517  0.99950653  0.00000000       0.004
   0.46915613  0.99950653  0.00000000       0.004
   0.45895708  0.99950653  0.00000000       0.004
   0.44875804  0.99950653  0.00000000       0.004
   0.43855899  0.99950653  0.00000000       0.004
   0.42835994  0.99950653  0.00000000       0.004
   0.41816090  0.99950653  0.00000000       0.004
   0.40796185  0.99950653 -0.00000000       0.004
   0.39776280  0.99950653 -0.00000000       0.004
   0.38756376  0.99950653  0.00000000       0.004
   0.37736471  0.99950653 -0.00000000       0.004
   0.36716567  0.99950653  0.00000000       0.004
   0.35696662  0.99950653  0.00000000       0.004
   0.34676757  0.99950653  0.00000000       0.004
   0.33656853  0.99950653  0.00000000       0.004
   0.32636948  0.99950653  0.00000000       0.004
   0.31617043  0.99950653  0.00000000       0.004
   0.30597139  0.99950653 -0.00000000       0.004
   0.29577234  0.99950653  0.00000000       0.004
   0.28557330  0.99950653 -0.00000000       0.004
   0.27537425  0.99950653  0.00000000       0.004
   0.26517520  0.99950653 -0.00000000       0.004
   0.25497616  0.99950653  0.00000000       0.004
   0.24477711  0.99950653  0.00000000       0.004
   0.23457806  0.99950653  0.00000000       0.004
   0.22437902  0.99950653  0.00000000       0.004
   0.21417997  0.99950653  0.00000000       0.004
   0.20398093  0.99950653  0.00000000       0.004
   0.19378188  0.99950653  0.00000000       0.004
   0.18358283  0.99950653  0.00000000       0.004
   0.17338379  0.99950653  0.00000000       0.004
   0.16318474  0.99950653  0.00000000       0.004
   0.15298569  0.99950653 -0.00000000       0.004
   0.14278665  0.99950653  0.00000000       0.004
   0.13258760  0.99950653  0.00000000       0.004
   0.12238856  0.99950653 -0.00000000       0.004
   0.11218951  0.99950653  0.00000000       0.004
   0.10199046  0.99950653  0.00000000       0.004
   0.09179142  0.99950653  0.00000000       0.004
   0.08159237  0.99950653  0.00000000       0.004
   0.07139332  0.99950653  0.00000000       0.004
   0.06119428  0.99950653  0.00000000       0.004
   0.05099523  0.99950653  0.00000000       0.004
   0.04079619  0.99950653  0.00000000       0.004
   0.03059714  0.99950653  0.00000000       0.004
   0.02039809  0.99950653  0.00000000       0.004
   0.01019905  0.99950653  0.00000000       0.004
   0.00000000  0.99950653  0.00000000       0.004
 
 k-points in reciprocal lattice and weights: K-points along high symmetry lines for F
   0.50000000  0.25000000  0.75000000       0.004
   0.50000000  0.25510204  0.74489796       0.004
   0.50000000  0.26020408  0.73979592       0.004
   0.50000000  0.26530612  0.73469388       0.004
   0.50000000  0.27040816  0.72959184       0.004
   0.50000000  0.27551020  0.72448980       0.004
   0.50000000  0.28061224  0.71938776       0.004
   0.50000000  0.28571429  0.71428571       0.004
   0.50000000  0.29081633  0.70918367       0.004
   0.50000000  0.29591837  0.70408163       0.004
   0.50000000  0.30102041  0.69897959       0.004
   0.50000000  0.30612245  0.69387755       0.004
   0.50000000  0.31122449  0.68877551       0.004
   0.50000000  0.31632653  0.68367347       0.004
   0.50000000  0.32142857  0.67857143       0.004
   0.50000000  0.32653061  0.67346939       0.004
   0.50000000  0.33163265  0.66836735       0.004
   0.50000000  0.33673469  0.66326531       0.004
   0.50000000  0.34183673  0.65816327       0.004
   0.50000000  0.34693878  0.65306122       0.004
   0.50000000  0.35204082  0.64795918       0.004
   0.50000000  0.35714286  0.64285714       0.004
   0.50000000  0.36224490  0.63775510       0.004
   0.50000000  0.36734694  0.63265306       0.004
   0.50000000  0.37244898  0.62755102       0.004
   0.50000000  0.37755102  0.62244898       0.004
   0.50000000  0.38265306  0.61734694       0.004
   0.50000000  0.38775510  0.61224490       0.004
   0.50000000  0.39285714  0.60714286       0.004
   0.50000000  0.39795918  0.60204082       0.004
   0.50000000  0.40306122  0.59693878       0.004
   0.50000000  0.40816327  0.59183673       0.004
   0.50000000  0.41326531  0.58673469       0.004
   0.50000000  0.41836735  0.58163265       0.004
   0.50000000  0.42346939  0.57653061       0.004
   0.50000000  0.42857143  0.57142857       0.004
   0.50000000  0.43367347  0.56632653       0.004
   0.50000000  0.43877551  0.56122449       0.004
   0.50000000  0.44387755  0.55612245       0.004
   0.50000000  0.44897959  0.55102041       0.004
   0.50000000  0.45408163  0.54591837       0.004
   0.50000000  0.45918367  0.54081633       0.004
   0.50000000  0.46428571  0.53571429       0.004
   0.50000000  0.46938776  0.53061224       0.004
   0.50000000  0.47448980  0.52551020       0.004
   0.50000000  0.47959184  0.52040816       0.004
   0.50000000  0.48469388  0.51530612       0.004
   0.50000000  0.48979592  0.51020408       0.004
   0.50000000  0.49489796  0.50510204       0.004
   0.50000000  0.50000000  0.50000000       0.004
   0.50000000  0.50000000  0.50000000       0.004
   0.48979592  0.48979592  0.48979592       0.004
   0.47959184  0.47959184  0.47959184       0.004
   0.46938776  0.46938776  0.46938776       0.004
   0.45918367  0.45918367  0.45918367       0.004
   0.44897959  0.44897959  0.44897959       0.004
   0.43877551  0.43877551  0.43877551       0.004
   0.42857143  0.42857143  0.42857143       0.004
   0.41836735  0.41836735  0.41836735       0.004
   0.40816327  0.40816327  0.40816327       0.004
   0.39795918  0.39795918  0.39795918       0.004
   0.38775510  0.38775510  0.38775510       0.004
   0.37755102  0.37755102  0.37755102       0.004
   0.36734694  0.36734694  0.36734694       0.004
   0.35714286  0.35714286  0.35714286       0.004
   0.34693878  0.34693878  0.34693878       0.004
   0.33673469  0.33673469  0.33673469       0.004
   0.32653061  0.32653061  0.32653061       0.004
   0.31632653  0.31632653  0.31632653       0.004
   0.30612245  0.30612245  0.30612245       0.004
   0.29591837  0.29591837  0.29591837       0.004
   0.28571429  0.28571429  0.28571429       0.004
   0.27551020  0.27551020  0.27551020       0.004
   0.26530612  0.26530612  0.26530612       0.004
   0.25510204  0.25510204  0.25510204       0.004
   0.24489796  0.24489796  0.24489796       0.004
   0.23469388  0.23469388  0.23469388       0.004
   0.22448980  0.22448980  0.22448980       0.004
   0.21428571  0.21428571  0.21428571       0.004
   0.20408163  0.20408163  0.20408163       0.004
   0.19387755  0.19387755  0.19387755       0.004
   0.18367347  0.18367347  0.18367347       0.004
   0.17346939  0.17346939  0.17346939       0.004
   0.16326531  0.16326531  0.16326531       0.004
   0.15306122  0.15306122  0.15306122       0.004
   0.14285714  0.14285714  0.14285714       0.004
   0.13265306  0.13265306  0.13265306       0.004
   0.12244898  0.12244898  0.12244898       0.004
   0.11224490  0.11224490  0.11224490       0.004
   0.10204082  0.10204082  0.10204082       0.004
   0.09183673  0.09183673  0.09183673       0.004
   0.08163265  0.08163265  0.08163265       0.004
   0.07142857  0.07142857  0.07142857       0.004
   0.06122449  0.06122449  0.06122449       0.004
   0.05102041  0.05102041  0.05102041       0.004
   0.04081633  0.04081633  0.04081633       0.004
   0.03061224  0.03061224  0.03061224       0.004
   0.02040816  0.02040816  0.02040816       0.004
   0.01020408  0.01020408  0.01020408       0.004
   0.00000000  0.00000000  0.00000000       0.004
   0.00000000  0.00000000  0.00000000       0.004
   0.01020408  0.00000000  0.01020408       0.004
   0.02040816  0.00000000  0.02040816       0.004
   0.03061224  0.00000000  0.03061224       0.004
   0.04081633  0.00000000  0.04081633       0.004
   0.05102041  0.00000000  0.05102041       0.004
   0.06122449  0.00000000  0.06122449       0.004
   0.07142857  0.00000000  0.07142857       0.004
   0.08163265  0.00000000  0.08163265       0.004
   0.09183673  0.00000000  0.09183673       0.004
   0.10204082  0.00000000  0.10204082       0.004
   0.11224490  0.00000000  0.11224490       0.004
   0.12244898  0.00000000  0.12244898       0.004
   0.13265306  0.00000000  0.13265306       0.004
   0.14285714  0.00000000  0.14285714       0.004
   0.15306122  0.00000000  0.15306122       0.004
   0.16326531  0.00000000  0.16326531       0.004
   0.17346939  0.00000000  0.17346939       0.004
   0.18367347  0.00000000  0.18367347       0.004
   0.19387755  0.00000000  0.19387755       0.004
   0.20408163  0.00000000  0.20408163       0.004
   0.21428571  0.00000000  0.21428571       0.004
   0.22448980  0.00000000  0.22448980       0.004
   0.23469388  0.00000000  0.23469388       0.004
   0.24489796  0.00000000  0.24489796       0.004
   0.25510204  0.00000000  0.25510204       0.004
   0.26530612  0.00000000  0.26530612       0.004
   0.27551020  0.00000000  0.27551020       0.004
   0.28571429  0.00000000  0.28571429       0.004
   0.29591837  0.00000000  0.29591837       0.004
   0.30612245  0.00000000  0.30612245       0.004
   0.31632653  0.00000000  0.31632653       0.004
   0.32653061  0.00000000  0.32653061       0.004
   0.33673469  0.00000000  0.33673469       0.004
   0.34693878  0.00000000  0.34693878       0.004
   0.35714286  0.00000000  0.35714286       0.004
   0.36734694  0.00000000  0.36734694       0.004
   0.37755102  0.00000000  0.37755102       0.004
   0.38775510  0.00000000  0.38775510       0.004
   0.39795918  0.00000000  0.39795918       0.004
   0.40816327  0.00000000  0.40816327       0.004
   0.41836735  0.00000000  0.41836735       0.004
   0.42857143  0.00000000  0.42857143       0.004
   0.43877551  0.00000000  0.43877551       0.004
   0.44897959  0.00000000  0.44897959       0.004
   0.45918367  0.00000000  0.45918367       0.004
   0.46938776  0.00000000  0.46938776       0.004
   0.47959184  0.00000000  0.47959184       0.004
   0.48979592  0.00000000  0.48979592       0.004
   0.50000000  0.00000000  0.50000000       0.004
   0.50000000  0.00000000  0.50000000       0.004
   0.50000000  0.00510204  0.50510204       0.004
   0.50000000  0.01020408  0.51020408       0.004
   0.50000000  0.01530612  0.51530612       0.004
   0.50000000  0.02040816  0.52040816       0.004
   0.50000000  0.02551020  0.52551020       0.004
   0.50000000  0.03061224  0.53061224       0.004
   0.50000000  0.03571429  0.53571429       0.004
   0.50000000  0.04081633  0.54081633       0.004
   0.50000000  0.04591837  0.54591837       0.004
   0.50000000  0.05102041  0.55102041       0.004
   0.50000000  0.05612245  0.55612245       0.004
   0.50000000  0.06122449  0.56122449       0.004
   0.50000000  0.06632653  0.56632653       0.004
   0.50000000  0.07142857  0.57142857       0.004
   0.50000000  0.07653061  0.57653061       0.004
   0.50000000  0.08163265  0.58163265       0.004
   0.50000000  0.08673469  0.58673469       0.004
   0.50000000  0.09183673  0.59183673       0.004
   0.50000000  0.09693878  0.59693878       0.004
   0.50000000  0.10204082  0.60204082       0.004
   0.50000000  0.10714286  0.60714286       0.004
   0.50000000  0.11224490  0.61224490       0.004
   0.50000000  0.11734694  0.61734694       0.004
   0.50000000  0.12244898  0.62244898       0.004
   0.50000000  0.12755102  0.62755102       0.004
   0.50000000  0.13265306  0.63265306       0.004
   0.50000000  0.13775510  0.63775510       0.004
   0.50000000  0.14285714  0.64285714       0.004
   0.50000000  0.14795918  0.64795918       0.004
   0.50000000  0.15306122  0.65306122       0.004
   0.50000000  0.15816327  0.65816327       0.004
   0.50000000  0.16326531  0.66326531       0.004
   0.50000000  0.16836735  0.66836735       0.004
   0.50000000  0.17346939  0.67346939       0.004
   0.50000000  0.17857143  0.67857143       0.004
   0.50000000  0.18367347  0.68367347       0.004
   0.50000000  0.18877551  0.68877551       0.004
   0.50000000  0.19387755  0.69387755       0.004
   0.50000000  0.19897959  0.69897959       0.004
   0.50000000  0.20408163  0.70408163       0.004
   0.50000000  0.20918367  0.70918367       0.004
   0.50000000  0.21428571  0.71428571       0.004
   0.50000000  0.21938776  0.71938776       0.004
   0.50000000  0.22448980  0.72448980       0.004
   0.50000000  0.22959184  0.72959184       0.004
   0.50000000  0.23469388  0.73469388       0.004
   0.50000000  0.23979592  0.73979592       0.004
   0.50000000  0.24489796  0.74489796       0.004
   0.50000000  0.25000000  0.75000000       0.004
   0.50000000  0.25000000  0.75000000       0.004
   0.50000000  0.24489796  0.74489796       0.004
   0.50000000  0.23979592  0.73979592       0.004
   0.50000000  0.23469388  0.73469388       0.004
   0.50000000  0.22959184  0.72959184       0.004
   0.50000000  0.22448980  0.72448980       0.004
   0.50000000  0.21938776  0.71938776       0.004
   0.50000000  0.21428571  0.71428571       0.004
   0.50000000  0.20918367  0.70918367       0.004
   0.50000000  0.20408163  0.70408163       0.004
   0.50000000  0.19897959  0.69897959       0.004
   0.50000000  0.19387755  0.69387755       0.004
   0.50000000  0.18877551  0.68877551       0.004
   0.50000000  0.18367347  0.68367347       0.004
   0.50000000  0.17857143  0.67857143       0.004
   0.50000000  0.17346939  0.67346939       0.004
   0.50000000  0.16836735  0.66836735       0.004
   0.50000000  0.16326531  0.66326531       0.004
   0.50000000  0.15816327  0.65816327       0.004
   0.50000000  0.15306122  0.65306122       0.004
   0.50000000  0.14795918  0.64795918       0.004
   0.50000000  0.14285714  0.64285714       0.004
   0.50000000  0.13775510  0.63775510       0.004
   0.50000000  0.13265306  0.63265306       0.004
   0.50000000  0.12755102  0.62755102       0.004
   0.50000000  0.12244898  0.62244898       0.004
   0.50000000  0.11734694  0.61734694       0.004
   0.50000000  0.11224490  0.61224490       0.004
   0.50000000  0.10714286  0.60714286       0.004
   0.50000000  0.10204082  0.60204082       0.004
   0.50000000  0.09693878  0.59693878       0.004
   0.50000000  0.09183673  0.59183673       0.004
   0.50000000  0.08673469  0.58673469       0.004
   0.50000000  0.08163265  0.58163265       0.004
   0.50000000  0.07653061  0.57653061       0.004
   0.50000000  0.07142857  0.57142857       0.004
   0.50000000  0.06632653  0.56632653       0.004
   0.50000000  0.06122449  0.56122449       0.004
   0.50000000  0.05612245  0.55612245       0.004
   0.50000000  0.05102041  0.55102041       0.004
   0.50000000  0.04591837  0.54591837       0.004
   0.50000000  0.04081633  0.54081633       0.004
   0.50000000  0.03571429  0.53571429       0.004
   0.50000000  0.03061224  0.53061224       0.004
   0.50000000  0.02551020  0.52551020       0.004
   0.50000000  0.02040816  0.52040816       0.004
   0.50000000  0.01530612  0.51530612       0.004
   0.50000000  0.01020408  0.51020408       0.004
   0.50000000  0.00510204  0.50510204       0.004
   0.50000000  0.00000000  0.50000000       0.004
 
 position of ions in fractional coordinates (direct lattice) 
   0.00000000  0.00000000  0.00000000
   0.25000000  0.25000000  0.25000000
 
 position of ions in cartesian coordinates  (Angst):
   0.00000000  0.00000000  0.00000000
   1.43820971  1.43820971  1.43820971
 


--------------------------------------------------------------------------------------------------------


 k-point  1 :   0.5000 0.2500 0.7500  plane waves:     328
 k-point  2 :   0.5000 0.2551 0.7449  plane waves:     328
 k-point  3 :   0.5000 0.2602 0.7398  plane waves:     328
 k-point  4 :   0.5000 0.2653 0.7347  plane waves:     328
 k-point  5 :   0.5000 0.2704 0.7296  plane waves:     326
 k-point  6 :   0.5000 0.2755 0.7245  plane waves:     324
 k-point  7 :   0.5000 0.2806 0.7194  plane waves:     324
 k-point  8 :   0.5000 0.2857 0.7143  plane waves:     322
 k-point  9 :   0.5000 0.2908 0.7092  plane waves:     326
 k-point 10 :   0.5000 0.2959 0.7041  plane waves:     326
 k-point 11 :   0.5000 0.3010 0.6990  plane waves:     326
 k-point 12 :   0.5000 0.3061 0.6939  plane waves:     324
 k-point 13 :   0.5000 0.3112 0.6888  plane waves:     324
 k-point 14 :   0.5000 0.3163 0.6837  plane waves:     324
 k-point 15 :   0.5000 0.3214 0.6786  plane waves:     326
 k-point 16 :   0.5000 0.3265 0.6735  plane waves:     324
 k-point 17 :   0.5000 0.3316 0.6684  plane waves:     324
 k-point 18 :   0.5000 0.3367 0.6633  plane waves:     324
 k-point 19 :   0.5000 0.3418 0.6582  plane waves:     324
 k-point 20 :   0.5000 0.3469 0.6531  plane waves:     322
 k-point 21 :   0.5000 0.3520 0.6480  plane waves:     322
 k-point 22 :   0.5000 0.3571 0.6429  plane waves:     322
 k-point 23 :   0.5000 0.3622 0.6378  plane waves:     322
 k-point 24 :   0.5000 0.3673 0.6327  plane waves:     322
 k-point 25 :   0.5000 0.3724 0.6276  plane waves:     328
 k-point 26 :   0.5000 0.3776 0.6224  plane waves:     328
 k-point 27 :   0.5000 0.3827 0.6173  plane waves:     328
 k-point 28 :   0.5000 0.3878 0.6122  plane waves:     326
 k-point 29 :   0.5000 0.3929 0.6071  plane waves:     326
 k-point 30 :   0.5000 0.3980 0.6020  plane waves:     326
 k-point 31 :   0.5000 0.4031 0.5969  plane waves:     326
 k-point 32 :   0.5000 0.4082 0.5918  plane waves:     328
 k-point 33 :   0.5000 0.4133 0.5867  plane waves:     326
 k-point 34 :   0.5000 0.4184 0.5816  plane waves:     326
 k-point 35 :   0.5000 0.4235 0.5765  plane waves:     326
 k-point 36 :   0.5000 0.4286 0.5714  plane waves:     326
 k-point 37 :   0.5000 0.4337 0.5663  plane waves:     328
 k-point 38 :   0.5000 0.4388 0.5612  plane waves:     328
 k-point 39 :   0.5000 0.4439 0.5561  plane waves:     328
 k-point 40 :   0.5000 0.4490 0.5510  plane waves:     328
 k-point 41 :   0.5000 0.4541 0.5459  plane waves:     330
 k-point 42 :   0.5000 0.4592 0.5408  plane waves:     330
 k-point 43 :   0.5000 0.4643 0.5357  plane waves:     334
 k-point 44 :   0.5000 0.4694 0.5306  plane waves:     334
 k-point 45 :   0.5000 0.4745 0.5255  plane waves:     332
 k-point 46 :   0.5000 0.4796 0.5204  plane waves:     332
 k-point 47 :   0.5000 0.4847 0.5153  plane waves:     332
 k-point 48 :   0.5000 0.4898 0.5102  plane waves:     332
 k-point 49 :   0.5000 0.4949 0.5051  plane waves:     332
 k-point 50 :   0.5000 0.5000 0.5000  plane waves:     332
 k-point 51 :   0.5000 0.5000 0.5000  plane waves:     332
 k-point 52 :   0.4898 0.4898 0.4898  plane waves:     332
 k-point 53 :   0.4796 0.4796 0.4796  plane waves:     332
 k-point 54 :   0.4694 0.4694 0.4694  plane waves:     332
 k-point 55 :   0.4592 0.4592 0.4592  plane waves:     335
 k-point 56 :   0.4490 0.4490 0.4490  plane waves:     335
 k-point 57 :   0.4388 0.4388 0.4388  plane waves:     329
 k-point 58 :   0.4286 0.4286 0.4286  plane waves:     329
 k-point 59 :   0.4184 0.4184 0.4184  plane waves:     329
 k-point 60 :   0.4082 0.4082 0.4082  plane waves:     329
 k-point 61 :   0.3980 0.3980 0.3980  plane waves:     329
 k-point 62 :   0.3878 0.3878 0.3878  plane waves:     323
 k-point 63 :   0.3776 0.3776 0.3776  plane waves:     323
 k-point 64 :   0.3673 0.3673 0.3673  plane waves:     326
 k-point 65 :   0.3571 0.3571 0.3571  plane waves:     326
 k-point 66 :   0.3469 0.3469 0.3469  plane waves:     332
 k-point 67 :   0.3367 0.3367 0.3367  plane waves:     332
 k-point 68 :   0.3265 0.3265 0.3265  plane waves:     332
 k-point 69 :   0.3163 0.3163 0.3163  plane waves:     326
 k-point 70 :   0.3061 0.3061 0.3061  plane waves:     326
 k-point 71 :   0.2959 0.2959 0.2959  plane waves:     320
 k-point 72 :   0.2857 0.2857 0.2857  plane waves:     317
 k-point 73 :   0.2755 0.2755 0.2755  plane waves:     317
 k-point 74 :   0.2653 0.2653 0.2653  plane waves:     323
 k-point 75 :   0.2551 0.2551 0.2551  plane waves:     323
 k-point 76 :   0.2449 0.2449 0.2449  plane waves:     323
 k-point 77 :   0.2347 0.2347 0.2347  plane waves:     320
 k-point 78 :   0.2245 0.2245 0.2245  plane waves:     320
 k-point 79 :   0.2143 0.2143 0.2143  plane waves:     320
 k-point 80 :   0.2041 0.2041 0.2041  plane waves:     320
 k-point 81 :   0.1939 0.1939 0.1939  plane waves:     320
 k-point 82 :   0.1837 0.1837 0.1837  plane waves:     320
 k-point 83 :   0.1735 0.1735 0.1735  plane waves:     320
 k-point 84 :   0.1633 0.1633 0.1633  plane waves:     320
 k-point 85 :   0.1531 0.1531 0.1531  plane waves:     326
 k-point 86 :   0.1429 0.1429 0.1429  plane waves:     326
 k-point 87 :   0.1327 0.1327 0.1327  plane waves:     326
 k-point 88 :   0.1224 0.1224 0.1224  plane waves:     329
 k-point 89 :   0.1122 0.1122 0.1122  plane waves:     329
 k-point 90 :   0.1020 0.1020 0.1020  plane waves:     329
 k-point 91 :   0.0918 0.0918 0.0918  plane waves:     332
 k-point 92 :   0.0816 0.0816 0.0816  plane waves:     331
 k-point 93 :   0.0714 0.0714 0.0714  plane waves:     331
 k-point 94 :   0.0612 0.0612 0.0612  plane waves:     331
 k-point 95 :   0.0510 0.0510 0.0510  plane waves:     331
 k-point 96 :   0.0408 0.0408 0.0408  plane waves:     331
 k-point 97 :   0.0306 0.0306 0.0306  plane waves:     331
 k-point 98 :   0.0204 0.0204 0.0204  plane waves:     331
 k-point 99 :   0.0102 0.0102 0.0102  plane waves:     331
 k-point ** :   0.0000 0.0000 0.0000  plane waves:     331
 k-point ** :   0.0000 0.0000 0.0000  plane waves:     331
 k-point ** :   0.0102 0.0000 0.0102  plane waves:     331
 k-point ** :   0.0204 0.0000 0.0204  plane waves:     331
 k-point ** :   0.0306 0.0000 0.0306  plane waves:     331
 k-point ** :   0.0408 0.0000 0.0408  plane waves:     331
 k-point ** :   0.0510 0.0000 0.0510  plane waves:     331
 k-point ** :   0.0612 0.0000 0.0612  plane waves:     331
 k-point ** :   0.0714 0.0000 0.0714  plane waves:     331
 k-point ** :   0.0816 0.0000 0.0816  plane waves:     327
 k-point ** :   0.0918 0.0000 0.0918  plane waves:     327
 k-point ** :   0.1020 0.0000 0.1020  plane waves:     327
 k-point ** :   0.1122 0.0000 0.1122  plane waves:     327
 k-point ** :   0.1224 0.0000 0.1224  plane waves:     327
 k-point ** :   0.1327 0.0000 0.1327  plane waves:     327
 k-point ** :   0.1429 0.0000 0.1429  plane waves:     327
 k-point ** :   0.1531 0.0000 0.1531  plane waves:     327
 k-point ** :   0.1633 0.0000 0.1633  plane waves:     327
 k-point ** :   0.1735 0.0000 0.1735  plane waves:     327
 k-point ** :   0.1837 0.0000 0.1837  plane waves:     327
 k-point ** :   0.1939 0.0000 0.1939  plane waves:     331
 k-point ** :   0.2041 0.0000 0.2041  plane waves:     331
 k-point ** :   0.2143 0.0000 0.2143  plane waves:     331
 k-point ** :   0.2245 0.0000 0.2245  plane waves:     323
 k-point ** :   0.2347 0.0000 0.2347  plane waves:     315
 k-point ** :   0.2449 0.0000 0.2449  plane waves:     311
 k-point ** :   0.2551 0.0000 0.2551  plane waves:     311
 k-point ** :   0.2653 0.0000 0.2653  plane waves:     315
 k-point ** :   0.2755 0.0000 0.2755  plane waves:     323
 k-point ** :   0.2857 0.0000 0.2857  plane waves:     323
 k-point ** :   0.2959 0.0000 0.2959  plane waves:     323
 k-point ** :   0.3061 0.0000 0.3061  plane waves:     323
 k-point ** :   0.3163 0.0000 0.3163  plane waves:     323
 k-point ** :   0.3265 0.0000 0.3265  plane waves:     323
 k-point ** :   0.3367 0.0000 0.3367  plane waves:     323
 k-point ** :   0.3469 0.0000 0.3469  plane waves:     323
 k-point ** :   0.3571 0.0000 0.3571  plane waves:     323
 k-point ** :   0.3673 0.0000 0.3673  plane waves:     323
 k-point ** :   0.3776 0.0000 0.3776  plane waves:     323
 k-point ** :   0.3878 0.0000 0.3878  plane waves:     323
 k-point ** :   0.3980 0.0000 0.3980  plane waves:     322
 k-point ** :   0.4082 0.0000 0.4082  plane waves:     322
 k-point ** :   0.4184 0.0000 0.4184  plane waves:     322
 k-point ** :   0.4286 0.0000 0.4286  plane waves:     326
 k-point ** :   0.4388 0.0000 0.4388  plane waves:     326
 k-point ** :   0.4490 0.0000 0.4490  plane waves:     326
 k-point ** :   0.4592 0.0000 0.4592  plane waves:     334
 k-point ** :   0.4694 0.0000 0.4694  plane waves:     334
 k-point ** :   0.4796 0.0000 0.4796  plane waves:     334
 k-point ** :   0.4898 0.0000 0.4898  plane waves:     334
 k-point ** :   0.5000 0.0000 0.5000  plane waves:     326
 k-point ** :   0.5000 0.0000 0.5000  plane waves:     326
 k-point ** :   0.5000 0.0051 0.5051  plane waves:     326
 k-point ** :   0.5000 0.0102 0.5102  plane waves:     330
 k-point ** :   0.5000 0.0153 0.5153  plane waves:     330
 k-point ** :   0.5000 0.0204 0.5204  plane waves:     334
 k-point ** :   0.5000 0.0255 0.5255  plane waves:     334
 k-point ** :   0.5000 0.0306 0.5306  plane waves:     334
 k-point ** :   0.5000 0.0357 0.5357  plane waves:     334
 k-point ** :   0.5000 0.0408 0.5408  plane waves:     332
 k-point ** :   0.5000 0.0459 0.5459  plane waves:     332
 k-point ** :   0.5000 0.0510 0.5510  plane waves:     332
 k-point ** :   0.5000 0.0561 0.5561  plane waves:     332
 k-point ** :   0.5000 0.0612 0.5612  plane waves:     328
 k-point ** :   0.5000 0.0663 0.5663  plane waves:     328
 k-point ** :   0.5000 0.0714 0.5714  plane waves:     328
 k-point ** :   0.5000 0.0765 0.5765  plane waves:     328
 k-point ** :   0.5000 0.0816 0.5816  plane waves:     328
 k-point ** :   0.5000 0.0867 0.5867  plane waves:     328
 k-point ** :   0.5000 0.0918 0.5918  plane waves:     328
 k-point ** :   0.5000 0.0969 0.5969  plane waves:     328
 k-point ** :   0.5000 0.1020 0.6020  plane waves:     328
 k-point ** :   0.5000 0.1071 0.6071  plane waves:     328
 k-point ** :   0.5000 0.1122 0.6122  plane waves:     324
 k-point ** :   0.5000 0.1173 0.6173  plane waves:     324
 k-point ** :   0.5000 0.1224 0.6224  plane waves:     324
 k-point ** :   0.5000 0.1276 0.6276  plane waves:     324
 k-point ** :   0.5000 0.1327 0.6327  plane waves:     328
 k-point ** :   0.5000 0.1378 0.6378  plane waves:     328
 k-point ** :   0.5000 0.1429 0.6429  plane waves:     328
 k-point ** :   0.5000 0.1480 0.6480  plane waves:     328
 k-point ** :   0.5000 0.1531 0.6531  plane waves:     330
 k-point ** :   0.5000 0.1582 0.6582  plane waves:     330
 k-point ** :   0.5000 0.1633 0.6633  plane waves:     330
 k-point ** :   0.5000 0.1684 0.6684  plane waves:     330
 k-point ** :   0.5000 0.1735 0.6735  plane waves:     330
 k-point ** :   0.5000 0.1786 0.6786  plane waves:     330
 k-point ** :   0.5000 0.1837 0.6837  plane waves:     330
 k-point ** :   0.5000 0.1888 0.6888  plane waves:     330
 k-point ** :   0.5000 0.1939 0.6939  plane waves:     326
 k-point ** :   0.5000 0.1990 0.6990  plane waves:     322
 k-point ** :   0.5000 0.2041 0.7041  plane waves:     322
 k-point ** :   0.5000 0.2092 0.7092  plane waves:     322
 k-point ** :   0.5000 0.2143 0.7143  plane waves:     328
 k-point ** :   0.5000 0.2194 0.7194  plane waves:     328
 k-point ** :   0.5000 0.2245 0.7245  plane waves:     328
 k-point ** :   0.5000 0.2296 0.7296  plane waves:     328
 k-point ** :   0.5000 0.2347 0.7347  plane waves:     328
 k-point ** :   0.5000 0.2398 0.7398  plane waves:     328
 k-point ** :   0.5000 0.2449 0.7449  plane waves:     328
 k-point ** :   0.5000 0.2500 0.7500  plane waves:     328
 k-point ** :   0.5000 0.2500 0.7500  plane waves:     328
 k-point ** :   0.5000 0.2449 0.7449  plane waves:     328
 k-point ** :   0.5000 0.2398 0.7398  plane waves:     328
 k-point ** :   0.5000 0.2347 0.7347  plane waves:     328
 k-point ** :   0.5000 0.2296 0.7296  plane waves:     328
 k-point ** :   0.5000 0.2245 0.7245  plane waves:     328
 k-point ** :   0.5000 0.2194 0.7194  plane waves:     328
 k-point ** :   0.5000 0.2143 0.7143  plane waves:     328
 k-point ** :   0.5000 0.2092 0.7092  plane waves:     322
 k-point ** :   0.5000 0.2041 0.7041  plane waves:     322
 k-point ** :   0.5000 0.1990 0.6990  plane waves:     322
 k-point ** :   0.5000 0.1939 0.6939  plane waves:     326
 k-point ** :   0.5000 0.1888 0.6888  plane waves:     330
 k-point ** :   0.5000 0.1837 0.6837  plane waves:     330
 k-point ** :   0.5000 0.1786 0.6786  plane waves:     330
 k-point ** :   0.5000 0.1735 0.6735  plane waves:     330
 k-point ** :   0.5000 0.1684 0.6684  plane waves:     330
 k-point ** :   0.5000 0.1633 0.6633  plane waves:     330
 k-point ** :   0.5000 0.1582 0.6582  plane waves:     330
 k-point ** :   0.5000 0.1531 0.6531  plane waves:     330
 k-point ** :   0.5000 0.1480 0.6480  plane waves:     328
 k-point ** :   0.5000 0.1429 0.6429  plane waves:     328
 k-point ** :   0.5000 0.1378 0.6378  plane waves:     328
 k-point ** :   0.5000 0.1327 0.6327  plane waves:     328
 k-point ** :   0.5000 0.1276 0.6276  plane waves:     324
 k-point ** :   0.5000 0.1224 0.6224  plane waves:     324
 k-point ** :   0.5000 0.1173 0.6173  plane waves:     324
 k-point ** :   0.5000 0.1122 0.6122  plane waves:     324
 k-point ** :   0.5000 0.1071 0.6071  plane waves:     328
 k-point ** :   0.5000 0.1020 0.6020  plane waves:     328
 k-point ** :   0.5000 0.0969 0.5969  plane waves:     328
 k-point ** :   0.5000 0.0918 0.5918  plane waves:     328
 k-point ** :   0.5000 0.0867 0.5867  plane waves:     328
 k-point ** :   0.5000 0.0816 0.5816  plane waves:     328
 k-point ** :   0.5000 0.0765 0.5765  plane waves:     328
 k-point ** :   0.5000 0.0714 0.5714  plane waves:     328
 k-point ** :   0.5000 0.0663 0.5663  plane waves:     328
 k-point ** :   0.5000 0.0612 0.5612  plane waves:     328
 k-point ** :   0.5000 0.0561 0.5561  plane waves:     332
 k-point ** :   0.5000 0.0510 0.5510  plane waves:     332
 k-point ** :   0.5000 0.0459 0.5459  plane waves:     332
 k-point ** :   0.5000 0.0408 0.5408  plane waves:     332
 k-point ** :   0.5000 0.0357 0.5357  plane waves:     334
 k-point ** :   0.5000 0.0306 0.5306  plane waves:     334
 k-point ** :   0.5000 0.0255 0.5255  plane waves:     334
 k-point ** :   0.5000 0.0204 0.5204  plane waves:     334
 k-point ** :   0.5000 0.0153 0.5153  plane waves:     330
 k-point ** :   0.5000 0.0102 0.5102  plane waves:     330
 k-point ** :   0.5000 0.0051 0.5051  plane waves:     326
 k-point ** :   0.5000 0.0000 0.5000  plane waves:     326

 maximum and minimum number of plane-waves per node :       335      311

 maximum number of plane-waves:       335
 maximum index in each direction: 
   IXMAX=    4   IYMAX=    4   IZMAX=    4
   IXMIN=   -5   IYMIN=   -5   IZMIN=   -5


 serial   3D FFT for wavefunctions
 parallel 3D FFT for charge:
    minimum data exchange during FFTs selected (reduces bandwidth)


 total amount of memory used by VASP MPI-rank0    62681. kBytes
=======================================================================

   base      :      30000. kBytes
   nonl-proj :      17430. kBytes
   fftplans  :       1488. kBytes
   grid      :       2195. kBytes
   one-center:         16. kBytes
   wavefun   :      11552. kBytes
 
     INWAV:  cpu time    0.0001: real time    0.0027
 initial charge density was supplied:
 number of electron       8.0000012 magnetization 
 keeping initial charge density in first step


--------------------------------------------------------------------------------------------------------


 Maximum index for augmentation-charges         4093 (set IRDMAX)


--------------------------------------------------------------------------------------------------------


 First call to EWALD:  gamma=   0.489
 Maximum number of real-space cells 3x 3x 3
 Maximum number of reciprocal cells 3x 3x 3

    FEWALD:  cpu time    0.0014: real time    0.0014


--------------------------------------- Iteration      1(   1)  ---------------------------------------


    POTLOK:  cpu time    0.0153: real time    0.0279
    SETDIJ:  cpu time    0.0036: real time    0.0036
     EDDAV:  cpu time    0.4267: real time    1.0455
       DOS:  cpu time    0.0081: real time    0.0232
    --------------------------------------------
      LOOP:  cpu time    0.4537: real time    1.1002

 eigenvalue-minimisations  :  4072
 total energy-change (2. order) : 0.5404555E+01  (-0.2110313E+03)
 number of electron       8.0000012 magnetization 
 augmentation part        8.0000012 magnetization 

 Free energy of the ion-electron system (eV)
  ---------------------------------------------------
  alpha Z        PSCENC =        17.36684317
  Ewald energy   TEWEN  =      -225.20590383
  -Hartree energ DENC   =       -22.14721296
  -exchange      EXHF   =         0.00000000
  -V(xc)+E(xc)   XCENC  =       -30.94258512
  PAW double counting   =       130.52885347      -85.35596429
  entropy T*S    EENTRO =        -0.00021072
  eigenvalues    EBANDS =        -8.44431630
  atomic energy  EATOM  =       229.60505158
  Solvation  Ediel_sol  =         0.00000000
  ---------------------------------------------------
  free energy    TOTEN  =         5.40455499 eV

  energy without entropy =        5.40476570  energy(sigma->0) =        5.40462523


--------------------------------------------------------------------------------------------------------




--------------------------------------- Iteration      1(   2)  ---------------------------------------


     EDDAV:  cpu time    0.6316: real time    1.5139
       DOS:  cpu time    0.0088: real time    0.0175
    --------------------------------------------
      LOOP:  cpu time    0.6405: real time    1.5314

 eigenvalue-minimisations  :  6112
 total energy-change (2. order) :-0.1283177E+02  (-0.1204493E+02)
 number of electron       8.0000012 magnetization 
 augmentation part        8.0000012 magnetization 

 Free energy of the ion-electron system (eV)
  ---------------------------------------------------
  alpha Z        PSCENC =        17.36684317
  Ewald energy   TEWEN  =      -225.20590383
  -Hartree energ DENC   =       -22.14721296
  -exchange      EXHF   =         0.00000000
  -V(xc)+E(xc)   XCENC  =       -30.94258512
  PAW double counting   =       130.52885347      -85.35596429
  entropy T*S    EENTRO =         0.00128411
  eigenvalues    EBANDS =       -21.27758191
  atomic energy  EATOM  =       229.60505158
  Solvation  Ediel_sol  =         0.00000000
  ---------------------------------------------------
  free energy    TOTEN  =        -7.42721580 eV

  energy without entropy =       -7.42849991  energy(sigma->0) =       -7.42764384


--------------------------------------------------------------------------------------------------------




--------------------------------------- Iteration      1(   3)  ---------------------------------------


     EDDAV:  cpu time    0.4932: real time    1.0508
       DOS:  cpu time    0.0089: real time    0.0234
    --------------------------------------------
      LOOP:  cpu time    0.5022: real time    1.0743

 eigenvalue-minimisations  :  4784
 total energy-change (2. order) :-0.1996817E+00  (-0.1989854E+00)
 number of electron       8.0000012 magnetization 
 augmentation part        8.0000012 magnetization 

 Free energy of the ion-electron system (eV)
  ---------------------------------------------------
  alpha Z        PSCENC =        17.36684317
  Ewald energy   TEWEN  =      -225.20590383
  -Hartree energ DENC   =       -22.14721296
  -exchange      EXHF   =         0.00000000
  -V(xc)+E(xc)   XCENC  =       -30.94258512
  PAW double counting   =       130.52885347      -85.35596429
  entropy T*S    EENTRO =         0.00180490
  eigenvalues    EBANDS =       -21.47778444
  atomic energy  EATOM  =       229.60505158
  Solvation  Ediel_sol  =         0.00000000
  ---------------------------------------------------
  free energy    TOTEN  =        -7.62689753 eV

  energy without entropy =       -7.62870243  energy(sigma->0) =       -7.62749916


--------------------------------------------------------------------------------------------------------




--------------------------------------- Iteration      1(   4)  ---------------------------------------


     EDDAV:  cpu time    0.6176: real time    1.8535
       DOS:  cpu time    0.0090: real time    0.0188
    --------------------------------------------
      LOOP:  cpu time    0.6266: real time    1.8723

 eigenvalue-minimisations  :  5824
 total energy-change (2. order) :-0.4337576E-03  (-0.4337221E-03)
 number of electron       8.0000012 magnetization 
 augmentation part        8.0000012 magnetization 

 Free energy of the ion-electron system (eV)
  ---------------------------------------------------
  alpha Z        PSCENC =        17.36684317
  Ewald energy   TEWEN  =      -225.20590383
  -Hartree energ DENC   =       -22.14721296
  -exchange      EXHF   =         0.00000000
  -V(xc)+E(xc)   XCENC  =       -30.94258512
  PAW double counting   =       130.52885347      -85.35596429
  entropy T*S    EENTRO =         0.00180778
  eigenvalues    EBANDS =       -21.47822108
  atomic energy  EATOM  =       229.60505158
  Solvation  Ediel_sol  =         0.00000000
  ---------------------------------------------------
  free energy    TOTEN  =        -7.62733129 eV

  energy without entropy =       -7.62913907  energy(sigma->0) =       -7.62793388


--------------------------------------------------------------------------------------------------------




--------------------------------------- Iteration      1(   5)  ---------------------------------------


     EDDAV:  cpu time    0.5118: real time    1.5223
       DOS:  cpu time    0.0088: real time    0.0146
    --------------------------------------------
      LOOP:  cpu time    0.5207: real time    1.5369

 eigenvalue-minimisations  :  4840
 total energy-change (2. order) :-0.5461732E-06  (-0.5461790E-06)
 number of electron       8.0000012 magnetization 
 augmentation part        8.0000012 magnetization 

 Free energy of the ion-electron system (eV)
  ---------------------------------------------------
  alpha Z        PSCENC =        17.36684317
  Ewald energy   TEWEN  =      -225.20590383
  -Hartree energ DENC   =       -22.14721296
  -exchange      EXHF   =         0.00000000
  -V(xc)+E(xc)   XCENC  =       -30.94258512
  PAW double counting   =       130.52885347      -85.35596429
  entropy T*S    EENTRO =         0.00180779
  eigenvalues    EBANDS =       -21.47822163
  atomic energy  EATOM  =       229.60505158
  Solvation  Ediel_sol  =         0.00000000
  ---------------------------------------------------
  free energy    TOTEN  =        -7.62733183 eV

  energy without entropy =       -7.62913962  energy(sigma->0) =       -7.62793443


--------------------------------------------------------------------------------------------------------




--------------------------------------- Iteration      1(   6)  ---------------------------------------


     EDDAV:  cpu time    0.5945: real time    1.5212
       DOS:  cpu time    0.0090: real time    0.0271
    --------------------------------------------
      LOOP:  cpu time    0.6036: real time    1.5483

 eigenvalue-minimisations  :  5744
 total energy-change (2. order) :-0.2767990E-08  (-0.2590997E-08)
 number of electron       8.0000012 magnetization 
 augmentation part        8.0000012 magnetization 

 Free energy of the ion-electron system (eV)
  ---------------------------------------------------
  alpha Z        PSCENC =        17.36684317
  Ewald energy   TEWEN  =      -225.20590383
  -Hartree energ DENC   =       -22.14721296
  -exchange      EXHF   =         0.00000000
  -V(xc)+E(xc)   XCENC  =       -30.94258512
  PAW double counting   =       130.52885347      -85.35596429
  entropy T*S    EENTRO =         0.00180779
  eigenvalues    EBANDS =       -21.47822163
  atomic energy  EATOM  =       229.60505158
  Solvation  Ediel_sol  =         0.00000000
  ---------------------------------------------------
  free energy    TOTEN  =        -7.62733184 eV

  energy without entropy =       -7.62913962  energy(sigma->0) =       -7.62793443


--------------------------------------------------------------------------------------------------------




 average (electrostatic) potential at core
  the test charge radii are     1.2767  1.0621
  (the norm of the test charge is              1.0000)
       1 -16.0624       2 -52.7026
 
 
 
 E-fermi :   2.4608     XC(G=0):  -9.0114     alpha+bet : -8.1875


 k-point     1 :       0.5000    0.2500    0.7500
  band No.  band energies     occupation 
      1      -7.8004      2.00000
      2      -4.0295      2.00000
      3      -0.9494      2.00000
      4      -0.7396      2.00000
      5       6.7468     -0.00000
      6       7.0451     -0.00000
      7       7.6130     -0.00000
      8       8.3805      0.00000

 k-point     2 :       0.5000    0.2551    0.7449
  band No.  band energies     occupation 
      1      -7.8013      2.00000
      2      -4.0287      2.00000
      3      -0.9566      2.00000
      4      -0.7299      2.00000
      5       6.7341     -0.00000
      6       7.0534     -0.00000
      7       7.6114     -0.00000
      8       8.3896      0.00000

 k-point     3 :       0.5000    0.2602    0.7398
  band No.  band energies     occupation 
      1      -7.8041      2.00000
      2      -4.0262      2.00000
      3      -0.9747      2.00000
      4      -0.7042      2.00000
      5       6.7004     -0.00000
      6       7.0731     -0.00000
      7       7.6083     -0.00000
      8       8.4160      0.00000

 k-point     4 :       0.5000    0.2653    0.7347
  band No.  band energies     occupation 
      1      -7.8087      2.00000
      2      -4.0222      2.00000
      3      -0.9983      2.00000
      4      -0.6679      2.00000
      5       6.6535     -0.00000
      6       7.0940     -0.00000
      7       7.6080     -0.00000
      8       8.4577      0.00000

 k-point     5 :       0.5000    0.2704    0.7296
  band No.  band energies     occupation 
      1      -7.8151      2.00000
      2      -4.0166      2.00000
      3      -1.0233      2.00000
      4      -0.6251      2.00000
      5       6.5993     -0.00000
      6       7.1074     -0.00000
      7       7.6160     -0.00000
      8       8.5120      0.00000

 k-point     6 :       0.5000    0.2755    0.7245
  band No.  band energies     occupation 
      1      -7.8232      2.00000
      2      -4.0096      2.00000
      3      -1.0475      2.00000
      4      -0.5780      2.00000
      5       6.5410     -0.00000
      6       7.1083     -0.00000
      7       7.6367     -0.00000
      8       8.5766      0.00000

 k-point     7 :       0.5000    0.2806    0.7194
  band No.  band energies     occupation 
      1      -7.8330      2.00000
      2      -4.0015      2.00000
      3      -1.0697      2.00000
      4      -0.5277      2.00000
      5       6.4802     -0.00000
      6       7.0952     -0.00000
      7       7.6714     -0.00000
      8       8.6491      0.00000

 k-point     8 :       0.5000    0.2857    0.7143
  band No.  band energies     occupation 
      1      -7.8444      2.00000
      2      -3.9923      2.00000
      3      -1.0891      2.00000
      4      -0.4749      2.00000
      5       6.4181     -0.00000
      6       7.0704     -0.00000
      7       7.7185     -0.00000
      8       8.7281      0.00000

 k-point     9 :       0.5000    0.2908    0.7092
  band No.  band energies     occupation 
      1      -7.8573      2.00000
      2      -3.9824      2.00000
      3      -1.1053      2.00000
      4      -0.4204      2.00000
      5       6.3549     -0.00000
      6       7.0371     -0.00000
      7       7.7752     -0.00000
      8       8.8123      0.00000

 k-point    10 :       0.5000    0.2959    0.7041
  band No.  band energies     occupation 
      1      -7.8716      2.00000
      2      -3.9718      2.00000
      3      -1.1175      2.00000
      4      -0.3642      2.00000
      5       6.2914     -0.00000
      6       6.9984     -0.00000
      7       7.8389     -0.00000
      8       8.9007      0.00000

 k-point    11 :       0.5000    0.3010    0.6990
  band No.  band energies     occupation 
      1      -7.8872      2.00000
      2      -3.9608      2.00000
      3      -1.1256      2.00000
      4      -0.3067      2.00000
      5       6.2275     -0.00000
      6       6.9566     -0.00000
      7       7.9075     -0.00000
      8       8.9926      0.00000

 k-point    12 :       0.5000    0.3061    0.6939
  band No.  band energies     occupation 
      1      -7.9040      2.00000
      2      -3.9496      2.00000
      3      -1.1293      2.00000
      4      -0.2481      2.00000
      5       6.1633     -0.00000
      6       6.9136     -0.00000
      7       7.9793      0.00000
      8       9.0874      0.00000

 k-point    13 :       0.5000    0.3112    0.6888
  band No.  band energies     occupation 
      1      -7.9218      2.00000
      2      -3.9386      2.00000
      3      -1.1284      2.00000
      4      -0.1887      2.00000
      5       6.0989     -0.00000
      6       6.8706     -0.00000
      7       8.0532      0.00000
      8       9.1844      0.00000

 k-point    14 :       0.5000    0.3163    0.6837
  band No.  band energies     occupation 
      1      -7.9406      2.00000
      2      -3.9278      2.00000
      3      -1.1225      2.00000
      4      -0.1287      2.00000
      5       6.0341     -0.00000
      6       6.8284     -0.00000
      7       8.1280      0.00000
      8       9.2831      0.00000

 k-point    15 :       0.5000    0.3214    0.6786
  band No.  band energies     occupation 
      1      -7.9602      2.00000
      2      -3.9176      2.00000
      3      -1.1117      2.00000
      4      -0.0682      2.00000
      5       5.9689     -0.00000
      6       6.7876     -0.00000
      7       8.2027      0.00000
      8       9.3828      0.00000

 k-point    16 :       0.5000    0.3265    0.6735
  band No.  band energies     occupation 
      1      -7.9805      2.00000
      2      -3.9081      2.00000
      3      -1.0956      2.00000
      4      -0.0074      2.00000
      5       5.9033     -0.00000
      6       6.7490     -0.00000
      7       8.2766      0.00000
      8       9.4824      0.00000

 k-point    17 :       0.5000    0.3316    0.6684
  band No.  band energies     occupation 
      1      -8.0014      2.00000
      2      -3.8995      2.00000
      3      -1.0742      2.00000
      4       0.0536      2.00000
      5       5.8371     -0.00000
      6       6.7129     -0.00000
      7       8.3481      0.00000
      8       9.5805      0.00000

 k-point    18 :       0.5000    0.3367    0.6633
  band No.  band energies     occupation 
      1      -8.0228      2.00000
      2      -3.8919      2.00000
      3      -1.0475      2.00000
      4       0.1146      2.00000
      5       5.7702     -0.00000
      6       6.6795     -0.00000
      7       8.4160      0.00000
      8       9.6745      0.00000

 k-point    19 :       0.5000    0.3418    0.6582
  band No.  band energies     occupation 
      1      -8.0445      2.00000
      2      -3.8854      2.00000
      3      -1.0154      2.00000
      4       0.1753      2.00000
      5       5.7025     -0.00000
      6       6.6491     -0.00000
      7       8.4784      0.00000
      8       9.7597      0.00000

 k-point    20 :       0.5000    0.3469    0.6531
  band No.  band energies     occupation 
      1      -8.0665      2.00000
      2      -3.8802      2.00000
      3      -0.9778      2.00000
      4       0.2357      2.00000
      5       5.6338     -0.00000
      6       6.6219     -0.00000
      7       8.5328      0.00000
      8       9.8272      0.00000

 k-point    21 :       0.5000    0.3520    0.6480
  band No.  band energies     occupation 
      1      -8.0887      2.00000
      2      -3.8762      2.00000
      3      -0.9349      2.00000
      4       0.2957      2.00000
      5       5.5641     -0.00000
      6       6.5982     -0.00000
      7       8.5757      0.00000
      8       9.8643      0.00000

 k-point    22 :       0.5000    0.3571    0.6429
  band No.  band energies     occupation 
      1      -8.1109      2.00000
      2      -3.8735      2.00000
      3      -0.8868      2.00000
      4       0.3549      2.00000
      5       5.4931     -0.00000
      6       6.5779     -0.00000
      7       8.6034      0.00000
      8       9.8652      0.00000

 k-point    23 :       0.5000    0.3622    0.6378
  band No.  band energies     occupation 
      1      -8.1331      2.00000
      2      -3.8721      2.00000
      3      -0.8336      2.00000
      4       0.4134      2.00000
      5       5.4207     -0.00000
      6       6.5612     -0.00000
      7       8.6116      0.00000
      8       9.8443      0.00000

 k-point    24 :       0.5000    0.3673    0.6327
  band No.  band energies     occupation 
      1      -8.1551      2.00000
      2      -3.8719      2.00000
      3      -0.7754      2.00000
      4       0.4709      2.00000
      5       5.3467     -0.00000
      6       6.5482     -0.00000
      7       8.5972      0.00000
      8       9.8230      0.00000

 k-point    25 :       0.5000    0.3724    0.6276
  band No.  band energies     occupation 
      1      -8.1770      2.00000
      2      -3.8730      2.00000
      3      -0.7124      2.00000
      4       0.5270      2.00000
      5       5.2711     -0.00000
      6       6.5388     -0.00000
      7       8.5591      0.00000
      8       9.8145      0.00000

 k-point    26 :       0.5000    0.3776    0.6224
  band No.  band energies     occupation 
      1      -8.1985      2.00000
      2      -3.8752      2.00000
[...]
      1      -7.8122      2.00000
      2      -4.0918      2.00000
      3      -0.7108      2.00000
      4      -0.5693      2.00000
      5       5.3958     -0.00000
      6       5.5041     -0.00000
      7       9.5864      0.00000
      8       9.8636      0.00000

 k-point   221 :       0.5000    0.1480    0.6480
  band No.  band energies     occupation 
      1      -7.8133      2.00000
      2      -4.0973      2.00000
      3      -0.6877      2.00000
      4      -0.5522      2.00000
      5       5.3103     -0.00000
      6       5.4237     -0.00000
      7       9.7063      0.00000
      8       9.9691      0.00000

 k-point   222 :       0.5000    0.1429    0.6429
  band No.  band energies     occupation 
      1      -7.8144      2.00000
      2      -4.1029      2.00000
      3      -0.6639      2.00000
      4      -0.5348      2.00000
      5       5.2266     -0.00000
      6       5.3443     -0.00000
      7       9.8257      0.00000
      8      10.0747      0.00000

 k-point   223 :       0.5000    0.1378    0.6378
  band No.  band energies     occupation 
      1      -7.8155      2.00000
      2      -4.1086      2.00000
      3      -0.6396      2.00000
      4      -0.5169      2.00000
      5       5.1446     -0.00000
      6       5.2661     -0.00000
      7       9.9449      0.00000
      8      10.1801      0.00000

 k-point   224 :       0.5000    0.1327    0.6327
  band No.  band energies     occupation 
      1      -7.8166      2.00000
      2      -4.1142      2.00000
      3      -0.6148      2.00000
      4      -0.4987      2.00000
      5       5.0644     -0.00000
      6       5.1892     -0.00000
      7      10.0636      0.00000
      8      10.2852      0.00000

 k-point   225 :       0.5000    0.1276    0.6276
  band No.  band energies     occupation 
      1      -7.8177      2.00000
      2      -4.1198      2.00000
      3      -0.5896      2.00000
      4      -0.4797      2.00000
      5       4.9862     -0.00000
      6       5.1138     -0.00000
      7      10.1823      0.00000
      8      10.3904      0.00000

 k-point   226 :       0.5000    0.1224    0.6224
  band No.  band energies     occupation 
      1      -7.8189      2.00000
      2      -4.1254      2.00000
      3      -0.5641      2.00000
      4      -0.4608      2.00000
      5       4.9100     -0.00000
      6       5.0399     -0.00000
      7      10.2996      0.00000
      8      10.4943      0.00000

 k-point   227 :       0.5000    0.1173    0.6173
  band No.  band energies     occupation 
      1      -7.8200      2.00000
      2      -4.1310      2.00000
      3      -0.5383      2.00000
      4      -0.4416      2.00000
      5       4.8358     -0.00000
      6       4.9676     -0.00000
      7      10.4160      0.00000
      8      10.5975      0.00000

 k-point   228 :       0.5000    0.1122    0.6122
  band No.  band energies     occupation 
      1      -7.8211      2.00000
      2      -4.1365      2.00000
      3      -0.5125      2.00000
      4      -0.4223      2.00000
      5       4.7638     -0.00000
      6       4.8971     -0.00000
      7      10.5312      0.00000
      8      10.6995      0.00000

 k-point   229 :       0.5000    0.1071    0.6071
  band No.  band energies     occupation 
      1      -7.8223      2.00000
      2      -4.1420      2.00000
      3      -0.4868      2.00000
      4      -0.4030      2.00000
      5       4.6940     -0.00000
      6       4.8284     -0.00000
      7      10.6450      0.00000
      8      10.8002      0.00000

 k-point   230 :       0.5000    0.1020    0.6020
  band No.  band energies     occupation 
      1      -7.8234      2.00000
      2      -4.1473      2.00000
      3      -0.4610      2.00000
      4      -0.3837      2.00000
      5       4.6265     -0.00000
      6       4.7619     -0.00000
      7      10.7573      0.00000
      8      10.8995      0.00000

 k-point   231 :       0.5000    0.0969    0.5969
  band No.  band energies     occupation 
      1      -7.8245      2.00000
      2      -4.1524      2.00000
      3      -0.4354      2.00000
      4      -0.3644      2.00000
      5       4.5615     -0.00000
      6       4.6975     -0.00000
      7      10.8677      0.00000
      8      10.9970      0.00000

 k-point   232 :       0.5000    0.0918    0.5918
  band No.  band energies     occupation 
      1      -7.8255      2.00000
      2      -4.1574      2.00000
      3      -0.4101      2.00000
      4      -0.3454      2.00000
      5       4.4990     -0.00000
      6       4.6354     -0.00000
      7      10.9759      0.00000
      8      11.0927      0.00000

 k-point   233 :       0.5000    0.0867    0.5867
  band No.  band energies     occupation 
      1      -7.8266      2.00000
      2      -4.1622      2.00000
      3      -0.3853      2.00000
      4      -0.3265      2.00000
      5       4.4390     -0.00000
      6       4.5756     -0.00000
      7      11.0817      0.00000
      8      11.1861      0.00000

 k-point   234 :       0.5000    0.0816    0.5816
  band No.  band energies     occupation 
      1      -7.8275      2.00000
      2      -4.1668      2.00000
      3      -0.3609      2.00000
      4      -0.3081      2.00000
      5       4.3818     -0.00000
      6       4.5184     -0.00000
      7      11.1847      0.00000
      8      11.2772      0.00000

 k-point   235 :       0.5000    0.0765    0.5765
  band No.  band energies     occupation 
      1      -7.8285      2.00000
      2      -4.1712      2.00000
      3      -0.3372      2.00000
      4      -0.2901      2.00000
      5       4.3273     -0.00000
      6       4.4638     -0.00000
      7      11.2845      0.00000
      8      11.3653      0.00000

 k-point   236 :       0.5000    0.0714    0.5714
  band No.  band energies     occupation 
      1      -7.8294      2.00000
      2      -4.1754      2.00000
      3      -0.3143      2.00000
      4      -0.2727      2.00000
      5       4.2758     -0.00000
      6       4.4120     -0.00000
      7      11.3807      0.00000
      8      11.4505      0.00000

 k-point   237 :       0.5000    0.0663    0.5663
  band No.  band energies     occupation 
      1      -7.8303      2.00000
      2      -4.1794      2.00000
      3      -0.2923      2.00000
      4      -0.2559      2.00000
      5       4.2272     -0.00000
      6       4.3631     -0.00000
      7      11.4729      0.00000
      8      11.5322      0.00000

 k-point   238 :       0.5000    0.0612    0.5612
  band No.  band energies     occupation 
      1      -7.8311      2.00000
      2      -4.1832      2.00000
      3      -0.2712      2.00000
      4      -0.2398      2.00000
      5       4.1817     -0.00000
      6       4.3171     -0.00000
      7      11.5607      0.00000
      8      11.6102      0.00000

 k-point   239 :       0.5000    0.0561    0.5561
  band No.  band energies     occupation 
      1      -7.8319      2.00000
      2      -4.1868      2.00000
      3      -0.2514      2.00000
      4      -0.2248      2.00000
      5       4.1395     -0.00000
      6       4.2742     -0.00000
      7      11.6441      0.00000
      8      11.6851      0.00000

 k-point   240 :       0.5000    0.0510    0.5510
  band No.  band energies     occupation 
      1      -7.8326      2.00000
      2      -4.1900      2.00000
      3      -0.2328      2.00000
      4      -0.2105      2.00000
      5       4.1005     -0.00000
      6       4.2346     -0.00000
      7      11.7209      0.00000
      8      11.7546      0.00000

 k-point   241 :       0.5000    0.0459    0.5459
  band No.  band energies     occupation 
      1      -7.8332      2.00000
      2      -4.1929      2.00000
      3      -0.2155      2.00000
      4      -0.1972      2.00000
      5       4.0649     -0.00000
      6       4.1984     -0.00000
      7      11.7926      0.00000
      8      11.8181      0.00000

 k-point   242 :       0.5000    0.0408    0.5408
  band No.  band energies     occupation 
      1      -7.8338      2.00000
      2      -4.1956      2.00000
      3      -0.1997      2.00000
      4      -0.1851      2.00000
      5       4.0327     -0.00000
      6       4.1657     -0.00000
      7      11.8581      0.00000
      8      11.8774      0.00000

 k-point   243 :       0.5000    0.0357    0.5357
  band No.  band energies     occupation 
      1      -7.8343      2.00000
      2      -4.1979      2.00000
      3      -0.1855      2.00000
      4      -0.1743      2.00000
      5       4.0041     -0.00000
      6       4.1365     -0.00000
      7      11.9177      0.00000
      8      11.9333      0.00000

 k-point   244 :       0.5000    0.0306    0.5306
  band No.  band energies     occupation 
      1      -7.8348      2.00000
      2      -4.2000      2.00000
      3      -0.1730      2.00000
      4      -0.1647      2.00000
      5       3.9792     -0.00000
      6       4.1110     -0.00000
      7      11.9696      0.00000
      8      11.9787      0.00000

 k-point   245 :       0.5000    0.0255    0.5255
  band No.  band energies     occupation 
      1      -7.8352      2.00000
      2      -4.2017      2.00000
      3      -0.1622      2.00000
      4      -0.1564      2.00000
      5       3.9579     -0.00000
      6       4.0893     -0.00000
      7      12.0139      0.00000
      8      12.0205      0.00000

 k-point   246 :       0.5000    0.0204    0.5204
  band No.  band energies     occupation 
      1      -7.8355      2.00000
      2      -4.2032      2.00000
      3      -0.1533      2.00000
      4      -0.1496      2.00000
      5       3.9405     -0.00000
      6       4.0714     -0.00000
      7      12.0502      0.00000
      8      12.0544      0.00000

 k-point   247 :       0.5000    0.0153    0.5153
  band No.  band energies     occupation 
      1      -7.8357      2.00000
      2      -4.2041      2.00000
      3      -0.1462      2.00000
      4      -0.1442      2.00000
      5       3.9268     -0.00000
      6       4.0575     -0.00000
      7      12.0786      0.00000
      8      12.0810      0.00000

 k-point   248 :       0.5000    0.0102    0.5102
  band No.  band energies     occupation 
      1      -7.8359      2.00000
      2      -4.2049      2.00000
      3      -0.1412      2.00000
      4      -0.1403      2.00000
      5       3.9171     -0.00000
      6       4.0475     -0.00000
      7      12.0993      0.00000
      8      12.1006      0.00000

 k-point   249 :       0.5000    0.0051    0.5051
  band No.  band energies     occupation 
      1      -7.8360      2.00000
      2      -4.2052      2.00000
      3      -0.1382      2.00000
      4      -0.1379      2.00000
      5       3.9112     -0.00000
      6       4.0416     -0.00000
      7      12.1122      0.00000
      8      12.1167      0.00000

 k-point   250 :       0.5000    0.0000    0.5000
  band No.  band energies     occupation 
      1      -7.8360      2.00000
      2      -4.2053      2.00000
      3      -0.1372      2.00000
      4      -0.1370      2.00000
      5       3.9092     -0.00000
      6       4.0396     -0.00000
      7      12.1163      0.00000
      8      12.1168      0.00000


--------------------------------------------------------------------------------------------------------


 soft charge-density along one line, spin component           1
         0         1         2         3         4         5         6         7         8         9
 total charge-density along one line
 
 pseudopotential strength for first ion, spin component:           1
  6.302   0.000   0.089   0.000  -0.000   0.000  -0.000   0.000  -0.000   0.000  -0.000   0.000  -0.000   0.000  -0.000   0.000
  0.089   0.000  -0.014   0.000  -0.000   0.000  -0.000   0.000  -0.000   0.000  -0.000   0.000  -0.000   0.000  -0.000   0.000
 -0.000   0.000  -0.000   0.000   1.367   0.000   0.000   0.000   0.000   0.000  -0.014   0.000   0.000   0.000   0.000   0.000
 -0.000   0.000  -0.000   0.000   0.000   0.000   1.367   0.000   0.000   0.000   0.000   0.000  -0.014   0.000   0.000   0.000
 -0.000   0.000  -0.000   0.000   0.000   0.000   0.000   0.000   1.367   0.000   0.000   0.000   0.000   0.000  -0.014   0.000
 -0.000   0.000  -0.000   0.000  -0.014   0.000   0.000   0.000   0.000   0.000   0.013   0.000   0.000   0.000   0.000   0.000
 -0.000   0.000  -0.000   0.000   0.000   0.000  -0.014   0.000   0.000   0.000   0.000   0.000   0.013   0.000   0.000   0.000
 -0.000   0.000  -0.000   0.000   0.000   0.000   0.000   0.000  -0.014   0.000   0.000   0.000   0.000   0.000   0.013   0.000
  0.000   0.000   0.000   0.000  -0.000   0.000   0.003   0.000  -0.000   0.000  -0.000   0.000   0.000   0.000  -0.000   0.000
  0.000   0.000   0.000   0.000  -0.000   0.000  -0.000   0.000   0.003   0.000  -0.000   0.000  -0.000   0.000   0.000   0.000
  0.000   0.000   0.000   0.000   0.000   0.000  -0.000   0.000   0.000   0.000   0.000   0.000  -0.000   0.000   0.000   0.000
  0.000   0.000   0.000   0.000   0.003   0.000  -0.000   0.000  -0.000   0.000   0.000   0.000  -0.000   0.000  -0.000   0.000
  0.000   0.000   0.000   0.000   0.000   0.000  -0.000   0.000  -0.000   0.000   0.000   0.000  -0.000   0.000  -0.000   0.000
 total augmentation occupancy for first ion, spin component:           1
  2.000   0.000   0.000   0.000   0.000   0.000   0.000   0.000   0.000   0.000   0.000   0.000   0.000
  0.000   0.000   0.000   0.000   0.000   0.000   0.000   0.000   0.000   0.000   0.000   0.000   0.000
  0.000   0.000   0.333   0.000   0.000   0.000   0.000   0.000   0.000   0.000   0.000   0.000   0.000
  0.000   0.000   0.000   0.333   0.000   0.000   0.000   0.000   0.000   0.000   0.000   0.000   0.000
  0.000   0.000   0.000   0.000   0.333   0.000   0.000   0.000   0.000   0.000   0.000   0.000   0.000
  0.000   0.000   0.000   0.000   0.000   0.000   0.000   0.000   0.000   0.000   0.000   0.000   0.000
  0.000   0.000   0.000   0.000   0.000   0.000   0.000   0.000   0.000   0.000   0.000   0.000   0.000
  0.000   0.000   0.000   0.000   0.000   0.000   0.000   0.000   0.000   0.000   0.000   0.000   0.000
  0.000   0.000   0.000   0.000   0.000   0.000   0.000   0.000   0.000   0.000   0.000   0.000   0.000
  0.000   0.000   0.000   0.000   0.000   0.000   0.000   0.000   0.000   0.000   0.000   0.000   0.000
  0.000   0.000   0.000   0.000   0.000   0.000   0.000   0.000   0.000   0.000   0.000   0.000   0.000
  0.000   0.000   0.000   0.000   0.000   0.000   0.000   0.000   0.000   0.000   0.000   0.000   0.000
  0.000   0.000   0.000   0.000   0.000   0.000   0.000   0.000   0.000   0.000   0.000   0.000   0.000


------------------------ aborting loop because EDIFF is reached ----------------------------------------


    CHARGE:  cpu time    0.0426: real time    0.0867
    FORLOC:  cpu time    0.0017: real time    0.0197
    FORNL :  cpu time    0.1488: real time    0.4412
    STRESS:  cpu time    0.5106: real time    1.3305
    FORCOR:  cpu time    0.0173: real time    0.0553
    FORHAR:  cpu time    0.0046: real time    0.0046
    OFIELD:  cpu time    0.0001: real time    0.0002

  FORCE on cell =-STRESS in cart. coord.  units (eV):
  Direction    XX          YY          ZZ          XY          YZ          ZX
  --------------------------------------------------------------------------------------
  Alpha Z    17.36684    17.36684    17.36684
  Ewald     -75.06867   -75.06867   -75.06867    -0.00000     0.00000     0.00000
  Hartree     7.74355     7.74355     7.74355    -0.00000    -0.00000    -0.00000
  E(xc)     -29.88171   -29.88171   -29.88171     0.00001     0.00001     0.00001
  Local     -31.63867   -31.63867   -31.63867     0.00037     0.00037     0.00037
  n-local    47.43462    43.97563    46.70827    -0.80415    -0.61237    -0.80436
  augment     1.08214     1.08214     1.08214    -0.00019    -0.00019    -0.00019
  Kinetic    67.28414    61.19113    68.61063    -2.02200    -1.71676    -2.02193
  Fock        0.00000     0.00000     0.00000     0.00000     0.00000     0.00000
  -------------------------------------------------------------------------------------
  Total       1.33830     1.33830     1.33830    -0.00000     0.00000    -0.00000
  in kB      45.04835    45.04835    45.04835    -0.00000     0.00000    -0.00000
  external pressure =       45.05 kB  Pullay stress =        0.00 kB


 VOLUME and BASIS-vectors are now :
 -----------------------------------------------------------------------------
  energy-cutoff  :      208.73
  volume of cell :       47.60
      direct lattice vectors                 reciprocal lattice vectors
     0.000000000  2.876419419  2.876419419    -0.173827223  0.173827223  0.173827223
     2.876419419  0.000000000  2.876419419     0.173827223 -0.173827223  0.173827223
     2.876419419  2.876419419  0.000000000     0.173827223  0.173827223 -0.173827223

  length of vectors
     4.067871354  4.067871354  4.067871354     0.301077582  0.301077582  0.301077582


 FORCES acting on ions
    electron-ion (+dipol)            ewald-force                    non-local-force                 convergence-correction
 -----------------------------------------------------------------------------------------------
   -.113E-04 -.113E-04 -.113E-04   -.172E-14 0.281E-14 -.450E-14   0.347E-17 -.434E-18 -.434E-18   -.354E-07 -.354E-07 -.354E-07
   -.273E-05 -.273E-05 -.273E-05   0.173E-14 -.297E-14 0.437E-14   0.382E-16 0.139E-16 0.173E-16   -.102E-06 -.102E-06 -.102E-06
 -----------------------------------------------------------------------------------------------
   -.140E-04 -.140E-04 -.140E-04   0.994E-17 -.152E-15 -.130E-15   0.416E-16 0.134E-16 0.169E-16   -.138E-06 -.138E-06 -.138E-06
 
 
 POSITION                                       TOTAL-FORCE (eV/Angst)
 -----------------------------------------------------------------------------------
      0.00000      0.00000      0.00000         0.000000      0.000000      0.000000
      1.43821      1.43821      1.43821        -0.000000     -0.000000     -0.000000
 -----------------------------------------------------------------------------------
    total drift:                               -0.000014     -0.000014     -0.000014


--------------------------------------------------------------------------------------------------------



  FREE ENERGIE OF THE ION-ELECTRON SYSTEM (eV)
  ---------------------------------------------------
  free  energy   TOTEN  =        -7.62733184 eV

  energy  without entropy=       -7.62913962  energy(sigma->0) =       -7.62793443
 


--------------------------------------------------------------------------------------------------------


    POTLOK:  cpu time    0.0192: real time    0.0722


--------------------------------------------------------------------------------------------------------


     LOOP+:  cpu time    4.1303: real time   10.8307
    4ORBIT:  cpu time    0.0000: real time    0.0000

 total amount of memory used by VASP MPI-rank0    62681. kBytes
=======================================================================

   base      :      30000. kBytes
   nonl-proj :      17430. kBytes
   fftplans  :       1488. kBytes
   grid      :       2195. kBytes
   one-center:         16. kBytes
   wavefun   :      11552. kBytes
 
  
  
 General timing and accounting informations for this job:
 ========================================================
  
                  Total CPU time used (sec):        4.527
                            User time (sec):        4.366
                          System time (sec):        0.160
                         Elapsed time (sec):       12.060
  
                   Maximum memory used (kb):       84380.
                   Average memory used (kb):           0.
  
                          Minor page faults:        13549
                          Major page faults:            0
                 Voluntary context switches:          247
