 running on    1 total cores
 distrk:  each k-point on    1 cores,    1 groups
 distr:  one band on    1 cores,    1 groups
 using from now: INCAR     
 vasp.5.4.4.18Apr17-6-g9f103f2a35 (build May 20 2018 16:52:39) complex          
  
 POSCAR found type information on POSCAR  Ga As
 POSCAR found :  2 types and       2 ions
 scaLAPACK will be used
 LDA part: xc-table for Ceperly-Alder, standard interpolation
 WARNING: stress and forces are not correct
 POSCAR, INCAR and KPOINTS ok, starting setup
 FFT: planning ...
 WAVECAR not read
 reading imaginary part of occupancies ...
 charge-density read from file: GaAs                                    
 entering main loop
       N       E                     dE             d eps       ncg     rms          rms(c)
DAV:   1     0.613949933082E+01    0.61395E+01   -0.21317E+03  1640   0.409E+02
DAV:   2    -0.742964377463E+01   -0.13569E+02   -0.12892E+02  2392   0.647E+01
DAV:   3    -0.765964118513E+01   -0.23000E+00   -0.22922E+00  1952   0.107E+01
DAV:   4    -0.766006881608E+01   -0.42763E-03   -0.42763E-03  2328   0.489E-01
DAV:   5    -0.766006939329E+01   -0.57721E-06   -0.57755E-06  1960   0.117E-02
DAV:   6    -0.766006939725E+01   -0.39620E-08   -0.36790E-08  2376   0.634E-04
   1 F= -.76600694E+01 E0= -.76603938E+01  d E =0.973233E-03
