<?xml version="1.0" encoding="ISO-8859-1"?>
<modeling>
 <generator>
  <i name="program" type="string">vasp </i>
  <i name="version" type="string">5.4.4.18Apr17-6-g9f103f2a35  </i>
  <i name="subversion" type="string">(build May 20 2018 16:52:39) complex            parallel </i>
  <i name="platform" type="string">LinuxIFC </i>
  <i name="date" type="string">2022 10 31 </i>
  <i name="time" type="string">01:34:06 </i>
 </generator>
 <incar>
  <i type="string" name="SYSTEM"> GaAs</i>
  <i type="string" name="PREC">normal</i>
  <i type="int" name="ICHARG">    11</i>
  <i name="EDIFF">      0.00000100</i>
  <i type="logical" name="LWAVE"> F  </i>
  <i type="logical" name="LCHARG"> F  </i>
  <v type="int" name="KPOINT_BSE">    -1     0     0     0</v>
 </incar>
 <structure name="primitive_cell" >
  <crystal>
   <varray name="basis" >
    <v>       0.00000000       2.87641942       2.87641942 </v>
    <v>       2.87641942       0.00000000       2.87641942 </v>
    <v>       2.87641942       2.87641942       0.00000000 </v>
   </varray>
   <i name="volume">     47.59777283 </i>
   <varray name="rec_basis" >
    <v>      -0.17382722       0.17382722       0.17382722 </v>
    <v>       0.17382722      -0.17382722       0.17382722 </v>
    <v>       0.17382722       0.17382722      -0.17382722 </v>
   </varray>
  </crystal>
  <varray name="positions" >
   <v>       0.00000000       0.00000000       0.00000000 </v>
   <v>       0.25000000       0.25000000       0.25000000 </v>
  </varray>
 </structure>
 <varray name="primitive_index" >
  <v type="int" >        1 </v>
  <v type="int" >        2 </v>
 </varray>
 <kpoints>
  <generation param="listgenerated">
   <i name="divisions" type="int">      50 </i>
   <v>       0.50000000       0.25000000       0.75000000 </v>
   <v>       0.50000000       0.50000000       0.50000000 </v>
   <v>       0.00000000       0.00000000       0.00000000 </v>
   <v>       0.50000000       0.00000000       0.50000000 </v>
   <v>       0.50000000       0.25000000       0.75000000 </v>
   <v>       0.50000000       0.00000000       0.50000000 </v>
  </generation>
  <varray name="kpointlist" >
   <v>       0.50000000       0.25000000       0.75000000 </v>
   <v>       0.50000000       0.25510204       0.74489796 </v>
   <v>       0.50000000       0.26020408       0.73979592 </v>
   <v>       0.50000000       0.26530612       0.73469388 </v>
   <v>       0.50000000       0.27040816       0.72959184 </v>
   <v>       0.50000000       0.27551020       0.72448980 </v>
   <v>       0.50000000       0.28061224       0.71938776 </v>
   <v>       0.50000000       0.28571429       0.71428571 </v>
   <v>       0.50000000       0.29081633       0.70918367 </v>
   <v>       0.50000000       0.29591837       0.70408163 </v>
   <v>       0.50000000       0.30102041       0.69897959 </v>
   <v>       0.50000000       0.30612245       0.69387755 </v>
   <v>       0.50000000       0.31122449       0.68877551 </v>
   <v>       0.50000000       0.31632653       0.68367347 </v>
   <v>       0.50000000       0.32142857       0.67857143 </v>
   <v>       0.50000000       0.32653061       0.67346939 </v>
   <v>       0.50000000       0.33163265       0.66836735 </v>
   <v>       0.50000000       0.33673469       0.66326531 </v>
   <v>       0.50000000       0.34183673       0.65816327 </v>
   <v>       0.50000000       0.34693878       0.65306122 </v>
   <v>       0.50000000       0.35204082       0.64795918 </v>
   <v>       0.50000000       0.35714286       0.64285714 </v>
   <v>       0.50000000       0.36224490       0.63775510 </v>
   <v>       0.50000000       0.36734694       0.63265306 </v>
   <v>       0.50000000       0.37244898       0.62755102 </v>
   <v>       0.50000000       0.37755102       0.62244898 </v>
   <v>       0.50000000       0.38265306       0.61734694 </v>
   <v>       0.50000000       0.38775510       0.61224490 </v>
   <v>       0.50000000       0.39285714       0.60714286 </v>
   <v>       0.50000000       0.39795918       0.60204082 </v>
   <v>       0.50000000       0.40306122       0.59693878 </v>
   <v>       0.50000000       0.40816327       0.59183673 </v>
   <v>       0.50000000       0.41326531       0.58673469 </v>
   <v>       0.50000000       0.41836735       0.58163265 </v>
   <v>       0.50000000       0.42346939       0.57653061 </v>
   <v>       0.50000000       0.42857143       0.57142857 </v>
   <v>       0.50000000       0.43367347       0.56632653 </v>
   <v>       0.50000000       0.43877551       0.56122449 </v>
   <v>       0.50000000       0.44387755       0.55612245 </v>
   <v>       0.50000000       0.44897959       0.55102041 </v>
   <v>       0.50000000       0.45408163       0.54591837 </v>
   <v>       0.50000000       0.45918367       0.54081633 </v>
   <v>       0.50000000       0.46428571       0.53571429 </v>
   <v>       0.50000000       0.46938776       0.53061224 </v>
   <v>       0.50000000       0.47448980       0.52551020 </v>
   <v>       0.50000000       0.47959184       0.52040816 </v>
   <v>       0.50000000       0.48469388       0.51530612 </v>
   <v>       0.50000000       0.48979592       0.51020408 </v>
   <v>       0.50000000       0.49489796       0.50510204 </v>
   <v>       0.50000000       0.50000000       0.50000000 </v>
   <v>       0.50000000       0.50000000       0.50000000 </v>
   <v>       0.48979592       0.48979592       0.48979592 </v>
   <v>       0.47959184       0.47959184       0.47959184 </v>
   <v>       0.46938776       0.46938776       0.46938776 </v>
   <v>       0.45918367       0.45918367       0.45918367 </v>
   <v>       0.44897959       0.44897959       0.44897959 </v>
   <v>       0.43877551       0.43877551       0.43877551 </v>
   <v>       0.42857143       0.42857143       0.42857143 </v>
   <v>       0.41836735       0.41836735       0.41836735 </v>
   <v>       0.40816327       0.40816327       0.40816327 </v>
   <v>       0.39795918       0.39795918       0.39795918 </v>
   <v>       0.38775510       0.38775510       0.38775510 </v>
   <v>       0.37755102       0.37755102       0.37755102 </v>
   <v>       0.36734694       0.36734694       0.36734694 </v>
   <v>       0.35714286       0.35714286       0.35714286 </v>
   <v>       0.34693878       0.34693878       0.34693878 </v>
   <v>       0.33673469       0.33673469       0.33673469 </v>
   <v>       0.32653061       0.32653061       0.32653061 </v>
   <v>       0.31632653       0.31632653       0.31632653 </v>
   <v>       0.30612245       0.30612245       0.30612245 </v>
   <v>       0.29591837       0.29591837       0.29591837 </v>
   <v>       0.28571429       0.28571429       0.28571429 </v>
   <v>       0.27551020       0.27551020       0.27551020 </v>
   <v>       0.26530612       0.26530612       0.26530612 </v>
   <v>       0.25510204       0.25510204       0.25510204 </v>
   <v>       0.24489796       0.24489796       0.24489796 </v>
   <v>       0.23469388       0.23469388       0.23469388 </v>
   <v>       0.22448980       0.22448980       0.22448980 </v>
   <v>       0.21428571       0.21428571       0.21428571 </v>
   <v>       0.20408163       0.20408163       0.20408163 </v>
   <v>       0.19387755       0.19387755       0.19387755 </v>
   <v>       0.18367347       0.18367347       0.18367347 </v>
   <v>       0.17346939       0.17346939       0.17346939 </v>
   <v>       0.16326531       0.16326531       0.16326531 </v>
   <v>       0.15306122       0.15306122       0.15306122 </v>
   <v>       0.14285714       0.14285714       0.14285714 </v>
   <v>       0.13265306       0.13265306       0.13265306 </v>
   <v>       0.12244898       0.12244898       0.12244898 </v>
   <v>       0.11224490       0.11224490       0.11224490 </v>
   <v>       0.10204082       0.10204082       0.10204082 </v>
   <v>       0.09183673       0.09183673       0.09183673 </v>
   <v>       0.08163265       0.08163265       0.08163265 </v>
   <v>       0.07142857       0.07142857       0.07142857 </v>
   <v>       0.06122449       0.06122449       0.06122449 </v>
   <v>       0.05102041       0.05102041       0.05102041 </v>
   <v>       0.04081633       0.04081633       0.04081633 </v>
   <v>       0.03061224       0.03061224       0.03061224 </v>
   <v>       0.02040816       0.02040816       0.02040816 </v>
   <v>       0.01020408       0.01020408       0.01020408 </v>
   <v>       0.00000000       0.00000000       0.00000000 </v>
   <v>       0.00000000       0.00000000       0.00000000 </v>
   <v>       0.01020408       0.00000000       0.01020408 </v>
   <v>       0.02040816       0.00000000       0.02040816 </v>
   <v>       0.03061224       0.00000000       0.03061224 </v>
   <v>       0.04081633       0.00000000       0.04081633 </v>
   <v>       0.05102041       0.00000000       0.05102041 </v>
   <v>       0.06122449       0.00000000       0.06122449 </v>
   <v>       0.07142857       0.00000000       0.07142857 </v>
   <v>       0.08163265       0.00000000       0.08163265 </v>
   <v>       0.09183673       0.00000000       0.09183673 </v>
   <v>       0.10204082       0.00000000       0.10204082 </v>
   <v>       0.11224490       0.00000000       0.11224490 </v>
   <v>       0.12244898       0.00000000       0.12244898 </v>
   <v>       0.13265306       0.00000000       0.13265306 </v>
   <v>       0.14285714       0.00000000       0.14285714 </v>
   <v>       0.15306122       0.00000000       0.15306122 </v>
   <v>       0.16326531       0.00000000       0.16326531 </v>
   <v>       0.17346939       0.00000000       0.17346939 </v>
   <v>       0.18367347       0.00000000       0.18367347 </v>
   <v>       0.19387755       0.00000000       0.19387755 </v>
   <v>       0.20408163       0.00000000       0.20408163 </v>
   <v>       0.21428571       0.00000000       0.21428571 </v>
   <v>       0.22448980       0.00000000       0.22448980 </v>
   <v>       0.23469388       0.00000000       0.23469388 </v>
   <v>       0.24489796       0.00000000       0.24489796 </v>
   <v>       0.25510204       0.00000000       0.25510204 </v>
   <v>       0.26530612       0.00000000       0.26530612 </v>
   <v>       0.27551020       0.00000000       0.27551020 </v>
   <v>       0.28571429       0.00000000       0.28571429 </v>
   <v>       0.29591837       0.00000000       0.29591837 </v>
   <v>       0.30612245       0.00000000       0.30612245 </v>
   <v>       0.31632653       0.00000000       0.31632653 </v>
   <v>       0.32653061       0.00000000       0.32653061 </v>
   <v>       0.33673469       0.00000000       0.33673469 </v>
   <v>       0.34693878       0.00000000       0.34693878 </v>
   <v>       0.35714286       0.00000000       0.35714286 </v>
   <v>       0.36734694       0.00000000       0.36734694 </v>
   <v>       0.37755102       0.00000000       0.37755102 </v>
   <v>       0.38775510       0.00000000       0.38775510 </v>
   <v>       0.39795918       0.00000000       0.39795918 </v>
   <v>       0.40816327       0.00000000       0.40816327 </v>
   <v>       0.41836735       0.00000000       0.41836735 </v>
   <v>       0.42857143       0.00000000       0.42857143 </v>
   <v>       0.43877551       0.00000000       0.43877551 </v>
   <v>       0.44897959       0.00000000       0.44897959 </v>
   <v>       0.45918367       0.00000000       0.45918367 </v>
   <v>       0.46938776       0.00000000       0.46938776 </v>
   <v>       0.47959184       0.00000000       0.47959184 </v>
   <v>       0.48979592       0.00000000       0.48979592 </v>
   <v>       0.50000000       0.00000000       0.50000000 </v>
   <v>       0.50000000       0.00000000       0.50000000 </v>
   <v>       0.50000000       0.00510204       0.50510204 </v>
   <v>       0.50000000       0.01020408       0.51020408 </v>
   <v>       0.50000000       0.01530612       0.51530612 </v>
   <v>       0.50000000       0.02040816       0.52040816 </v>
   <v>       0.50000000       0.02551020       0.52551020 </v>
   <v>       0.50000000       0.03061224       0.53061224 </v>
   <v>       0.50000000       0.03571429       0.53571429 </v>
   <v>       0.50000000       0.04081633       0.54081633 </v>
   <v>       0.50000000       0.04591837       0.54591837 </v>
   <v>       0.50000000       0.05102041       0.55102041 </v>
   <v>       0.50000000       0.05612245       0.55612245 </v>
   <v>       0.50000000       0.06122449       0.56122449 </v>
   <v>       0.50000000       0.06632653       0.56632653 </v>
   <v>       0.50000000       0.07142857       0.57142857 </v>
   <v>       0.50000000       0.07653061       0.57653061 </v>
   <v>       0.50000000       0.08163265       0.58163265 </v>
   <v>       0.50000000       0.08673469       0.58673469 </v>
   <v>       0.50000000       0.09183673       0.59183673 </v>
   <v>       0.50000000       0.09693878       0.59693878 </v>
   <v>       0.50000000       0.10204082       0.60204082 </v>
   <v>       0.50000000       0.10714286       0.60714286 </v>
   <v>       0.50000000       0.11224490       0.61224490 </v>
   <v>       0.50000000       0.11734694       0.61734694 </v>
   <v>       0.50000000       0.12244898       0.62244898 </v>
   <v>       0.50000000       0.12755102       0.62755102 </v>
   <v>       0.50000000       0.13265306       0.63265306 </v>
   <v>       0.50000000       0.13775510       0.63775510 </v>
   <v>       0.50000000       0.14285714       0.64285714 </v>
   <v>       0.50000000       0.14795918       0.64795918 </v>
   <v>       0.50000000       0.15306122       0.65306122 </v>
   <v>       0.50000000       0.15816327       0.65816327 </v>
   <v>       0.50000000       0.16326531       0.66326531 </v>
   <v>       0.50000000       0.16836735       0.66836735 </v>
   <v>       0.50000000       0.17346939       0.67346939 </v>
   <v>       0.50000000       0.17857143       0.67857143 </v>
   <v>       0.50000000       0.18367347       0.68367347 </v>
   <v>       0.50000000       0.18877551       0.68877551 </v>
   <v>       0.50000000       0.19387755       0.69387755 </v>
   <v>       0.50000000       0.19897959       0.69897959 </v>
   <v>       0.50000000       0.20408163       0.70408163 </v>
   <v>       0.50000000       0.20918367       0.70918367 </v>
   <v>       0.50000000       0.21428571       0.71428571 </v>
   <v>       0.50000000       0.21938776       0.71938776 </v>
   <v>       0.50000000       0.22448980       0.72448980 </v>
   <v>       0.50000000       0.22959184       0.72959184 </v>
   <v>       0.50000000       0.23469388       0.73469388 </v>
   <v>       0.50000000       0.23979592       0.73979592 </v>
   <v>       0.50000000       0.24489796       0.74489796 </v>
   <v>       0.50000000       0.25000000       0.75000000 </v>
   <v>       0.50000000       0.25000000       0.75000000 </v>
   <v>       0.50000000       0.24489796       0.74489796 </v>
   <v>       0.50000000       0.23979592       0.73979592 </v>
   <v>       0.50000000       0.23469388       0.73469388 </v>
   <v>       0.50000000       0.22959184       0.72959184 </v>
   <v>       0.50000000       0.22448980       0.72448980 </v>
   <v>       0.50000000       0.21938776       0.71938776 </v>
   <v>       0.50000000       0.21428571       0.71428571 </v>
   <v>       0.50000000       0.20918367       0.70918367 </v>
   <v>       0.50000000       0.20408163       0.70408163 </v>
   <v>       0.50000000       0.19897959       0.69897959 </v>
   <v>       0.50000000       0.19387755       0.69387755 </v>
   <v>       0.50000000       0.18877551       0.68877551 </v>
   <v>       0.50000000       0.18367347       0.68367347 </v>
   <v>       0.50000000       0.17857143       0.67857143 </v>
   <v>       0.50000000       0.17346939       0.67346939 </v>
   <v>       0.50000000       0.16836735       0.66836735 </v>
   <v>       0.50000000       0.16326531       0.66326531 </v>
   <v>       0.50000000       0.15816327       0.65816327 </v>
   <v>       0.50000000       0.15306122       0.65306122 </v>
   <v>       0.50000000       0.14795918       0.64795918 </v>
   <v>       0.50000000       0.14285714       0.64285714 </v>
   <v>       0.50000000       0.13775510       0.63775510 </v>
   <v>       0.50000000       0.13265306       0.63265306 </v>
   <v>       0.50000000       0.12755102       0.62755102 </v>
   <v>       0.50000000       0.12244898       0.62244898 </v>
   <v>       0.50000000       0.11734694       0.61734694 </v>
   <v>       0.50000000       0.11224490       0.61224490 </v>
   <v>       0.50000000       0.10714286       0.60714286 </v>
   <v>       0.50000000       0.10204082       0.60204082 </v>
   <v>       0.50000000       0.09693878       0.59693878 </v>
   <v>       0.50000000       0.09183673       0.59183673 </v>
   <v>       0.50000000       0.08673469       0.58673469 </v>
   <v>       0.50000000       0.08163265       0.58163265 </v>
   <v>       0.50000000       0.07653061       0.57653061 </v>
   <v>       0.50000000       0.07142857       0.57142857 </v>
   <v>       0.50000000       0.06632653       0.56632653 </v>
   <v>       0.50000000       0.06122449       0.56122449 </v>
   <v>       0.50000000       0.05612245       0.55612245 </v>
   <v>       0.50000000       0.05102041       0.55102041 </v>
   <v>       0.50000000       0.04591837       0.54591837 </v>
   <v>       0.50000000       0.04081633       0.54081633 </v>
   <v>       0.50000000       0.03571429       0.53571429 </v>
   <v>       0.50000000       0.03061224       0.53061224 </v>
   <v>       0.50000000       0.02551020       0.52551020 </v>
   <v>       0.50000000       0.02040816       0.52040816 </v>
   <v>       0.50000000       0.01530612       0.51530612 </v>
   <v>       0.50000000       0.01020408       0.51020408 </v>
   <v>       0.50000000       0.00510204       0.50510204 </v>
   <v>       0.50000000       0.00000000       0.50000000 </v>
  </varray>
  <varray name="weights" >
   <v>       0.00400000 </v>
   <v>       0.00400000 </v>
   <v>       0.00400000 </v>
   <v>       0.00400000 </v>
   <v>       0.00400000 </v>
   <v>       0.00400000 </v>
   <v>       0.00400000 </v>
   <v>       0.00400000 </v>
   <v>       0.00400000 </v>
   <v>       0.00400000 </v>
   <v>       0.00400000 </v>
   <v>       0.00400000 </v>
   <v>       0.00400000 </v>
   <v>       0.00400000 </v>
   <v>       0.00400000 </v>
   <v>       0.00400000 </v>
   <v>       0.00400000 </v>
   <v>       0.00400000 </v>
   <v>       0.00400000 </v>
   <v>       0.00400000 </v>
   <v>       0.00400000 </v>
   <v>       0.00400000 </v>
   <v>       0.00400000 </v>
   <v>       0.00400000 </v>
   <v>       0.00400000 </v>
   <v>       0.00400000 </v>
   <v>       0.00400000 </v>
   <v>       0.00400000 </v>
   <v>       0.00400000 </v>
   <v>       0.00400000 </v>
   <v>       0.00400000 </v>
   <v>       0.00400000 </v>
   <v>       0.00400000 </v>
   <v>       0.00400000 </v>
   <v>       0.00400000 </v>
   <v>       0.00400000 </v>
   <v>       0.00400000 </v>
   <v>       0.00400000 </v>
   <v>       0.00400000 </v>
   <v>       0.00400000 </v>
   <v>       0.00400000 </v>
   <v>       0.00400000 </v>
   <v>       0.00400000 </v>
   <v>       0.00400000 </v>
   <v>       0.00400000 </v>
   <v>       0.00400000 </v>
   <v>       0.00400000 </v>
   <v>       0.00400000 </v>
   <v>       0.00400000 </v>
   <v>       0.00400000 </v>
   <v>       0.00400000 </v>
   <v>       0.00400000 </v>
   <v>       0.00400000 </v>
   <v>       0.00400000 </v>
   <v>       0.00400000 </v>
   <v>       0.00400000 </v>
   <v>       0.00400000 </v>
   <v>       0.00400000 </v>
   <v>       0.00400000 </v>
   <v>       0.00400000 </v>
   <v>       0.00400000 </v>
   <v>       0.00400000 </v>
   <v>       0.00400000 </v>
   <v>       0.00400000 </v>
   <v>       0.00400000 </v>
   <v>       0.00400000 </v>
   <v>       0.00400000 </v>
   <v>       0.00400000 </v>
   <v>       0.00400000 </v>
   <v>       0.00400000 </v>
   <v>       0.00400000 </v>
   <v>       0.00400000 </v>
   <v>       0.00400000 </v>
   <v>       0.00400000 </v>
   <v>       0.00400000 </v>
   <v>       0.00400000 </v>
   <v>       0.00400000 </v>
   <v>       0.00400000 </v>
   <v>       0.00400000 </v>
   <v>       0.00400000 </v>
   <v>       0.00400000 </v>
   <v>       0.00400000 </v>
   <v>       0.00400000 </v>
   <v>       0.00400000 </v>
   <v>       0.00400000 </v>
   <v>       0.00400000 </v>
   <v>       0.00400000 </v>
   <v>       0.00400000 </v>
   <v>       0.00400000 </v>
   <v>       0.00400000 </v>
   <v>       0.00400000 </v>
   <v>       0.00400000 </v>
   <v>       0.00400000 </v>
   <v>       0.00400000 </v>
   <v>       0.00400000 </v>
   <v>       0.00400000 </v>
   <v>       0.00400000 </v>
   <v>       0.00400000 </v>
   <v>       0.00400000 </v>
   <v>       0.00400000 </v>
   <v>       0.00400000 </v>
   <v>       0.00400000 </v>
   <v>       0.00400000 </v>
   <v>       0.00400000 </v>
   <v>       0.00400000 </v>
   <v>       0.00400000 </v>
   <v>       0.00400000 </v>
   <v>       0.00400000 </v>
   <v>       0.00400000 </v>
   <v>       0.00400000 </v>
   <v>       0.00400000 </v>
   <v>       0.00400000 </v>
   <v>       0.00400000 </v>
   <v>       0.00400000 </v>
   <v>       0.00400000 </v>
   <v>       0.00400000 </v>
   <v>       0.00400000 </v>
   <v>       0.00400000 </v>
   <v>       0.00400000 </v>
   <v>       0.00400000 </v>
   <v>       0.00400000 </v>
   <v>       0.00400000 </v>
   <v>       0.00400000 </v>
   <v>       0.00400000 </v>
   <v>       0.00400000 </v>
   <v>       0.00400000 </v>
   <v>       0.00400000 </v>
   <v>       0.00400000 </v>
   <v>       0.00400000 </v>
   <v>       0.00400000 </v>
   <v>       0.00400000 </v>
   <v>       0.00400000 </v>
   <v>       0.00400000 </v>
   <v>       0.00400000 </v>
   <v>       0.00400000 </v>
   <v>       0.00400000 </v>
   <v>       0.00400000 </v>
   <v>       0.00400000 </v>
   <v>       0.00400000 </v>
   <v>       0.00400000 </v>
   <v>       0.00400000 </v>
   <v>       0.00400000 </v>
   <v>       0.00400000 </v>
   <v>       0.00400000 </v>
   <v>       0.00400000 </v>
   <v>       0.00400000 </v>
   <v>       0.00400000 </v>
   <v>       0.00400000 </v>
   <v>       0.00400000 </v>
   <v>       0.00400000 </v>
   <v>       0.00400000 </v>
   <v>       0.00400000 </v>
   <v>       0.00400000 </v>
   <v>       0.00400000 </v>
   <v>       0.00400000 </v>
   <v>       0.00400000 </v>
   <v>       0.00400000 </v>
   <v>       0.00400000 </v>
   <v>       0.00400000 </v>
   <v>       0.00400000 </v>
   <v>       0.00400000 </v>
   <v>       0.00400000 </v>
   <v>       0.00400000 </v>
   <v>       0.00400000 </v>
   <v>       0.00400000 </v>
   <v>       0.00400000 </v>
   <v>       0.00400000 </v>
   <v>       0.00400000 </v>
   <v>       0.00400000 </v>
   <v>       0.00400000 </v>
   <v>       0.00400000 </v>
   <v>       0.00400000 </v>
   <v>       0.00400000 </v>
   <v>       0.00400000 </v>
   <v>       0.00400000 </v>
   <v>       0.00400000 </v>
   <v>       0.00400000 </v>
   <v>       0.00400000 </v>
   <v>       0.00400000 </v>
   <v>       0.00400000 </v>
   <v>       0.00400000 </v>
   <v>       0.00400000 </v>
   <v>       0.00400000 </v>
   <v>       0.00400000 </v>
   <v>       0.00400000 </v>
   <v>       0.00400000 </v>
   <v>       0.00400000 </v>
   <v>       0.00400000 </v>
   <v>       0.00400000 </v>
   <v>       0.00400000 </v>
   <v>       0.00400000 </v>
   <v>       0.00400000 </v>
   <v>       0.00400000 </v>
   <v>       0.00400000 </v>
   <v>       0.00400000 </v>
   <v>       0.00400000 </v>
   <v>       0.00400000 </v>
   <v>       0.00400000 </v>
   <v>       0.00400000 </v>
   <v>       0.00400000 </v>
   <v>       0.00400000 </v>
   <v>       0.00400000 </v>
   <v>       0.00400000 </v>
   <v>       0.00400000 </v>
   <v>       0.00400000 </v>
   <v>       0.00400000 </v>
   <v>       0.00400000 </v>
   <v>       0.00400000 </v>
   <v>       0.00400000 </v>
   <v>       0.00400000 </v>
   <v>       0.00400000 </v>
   <v>       0.00400000 </v>
   <v>       0.00400000 </v>
   <v>       0.00400000 </v>
   <v>       0.00400000 </v>
   <v>       0.00400000 </v>
   <v>       0.00400000 </v>
   <v>       0.00400000 </v>
   <v>       0.00400000 </v>
   <v>       0.00400000 </v>
   <v>       0.00400000 </v>
   <v>       0.00400000 </v>
   <v>       0.00400000 </v>
   <v>       0.00400000 </v>
   <v>       0.00400000 </v>
   <v>       0.00400000 </v>
   <v>       0.00400000 </v>
   <v>       0.00400000 </v>
   <v>       0.00400000 </v>
   <v>       0.00400000 </v>
   <v>       0.00400000 </v>
   <v>       0.00400000 </v>
   <v>       0.00400000 </v>
   <v>       0.00400000 </v>
   <v>       0.00400000 </v>
   <v>       0.00400000 </v>
   <v>       0.00400000 </v>
   <v>       0.00400000 </v>
   <v>       0.00400000 </v>
   <v>       0.00400000 </v>
   <v>       0.00400000 </v>
   <v>       0.00400000 </v>
   <v>       0.00400000 </v>
   <v>       0.00400000 </v>
   <v>       0.00400000 </v>
   <v>       0.00400000 </v>
   <v>       0.00400000 </v>
   <v>       0.00400000 </v>
   <v>       0.00400000 </v>
   <v>       0.00400000 </v>
  </varray>
 </kpoints>
 <parameters>
  <separator name="general" >
   <i type="string" name="SYSTEM">GaAs</i>
   <i type="logical" name="LCOMPAT"> F  </i>
  </separator>
  <separator name="electronic" >
   <i type="string" name="PREC">normal</i>
   <i name="ENMAX">    208.73300000</i>
   <i name="ENAUG">    462.75800000</i>
   <i name="EDIFF">      0.00000100</i>
   <i type="int" name="IALGO">    38</i>
   <i type="int" name="IWAVPR">    10</i>
   <i type="int" name="NBANDS">     8</i>
   <i name="NELECT">      8.00000000</i>
   <i type="int" name="TURBO">     0</i>
   <i type="int" name="IRESTART">     0</i>
   <i type="int" name="NREBOOT">     0</i>
   <i type="int" name="NMIN">     0</i>
   <i name="EREF">      0.00000000</i>
   <separator name="electronic smearing" >
    <i type="int" name="ISMEAR">     1</i>
    <i name="SIGMA">      0.20000000</i>
    <i name="KSPACING">      0.50000000</i>
    <i type="logical" name="KGAMMA"> T  </i>
   </separator>
   <separator name="electronic projectors" >
    <i type="logical" name="LREAL"> F  </i>
    <v name="ROPT">      0.00000000      0.00000000</v>
    <i type="int" name="LMAXPAW">  -100</i>
    <i type="int" name="LMAXMIX">     2</i>
    <i type="logical" name="NLSPLINE"> F  </i>
   </separator>
   <separator name="electronic startup" >
    <i type="int" name="ISTART">     0</i>
    <i type="int" name="ICHARG">    11</i>
    <i type="int" name="INIWAV">     1</i>
   </separator>
   <separator name="electronic spin" >
    <i type="int" name="ISPIN">     1</i>
    <i type="logical" name="LNONCOLLINEAR"> F  </i>
    <v name="MAGMOM">      1.00000000      1.00000000</v>
    <i name="NUPDOWN">     -1.00000000</i>
    <i type="logical" name="LSORBIT"> F  </i>
    <v name="SAXIS">      0.00000000      0.00000000      1.00000000</v>
    <i type="logical" name="LSPIRAL"> F  </i>
    <v name="QSPIRAL">      0.00000000      0.00000000      0.00000000</v>
    <i type="logical" name="LZEROZ"> F  </i>
   </separator>
   <separator name="electronic exchange-correlation" >
    <i type="logical" name="LASPH"> F  </i>
    <i type="logical" name="LMETAGGA"> F  </i>
   </separator>
   <separator name="electronic convergence" >
    <i type="int" name="NELM">    60</i>
    <i type="int" name="NELMDL">     0</i>
    <i type="int" name="NELMIN">     2</i>
    <i name="ENINI">    208.73300000</i>
    <separator name="electronic convergence detail" >
     <i type="logical" name="LDIAG"> T  </i>
     <i type="logical" name="LSUBROT"> F  </i>
     <i name="WEIMIN">      0.00000000</i>
     <i name="EBREAK">      0.00000003</i>
     <i name="DEPER">      0.30000000</i>
     <i type="int" name="NRMM">     4</i>
     <i name="TIME">      0.40000000</i>
    </separator>
   </separator>
   <separator name="electronic mixer" >
    <i name="AMIX">      0.40000000</i>
    <i name="BMIX">      1.00000000</i>
    <i name="AMIN">      0.10000000</i>
    <i name="AMIX_MAG">      1.60000000</i>
    <i name="BMIX_MAG">      1.00000000</i>
    <separator name="electronic mixer details" >
     <i type="int" name="IMIX">     4</i>
     <i type="logical" name="MIXFIRST"> F  </i>
     <i type="int" name="MAXMIX">   -45</i>
     <i name="WC">    100.00000000</i>
     <i type="int" name="INIMIX">     1</i>
     <i type="int" name="MIXPRE">     1</i>
     <i type="int" name="MREMOVE">     5</i>
    </separator>
   </separator>
   <separator name="electronic dipolcorrection" >
    <i type="logical" name="LDIPOL"> F  </i>
    <i type="logical" name="LMONO"> F  </i>
    <i type="int" name="IDIPOL">     0</i>
    <i name="EPSILON">      1.00000000</i>
    <v name="DIPOL">   -100.00000000   -100.00000000   -100.00000000</v>
    <i name="EFIELD">      0.00000000</i>
   </separator>
  </separator>
  <separator name="grids" >
   <i type="int" name="NGX">    14</i>
   <i type="int" name="NGY">    14</i>
   <i type="int" name="NGZ">    14</i>
   <i type="int" name="NGXF">    28</i>
   <i type="int" name="NGYF">    28</i>
   <i type="int" name="NGZF">    28</i>
   <i type="logical" name="ADDGRID"> F  </i>
  </separator>
  <separator name="ionic" >
   <i type="int" name="NSW">     0</i>
   <i type="int" name="IBRION">    -1</i>
   <i type="int" name="MDALGO">     0</i>
   <i type="int" name="ISIF">     2</i>
   <i name="PSTRESS">      0.00000000</i>
   <i name="EDIFFG">      0.00001000</i>
   <i type="int" name="NFREE">     0</i>
   <i name="POTIM">      0.50000000</i>
   <i name="SMASS">     -3.00000000</i>
   <i name="SCALEE">      1.00000000</i>
  </separator>
  <separator name="ionic md" >
   <i name="TEBEG">      0.00010000</i>
   <i name="TEEND">      0.00010000</i>
   <i type="int" name="NBLOCK">     1</i>
   <i type="int" name="KBLOCK">     1</i>
   <i type="int" name="NPACO">   256</i>
   <i name="APACO">     16.00000000</i>
  </separator>
  <separator name="symmetry" >
   <i type="int" name="ISYM">     2</i>
   <i name="SYMPREC">      0.00001000</i>
  </separator>
  <separator name="dos" >
   <i type="int" name="LORBIT">     0</i>
   <v name="RWIGS">     -1.00000000     -1.00000000</v>
   <i type="int" name="NEDOS">   301</i>
   <i name="EMIN">     10.00000000</i>
   <i name="EMAX">    -10.00000000</i>
   <i name="EFERMI">      0.00000000</i>
  </separator>
  <separator name="writing" >
   <i type="int" name="NWRITE">     2</i>
   <i type="logical" name="LWAVE"> F  </i>
   <i type="logical" name="LDOWNSAMPLE"> F  </i>
   <i type="logical" name="LCHARG"> F  </i>
   <i type="logical" name="LPARD"> F  </i>
   <i type="logical" name="LVTOT"> F  </i>
   <i type="logical" name="LVHAR"> F  </i>
   <i type="logical" name="LELF"> F  </i>
   <i type="logical" name="LOPTICS"> F  </i>
   <v name="STM">      0.00000000      0.00000000      0.00000000      0.00000000      0.00000000      0.00000000      0.00000000</v>
  </separator>
  <separator name="performance" >
   <i type="int" name="NPAR">     1</i>
   <i type="int" name="NSIM">     4</i>
   <i type="int" name="NBLK">    -1</i>
   <i type="logical" name="LPLANE"> T  </i>
   <i type="logical" name="LSCALAPACK"> T  </i>
   <i type="logical" name="LSCAAWARE"> F  </i>
   <i type="logical" name="LSCALU"> F  </i>
   <i type="logical" name="LASYNC"> F  </i>
   <i type="logical" name="LORBITALREAL"> F  </i>
  </separator>
  <separator name="miscellaneous" >
   <i type="int" name="IDIOT">     3</i>
   <i type="int" name="ISPECIAL">     0</i>
   <i type="logical" name="LMUSIC"> F  </i>
   <v name="POMASS">     69.72300000     74.92200000</v>
   <v name="DARWINR">      0.00000000      0.00000000</v>
   <v name="DARWINV">      1.00000000      1.00000000</v>
   <i type="logical" name="LCORR"> T  </i>
  </separator>
  <i type="logical" name="GGA_COMPAT"> T  </i>
  <i type="logical" name="LBERRY"> F  </i>
  <i type="int" name="ICORELEVEL">     0</i>
  <i type="logical" name="LDAU"> F  </i>
  <i type="int" name="I_CONSTRAINED_M">     0</i>
  <separator name="electronic exchange-correlation" >
   <i type="string" name="GGA">--</i>
   <i type="int" name="VOSKOWN">     0</i>
   <i type="logical" name="LHFCALC"> F  </i>
   <i type="string" name="PRECFOCK"></i>
   <i type="logical" name="LSYMGRAD"> F  </i>
   <i type="logical" name="LHFONE"> F  </i>
   <i type="logical" name="LRHFCALC"> F  </i>
   <i type="logical" name="LTHOMAS"> F  </i>
   <i type="logical" name="LMODELHF"> F  </i>
   <i name="ENCUT4O">     -1.00000000</i>
   <i type="int" name="EXXOEP">     0</i>
   <i type="int" name="FOURORBIT">     0</i>
   <i name="AEXX">      0.00000000</i>
   <i name="HFALPHA">      0.00000000</i>
   <i name="MCALPHA">      0.00000000</i>
   <i name="ALDAX">      1.00000000</i>
   <i name="AGGAX">      1.00000000</i>
   <i name="ALDAC">      1.00000000</i>
   <i name="AGGAC">      1.00000000</i>
   <i type="int" name="NKREDX">     1</i>
   <i type="int" name="NKREDY">     1</i>
   <i type="int" name="NKREDZ">     1</i>
   <i type="logical" name="SHIFTRED"> F  </i>
   <i type="logical" name="ODDONLY"> F  </i>
   <i type="logical" name="EVENONLY"> F  </i>
   <i type="int" name="LMAXFOCK">     0</i>
   <i type="int" name="NMAXFOCKAE">     0</i>
   <i type="logical" name="LFOCKAEDFT"> F  </i>
   <i name="HFSCREEN">      0.00000000</i>
   <i name="HFSCREENC">      0.00000000</i>
   <i type="int" name="NBANDSGWLOW">     0</i>
  </separator>
  <separator name="vdW DFT" >
   <i type="logical" name="LUSE_VDW"> F  </i>
   <i name="Zab_VDW">     -0.84910000</i>
   <i name="PARAM1">      0.12340000</i>
   <i name="PARAM2">      1.00000000</i>
   <i name="PARAM3">      0.00000000</i>
  </separator>
  <separator name="model GW" >
   <i type="int" name="MODEL_GW">     0</i>
   <i name="MODEL_EPS0">     14.27933185</i>
   <i name="MODEL_ALPHA">      1.00000000</i>
  </separator>
  <separator name="linear response parameters" >
   <i type="logical" name="LEPSILON"> F  </i>
   <i type="logical" name="LRPA"> F  </i>
   <i type="logical" name="LNABLA"> F  </i>
   <i type="logical" name="LVEL"> F  </i>
   <i type="int" name="KINTER">     0</i>
   <i name="CSHIFT">      0.10000000</i>
   <i name="OMEGAMAX">     -1.00000000</i>
   <i name="DEG_THRESHOLD">      0.00200000</i>
   <i name="RTIME">     -0.10000000</i>
   <i name="WPLASMAI">      0.00000000</i>
   <v name="DFIELD">      0.00000000      0.00000000      0.00000000</v>
   <v name="WPLASMA">      0.00000000      0.00000000      0.00000000      0.00000000      0.00000000      0.00000000      0.00000000      0.00000000      0.00000000</v>
  </separator>
  <separator name="orbital magnetization" >
   <i type="logical" name="NUCIND"> F  </i>
   <v name="MAGPOS">      0.00000000      0.00000000      0.00000000</v>
   <i type="logical" name="LNICSALL"> T  </i>
   <i type="logical" name="ORBITALMAG"> F  </i>
   <i type="logical" name="LMAGBLOCH"> F  </i>
   <i type="logical" name="LCHIMAG"> F  </i>
   <i type="logical" name="LGAUGE"> T  </i>
   <i type="int" name="MAGATOM">     0</i>
   <v name="MAGDIPOL">      0.00000000      0.00000000      0.00000000</v>
   <v name="AVECCONST">      0.00000000      0.00000000      0.00000000</v>
  </separator>
  <separator name="response functions" >
   <i type="logical" name="LADDER"> F  </i>
   <i type="logical" name="LRPAFORCE"> F  </i>
   <i type="logical" name="LFXC"> F  </i>
   <i type="logical" name="LHARTREE"> T  </i>
   <i type="int" name="IBSE">     0</i>
   <v type="int" name="KPOINT">    -1     0     0     0</v>
   <i type="logical" name="LTCTE"> F  </i>
   <i type="logical" name="LTETE"> F  </i>
   <i type="logical" name="LTRIPLET"> F  </i>
   <i type="logical" name="LFXCEPS"> F  </i>
   <i type="logical" name="LFXHEG"> F  </i>
   <i type="int" name="NATURALO">     2</i>
   <i type="logical" name="L2ORDER"> F  </i>
   <i type="logical" name="LMP2LT"> F  </i>
   <i type="logical" name="LUSEW"> F  </i>
   <i name="ENCUTGW">     -2.00000000</i>
   <i name="ENCUTGWSOFT">     -2.00000000</i>
   <i name="ENCUTLF">     -1.00000000</i>
   <i type="int" name="LMAXMP2">    -1</i>
   <i name="SCISSOR">      0.00000000</i>
   <i type="int" name="NOMEGA">     0</i>
   <i type="int" name="NOMEGAR">     0</i>
   <i type="int" name="NBANDSGW">    -1</i>
   <i type="int" name="NBANDSO">    -1</i>
   <i type="int" name="NBANDSV">    -1</i>
   <i type="int" name="NELM">     1</i>
   <i type="int" name="NELMHF">     1</i>
   <i type="int" name="DIM">     3</i>
   <i type="int" name="ANTIRES">     0</i>
   <i name="OMEGAMAX">    -30.00000000</i>
   <i name="OMEGAMIN">    -30.00000000</i>
   <i name="OMEGATL">   -200.00000000</i>
   <i type="int" name="OMEGAGRID">   140</i>
   <i name="CSHIFT">     -0.10000000</i>
   <i type="logical" name="SELFENERGY"> F  </i>
   <i type="logical" name="LSPECTRAL"> F  </i>
   <i type="logical" name="LSPECTRALGW"> F  </i>
   <i type="logical" name="LSINGLES"> F  </i>
   <i type="logical" name="LFERMIGW"> F  </i>
   <i type="logical" name="ODDONLYGW"> F  </i>
   <i type="logical" name="EVENONLYGW"> F  </i>
   <i type="int" name="NKREDLFX">     1</i>
   <i type="int" name="NKREDLFY">     1</i>
   <i type="int" name="NKREDLFZ">     1</i>
   <i type="int" name="MAXMEM">  2800</i>
   <i type="int" name="TELESCOPE">     0</i>
   <i type="int" name="TAUPAR">     1</i>
   <i type="int" name="OMEGAPAR">    -1</i>
   <i name="LAMBDA">      1.00000000</i>
  </separator>
  <separator name="External order field" >
   <i name="OFIELD_KAPPA">      0.00000000</i>
   <v name="OFIELD_K">      0.00000000      0.00000000      0.00000000</v>
   <i name="OFIELD_Q6_NEAR">      0.00000000</i>
   <i name="OFIELD_Q6_FAR">      0.00000000</i>
   <i name="OFIELD_A">      0.00000000</i>
  </separator>
 </parameters>
 <atominfo>
  <atoms>       2 </atoms>
  <types>       2 </types>
  <array name="atoms" >
   <dimension dim="1">ion</dimension>
   <field type="string">element</field>
   <field type="int">atomtype</field>
   <set>
    <rc><c>Ga</c><c>   1</c></rc>
    <rc><c>As</c><c>   2</c></rc>
   </set>
  </array>
  <array name="atomtypes" >
   <dimension dim="1">type</dimension>
   <field type="int">atomspertype</field>
   <field type="string">element</field>
   <field>mass</field>
   <field>valence</field>
   <field type="string">pseudopotential</field>
   <set>
    <rc><c>   1</c><c>Ga</c><c>     69.72300000</c><c>      3.00000000</c><c>  PAW Ga                                </c></rc>
    <rc><c>   1</c><c>As</c><c>     74.92200000</c><c>      5.00000000</c><c>  PAW As                                </c></rc>
   </set>
  </array>
 </atominfo>
 <structure name="initialpos" >
  <crystal>
   <varray name="basis" >
    <v>       0.00000000       2.87641942       2.87641942 </v>
    <v>       2.87641942       0.00000000       2.87641942 </v>
    <v>       2.87641942       2.87641942       0.00000000 </v>
   </varray>
   <i name="volume">     47.59777283 </i>
   <varray name="rec_basis" >
    <v>      -0.17382722       0.17382722       0.17382722 </v>
    <v>       0.17382722      -0.17382722       0.17382722 </v>
    <v>       0.17382722       0.17382722      -0.17382722 </v>
   </varray>
  </crystal>
  <varray name="positions" >
   <v>       0.00000000       0.00000000       0.00000000 </v>
   <v>       0.25000000       0.25000000       0.25000000 </v>
  </varray>
 </structure>
 <calculation>
  <scstep>
   <time name="dav">    0.43    1.05</time>
   <time name="total">    0.45    1.10</time>
   <energy>
    <i name="alphaZ">     17.36684317 </i>
    <i name="ewald">   -225.20590383 </i>
    <i name="hartreedc">    -22.14721296 </i>
    <i name="XCdc">    -30.94258512 </i>
    <i name="pawpsdc">    130.52885347 </i>
    <i name="pawaedc">    -85.35596429 </i>
    <i name="eentropy">     -0.00021072 </i>
    <i name="bandstr">     -8.44431630 </i>
    <i name="atom">    229.60505158 </i>
    <i name="e_fr_energy">      5.40455499 </i>
    <i name="e_wo_entrp">      5.40476570 </i>
    <i name="e_0_energy">      5.40462523 </i>
   </energy>
  </scstep>
  <scstep>
   <time name="dav">    0.63    1.51</time>
   <time name="total">    0.64    1.53</time>
   <energy>
    <i name="e_fr_energy">     -7.42721580 </i>
    <i name="e_wo_entrp">     -7.42849991 </i>
    <i name="e_0_energy">     -7.42764384 </i>
   </energy>
  </scstep>
  <scstep>
   <time name="dav">    0.49    1.05</time>
   <time name="total">    0.50    1.07</time>
   <energy>
    <i name="e_fr_energy">     -7.62689753 </i>
    <i name="e_wo_entrp">     -7.62870243 </i>
    <i name="e_0_energy">     -7.62749916 </i>
   </energy>
  </scstep>
  <scstep>
   <time name="dav">    0.62    1.85</time>
   <time name="total">    0.63    1.87</time>
   <energy>
    <i name="e_fr_energy">     -7.62733129 </i>
    <i name="e_wo_entrp">     -7.62913907 </i>
    <i name="e_0_energy">     -7.62793388 </i>
   </energy>
  </scstep>
  <scstep>
   <time name="dav">    0.51    1.52</time>
   <time name="total">    0.52    1.54</time>
   <energy>
    <i name="e_fr_energy">     -7.62733183 </i>
    <i name="e_wo_entrp">     -7.62913962 </i>
    <i name="e_0_energy">     -7.62793443 </i>
   </energy>
  </scstep>
  <scstep>
   <time name="dav">    0.59    1.52</time>
   <time name="total">    0.60    1.55</time>
   <energy>
    <i name="alphaZ">     17.36684317 </i>
    <i name="ewald">   -225.20590383 </i>
    <i name="hartreedc">    -22.14721296 </i>
    <i name="XCdc">    -30.94258512 </i>
    <i name="pawpsdc">    130.52885347 </i>
    <i name="pawaedc">    -85.35596429 </i>
    <i name="eentropy">      0.00180779 </i>
    <i name="bandstr">    -21.47822163 </i>
    <i name="atom">    229.60505158 </i>
    <i name="e_fr_energy">     -7.62733184 </i>
    <i name="e_wo_entrp">     -7.62913962 </i>
    <i name="e_0_energy">     -7.62793443 </i>
   </energy>
  </scstep>
  <structure>
   <crystal>
    <varray name="basis" >
     <v>       0.00000000       2.87641942       2.87641942 </v>
     <v>       2.87641942       0.00000000       2.87641942 </v>
     <v>       2.87641942       2.87641942       0.00000000 </v>
    </varray>
    <i name="volume">     47.59777283 </i>
    <varray name="rec_basis" >
     <v>      -0.17382722       0.17382722       0.17382722 </v>
     <v>       0.17382722      -0.17382722       0.17382722 </v>
     <v>       0.17382722       0.17382722      -0.17382722 </v>
    </varray>
   </crystal>
   <varray name="positions" >
    <v>       0.00000000       0.00000000       0.00000000 </v>
    <v>       0.25000000       0.25000000       0.25000000 </v>
   </varray>
  </structure>
  <varray name="forces" >
   <v>       0.00000000       0.00000000       0.00000000 </v>
   <v>      -0.00000000      -0.00000000      -0.00000000 </v>
  </varray>
  <varray name="stress" >
   <v>      45.04835111      -0.00000000      -0.00000000 </v>
   <v>      -0.00000000      45.04835111      -0.00000000 </v>
   <v>      -0.00000000       0.00000000      45.04835111 </v>
  </varray>
  <energy>
   <i name="e_fr_energy">     -7.62733184 </i>
   <i name="e_wo_entrp">     -7.62793443 </i>
   <i name="e_0_energy">      0.00180779 </i>
  </energy>
  <time name="totalsc">    4.13   10.83</time>
  <eigenvalues>
   <array>
    <dimension dim="1">band</dimension>
    <dimension dim="2">kpoint</dimension>
    <dimension dim="3">spin</dimension>
    <field>eigene</field>
    <field>occ</field>
    <set>
     <set comment="spin 1">
      <set comment="kpoint 1">
       <r>   -7.8004    1.0000 </r>
       <r>   -4.0295    1.0000 </r>
       <r>   -0.9494    1.0000 </r>
       <r>   -0.7396    1.0000 </r>
       <r>    6.7468   -0.0000 </r>
       <r>    7.0451   -0.0000 </r>
       <r>    7.6130   -0.0000 </r>
       <r>    8.3805    0.0000 </r>
      </set>
      <set comment="kpoint 2">
       <r>   -7.8013    1.0000 </r>
       <r>   -4.0287    1.0000 </r>
       <r>   -0.9566    1.0000 </r>
       <r>   -0.7299    1.0000 </r>
       <r>    6.7341   -0.0000 </r>
       <r>    7.0534   -0.0000 </r>
       <r>    7.6114   -0.0000 </r>
       <r>    8.3896    0.0000 </r>
      </set>
      <set comment="kpoint 3">
       <r>   -7.8041    1.0000 </r>
       <r>   -4.0262    1.0000 </r>
       <r>   -0.9747    1.0000 </r>
       <r>   -0.7042    1.0000 </r>
       <r>    6.7004   -0.0000 </r>
       <r>    7.0731   -0.0000 </r>
       <r>    7.6083   -0.0000 </r>
       <r>    8.4160    0.0000 </r>
      </set>
      <set comment="kpoint 4">
       <r>   -7.8087    1.0000 </r>
       <r>   -4.0222    1.0000 </r>
       <r>   -0.9983    1.0000 </r>
       <r>   -0.6679    1.0000 </r>
       <r>    6.6535   -0.0000 </r>
       <r>    7.0940   -0.0000 </r>
       <r>    7.6080   -0.0000 </r>
       <r>    8.4577    0.0000 </r>
      </set>
      <set comment="kpoint 5">
       <r>   -7.8151    1.0000 </r>
       <r>   -4.0166    1.0000 </r>
       <r>   -1.0233    1.0000 </r>
       <r>   -0.6251    1.0000 </r>
       <r>    6.5993   -0.0000 </r>
       <r>    7.1074   -0.0000 </r>
       <r>    7.6160   -0.0000 </r>
       <r>    8.5120    0.0000 </r>
      </set>
      <set comment="kpoint 6">
       <r>   -7.8232    1.0000 </r>
       <r>   -4.0096    1.0000 </r>
       <r>   -1.0475    1.0000 </r>
       <r>   -0.5780    1.0000 </r>
       <r>    6.5410   -0.0000 </r>
       <r>    7.1083   -0.0000 </r>
       <r>    7.6367   -0.0000 </r>
       <r>    8.5766    0.0000 </r>
      </set>
      <set comment="kpoint 7">
       <r>   -7.8330    1.0000 </r>
       <r>   -4.0015    1.0000 </r>
       <r>   -1.0697    1.0000 </r>
       <r>   -0.5277    1.0000 </r>
       <r>    6.4802   -0.0000 </r>
       <r>    7.0952   -0.0000 </r>
       <r>    7.6714   -0.0000 </r>
       <r>    8.6491    0.0000 </r>
      </set>
      <set comment="kpoint 8">
       <r>   -7.8444    1.0000 </r>
       <r>   -3.9923    1.0000 </r>
       <r>   -1.0891    1.0000 </r>
       <r>   -0.4749    1.0000 </r>
       <r>    6.4181   -0.0000 </r>
       <r>    7.0704   -0.0000 </r>
       <r>    7.7185   -0.0000 </r>
       <r>    8.7281    0.0000 </r>
      </set>
      <set comment="kpoint 9">
       <r>   -7.8573    1.0000 </r>
       <r>   -3.9824    1.0000 </r>
       <r>   -1.1053    1.0000 </r>
       <r>   -0.4204    1.0000 </r>
       <r>    6.3549   -0.0000 </r>
       <r>    7.0371   -0.0000 </r>
       <r>    7.7752   -0.0000 </r>
       <r>    8.8123    0.0000 </r>
      </set>
      <set comment="kpoint 10">
       <r>   -7.8716    1.0000 </r>
       <r>   -3.9718    1.0000 </r>
       <r>   -1.1175    1.0000 </r>
       <r>   -0.3642    1.0000 </r>
       <r>    6.2914   -0.0000 </r>
       <r>    6.9984   -0.0000 </r>
       <r>    7.8389   -0.0000 </r>
       <r>    8.9007    0.0000 </r>
      </set>
      <set comment="kpoint 11">
       <r>   -7.8872    1.0000 </r>
       <r>   -3.9608    1.0000 </r>
       <r>   -1.1256    1.0000 </r>
       <r>   -0.3067    1.0000 </r>
       <r>    6.2275   -0.0000 </r>
       <r>    6.9566   -0.0000 </r>
       <r>    7.9075   -0.0000 </r>
       <r>    8.9926    0.0000 </r>
      </set>
      <set comment="kpoint 12">
       <r>   -7.9040    1.0000 </r>
       <r>   -3.9496    1.0000 </r>
       <r>   -1.1293    1.0000 </r>
       <r>   -0.2481    1.0000 </r>
       <r>    6.1633   -0.0000 </r>
       <r>    6.9136   -0.0000 </r>
       <r>    7.9793    0.0000 </r>
       <r>    9.0874    0.0000 </r>
      </set>
      <set comment="kpoint 13">
       <r>   -7.9218    1.0000 </r>
       <r>   -3.9386    1.0000 </r>
       <r>   -1.1284    1.0000 </r>
       <r>   -0.1887    1.0000 </r>
       <r>    6.0989   -0.0000 </r>
       <r>    6.8706   -0.0000 </r>
       <r>    8.0532    0.0000 </r>
       <r>    9.1844    0.0000 </r>
      </set>
      <set comment="kpoint 14">
       <r>   -7.9406    1.0000 </r>
       <r>   -3.9278    1.0000 </r>
       <r>   -1.1225    1.0000 </r>
       <r>   -0.1287    1.0000 </r>
       <r>    6.0341   -0.0000 </r>
       <r>    6.8284   -0.0000 </r>
       <r>    8.1280    0.0000 </r>
       <r>    9.2831    0.0000 </r>
      </set>
      <set comment="kpoint 15">
       <r>   -7.9602    1.0000 </r>
       <r>   -3.9176    1.0000 </r>
       <r>   -1.1117    1.0000 </r>
       <r>   -0.0682    1.0000 </r>
       <r>    5.9689   -0.0000 </r>
       <r>    6.7876   -0.0000 </r>
       <r>    8.2027    0.0000 </r>
       <r>    9.3828    0.0000 </r>
      </set>
      <set comment="kpoint 16">
       <r>   -7.9805    1.0000 </r>
       <r>   -3.9081    1.0000 </r>
       <r>   -1.0956    1.0000 </r>
       <r>   -0.0074    1.0000 </r>
       <r>    5.9033   -0.0000 </r>
       <r>    6.7490   -0.0000 </r>
       <r>    8.2766    0.0000 </r>
       <r>    9.4824    0.0000 </r>
      </set>
      <set comment="kpoint 17">
       <r>   -8.0014    1.0000 </r>
       <r>   -3.8995    1.0000 </r>
       <r>   -1.0742    1.0000 </r>
       <r>    0.0536    1.0000 </r>
       <r>    5.8371   -0.0000 </r>
       <r>    6.7129   -0.0000 </r>
       <r>    8.3481    0.0000 </r>
       <r>    9.5805    0.0000 </r>
      </set>
      <set comment="kpoint 18">
       <r>   -8.0228    1.0000 </r>
       <r>   -3.8919    1.0000 </r>
       <r>   -1.0475    1.0000 </r>
       <r>    0.1146    1.0000 </r>
       <r>    5.7702   -0.0000 </r>
       <r>    6.6795   -0.0000 </r>
       <r>    8.4160    0.0000 </r>
       <r>    9.6745    0.0000 </r>
      </set>
      <set comment="kpoint 19">
       <r>   -8.0445    1.0000 </r>
       <r>   -3.8854    1.0000 </r>
       <r>   -1.0154    1.0000 </r>
       <r>    0.1753    1.0000 </r>
       <r>    5.7025   -0.0000 </r>
       <r>    6.6491   -0.0000 </r>
       <r>    8.4784    0.0000 </r>
       <r>    9.7597    0.0000 </r>
      </set>
      <set comment="kpoint 20">
       <r>   -8.0665    1.0000 </r>
       <r>   -3.8802    1.0000 </r>
       <r>   -0.9778    1.0000 </r>
       <r>    0.2357    1.0000 </r>
       <r>    5.6338   -0.0000 </r>
       <r>    6.6219   -0.0000 </r>
       <r>    8.5328    0.0000 </r>
       <r>    9.8272    0.0000 </r>
      </set>
      <set comment="kpoint 21">
       <r>   -8.0887    1.0000 </r>
       <r>   -3.8762    1.0000 </r>
       <r>   -0.9349    1.0000 </r>
       <r>    0.2957    1.0000 </r>
       <r>    5.5641   -0.0000 </r>
       <r>    6.5982   -0.0000 </r>
       <r>    8.5757    0.0000 </r>
       <r>    9.8643    0.0000 </r>
      </set>
      <set comment="kpoint 22">
       <r>   -8.1109    1.0000 </r>
       <r>   -3.8735    1.0000 </r>
       <r>   -0.8868    1.0000 </r>
       <r>    0.3549    1.0000 </r>
       <r>    5.4931   -0.0000 </r>
       <r>    6.5779   -0.0000 </r>
       <r>    8.6034    0.0000 </r>
       <r>    9.8652    0.0000 </r>
      </set>
      <set comment="kpoint 23">
       <r>   -8.1331    1.0000 </r>
       <r>   -3.8721    1.0000 </r>
       <r>   -0.8336    1.0000 </r>
       <r>    0.4134    1.0000 </r>
       <r>    5.4207   -0.0000 </r>
       <r>    6.5612   -0.0000 </r>
       <r>    8.6116    0.0000 </r>
       <r>    9.8443    0.0000 </r>
      </set>
      <set comment="kpoint 24">
       <r>   -8.1551    1.0000 </r>
       <r>   -3.8719    1.0000 </r>
       <r>   -0.7754    1.0000 </r>
       <r>    0.4709    1.0000 </r>
       <r>    5.3467   -0.0000 </r>
       <r>    6.5482   -0.0000 </r>
       <r>    8.5972    0.0000 </r>
       <r>    9.8230    0.0000 </r>
      </set>
      <set comment="kpoint 25">
       <r>   -8.1770    1.0000 </r>
       <r>   -3.8730    1.0000 </r>
       <r>   -0.7124    1.0000 </r>
       <r>    0.5270    1.0000 </r>
       <r>    5.2711   -0.0000 </r>
       <r>    6.5388   -0.0000 </r>
       <r>    8.5591    0.0000 </r>
       <r>    9.8145    0.0000 </r>
      </set>
      <set comment="kpoint 26">
       <r>   -8.1985    1.0000 </r>
       <r>   -3.8752    1.0000 </r>
       <r>   -0.6446    1.0000 </r>
       <r>    0.5822    1.0000 </r>
       <r>    5.1937   -0.0000 </r>
       <r>    6.5332   -0.0000 </r>
       <r>    8.4996    0.0000 </r>
       <r>    9.8235    0.0000 </r>
      </set>
      <set comment="kpoint 27">
       <r>   -8.2197    1.0000 </r>
       <r>   -3.8782    1.0000 </r>
       <r>   -0.5726    1.0000 </r>
       <r>    0.6360    1.0000 </r>
       <r>    5.1143   -0.0000 </r>
       <r>    6.5314   -0.0000 </r>
       <r>    8.4229    0.0000 </r>
       <r>    9.8483    0.0000 </r>
      </set>
      <set comment="kpoint 28">
       <r>   -8.2404    1.0000 </r>
       <r>   -3.8819    1.0000 </r>
       <r>   -0.4963    1.0000 </r>
       <r>    0.6883    1.0000 </r>
       <r>    5.0329   -0.0000 </r>
       <r>    6.5332   -0.0000 </r>
       <r>    8.3339    0.0000 </r>
       <r>    9.8857    0.0000 </r>
      </set>
      <set comment="kpoint 29">
       <r>   -8.2606    1.0000 </r>
       <r>   -3.8866    1.0000 </r>
       <r>   -0.4162    1.0000 </r>
       <r>    0.7390    1.0000 </r>
       <r>    4.9492   -0.0000 </r>
       <r>    6.5386   -0.0000 </r>
       <r>    8.2373    0.0000 </r>
       <r>    9.9314    0.0000 </r>
      </set>
      <set comment="kpoint 30">
       <r>   -8.2802    1.0000 </r>
       <r>   -3.8919    1.0000 </r>
       <r>   -0.3325    1.0000 </r>
       <r>    0.7879    1.0000 </r>
       <r>    4.8633   -0.0000 </r>
       <r>    6.5475   -0.0000 </r>
       <r>    8.1367    0.0000 </r>
       <r>    9.9819    0.0000 </r>
      </set>
      <set comment="kpoint 31">
       <r>   -8.2992    1.0000 </r>
       <r>   -3.8977    1.0000 </r>
       <r>   -0.2454    1.0000 </r>
       <r>    0.8349    1.0000 </r>
       <r>    4.7751   -0.0000 </r>
       <r>    6.5598   -0.0000 </r>
       <r>    8.0349    0.0000 </r>
       <r>   10.0340    0.0000 </r>
      </set>
      <set comment="kpoint 32">
       <r>   -8.3176    1.0000 </r>
       <r>   -3.9039    1.0000 </r>
       <r>   -0.1554    1.0000 </r>
       <r>    0.8800    1.0000 </r>
       <r>    4.6844   -0.0000 </r>
       <r>    6.5752   -0.0000 </r>
       <r>    7.9338    0.0000 </r>
       <r>   10.0851    0.0000 </r>
      </set>
      <set comment="kpoint 33">
       <r>   -8.3351    1.0000 </r>
       <r>   -3.9104    1.0000 </r>
       <r>   -0.0624    1.0000 </r>
       <r>    0.9230    1.0000 </r>
       <r>    4.5917   -0.0000 </r>
       <r>    6.5938   -0.0000 </r>
       <r>    7.8353   -0.0000 </r>
       <r>   10.1332    0.0000 </r>
      </set>
      <set comment="kpoint 34">
       <r>   -8.3519    1.0000 </r>
       <r>   -3.9171    1.0000 </r>
       <r>    0.0328    1.0000 </r>
       <r>    0.9639    1.0000 </r>
       <r>    4.4968   -0.0000 </r>
       <r>    6.6152   -0.0000 </r>
       <r>    7.7404   -0.0000 </r>
       <r>   10.1756    0.0000 </r>
      </set>
      <set comment="kpoint 35">
       <r>   -8.3679    1.0000 </r>
       <r>   -3.9239    1.0000 </r>
       <r>    0.1300    1.0000 </r>
       <r>    1.0026    1.0000 </r>
       <r>    4.4000   -0.0000 </r>
       <r>    6.6391   -0.0000 </r>
       <r>    7.6499   -0.0000 </r>
       <r>   10.2107    0.0000 </r>
      </set>
      <set comment="kpoint 36">
       <r>   -8.3830    1.0000 </r>
       <r>   -3.9307    1.0000 </r>
       <r>    0.2288    1.0000 </r>
       <r>    1.0390    1.0000 </r>
       <r>    4.3014   -0.0000 </r>
       <r>    6.6652   -0.0000 </r>
       <r>    7.5644   -0.0000 </r>
       <r>   10.2372    0.0000 </r>
      </set>
      <set comment="kpoint 37">
       <r>   -8.3973    1.0000 </r>
       <r>   -3.9375    1.0000 </r>
       <r>    0.3286    1.0000 </r>
       <r>    1.0730    1.0000 </r>
       <r>    4.2015   -0.0000 </r>
       <r>    6.6933   -0.0000 </r>
       <r>    7.4843   -0.0000 </r>
       <r>   10.2538    0.0000 </r>
      </set>
      <set comment="kpoint 38">
       <r>   -8.4106    1.0000 </r>
       <r>   -3.9440    1.0000 </r>
       <r>    0.4291    1.0000 </r>
       <r>    1.1046    1.0000 </r>
       <r>    4.1008   -0.0000 </r>
       <r>    6.7227   -0.0000 </r>
       <r>    7.4100   -0.0000 </r>
       <r>   10.2603    0.0000 </r>
      </set>
      <set comment="kpoint 39">
       <r>   -8.4229    1.0000 </r>
       <r>   -3.9503    1.0000 </r>
       <r>    0.5296    1.0000 </r>
       <r>    1.1338    1.0000 </r>
       <r>    3.9998   -0.0000 </r>
       <r>    6.7532   -0.0000 </r>
       <r>    7.3415   -0.0000 </r>
       <r>   10.2570    0.0000 </r>
      </set>
      <set comment="kpoint 40">
       <r>   -8.4343    1.0000 </r>
       <r>   -3.9562    1.0000 </r>
       <r>    0.6293    1.0000 </r>
       <r>    1.1606    1.0000 </r>
       <r>    3.8992   -0.0000 </r>
       <r>    6.7842   -0.0000 </r>
       <r>    7.2791   -0.0000 </r>
       <r>   10.2447    0.0000 </r>
      </set>
      <set comment="kpoint 41">
       <r>   -8.4446    1.0000 </r>
       <r>   -3.9618    1.0000 </r>
       <r>    0.7273    1.0000 </r>
       <r>    1.1847    1.0000 </r>
       <r>    3.7999   -0.0000 </r>
       <r>    6.8151   -0.0000 </r>
       <r>    7.2228   -0.0000 </r>
       <r>   10.2249    0.0000 </r>
      </set>
      <set comment="kpoint 42">
       <r>   -8.4539    1.0000 </r>
       <r>   -3.9669    1.0000 </r>
       <r>    0.8229    1.0000 </r>
       <r>    1.2064    1.0000 </r>
       <r>    3.7031   -0.0000 </r>
       <r>    6.8453   -0.0000 </r>
       <r>    7.1726   -0.0000 </r>
       <r>   10.1997    0.0000 </r>
      </set>
      <set comment="kpoint 43">
       <r>   -8.4622    1.0000 </r>
       <r>   -3.9715    1.0000 </r>
       <r>    0.9143    1.0000 </r>
       <r>    1.2255    1.0000 </r>
       <r>    3.6098   -0.0000 </r>
       <r>    6.8741   -0.0000 </r>
       <r>    7.1284   -0.0000 </r>
       <r>   10.1710    0.0000 </r>
      </set>
      <set comment="kpoint 44">
       <r>   -8.4694    1.0000 </r>
       <r>   -3.9756    1.0000 </r>
       <r>    1.0006    1.0000 </r>
       <r>    1.2421    1.0000 </r>
       <r>    3.5221   -0.0000 </r>
       <r>    6.9010   -0.0000 </r>
       <r>    7.0903   -0.0000 </r>
       <r>   10.1413    0.0000 </r>
      </set>
      <set comment="kpoint 45">
       <r>   -8.4754    1.0000 </r>
       <r>   -3.9791    1.0000 </r>
       <r>    1.0799    1.0000 </r>
       <r>    1.2563    1.0000 </r>
       <r>    3.4416   -0.0000 </r>
       <r>    6.9253   -0.0000 </r>
       <r>    7.0582   -0.0000 </r>
       <r>   10.1126    0.0000 </r>
      </set>
      <set comment="kpoint 46">
       <r>   -8.4804    1.0000 </r>
       <r>   -3.9820    1.0000 </r>
       <r>    1.1497    1.0000 </r>
       <r>    1.2678    1.0000 </r>
       <r>    3.3705   -0.0000 </r>
       <r>    6.9462   -0.0000 </r>
       <r>    7.0321   -0.0000 </r>
       <r>   10.0864    0.0000 </r>
      </set>
      <set comment="kpoint 47">
       <r>   -8.4843    1.0000 </r>
       <r>   -3.9843    1.0000 </r>
       <r>    1.2077    1.0000 </r>
       <r>    1.2768    1.0000 </r>
       <r>    3.3114   -0.0000 </r>
       <r>    6.9631   -0.0000 </r>
       <r>    7.0118   -0.0000 </r>
       <r>   10.0643    0.0000 </r>
      </set>
      <set comment="kpoint 48">
       <r>   -8.4871    1.0000 </r>
       <r>   -3.9860    1.0000 </r>
       <r>    1.2516    1.0000 </r>
       <r>    1.2832    1.0000 </r>
       <r>    3.2668   -0.0000 </r>
       <r>    6.9756   -0.0000 </r>
       <r>    6.9974   -0.0000 </r>
       <r>   10.0476    0.0000 </r>
      </set>
      <set comment="kpoint 49">
       <r>   -8.4888    1.0000 </r>
       <r>   -3.9870    1.0000 </r>
       <r>    1.2790    1.0000 </r>
       <r>    1.2870    1.0000 </r>
       <r>    3.2389   -0.0000 </r>
       <r>    6.9833   -0.0000 </r>
       <r>    6.9887   -0.0000 </r>
       <r>   10.0373    0.0000 </r>
      </set>
      <set comment="kpoint 50">
       <r>   -8.4894    1.0000 </r>
       <r>   -3.9873    1.0000 </r>
       <r>    1.2883    1.0000 </r>
       <r>    1.2883    1.0000 </r>
       <r>    3.2294   -0.0000 </r>
       <r>    6.9859   -0.0000 </r>
       <r>    6.9859   -0.0000 </r>
       <r>   10.0338    0.0000 </r>
      </set>
      <set comment="kpoint 51">
       <r>   -8.4894    1.0000 </r>
       <r>   -3.9873    1.0000 </r>
       <r>    1.2883    1.0000 </r>
       <r>    1.2883    1.0000 </r>
       <r>    3.2294   -0.0000 </r>
       <r>    6.9859   -0.0000 </r>
       <r>    6.9859   -0.0000 </r>
       <r>   10.0338    0.0000 </r>
      </set>
      <set comment="kpoint 52">
       <r>   -8.4919    1.0000 </r>
       <r>   -3.9824    1.0000 </r>
       <r>    1.2891    1.0000 </r>
       <r>    1.2891    1.0000 </r>
       <r>    3.2302   -0.0000 </r>
       <r>    6.9863   -0.0000 </r>
       <r>    6.9863   -0.0000 </r>
       <r>   10.0337    0.0000 </r>
      </set>
      <set comment="kpoint 53">
       <r>   -8.4995    1.0000 </r>
       <r>   -3.9677    1.0000 </r>
       <r>    1.2914    1.0000 </r>
       <r>    1.2914    1.0000 </r>
       <r>    3.2327   -0.0000 </r>
       <r>    6.9874   -0.0000 </r>
       <r>    6.9874   -0.0000 </r>
       <r>   10.0335    0.0000 </r>
      </set>
      <set comment="kpoint 54">
       <r>   -8.5120    1.0000 </r>
       <r>   -3.9433    1.0000 </r>
       <r>    1.2953    1.0000 </r>
       <r>    1.2953    1.0000 </r>
       <r>    3.2368   -0.0000 </r>
       <r>    6.9892   -0.0000 </r>
       <r>    6.9892   -0.0000 </r>
       <r>   10.0329    0.0000 </r>
      </set>
      <set comment="kpoint 55">
       <r>   -8.5292    1.0000 </r>
       <r>   -3.9097    1.0000 </r>
       <r>    1.3007    1.0000 </r>
       <r>    1.3007    1.0000 </r>
       <r>    3.2425   -0.0000 </r>
       <r>    6.9918   -0.0000 </r>
       <r>    6.9918   -0.0000 </r>
       <r>   10.0313    0.0000 </r>
      </set>
      <set comment="kpoint 56">
       <r>   -8.5510    1.0000 </r>
       <r>   -3.8666    1.0000 </r>
       <r>    1.3076    1.0000 </r>
       <r>    1.3076    1.0000 </r>
       <r>    3.2498   -0.0000 </r>
       <r>    6.9949   -0.0000 </r>
       <r>    6.9949   -0.0000 </r>
       <r>   10.0282    0.0000 </r>
      </set>
      <set comment="kpoint 57">
       <r>   -8.5769    1.0000 </r>
       <r>   -3.8142    1.0000 </r>
       <r>    1.3161    1.0000 </r>
       <r>    1.3161    1.0000 </r>
       <r>    3.2588   -0.0000 </r>
       <r>    6.9985   -0.0000 </r>
       <r>    6.9985   -0.0000 </r>
       <r>   10.0226    0.0000 </r>
      </set>
      <set comment="kpoint 58">
       <r>   -8.6067    1.0000 </r>
       <r>   -3.7536    1.0000 </r>
       <r>    1.3261    1.0000 </r>
       <r>    1.3261    1.0000 </r>
       <r>    3.2694   -0.0000 </r>
       <r>    7.0025   -0.0000 </r>
       <r>    7.0025   -0.0000 </r>
       <r>   10.0128    0.0000 </r>
      </set>
      <set comment="kpoint 59">
       <r>   -8.6400    1.0000 </r>
       <r>   -3.6847    1.0000 </r>
       <r>    1.3376    1.0000 </r>
       <r>    1.3376    1.0000 </r>
       <r>    3.2815   -0.0000 </r>
       <r>    7.0068   -0.0000 </r>
       <r>    7.0068   -0.0000 </r>
       <r>    9.9970    0.0000 </r>
      </set>
      <set comment="kpoint 60">
       <r>   -8.6765    1.0000 </r>
       <r>   -3.6081    1.0000 </r>
       <r>    1.3506    1.0000 </r>
       <r>    1.3506    1.0000 </r>
       <r>    3.2951   -0.0000 </r>
       <r>    7.0111   -0.0000 </r>
       <r>    7.0111   -0.0000 </r>
       <r>    9.9727    0.0000 </r>
      </set>
      <set comment="kpoint 61">
       <r>   -8.7157    1.0000 </r>
       <r>   -3.5241    1.0000 </r>
       <r>    1.3650    1.0000 </r>
       <r>    1.3650    1.0000 </r>
       <r>    3.3103   -0.0000 </r>
       <r>    7.0154   -0.0000 </r>
       <r>    7.0154   -0.0000 </r>
       <r>    9.9372    0.0000 </r>
      </set>
      <set comment="kpoint 62">
       <r>   -8.7574    1.0000 </r>
       <r>   -3.4329    1.0000 </r>
       <r>    1.3813    1.0000 </r>
       <r>    1.3813    1.0000 </r>
       <r>    3.3269   -0.0000 </r>
       <r>    7.0194   -0.0000 </r>
       <r>    7.0194   -0.0000 </r>
       <r>    9.8877    0.0000 </r>
      </set>
      <set comment="kpoint 63">
       <r>   -8.8010    1.0000 </r>
       <r>   -3.3352    1.0000 </r>
       <r>    1.3987    1.0000 </r>
       <r>    1.3987    1.0000 </r>
       <r>    3.3450   -0.0000 </r>
       <r>    7.0228   -0.0000 </r>
       <r>    7.0228   -0.0000 </r>
       <r>    9.8210    0.0000 </r>
      </set>
      <set comment="kpoint 64">
       <r>   -8.8464    1.0000 </r>
       <r>   -3.2313    1.0000 </r>
       <r>    1.4172    1.0000 </r>
       <r>    1.4172    1.0000 </r>
       <r>    3.3644   -0.0000 </r>
       <r>    7.0254   -0.0000 </r>
       <r>    7.0254   -0.0000 </r>
       <r>    9.7361    0.0000 </r>
      </set>
      <set comment="kpoint 65">
       <r>   -8.8930    1.0000 </r>
       <r>   -3.1215    1.0000 </r>
       <r>    1.4373    1.0000 </r>
       <r>    1.4373    1.0000 </r>
       <r>    3.3851   -0.0000 </r>
       <r>    7.0271   -0.0000 </r>
       <r>    7.0271   -0.0000 </r>
       <r>    9.6337    0.0000 </r>
      </set>
      <set comment="kpoint 66">
       <r>   -8.9407    1.0000 </r>
       <r>   -3.0063    1.0000 </r>
       <r>    1.4586    1.0000 </r>
       <r>    1.4586    1.0000 </r>
       <r>    3.4070   -0.0000 </r>
       <r>    7.0273   -0.0000 </r>
       <r>    7.0273   -0.0000 </r>
       <r>    9.5151    0.0000 </r>
      </set>
      <set comment="kpoint 67">
       <r>   -8.9890    1.0000 </r>
       <r>   -2.8857    1.0000 </r>
       <r>    1.4813    1.0000 </r>
       <r>    1.4813    1.0000 </r>
       <r>    3.4302   -0.0000 </r>
       <r>    7.0261   -0.0000 </r>
       <r>    7.0261   -0.0000 </r>
       <r>    9.3841    0.0000 </r>
      </set>
      <set comment="kpoint 68">
       <r>   -9.0378    1.0000 </r>
       <r>   -2.7604    1.0000 </r>
       <r>    1.5053    1.0000 </r>
       <r>    1.5053    1.0000 </r>
       <r>    3.4544   -0.0000 </r>
       <r>    7.0229   -0.0000 </r>
       <r>    7.0229   -0.0000 </r>
       <r>    9.2431    0.0000 </r>
      </set>
      <set comment="kpoint 69">
       <r>   -9.0868    1.0000 </r>
       <r>   -2.6302    1.0000 </r>
       <r>    1.5306    1.0000 </r>
       <r>    1.5306    1.0000 </r>
       <r>    3.4797   -0.0000 </r>
       <r>    7.0176   -0.0000 </r>
       <r>    7.0176   -0.0000 </r>
       <r>    9.0949    0.0000 </r>
      </set>
      <set comment="kpoint 70">
       <r>   -9.1358    1.0000 </r>
       <r>   -2.4960    1.0000 </r>
       <r>    1.5570    1.0000 </r>
       <r>    1.5570    1.0000 </r>
       <r>    3.5057   -0.0000 </r>
       <r>    7.0098   -0.0000 </r>
       <r>    7.0098   -0.0000 </r>
       <r>    8.9413    0.0000 </r>
      </set>
      <set comment="kpoint 71">
       <r>   -9.1845    1.0000 </r>
       <r>   -2.3574    1.0000 </r>
       <r>    1.5848    1.0000 </r>
       <r>    1.5848    1.0000 </r>
       <r>    3.5325   -0.0000 </r>
       <r>    6.9995   -0.0000 </r>
       <r>    6.9995   -0.0000 </r>
       <r>    8.7846    0.0000 </r>
      </set>
      <set comment="kpoint 72">
       <r>   -9.2328    1.0000 </r>
       <r>   -2.2154    1.0000 </r>
       <r>    1.6136    1.0000 </r>
       <r>    1.6136    1.0000 </r>
       <r>    3.5597   -0.0000 </r>
       <r>    6.9861   -0.0000 </r>
       <r>    6.9861   -0.0000 </r>
       <r>    8.6257    0.0000 </r>
      </set>
      <set comment="kpoint 73">
       <r>   -9.2804    1.0000 </r>
       <r>   -2.0698    1.0000 </r>
       <r>    1.6432    1.0000 </r>
       <r>    1.6432    1.0000 </r>
       <r>    3.5872   -0.0000 </r>
       <r>    6.9695   -0.0000 </r>
       <r>    6.9695   -0.0000 </r>
       <r>    8.4657    0.0000 </r>
      </set>
      <set comment="kpoint 74">
       <r>   -9.3274    1.0000 </r>
       <r>   -1.9209    1.0000 </r>
       <r>    1.6733    1.0000 </r>
       <r>    1.6733    1.0000 </r>
       <r>    3.6145   -0.0000 </r>
       <r>    6.9494   -0.0000 </r>
       <r>    6.9494   -0.0000 </r>
       <r>    8.3053    0.0000 </r>
      </set>
      <set comment="kpoint 75">
       <r>   -9.3733    1.0000 </r>
       <r>   -1.7690    1.0000 </r>
       <r>    1.7046    1.0000 </r>
       <r>    1.7046    1.0000 </r>
       <r>    3.6417   -0.0000 </r>
       <r>    6.9262   -0.0000 </r>
       <r>    6.9262   -0.0000 </r>
       <r>    8.1459    0.0000 </r>
      </set>
      <set comment="kpoint 76">
       <r>   -9.4183    1.0000 </r>
       <r>   -1.6141    1.0000 </r>
       <r>    1.7367    1.0000 </r>
       <r>    1.7367    1.0000 </r>
       <r>    3.6683   -0.0000 </r>
       <r>    6.8996   -0.0000 </r>
       <r>    6.8996   -0.0000 </r>
       <r>    7.9879    0.0000 </r>
      </set>
      <set comment="kpoint 77">
       <r>   -9.4620    1.0000 </r>
       <r>   -1.4562    1.0000 </r>
       <r>    1.7695    1.0000 </r>
       <r>    1.7695    1.0000 </r>
       <r>    3.6939   -0.0000 </r>
       <r>    6.8698   -0.0000 </r>
       <r>    6.8698   -0.0000 </r>
       <r>    7.8320   -0.0000 </r>
      </set>
      <set comment="kpoint 78">
       <r>   -9.5045    1.0000 </r>
       <r>   -1.2962    1.0000 </r>
       <r>    1.8028    1.0000 </r>
       <r>    1.8028    1.0000 </r>
       <r>    3.7180   -0.0000 </r>
       <r>    6.8368   -0.0000 </r>
       <r>    6.8368   -0.0000 </r>
       <r>    7.6786   -0.0000 </r>
      </set>
      <set comment="kpoint 79">
       <r>   -9.5456    1.0000 </r>
       <r>   -1.1338    1.0000 </r>
       <r>    1.8366    1.0000 </r>
       <r>    1.8366    1.0000 </r>
       <r>    3.7401   -0.0000 </r>
       <r>    6.8008   -0.0000 </r>
       <r>    6.8008   -0.0000 </r>
       <r>    7.5284   -0.0000 </r>
      </set>
      <set comment="kpoint 80">
       <r>   -9.5853    1.0000 </r>
       <r>   -0.9694    1.0000 </r>
       <r>    1.8707    1.0001 </r>
       <r>    1.8707    1.0001 </r>
       <r>    3.7594   -0.0000 </r>
       <r>    6.7622   -0.0000 </r>
       <r>    6.7622   -0.0000 </r>
       <r>    7.3820   -0.0000 </r>
      </set>
      <set comment="kpoint 81">
       <r>   -9.6234    1.0000 </r>
       <r>   -0.8030    1.0000 </r>
       <r>    1.9050    1.0003 </r>
       <r>    1.9050    1.0003 </r>
       <r>    3.7753   -0.0000 </r>
       <r>    6.7211   -0.0000 </r>
       <r>    6.7211   -0.0000 </r>
       <r>    7.2402   -0.0000 </r>
      </set>
      <set comment="kpoint 82">
       <r>   -9.6600    1.0000 </r>
       <r>   -0.6349    1.0000 </r>
       <r>    1.9393    1.0007 </r>
       <r>    1.9393    1.0007 </r>
       <r>    3.7870   -0.0000 </r>
       <r>    6.6781   -0.0000 </r>
       <r>    6.6781   -0.0000 </r>
       <r>    7.1037   -0.0000 </r>
      </set>
      <set comment="kpoint 83">
       <r>   -9.6948    1.0000 </r>
       <r>   -0.4653    1.0000 </r>
       <r>    1.9735    1.0015 </r>
       <r>    1.9735    1.0015 </r>
       <r>    3.7934   -0.0000 </r>
       <r>    6.6335   -0.0000 </r>
       <r>    6.6335   -0.0000 </r>
       <r>    6.9733   -0.0000 </r>
      </set>
      <set comment="kpoint 84">
       <r>   -9.7280    1.0000 </r>
       <r>   -0.2943    1.0000 </r>
       <r>    2.0075    1.0031 </r>
       <r>    2.0075    1.0031 </r>
       <r>    3.7936   -0.0000 </r>
       <r>    6.5878   -0.0000 </r>
       <r>    6.5878   -0.0000 </r>
       <r>    6.8499   -0.0000 </r>
      </set>
      <set comment="kpoint 85">
       <r>   -9.7594    1.0000 </r>
       <r>   -0.1223    1.0000 </r>
       <r>    2.0407    1.0057 </r>
       <r>    2.0407    1.0057 </r>
       <r>    3.7862   -0.0000 </r>
       <r>    6.5414   -0.0000 </r>
       <r>    6.5414   -0.0000 </r>
       <r>    6.7343   -0.0000 </r>
      </set>
      <set comment="kpoint 86">
       <r>   -9.7889    1.0000 </r>
       <r>    0.0507    1.0000 </r>
       <r>    2.0735    1.0098 </r>
       <r>    2.0735    1.0098 </r>
       <r>    3.7704   -0.0000 </r>
       <r>    6.4949   -0.0000 </r>
       <r>    6.4949   -0.0000 </r>
       <r>    6.6277   -0.0000 </r>
      </set>
      <set comment="kpoint 87">
       <r>   -9.8165    1.0000 </r>
       <r>    0.2244    1.0000 </r>
       <r>    2.1055    1.0153 </r>
       <r>    2.1055    1.0153 </r>
       <r>    3.7450   -0.0000 </r>
       <r>    6.4489   -0.0000 </r>
       <r>    6.4489   -0.0000 </r>
       <r>    6.5308   -0.0000 </r>
      </set>
      <set comment="kpoint 88">
       <r>   -9.8423    1.0000 </r>
       <r>    0.3984    1.0000 </r>
       <r>    2.1364    1.0220 </r>
       <r>    2.1364    1.0220 </r>
       <r>    3.7087   -0.0000 </r>
       <r>    6.4037   -0.0000 </r>
       <r>    6.4037   -0.0000 </r>
       <r>    6.4438   -0.0000 </r>
      </set>
      <set comment="kpoint 89">
       <r>   -9.8661    1.0000 </r>
       <r>    0.5729    1.0000 </r>
       <r>    2.1660    1.0288 </r>
       <r>    2.1660    1.0288 </r>
       <r>    3.6612   -0.0000 </r>
       <r>    6.3599   -0.0000 </r>
       <r>    6.3599   -0.0000 </r>
       <r>    6.3680   -0.0000 </r>
      </set>
      <set comment="kpoint 90">
       <r>   -9.8879    1.0000 </r>
       <r>    0.7473    1.0000 </r>
       <r>    2.1941    1.0339 </r>
       <r>    2.1941    1.0339 </r>
       <r>    3.6017   -0.0000 </r>
       <r>    6.3032   -0.0000 </r>
       <r>    6.3180   -0.0000 </r>
       <r>    6.3180   -0.0000 </r>
      </set>
      <set comment="kpoint 91">
       <r>   -9.9077    1.0000 </r>
       <r>    0.9213    1.0000 </r>
       <r>    2.2204    1.0354 </r>
       <r>    2.2204    1.0354 </r>
       <r>    3.5299   -0.0000 </r>
       <r>    6.2489   -0.0000 </r>
       <r>    6.2784   -0.0000 </r>
       <r>    6.2784   -0.0000 </r>
      </set>
      <set comment="kpoint 92">
       <r>   -9.9255    1.0000 </r>
       <r>    1.0951    1.0000 </r>
       <r>    2.2448    1.0316 </r>
       <r>    2.2448    1.0316 </r>
       <r>    3.4464   -0.0000 </r>
       <r>    6.2050   -0.0000 </r>
       <r>    6.2416   -0.0000 </r>
       <r>    6.2416   -0.0000 </r>
      </set>
      <set comment="kpoint 93">
       <r>   -9.9412    1.0000 </r>
       <r>    1.2678    1.0000 </r>
       <r>    2.2669    1.0216 </r>
       <r>    2.2669    1.0216 </r>
       <r>    3.3513   -0.0000 </r>
       <r>    6.1704   -0.0000 </r>
       <r>    6.2080   -0.0000 </r>
       <r>    6.2080   -0.0000 </r>
      </set>
      <set comment="kpoint 94">
       <r>   -9.9549    1.0000 </r>
       <r>    1.4392    1.0000 </r>
       <r>    2.2867    1.0060 </r>
       <r>    2.2867    1.0060 </r>
       <r>    3.2456   -0.0000 </r>
       <r>    6.1439   -0.0000 </r>
       <r>    6.1781   -0.0000 </r>
       <r>    6.1781   -0.0000 </r>
      </set>
      <set comment="kpoint 95">
       <r>   -9.9665    1.0000 </r>
       <r>    1.6090    1.0000 </r>
       <r>    2.3038    0.9861 </r>
       <r>    2.3038    0.9861 </r>
       <r>    3.1301   -0.0000 </r>
       <r>    6.1243   -0.0000 </r>
       <r>    6.1521   -0.0000 </r>
       <r>    6.1521   -0.0000 </r>
      </set>
      <set comment="kpoint 96">
       <r>   -9.9760    1.0000 </r>
       <r>    1.7764    1.0000 </r>
       <r>    2.3180    0.9646 </r>
       <r>    2.3180    0.9646 </r>
       <r>    3.0061   -0.0004 </r>
       <r>    6.1104   -0.0000 </r>
       <r>    6.1303   -0.0000 </r>
       <r>    6.1303   -0.0000 </r>
      </set>
      <set comment="kpoint 97">
       <r>   -9.9834    1.0000 </r>
       <r>    1.9408    1.0007 </r>
       <r>    2.3293    0.9440 </r>
       <r>    2.3293    0.9440 </r>
       <r>    2.8747   -0.0063 </r>
       <r>    6.1009   -0.0000 </r>
       <r>    6.1132   -0.0000 </r>
       <r>    6.1132   -0.0000 </r>
      </set>
      <set comment="kpoint 98">
       <r>   -9.9887    1.0000 </r>
       <r>    2.1006    1.0144 </r>
       <r>    2.3375    0.9273 </r>
       <r>    2.3375    0.9273 </r>
       <r>    2.7382   -0.0322 </r>
       <r>    6.0950   -0.0000 </r>
       <r>    6.1007   -0.0000 </r>
       <r>    6.1007   -0.0000 </r>
      </set>
      <set comment="kpoint 99">
       <r>   -9.9919    1.0000 </r>
       <r>    2.2504    1.0297 </r>
       <r>    2.3424    0.9163 </r>
       <r>    2.3424    0.9163 </r>
       <r>    2.6022    0.0377 </r>
       <r>    6.0917   -0.0000 </r>
       <r>    6.0932   -0.0000 </r>
       <r>    6.0932   -0.0000 </r>
      </set>
      <set comment="kpoint 100">
       <r>   -9.9930    1.0000 </r>
       <r>    2.3436    0.9135 </r>
       <r>    2.3441    0.9125 </r>
       <r>    2.3441    0.9125 </r>
       <r>    2.5135    0.2851 </r>
       <r>    6.0907   -0.0000 </r>
       <r>    6.0907   -0.0000 </r>
       <r>    6.0907   -0.0000 </r>
      </set>
      <set comment="kpoint 101">
       <r>   -9.9930    1.0000 </r>
       <r>    2.3436    0.9135 </r>
       <r>    2.3441    0.9125 </r>
       <r>    2.3441    0.9125 </r>
       <r>    2.5135    0.2851 </r>
       <r>    6.0907   -0.0000 </r>
       <r>    6.0907   -0.0000 </r>
       <r>    6.0907   -0.0000 </r>
      </set>
      <set comment="kpoint 102">
       <r>   -9.9915    1.0000 </r>
       <r>    2.2328    1.0342 </r>
       <r>    2.3387    0.9247 </r>
       <r>    2.3390    0.9241 </r>
       <r>    2.6245    0.0054 </r>
       <r>    6.0846   -0.0000 </r>
       <r>    6.0978   -0.0000 </r>
       <r>    6.0978   -0.0000 </r>
      </set>
      <set comment="kpoint 103">
       <r>   -9.9873    1.0000 </r>
       <r>    2.0653    1.0086 </r>
       <r>    2.3234    0.9551 </r>
       <r>    2.3237    0.9546 </r>
       <r>    2.7911   -0.0207 </r>
       <r>    6.0666   -0.0000 </r>
       <r>    6.1189   -0.0000 </r>
       <r>    6.1189   -0.0000 </r>
      </set>
      <set comment="kpoint 104">
       <r>   -9.9803    1.0000 </r>
       <r>    1.8920    1.0002 </r>
       <r>    2.2985    0.9929 </r>
       <r>    2.2988    0.9926 </r>
       <r>    2.9630   -0.0011 </r>
       <r>    6.0373   -0.0000 </r>
       <r>    6.1536   -0.0000 </r>
       <r>    6.1536   -0.0000 </r>
      </set>
      <set comment="kpoint 105">
       <r>   -9.9704    1.0000 </r>
       <r>    1.7173    1.0000 </r>
       <r>    2.2644    1.0232 </r>
       <r>    2.2647    1.0230 </r>
       <r>    3.1355   -0.0000 </r>
       <r>    5.9977   -0.0000 </r>
       <r>    6.2014   -0.0000 </r>
       <r>    6.2014   -0.0000 </r>
      </set>
      <set comment="kpoint 106">
       <r>   -9.9577    1.0000 </r>
       <r>    1.5423    1.0000 </r>
       <r>    2.2219    1.0353 </r>
       <r>    2.2221    1.0353 </r>
       <r>    3.3071   -0.0000 </r>
       <r>    5.9490   -0.0000 </r>
       <r>    6.2615   -0.0000 </r>
       <r>    6.2615   -0.0000 </r>
      </set>
      <set comment="kpoint 107">
       <r>   -9.9422    1.0000 </r>
       <r>    1.3675    1.0000 </r>
       <r>    2.1718    1.0300 </r>
       <r>    2.1721    1.0301 </r>
       <r>    3.4772   -0.0000 </r>
       <r>    5.8926   -0.0000 </r>
       <r>    6.3330   -0.0000 </r>
       <r>    6.3330   -0.0000 </r>
      </set>
      <set comment="kpoint 108">
       <r>   -9.9239    1.0000 </r>
       <r>    1.1930    1.0000 </r>
       <r>    2.1151    1.0173 </r>
       <r>    2.1153    1.0174 </r>
       <r>    3.6449   -0.0000 </r>
       <r>    5.8300   -0.0000 </r>
       <r>    6.4150   -0.0000 </r>
       <r>    6.4150   -0.0000 </r>
      </set>
      <set comment="kpoint 109">
       <r>   -9.9029    1.0000 </r>
       <r>    1.0192    1.0000 </r>
       <r>    2.0527    1.0070 </r>
       <r>    2.0529    1.0070 </r>
       <r>    3.8099   -0.0000 </r>
       <r>    5.7627   -0.0000 </r>
       <r>    6.5067   -0.0000 </r>
       <r>    6.5067   -0.0000 </r>
      </set>
      <set comment="kpoint 110">
       <r>   -9.8791    1.0000 </r>
       <r>    0.8459    1.0000 </r>
       <r>    1.9854    1.0020 </r>
       <r>    1.9856    1.0020 </r>
       <r>    3.9704   -0.0000 </r>
[...]
       <r>   -4.1868    1.0000 </r>
       <r>   -0.2514    1.0000 </r>
       <r>   -0.2248    1.0000 </r>
       <r>    4.1395   -0.0000 </r>
       <r>    4.2742   -0.0000 </r>
       <r>   11.6441    0.0000 </r>
       <r>   11.6851    0.0000 </r>
      </set>
      <set comment="kpoint 240">
       <r>   -7.8326    1.0000 </r>
       <r>   -4.1900    1.0000 </r>
       <r>   -0.2328    1.0000 </r>
       <r>   -0.2105    1.0000 </r>
       <r>    4.1005   -0.0000 </r>
       <r>    4.2346   -0.0000 </r>
       <r>   11.7209    0.0000 </r>
       <r>   11.7546    0.0000 </r>
      </set>
      <set comment="kpoint 241">
       <r>   -7.8332    1.0000 </r>
       <r>   -4.1929    1.0000 </r>
       <r>   -0.2155    1.0000 </r>
       <r>   -0.1972    1.0000 </r>
       <r>    4.0649   -0.0000 </r>
       <r>    4.1984   -0.0000 </r>
       <r>   11.7926    0.0000 </r>
       <r>   11.8181    0.0000 </r>
      </set>
      <set comment="kpoint 242">
       <r>   -7.8338    1.0000 </r>
       <r>   -4.1956    1.0000 </r>
       <r>   -0.1997    1.0000 </r>
       <r>   -0.1851    1.0000 </r>
       <r>    4.0327   -0.0000 </r>
       <r>    4.1657   -0.0000 </r>
       <r>   11.8581    0.0000 </r>
       <r>   11.8774    0.0000 </r>
      </set>
      <set comment="kpoint 243">
       <r>   -7.8343    1.0000 </r>
       <r>   -4.1979    1.0000 </r>
       <r>   -0.1855    1.0000 </r>
       <r>   -0.1743    1.0000 </r>
       <r>    4.0041   -0.0000 </r>
       <r>    4.1365   -0.0000 </r>
       <r>   11.9177    0.0000 </r>
       <r>   11.9333    0.0000 </r>
      </set>
      <set comment="kpoint 244">
       <r>   -7.8348    1.0000 </r>
       <r>   -4.2000    1.0000 </r>
       <r>   -0.1730    1.0000 </r>
       <r>   -0.1647    1.0000 </r>
       <r>    3.9792   -0.0000 </r>
       <r>    4.1110   -0.0000 </r>
       <r>   11.9696    0.0000 </r>
       <r>   11.9787    0.0000 </r>
      </set>
      <set comment="kpoint 245">
       <r>   -7.8352    1.0000 </r>
       <r>   -4.2017    1.0000 </r>
       <r>   -0.1622    1.0000 </r>
       <r>   -0.1564    1.0000 </r>
       <r>    3.9579   -0.0000 </r>
       <r>    4.0893   -0.0000 </r>
       <r>   12.0139    0.0000 </r>
       <r>   12.0205    0.0000 </r>
      </set>
      <set comment="kpoint 246">
       <r>   -7.8355    1.0000 </r>
       <r>   -4.2032    1.0000 </r>
       <r>   -0.1533    1.0000 </r>
       <r>   -0.1496    1.0000 </r>
       <r>    3.9405   -0.0000 </r>
       <r>    4.0714   -0.0000 </r>
       <r>   12.0502    0.0000 </r>
       <r>   12.0544    0.0000 </r>
      </set>
      <set comment="kpoint 247">
       <r>   -7.8357    1.0000 </r>
       <r>   -4.2041    1.0000 </r>
       <r>   -0.1462    1.0000 </r>
       <r>   -0.1442    1.0000 </r>
       <r>    3.9268   -0.0000 </r>
       <r>    4.0575   -0.0000 </r>
       <r>   12.0786    0.0000 </r>
       <r>   12.0810    0.0000 </r>
      </set>
      <set comment="kpoint 248">
       <r>   -7.8359    1.0000 </r>
       <r>   -4.2049    1.0000 </r>
       <r>   -0.1412    1.0000 </r>
       <r>   -0.1403    1.0000 </r>
       <r>    3.9171   -0.0000 </r>
       <r>    4.0475   -0.0000 </r>
       <r>   12.0993    0.0000 </r>
       <r>   12.1006    0.0000 </r>
      </set>
      <set comment="kpoint 249">
       <r>   -7.8360    1.0000 </r>
       <r>   -4.2052    1.0000 </r>
       <r>   -0.1382    1.0000 </r>
       <r>   -0.1379    1.0000 </r>
       <r>    3.9112   -0.0000 </r>
       <r>    4.0416   -0.0000 </r>
       <r>   12.1122    0.0000 </r>
       <r>   12.1167    0.0000 </r>
      </set>
      <set comment="kpoint 250">
       <r>   -7.8360    1.0000 </r>
       <r>   -4.2053    1.0000 </r>
       <r>   -0.1372    1.0000 </r>
       <r>   -0.1370    1.0000 </r>
       <r>    3.9092   -0.0000 </r>
       <r>    4.0396   -0.0000 </r>
       <r>   12.1163    0.0000 </r>
       <r>   12.1168    0.0000 </r>
      </set>
     </set>
    </set>
   </array>
  </eigenvalues>
  <separator name="orbital magnetization" >
   <v name="MAGDIPOLOUT">      0.00000000      0.00000000      0.00000000</v>
  </separator>
  <dos>
   <i name="efermi">      2.46078135 </i>
   <total>
    <array>
     <dimension dim="1">gridpoints</dimension>
     <dimension dim="2">spin</dimension>
     <field>energy</field>
     <field>total</field>
     <field>integrated</field>
     <set>
      <set comment="spin 1">
       <r>   -11.9930     0.0000     0.0000 </r>
       <r>   -11.9059     0.0000     0.0000 </r>
       <r>   -11.8189     0.0000     0.0000 </r>
       <r>   -11.7319     0.0000     0.0000 </r>
       <r>   -11.6448    -0.0000    -0.0000 </r>
       <r>   -11.5578    -0.0000    -0.0000 </r>
       <r>   -11.4708    -0.0000    -0.0000 </r>
       <r>   -11.3837    -0.0000    -0.0000 </r>
       <r>   -11.2967    -0.0000    -0.0000 </r>
       <r>   -11.2097    -0.0000    -0.0000 </r>
       <r>   -11.1226    -0.0000    -0.0000 </r>
       <r>   -11.0356    -0.0000    -0.0000 </r>
       <r>   -10.9486    -0.0000    -0.0000 </r>
       <r>   -10.8615    -0.0000    -0.0000 </r>
       <r>   -10.7745    -0.0000    -0.0000 </r>
       <r>   -10.6874    -0.0000    -0.0000 </r>
       <r>   -10.6004    -0.0001    -0.0000 </r>
       <r>   -10.5134    -0.0007    -0.0001 </r>
       <r>   -10.4263    -0.0043    -0.0004 </r>
       <r>   -10.3393    -0.0171    -0.0019 </r>
       <r>   -10.2523    -0.0350    -0.0050 </r>
       <r>   -10.1652     0.0002    -0.0050 </r>
       <r>   -10.0782     0.1948     0.0120 </r>
       <r>    -9.9912     0.5341     0.0585 </r>
       <r>    -9.9041     0.7835     0.1267 </r>
       <r>    -9.8171     0.7665     0.1934 </r>
       <r>    -9.7301     0.5932     0.2450 </r>
       <r>    -9.6430     0.4487     0.2841 </r>
       <r>    -9.5560     0.3793     0.3171 </r>
       <r>    -9.4690     0.3479     0.3474 </r>
       <r>    -9.3819     0.3279     0.3759 </r>
       <r>    -9.2949     0.3123     0.4031 </r>
       <r>    -9.2079     0.3004     0.4292 </r>
       <r>    -9.1208     0.2917     0.4546 </r>
       <r>    -9.0338     0.2857     0.4795 </r>
       <r>    -8.9468     0.2810     0.5039 </r>
       <r>    -8.8597     0.2748     0.5278 </r>
       <r>    -8.7727     0.2726     0.5516 </r>
       <r>    -8.6857     0.3157     0.5790 </r>
       <r>    -8.5986     0.4743     0.6203 </r>
       <r>    -8.5116     0.7251     0.6834 </r>
       <r>    -8.4246     0.8803     0.7600 </r>
       <r>    -8.3375     0.8065     0.8302 </r>
       <r>    -8.2505     0.5972     0.8822 </r>
       <r>    -8.1635     0.3954     0.9166 </r>
       <r>    -8.0764     0.3502     0.9471 </r>
       <r>    -7.9894     0.8965     1.0252 </r>
       <r>    -7.9024     2.3606     1.2306 </r>
       <r>    -7.8153     3.7645     1.5582 </r>
       <r>    -7.7283     3.4752     1.8607 </r>
       <r>    -7.6413     1.7147     2.0099 </r>
       <r>    -7.5542     0.2474     2.0315 </r>
       <r>    -7.4672    -0.1915     2.0148 </r>
       <r>    -7.3802    -0.1266     2.0038 </r>
       <r>    -7.2931    -0.0365     2.0006 </r>
       <r>    -7.2061    -0.0062     2.0001 </r>
       <r>    -7.1191    -0.0007     2.0000 </r>
       <r>    -7.0320    -0.0000     2.0000 </r>
       <r>    -6.9450    -0.0000     2.0000 </r>
       <r>    -6.8580    -0.0000     2.0000 </r>
       <r>    -6.7709    -0.0000     2.0000 </r>
       <r>    -6.6839    -0.0000     2.0000 </r>
       <r>    -6.5969    -0.0000     2.0000 </r>
       <r>    -6.5098    -0.0000     2.0000 </r>
       <r>    -6.4228     0.0000     2.0000 </r>
       <r>    -6.3358     0.0000     2.0000 </r>
       <r>    -6.2487     0.0000     2.0000 </r>
       <r>    -6.1617     0.0000     2.0000 </r>
       <r>    -6.0747     0.0000     2.0000 </r>
       <r>    -5.9876     0.0000     2.0000 </r>
       <r>    -5.9006     0.0000     2.0000 </r>
       <r>    -5.8136    -0.0000     2.0000 </r>
       <r>    -5.7265    -0.0000     2.0000 </r>
       <r>    -5.6395    -0.0000     2.0000 </r>
       <r>    -5.5525    -0.0000     2.0000 </r>
       <r>    -5.4654    -0.0000     2.0000 </r>
       <r>    -5.3784    -0.0000     2.0000 </r>
       <r>    -5.2914    -0.0000     2.0000 </r>
       <r>    -5.2043    -0.0000     2.0000 </r>
       <r>    -5.1173    -0.0000     2.0000 </r>
       <r>    -5.0303    -0.0000     2.0000 </r>
       <r>    -4.9432    -0.0000     2.0000 </r>
       <r>    -4.8562    -0.0001     2.0000 </r>
       <r>    -4.7692    -0.0007     1.9999 </r>
       <r>    -4.6821    -0.0055     1.9995 </r>
       <r>    -4.5951    -0.0289     1.9969 </r>
       <r>    -4.5081    -0.0906     1.9891 </r>
       <r>    -4.4210    -0.1275     1.9780 </r>
       <r>    -4.3340     0.1505     1.9911 </r>
       <r>    -4.2470     1.0859     2.0856 </r>
       <r>    -4.1599     2.4808     2.3015 </r>
       <r>    -4.0729     3.5312     2.6088 </r>
       <r>    -3.9859     3.6158     2.9235 </r>
       <r>    -3.8988     2.7891     3.1663 </r>
       <r>    -3.8118     1.5826     3.3040 </r>
       <r>    -3.7248     0.6091     3.3570 </r>
       <r>    -3.6377     0.1577     3.3707 </r>
       <r>    -3.5507     0.0829     3.3780 </r>
       <r>    -3.4637     0.1191     3.3883 </r>
       <r>    -3.3766     0.1423     3.4007 </r>
       <r>    -3.2896     0.1449     3.4133 </r>
       <r>    -3.2026     0.1409     3.4256 </r>
       <r>    -3.1155     0.1363     3.4375 </r>
       <r>    -3.0285     0.1322     3.4490 </r>
       <r>    -2.9415     0.1287     3.4602 </r>
       <r>    -2.8544     0.1255     3.4711 </r>
       <r>    -2.7674     0.1227     3.4818 </r>
       <r>    -2.6804     0.1202     3.4922 </r>
       <r>    -2.5933     0.1180     3.5025 </r>
       <r>    -2.5063     0.1160     3.5126 </r>
       <r>    -2.4193     0.1142     3.5225 </r>
       <r>    -2.3322     0.1126     3.5323 </r>
       <r>    -2.2452     0.1111     3.5420 </r>
       <r>    -2.1582     0.1097     3.5516 </r>
       <r>    -2.0711     0.1084     3.5610 </r>
       <r>    -1.9841     0.1072     3.5703 </r>
       <r>    -1.8971     0.1061     3.5796 </r>
       <r>    -1.8100     0.1051     3.5887 </r>
       <r>    -1.7230     0.1041     3.5978 </r>
       <r>    -1.6360     0.1027     3.6067 </r>
       <r>    -1.5489     0.0986     3.6153 </r>
       <r>    -1.4619     0.0867     3.6228 </r>
       <r>    -1.3748     0.0688     3.6288 </r>
       <r>    -1.2878     0.0841     3.6362 </r>
       <r>    -1.2008     0.2149     3.6549 </r>
       <r>    -1.1137     0.5107     3.6993 </r>
       <r>    -1.0267     0.9179     3.7792 </r>
       <r>    -0.9397     1.3213     3.8942 </r>
       <r>    -0.8526     1.6735     4.0398 </r>
       <r>    -0.7656     2.0342     4.2169 </r>
       <r>    -0.6786     2.3292     4.4196 </r>
       <r>    -0.5915     2.3304     4.6224 </r>
       <r>    -0.5045     2.0684     4.8024 </r>
       <r>    -0.4175     1.8615     4.9645 </r>
       <r>    -0.3304     1.9691     5.1358 </r>
       <r>    -0.2434     2.3870     5.3436 </r>
       <r>    -0.1564     2.7051     5.5790 </r>
       <r>    -0.0693     2.4045     5.7883 </r>
       <r>     0.0177     1.5947     5.9271 </r>
       <r>     0.1047     0.9042     6.0058 </r>
       <r>     0.1918     0.6274     6.0604 </r>
       <r>     0.2788     0.5893     6.1117 </r>
       <r>     0.3658     0.5932     6.1633 </r>
       <r>     0.4529     0.5868     6.2144 </r>
       <r>     0.5399     0.5761     6.2645 </r>
       <r>     0.6269     0.5679     6.3139 </r>
       <r>     0.7140     0.5638     6.3630 </r>
       <r>     0.8010     0.5628     6.4120 </r>
       <r>     0.8880     0.5610     6.4608 </r>
       <r>     0.9751     0.5596     6.5095 </r>
       <r>     1.0621     0.6061     6.5623 </r>
       <r>     1.1491     0.8196     6.6336 </r>
       <r>     1.2362     1.2355     6.7411 </r>
       <r>     1.3232     1.5920     6.8797 </r>
       <r>     1.4102     1.5699     7.0163 </r>
       <r>     1.4973     1.2487     7.1250 </r>
       <r>     1.5843     0.9537     7.2080 </r>
       <r>     1.6713     0.8195     7.2793 </r>
       <r>     1.7584     0.7809     7.3473 </r>
       <r>     1.8454     0.7694     7.4142 </r>
       <r>     1.9324     0.7676     7.4811 </r>
       <r>     2.0195     0.7896     7.5498 </r>
       <r>     2.1065     0.8838     7.6267 </r>
       <r>     2.1935     1.0886     7.7214 </r>
       <r>     2.2806     1.2766     7.8325 </r>
       <r>     2.3676     1.1674     7.9342 </r>
       <r>     2.4546     0.7244     7.9972 </r>
       <r>     2.5417     0.2856     8.0221 </r>
       <r>     2.6287     0.0946     8.0303 </r>
       <r>     2.7157     0.0749     8.0368 </r>
       <r>     2.8028     0.0878     8.0445 </r>
       <r>     2.8898     0.0861     8.0519 </r>
       <r>     2.9768     0.0769     8.0586 </r>
       <r>     3.0639     0.1153     8.0687 </r>
       <r>     3.1509     0.2871     8.0937 </r>
       <r>     3.2379     0.5670     8.1430 </r>
       <r>     3.3250     0.7604     8.2092 </r>
       <r>     3.4120     0.7418     8.2738 </r>
       <r>     3.4990     0.6154     8.3273 </r>
       <r>     3.5861     0.5409     8.3744 </r>
       <r>     3.6731     0.5948     8.4262 </r>
       <r>     3.7601     0.8047     8.4962 </r>
       <r>     3.8472     1.1424     8.5956 </r>
       <r>     3.9342     1.4926     8.7255 </r>
       <r>     4.0212     1.7173     8.8750 </r>
       <r>     4.1083     1.7319     9.0257 </r>
       <r>     4.1953     1.5453     9.1602 </r>
       <r>     4.2823     1.2848     9.2720 </r>
       <r>     4.3694     1.0892     9.3668 </r>
       <r>     4.4564     0.9897     9.4530 </r>
       <r>     4.5434     0.9516     9.5358 </r>
       <r>     4.6305     0.9445     9.6180 </r>
       <r>     4.7175     0.9300     9.6989 </r>
       <r>     4.8045     0.8617     9.7739 </r>
       <r>     4.8916     0.7472     9.8390 </r>
       <r>     4.9786     0.6488     9.8954 </r>
       <r>     5.0656     0.6021     9.9478 </r>
       <r>     5.1527     0.6044    10.0005 </r>
       <r>     5.2397     0.6710    10.0589 </r>
       <r>     5.3267     0.8120    10.1295 </r>
       <r>     5.4138     0.9550    10.2126 </r>
       <r>     5.5008     0.9787    10.2978 </r>
       <r>     5.5878     0.8535    10.3721 </r>
       <r>     5.6749     0.6821    10.4315 </r>
       <r>     5.7619     0.5671    10.4808 </r>
       <r>     5.8489     0.5408    10.5279 </r>
       <r>     5.9360     0.6811    10.5872 </r>
       <r>     6.0230     1.0963    10.6826 </r>
       <r>     6.1100     1.6193    10.8235 </r>
       <r>     6.1971     1.8272    10.9825 </r>
       <r>     6.2841     1.6110    11.1228 </r>
       <r>     6.3711     1.3346    11.2389 </r>
       <r>     6.4582     1.3377    11.3553 </r>
       <r>     6.5452     1.6009    11.4947 </r>
       <r>     6.6322     1.8441    11.6552 </r>
       <r>     6.7193     1.8586    11.8169 </r>
       <r>     6.8063     1.8217    11.9755 </r>
       <r>     6.8933     2.1629    12.1637 </r>
       <r>     6.9804     2.7861    12.4062 </r>
       <r>     7.0674     2.8261    12.6522 </r>
       <r>     7.1544     1.9044    12.8179 </r>
       <r>     7.2415     0.7979    12.8874 </r>
       <r>     7.3285     0.2407    12.9083 </r>
       <r>     7.4155     0.1783    12.9238 </r>
       <r>     7.5026     0.3323    12.9527 </r>
       <r>     7.5896     0.5651    13.0019 </r>
       <r>     7.6766     0.7317    13.0656 </r>
       <r>     7.7637     0.7220    13.1284 </r>
       <r>     7.8507     0.6088    13.1814 </r>
       <r>     7.9378     0.5203    13.2267 </r>
       <r>     8.0248     0.4815    13.2686 </r>
       <r>     8.1118     0.4625    13.3089 </r>
       <r>     8.1989     0.4771    13.3504 </r>
       <r>     8.2859     0.5939    13.4021 </r>
       <r>     8.3729     0.8258    13.4740 </r>
       <r>     8.4600     1.0382    13.5643 </r>
       <r>     8.5470     1.0778    13.6581 </r>
       <r>     8.6340     0.9428    13.7402 </r>
       <r>     8.7211     0.7488    13.8053 </r>
       <r>     8.8081     0.6063    13.8581 </r>
       <r>     8.8951     0.5470    13.9057 </r>
       <r>     8.9822     0.5358    13.9523 </r>
       <r>     9.0692     0.5350    13.9989 </r>
       <r>     9.1562     0.5325    14.0452 </r>
       <r>     9.2433     0.5293    14.0913 </r>
       <r>     9.3303     0.5264    14.1371 </r>
       <r>     9.4173     0.5229    14.1826 </r>
       <r>     9.5044     0.5170    14.2276 </r>
       <r>     9.5914     0.5175    14.2727 </r>
       <r>     9.6784     0.5594    14.3214 </r>
       <r>     9.7655     0.6801    14.3805 </r>
       <r>     9.8525     0.8630    14.4557 </r>
       <r>     9.9395     1.0499    14.5470 </r>
       <r>    10.0266     1.1804    14.6498 </r>
       <r>    10.1136     1.1835    14.7528 </r>
       <r>    10.2006     1.0378    14.8431 </r>
       <r>    10.2877     0.8053    14.9132 </r>
       <r>    10.3747     0.5734    14.9631 </r>
       <r>    10.4617     0.4213    14.9998 </r>
       <r>    10.5488     0.3722    15.0322 </r>
       <r>    10.6358     0.3791    15.0652 </r>
       <r>    10.7228     0.3934    15.0994 </r>
       <r>    10.8099     0.4020    15.1344 </r>
       <r>    10.8969     0.4078    15.1699 </r>
       <r>    10.9839     0.4138    15.2059 </r>
       <r>    11.0710     0.4205    15.2425 </r>
       <r>    11.1580     0.4285    15.2798 </r>
       <r>    11.2450     0.4385    15.3179 </r>
       <r>    11.3321     0.4511    15.3572 </r>
       <r>    11.4191     0.4663    15.3978 </r>
       <r>    11.5061     0.4840    15.4399 </r>
       <r>    11.5932     0.5048    15.4838 </r>
       <r>    11.6802     0.5306    15.5300 </r>
       <r>    11.7672     0.5706    15.5797 </r>
       <r>    11.8543     0.6637    15.6375 </r>
       <r>    11.9413     0.8681    15.7130 </r>
       <r>    12.0283     1.1238    15.8108 </r>
       <r>    12.1154     1.1590    15.9117 </r>
       <r>    12.2024     0.7997    15.9813 </r>
       <r>    12.2894     0.2972    16.0072 </r>
       <r>    12.3765     0.0034    16.0075 </r>
       <r>    12.4635    -0.0520    16.0029 </r>
       <r>    12.5505    -0.0259    16.0007 </r>
       <r>    12.6376    -0.0066    16.0001 </r>
       <r>    12.7246    -0.0010    16.0000 </r>
       <r>    12.8116    -0.0001    16.0000 </r>
       <r>    12.8987    -0.0000    16.0000 </r>
       <r>    12.9857    -0.0000    16.0000 </r>
       <r>    13.0727    -0.0000    16.0000 </r>
       <r>    13.1598    -0.0000    16.0000 </r>
       <r>    13.2468    -0.0000    16.0000 </r>
       <r>    13.3338    -0.0000    16.0000 </r>
       <r>    13.4209    -0.0000    16.0000 </r>
       <r>    13.5079     0.0000    16.0000 </r>
       <r>    13.5949     0.0000    16.0000 </r>
       <r>    13.6820     0.0000    16.0000 </r>
       <r>    13.7690     0.0000    16.0000 </r>
       <r>    13.8560     0.0000    16.0000 </r>
       <r>    13.9431     0.0000    16.0000 </r>
       <r>    14.0301     0.0000    16.0000 </r>
       <r>    14.1171     0.0000    16.0000 </r>
      </set>
     </set>
    </array>
   </total>
  </dos>
 </calculation>
 <structure name="finalpos" >
  <crystal>
   <varray name="basis" >
    <v>       0.00000000       2.87641942       2.87641942 </v>
    <v>       2.87641942       0.00000000       2.87641942 </v>
    <v>       2.87641942       2.87641942       0.00000000 </v>
   </varray>
   <i name="volume">     47.59777283 </i>
   <varray name="rec_basis" >
    <v>      -0.17382722       0.17382722       0.17382722 </v>
    <v>       0.17382722      -0.17382722       0.17382722 </v>
    <v>       0.17382722       0.17382722      -0.17382722 </v>
   </varray>
  </crystal>
  <varray name="positions" >
   <v>       0.00000000       0.00000000       0.00000000 </v>
   <v>       0.25000000       0.25000000       0.25000000 </v>
  </varray>
 </structure>
</modeling>
