 running on    1 total cores
 distrk:  each k-point on    1 cores,    1 groups
 distr:  one band on    1 cores,    1 groups
 using from now: INCAR     
 vasp.5.4.4.18Apr17-6-g9f103f2a35 (build May 20 2018 16:52:39) complex          
  
 POSCAR found type information on POSCAR  Ga As
 POSCAR found :  2 types and       2 ions
 scaLAPACK will be used
 LDA part: xc-table for Ceperly-Alder, standard interpolation
 WARNING: stress and forces are not correct
 POSCAR, INCAR and KPOINTS ok, starting setup
 FFT: planning ...
 WAVECAR not read
 reading imaginary part of occupancies ...
 charge-density read from file: GaAs                                    
 WARNING: random wavefunctions but no delay for mixing, default for NELMDL
 entering main loop
       N       E                     dE             d eps       ncg     rms          rms(c)
DAV:   1     0.573585018333E+01    0.57359E+01   -0.21093E+03  4088   0.409E+02
DAV:   2    -0.746652205196E+01   -0.13202E+02   -0.12390E+02  6064   0.642E+01
DAV:   3    -0.768477872417E+01   -0.21826E+00   -0.21796E+00  4944   0.103E+01
DAV:   4    -0.768519040354E+01   -0.41168E-03   -0.41168E-03  5848   0.471E-01
DAV:   5    -0.768519088216E+01   -0.47863E-06   -0.47859E-06  4896   0.108E-02
DAV:   6    -0.768519088426E+01   -0.20984E-08   -0.22132E-08  5656   0.555E-04
   1 F= -.76851909E+01 E0= -.76858997E+01  d E =0.212631E-02
