GaAs                                    
           1
     0.000000    2.876419    2.876419
     2.876419    0.000000    2.876419
     2.876419    2.876419    0.000000
   Ga   As
   1   1
Direct configuration=     1
   0.00000000  0.00000000  0.00000000
   0.25000000  0.25000000  0.25000000
