unknown system                          
   2.76000000000000     
     1.000000    0.000000    0.000000
     0.000000    1.000000    0.000000
     0.000000    0.000000   10.000000
   W 
     5
Direct
  0.000000  0.000000  0.951379
  0.500000  0.500000  0.025457
  0.000000  0.000000  0.100000
  0.500000  0.500000  0.174543
  0.000000  0.000000  0.248621
 
   24   24  240
 0.59412695729E+02 0.59605201956E+02 0.60139917628E+02 0.60914908775E+02 0.61826010961E+02
 0.62808011235E+02 0.63832599947E+02 0.64875360583E+02 0.65886543045E+02 0.66789089470E+02
 0.67499614986E+02 0.67951693102E+02 0.68106461382E+02 0.67951693102E+02 0.67499614986E+02
 0.66789089470E+02 0.65886543045E+02 0.64875360583E+02 0.63832599947E+02 0.62808011235E+02
 0.61826010961E+02 0.60914908775E+02 0.60139917628E+02 0.59605201956E+02 0.59605201956E+02
 0.59786014187E+02 0.60289909059E+02 0.61026182654E+02 0.61905148745E+02 0.62875363903E+02
 0.63918604043E+02 0.65014670581E+02 0.66110174578E+02 0.67115249780E+02 0.67925626359E+02
 0.68450797819E+02 0.68632430321E+02 0.68450797819E+02 0.67925626359E+02 0.67115249780E+02
 0.66110174578E+02 0.65014670581E+02 0.63918604043E+02 0.62875363903E+02 0.61905148745E+02
 0.61026182654E+02 0.60289909059E+02 0.59786014187E+02 0.60139917628E+02 0.60289909059E+02
 0.60714288454E+02 0.61356008238E+02 0.62167524826E+02 0.63135609982E+02 0.64268010670E+02
 0.65553140275E+02 0.66924208905E+02 0.68252425054E+02 0.69371831567E+02 0.70121168774E+02
 0.70384876292E+02 0.70121168774E+02 0.69371831567E+02 0.68252425054E+02 0.66924208905E+02
 0.65553140275E+02 0.64268010670E+02 0.63135609982E+02 0.62167524826E+02 0.61356008238E+02
 0.60714288454E+02 0.60289909059E+02 0.60914908775E+02 0.61026182654E+02 0.61356008238E+02
 0.61902420130E+02 0.62683766559E+02 0.63741390848E+02 0.65113561900E+02 0.66790337595E+02
 0.68674353883E+02 0.70570841868E+02 0.72216540228E+02 0.73341047635E+02 0.73741071070E+02
 0.73341047635E+02 0.72216540228E+02 0.70570841868E+02 0.68674353883E+02 0.66790337595E+02
 0.65113561900E+02 0.63741390848E+02 0.62683766559E+02 0.61902420130E+02 0.61356008238E+02
 0.61026182654E+02 0.61826010961E+02 0.61905148745E+02 0.62167524826E+02 0.62683766559E+02
 0.63554690977E+02 0.64880726436E+02 0.66718448940E+02 0.69034633638E+02 0.71672775325E+02
 0.74347718610E+02 0.76681432090E+02 0.78285340026E+02 0.78859529485E+02 0.78285340026E+02
 0.76681432090E+02 0.74347718610E+02 0.71672775325E+02 0.69034633638E+02 0.66718448940E+02
 0.64880726436E+02 0.63554690977E+02 0.62683766559E+02 0.62167524826E+02 0.61905148745E+02
 0.62808011235E+02 0.62875363903E+02 0.63135609982E+02 0.63741390848E+02 0.64880726436E+02
 0.66700550486E+02 0.69239864993E+02 0.72392545024E+02 0.75904610075E+02 0.79454232930E+02
 0.82627057715E+02 0.84869435006E+02 0.85684168751E+02 0.84869435006E+02 0.82627057715E+02
 0.79454232930E+02 0.75904610075E+02 0.72392545024E+02 0.69239864993E+02 0.66700550486E+02
 0.64880726436E+02 0.63741390848E+02 0.63135609982E+02 0.62875363903E+02 0.63832599947E+02
 0.63918604043E+02 0.64268010670E+02 0.65113561900E+02 0.66718448940E+02 0.69239864993E+02
 0.72632694256E+02 0.76661107889E+02 0.81126002860E+02 0.85714796122E+02 0.89850815972E+02
 0.92785819641E+02 0.93854161881E+02 0.92785819641E+02 0.89850815972E+02 0.85714796122E+02
 0.81126002860E+02 0.76661107889E+02 0.72632694256E+02 0.69239864993E+02 0.66718448940E+02
 0.65113561900E+02 0.64268010670E+02 0.63918604043E+02 0.64875360583E+02 0.65014670581E+02
 0.65553140275E+02 0.66790337595E+02 0.69034633638E+02 0.72392545024E+02 0.76661107889E+02
 0.81641550011E+02 0.87082111574E+02 0.92504017064E+02 0.97250187185E+02 0.10055232239E+03
 0.10174311715E+03 0.10055232239E+03 0.97250187185E+02 0.92504017064E+02 0.87082111574E+02
 0.81641550011E+02 0.76661107889E+02 0.72392545024E+02 0.69034633638E+02 0.66790337595E+02
 0.65553140275E+02 0.65014670581E+02 0.65886543045E+02 0.66110174578E+02 0.66924208905E+02
 0.68674353883E+02 0.71672775325E+02 0.75904610075E+02 0.81126002860E+02 0.87082111574E+02
 0.93188181366E+02 0.98801250102E+02 0.10336364871E+03 0.10637747030E+03 0.10743711548E+03
 0.10637747030E+03 0.10336364871E+03 0.98801250102E+02 0.93188181366E+02 0.87082111574E+02
 0.81126002860E+02 0.75904610075E+02 0.71672775325E+02 0.68674353883E+02 0.66924208905E+02
 0.66110174578E+02 0.66789089470E+02 0.67115249780E+02 0.68252425054E+02 0.70570841868E+02
 0.74347718610E+02 0.79454232930E+02 0.85714796122E+02 0.92504017064E+02 0.98801250102E+02
 0.10383685783E+03 0.10734563841E+03 0.10938184335E+03 0.11004812794E+03 0.10938184335E+03
 0.10734563841E+03 0.10383685783E+03 0.98801250102E+02 0.92504017064E+02 0.85714796122E+02
 0.79454232930E+02 0.74347718610E+02 0.70570841868E+02 0.68252425054E+02 0.67115249780E+02
 0.67499614986E+02 0.67925626359E+02 0.69371831567E+02 0.72216540228E+02 0.76681432090E+02
 0.82627057715E+02 0.89850815972E+02 0.97250187185E+02 0.10336364871E+03 0.10734563841E+03
 0.10932470431E+03 0.11002982196E+03 0.11017205189E+03 0.11002982196E+03 0.10932470431E+03
 0.10734563841E+03 0.10336364871E+03 0.97250187185E+02 0.89850815972E+02 0.82627057715E+02
 0.76681432090E+02 0.72216540228E+02 0.69371831567E+02 0.67925626359E+02 0.67951693102E+02
 0.68450797819E+02 0.70121168774E+02 0.73341047635E+02 0.78285340026E+02 0.84869435006E+02
 0.92785819641E+02 0.10055232239E+03 0.10637747030E+03 0.10938184335E+03 0.11002982196E+03
 0.10960215053E+03 0.10930200783E+03 0.10960215053E+03 0.11002982196E+03 0.10938184335E+03
 0.10637747030E+03 0.10055232239E+03 0.92785819641E+02 0.84869435006E+02 0.78285340026E+02
 0.73341047635E+02 0.70121168774E+02 0.68450797819E+02 0.68106461382E+02 0.68632430321E+02
 0.70384876292E+02 0.73741071070E+02 0.78859529485E+02 0.85684168751E+02 0.93854161881E+02
 0.10174311715E+03 0.10743711548E+03 0.11004812794E+03 0.11017205189E+03 0.10930200783E+03
 0.10882964081E+03 0.10930200783E+03 0.11017205189E+03 0.11004812794E+03 0.10743711548E+03
 0.10174311715E+03 0.93854161881E+02 0.85684168751E+02 0.78859529485E+02 0.73741071070E+02
 0.70384876292E+02 0.68632430321E+02 0.67951693102E+02 0.68450797819E+02 0.70121168774E+02
 0.73341047635E+02 0.78285340026E+02 0.84869435006E+02 0.92785819641E+02 0.10055232239E+03
 0.10637747030E+03 0.10938184335E+03 0.11002982196E+03 0.10960215053E+03 0.10930200783E+03
 0.10960215053E+03 0.11002982196E+03 0.10938184335E+03 0.10637747030E+03 0.10055232239E+03
 0.92785819641E+02 0.84869435006E+02 0.78285340026E+02 0.73341047635E+02 0.70121168774E+02
 0.68450797819E+02 0.67499614986E+02 0.67925626359E+02 0.69371831567E+02 0.72216540228E+02
 0.76681432090E+02 0.82627057715E+02 0.89850815972E+02 0.97250187185E+02 0.10336364871E+03
 0.10734563841E+03 0.10932470431E+03 0.11002982196E+03 0.11017205189E+03 0.11002982196E+03
 0.10932470431E+03 0.10734563841E+03 0.10336364871E+03 0.97250187185E+02 0.89850815972E+02
 0.82627057715E+02 0.76681432090E+02 0.72216540228E+02 0.69371831567E+02 0.67925626359E+02
 0.66789089470E+02 0.67115249780E+02 0.68252425054E+02 0.70570841868E+02 0.74347718610E+02
 0.79454232930E+02 0.85714796122E+02 0.92504017064E+02 0.98801250102E+02 0.10383685783E+03
 0.10734563841E+03 0.10938184335E+03 0.11004812794E+03 0.10938184335E+03 0.10734563841E+03
 0.10383685783E+03 0.98801250102E+02 0.92504017064E+02 0.85714796122E+02 0.79454232930E+02
 0.74347718610E+02 0.70570841868E+02 0.68252425054E+02 0.67115249780E+02 0.65886543045E+02
 0.66110174578E+02 0.66924208905E+02 0.68674353883E+02 0.71672775325E+02 0.75904610075E+02
 0.81126002860E+02 0.87082111574E+02 0.93188181366E+02 0.98801250102E+02 0.10336364871E+03
 0.10637747030E+03 0.10743711548E+03 0.10637747030E+03 0.10336364871E+03 0.98801250102E+02
 0.93188181366E+02 0.87082111574E+02 0.81126002860E+02 0.75904610075E+02 0.71672775325E+02
 0.68674353883E+02 0.66924208905E+02 0.66110174578E+02 0.64875360583E+02 0.65014670581E+02
 0.65553140275E+02 0.66790337595E+02 0.69034633638E+02 0.72392545024E+02 0.76661107889E+02
 0.81641550011E+02 0.87082111574E+02 0.92504017064E+02 0.97250187185E+02 0.10055232239E+03
 0.10174311715E+03 0.10055232239E+03 0.97250187185E+02 0.92504017064E+02 0.87082111574E+02
 0.81641550011E+02 0.76661107889E+02 0.72392545024E+02 0.69034633638E+02 0.66790337595E+02
 0.65553140275E+02 0.65014670581E+02 0.63832599947E+02 0.63918604043E+02 0.64268010670E+02
 0.65113561900E+02 0.66718448940E+02 0.69239864993E+02 0.72632694256E+02 0.76661107889E+02
 0.81126002860E+02 0.85714796122E+02 0.89850815972E+02 0.92785819641E+02 0.93854161881E+02
 0.92785819641E+02 0.89850815972E+02 0.85714796122E+02 0.81126002860E+02 0.76661107889E+02
 0.72632694256E+02 0.69239864993E+02 0.66718448940E+02 0.65113561900E+02 0.64268010670E+02
 0.63918604043E+02 0.62808011235E+02 0.62875363903E+02 0.63135609982E+02 0.63741390848E+02
 0.64880726436E+02 0.66700550486E+02 0.69239864993E+02 0.72392545024E+02 0.75904610075E+02
 0.79454232930E+02 0.82627057715E+02 0.84869435006E+02 0.85684168751E+02 0.84869435006E+02
 0.82627057715E+02 0.79454232930E+02 0.75904610075E+02 0.72392545024E+02 0.69239864993E+02
 0.66700550486E+02 0.64880726436E+02 0.63741390848E+02 0.63135609982E+02 0.62875363903E+02
 0.61826010961E+02 0.61905148745E+02 0.62167524826E+02 0.62683766559E+02 0.63554690977E+02
 0.64880726436E+02 0.66718448940E+02 0.69034633638E+02 0.71672775325E+02 0.74347718610E+02
 0.76681432090E+02 0.78285340026E+02 0.78859529485E+02 0.78285340026E+02 0.76681432090E+02
 0.74347718610E+02 0.71672775325E+02 0.69034633638E+02 0.66718448940E+02 0.64880726436E+02
 0.63554690977E+02 0.62683766559E+02 0.62167524826E+02 0.61905148745E+02 0.60914908775E+02
 0.61026182654E+02 0.61356008238E+02 0.61902420130E+02 0.62683766559E+02 0.63741390848E+02
 0.65113561900E+02 0.66790337595E+02 0.68674353883E+02 0.70570841868E+02 0.72216540228E+02
 0.73341047635E+02 0.73741071070E+02 0.73341047635E+02 0.72216540228E+02 0.70570841868E+02
 0.68674353883E+02 0.66790337595E+02 0.65113561900E+02 0.63741390848E+02 0.62683766559E+02
 0.61902420130E+02 0.61356008238E+02 0.61026182654E+02 0.60139917628E+02 0.60289909059E+02
 0.60714288454E+02 0.61356008238E+02 0.62167524826E+02 0.63135609982E+02 0.64268010670E+02
 0.65553140275E+02 0.66924208905E+02 0.68252425054E+02 0.69371831567E+02 0.70121168774E+02
 0.70384876292E+02 0.70121168774E+02 0.69371831567E+02 0.68252425054E+02 0.66924208905E+02
 0.65553140275E+02 0.64268010670E+02 0.63135609982E+02 0.62167524826E+02 0.61356008238E+02
 0.60714288454E+02 0.60289909059E+02 0.59605201956E+02 0.59786014187E+02 0.60289909059E+02
 0.61026182654E+02 0.61905148745E+02 0.62875363903E+02 0.63918604043E+02 0.65014670581E+02
 0.66110174578E+02 0.67115249780E+02 0.67925626359E+02 0.68450797819E+02 0.68632430321E+02
 0.68450797819E+02 0.67925626359E+02 0.67115249780E+02 0.66110174578E+02 0.65014670581E+02
 0.63918604043E+02 0.62875363903E+02 0.61905148745E+02 0.61026182654E+02 0.60289909059E+02
 0.59786014187E+02 0.54147287414E+02 0.54422666060E+02 0.55204570833E+02 0.56384855142E+02
 0.57845560457E+02 0.59500855920E+02 0.61297953618E+02 0.63182748609E+02 0.65061869988E+02
 0.66791020778E+02 0.68196672828E+02 0.69116248049E+02 0.69436246254E+02 0.69116248049E+02
 0.68196672828E+02 0.66791020778E+02 0.65061869988E+02 0.63182748609E+02 0.61297953618E+02
 0.59500855920E+02 0.57845560457E+02 0.56384855142E+02 0.55204570833E+02 0.54422666060E+02
 0.54422666060E+02 0.54681816043E+02 0.55421405743E+02 0.56550057887E+02 0.57971317512E+02
 0.59619528296E+02 0.61456328549E+02 0.63433333318E+02 0.65451441484E+02 0.67346880690E+02
 0.68913790098E+02 0.69951432545E+02 0.70314864728E+02 0.69951432545E+02 0.68913790098E+02
 0.67346880690E+02 0.65451441484E+02 0.63433333318E+02 0.61456328549E+02 0.59619528296E+02
 0.57971317512E+02 0.56550057887E+02 0.55421405743E+02 0.54681816043E+02 0.55204570833E+02
 0.55421405743E+02 0.56052626973E+02 0.57055298229E+02 0.58393856348E+02 0.60057947439E+02
 0.62046788957E+02 0.64324713237E+02 0.66773675409E+02 0.69172751940E+02 0.71222506173E+02
 0.72611727619E+02 0.73104209856E+02 0.72611727619E+02 0.71222506173E+02 0.69172751940E+02
 0.66773675409E+02 0.64324713237E+02 0.62046788957E+02 0.60057947439E+02 0.58393856348E+02
 0.57055298229E+02 0.56052626973E+02 0.55421405743E+02 0.56384855142E+02 0.56550057887E+02
 0.57055298229E+02 0.57931998855E+02 0.59234873944E+02 0.61029815684E+02 0.63360236096E+02
 0.66195705637E+02 0.69379303027E+02 0.72600022665E+02 0.75418707608E+02 0.77360883138E+02
 0.78055274781E+02 0.77360883138E+02 0.75418707608E+02 0.72600022665E+02 0.69379303027E+02
 0.66195705637E+02 0.63360236096E+02 0.61029815684E+02 0.59234873944E+02 0.57931998855E+02
 0.57055298229E+02 0.56550057887E+02 0.57845560457E+02 0.57971317512E+02 0.58393856348E+02
 0.59234873944E+02 0.60653194410E+02 0.62789878533E+02 0.65711025608E+02 0.69356839993E+02
 0.73499287843E+02 0.77736648753E+02 0.81543090010E+02 0.84243726280E+02 0.85227036867E+02
 0.84243726280E+02 0.81543090010E+02 0.77736648753E+02 0.73499287843E+02 0.69356839993E+02
 0.65711025608E+02 0.62789878533E+02 0.60653194410E+02 0.59234873944E+02 0.58393856348E+02
 0.57971317512E+02 0.59500855920E+02 0.59619528296E+02 0.60057947439E+02 0.61029815684E+02
 0.62789878533E+02 0.65521021571E+02 0.69248145410E+02 0.73816573495E+02 0.79043265388E+02
 0.84601157163E+02 0.89769699035E+02 0.93521655651E+02 0.94903338627E+02 0.93521655651E+02
 0.89769699035E+02 0.84601157163E+02 0.79043265388E+02 0.73816573495E+02 0.69248145410E+02
 0.65521021571E+02 0.62789878533E+02 0.61029815684E+02 0.60057947439E+02 0.59619528296E+02
 0.61297953618E+02 0.61456328549E+02 0.62046788957E+02 0.63360236096E+02 0.65711025608E+02
 0.69248145410E+02 0.73859951392E+02 0.79467565268E+02 0.85953525917E+02 0.92875301848E+02
 0.99335016590E+02 0.10404301704E+03 0.10578132801E+03 0.10404301704E+03 0.99335016590E+02
 0.92875301848E+02 0.85953525917E+02 0.79467565268E+02 0.73859951392E+02 0.69248145410E+02
 0.65711025608E+02 0.63360236096E+02 0.62046788957E+02 0.61456328549E+02 0.63182748609E+02
 0.63433333318E+02 0.64324713237E+02 0.66195705637E+02 0.69356839993E+02 0.73816573495E+02
 0.79467565268E+02 0.86202418034E+02 0.93659184060E+02 0.10129416533E+03 0.10823539305E+03
 0.11323475301E+03 0.11507374880E+03 0.11323475301E+03 0.10823539305E+03 0.10129416533E+03
 0.93659184060E+02 0.86202418034E+02 0.79467565268E+02 0.73816573495E+02 0.69356839993E+02
 0.66195705637E+02 0.64324713237E+02 0.63433333318E+02 0.65061869988E+02 0.65451441484E+02
 0.66773675409E+02 0.69379303027E+02 0.73499287843E+02 0.79043265388E+02 0.85953525917E+02
 0.93659184060E+02 0.10139380893E+03 0.10857750561E+03 0.11467422259E+03 0.11891565612E+03
 0.12045701216E+03 0.11891565612E+03 0.11467422259E+03 0.10857750561E+03 0.10139380893E+03
 0.93659184060E+02 0.85953525917E+02 0.79043265388E+02 0.73499287843E+02 0.69379303027E+02
 0.66773675409E+02 0.65451441484E+02 0.66791020778E+02 0.67346880690E+02 0.69172751940E+02
 0.72600022665E+02 0.77736648753E+02 0.84601157163E+02 0.92875301848E+02 0.10129416533E+03
 0.10857750561E+03 0.11419048563E+03 0.11821521892E+03 0.12074470638E+03 0.12162892978E+03
 0.12074470638E+03 0.11821521892E+03 0.11419048563E+03 0.10857750561E+03 0.10129416533E+03
 0.92875301848E+02 0.84601157163E+02 0.77736648753E+02 0.72600022665E+02 0.69172751940E+02
 0.67346880690E+02 0.68196672828E+02 0.68913790098E+02 0.71222506173E+02 0.75418707608E+02
 0.81543090010E+02 0.89769699035E+02 0.99335016590E+02 0.10823539305E+03 0.11467422259E+03
 0.11821521892E+03 0.11966411345E+03 0.12010539882E+03 0.12019284521E+03 0.12010539882E+03
 0.11966411345E+03 0.11821521892E+03 0.11467422259E+03 0.10823539305E+03 0.99335016590E+02
 0.89769699035E+02 0.81543090010E+02 0.75418707608E+02 0.71222506173E+02 0.68913790098E+02
 0.69116248049E+02 0.69951432545E+02 0.72611727619E+02 0.77360883138E+02 0.84243726280E+02
 0.93521655651E+02 0.10404301704E+03 0.11323475301E+03 0.11891565612E+03 0.12074470638E+03
 0.12010539882E+03 0.11886534056E+03 0.11831275584E+03 0.11886534056E+03 0.12010539882E+03
 0.12074470638E+03 0.11891565612E+03 0.11323475301E+03 0.10404301704E+03 0.93521655651E+02
 0.84243726280E+02 0.77360883138E+02 0.72611727619E+02 0.69951432545E+02 0.69436246254E+02
 0.70314864728E+02 0.73104209856E+02 0.78055274781E+02 0.85227036867E+02 0.94903338627E+02
 0.10578132801E+03 0.11507374880E+03 0.12045701216E+03 0.12162892978E+03 0.12019284521E+03
 0.11831275584E+03 0.11751674168E+03 0.11831275584E+03 0.12019284521E+03 0.12162892978E+03
 0.12045701216E+03 0.11507374880E+03 0.10578132801E+03 0.94903338627E+02 0.85227036867E+02
 0.78055274781E+02 0.73104209856E+02 0.70314864728E+02 0.69116248049E+02 0.69951432545E+02
 0.72611727619E+02 0.77360883138E+02 0.84243726280E+02 0.93521655651E+02 0.10404301704E+03
 0.11323475301E+03 0.11891565612E+03 0.12074470638E+03 0.12010539882E+03 0.11886534056E+03
 0.11831275584E+03 0.11886534056E+03 0.12010539882E+03 0.12074470638E+03 0.11891565612E+03
 0.11323475301E+03 0.10404301704E+03 0.93521655651E+02 0.84243726280E+02 0.77360883138E+02
 0.72611727619E+02 0.69951432545E+02 0.68196672828E+02 0.68913790098E+02 0.71222506173E+02
 0.75418707608E+02 0.81543090010E+02 0.89769699035E+02 0.99335016590E+02 0.10823539305E+03
 0.11467422259E+03 0.11821521892E+03 0.11966411345E+03 0.12010539882E+03 0.12019284521E+03
 0.12010539882E+03 0.11966411345E+03 0.11821521892E+03 0.11467422259E+03 0.10823539305E+03
 0.99335016590E+02 0.89769699035E+02 0.81543090010E+02 0.75418707608E+02 0.71222506173E+02
 0.68913790098E+02 0.66791020778E+02 0.67346880690E+02 0.69172751940E+02 0.72600022665E+02
 0.77736648753E+02 0.84601157163E+02 0.92875301848E+02 0.10129416533E+03 0.10857750561E+03
 0.11419048563E+03 0.11821521892E+03 0.12074470638E+03 0.12162892978E+03 0.12074470638E+03
 0.11821521892E+03 0.11419048563E+03 0.10857750561E+03 0.10129416533E+03 0.92875301848E+02
 0.84601157163E+02 0.77736648753E+02 0.72600022665E+02 0.69172751940E+02 0.67346880690E+02
 0.65061869988E+02 0.65451441484E+02 0.66773675409E+02 0.69379303027E+02 0.73499287843E+02
 0.79043265388E+02 0.85953525917E+02 0.93659184060E+02 0.10139380893E+03 0.10857750561E+03
 0.11467422259E+03 0.11891565612E+03 0.12045701216E+03 0.11891565612E+03 0.11467422259E+03
 0.10857750561E+03 0.10139380893E+03 0.93659184060E+02 0.85953525917E+02 0.79043265388E+02
 0.73499287843E+02 0.69379303027E+02 0.66773675409E+02 0.65451441484E+02 0.63182748609E+02
 0.63433333318E+02 0.64324713237E+02 0.66195705637E+02 0.69356839993E+02 0.73816573495E+02
 0.79467565268E+02 0.86202418034E+02 0.93659184060E+02 0.10129416533E+03 0.10823539305E+03
 0.11323475301E+03 0.11507374880E+03 0.11323475301E+03 0.10823539305E+03 0.10129416533E+03
 0.93659184060E+02 0.86202418034E+02 0.79467565268E+02 0.73816573495E+02 0.69356839993E+02
 0.66195705637E+02 0.64324713237E+02 0.63433333318E+02 0.61297953618E+02 0.61456328549E+02
 0.62046788957E+02 0.63360236096E+02 0.65711025608E+02 0.69248145410E+02 0.73859951392E+02
 0.79467565268E+02 0.85953525917E+02 0.92875301848E+02 0.99335016590E+02 0.10404301704E+03
 0.10578132801E+03 0.10404301704E+03 0.99335016590E+02 0.92875301848E+02 0.85953525917E+02
 0.79467565268E+02 0.73859951392E+02 0.69248145410E+02 0.65711025608E+02 0.63360236096E+02
 0.62046788957E+02 0.61456328549E+02 0.59500855920E+02 0.59619528296E+02 0.60057947439E+02
 0.61029815684E+02 0.62789878533E+02 0.65521021571E+02 0.69248145410E+02 0.73816573495E+02
 0.79043265388E+02 0.84601157163E+02 0.89769699035E+02 0.93521655651E+02 0.94903338627E+02
 0.93521655651E+02 0.89769699035E+02 0.84601157163E+02 0.79043265388E+02 0.73816573495E+02
 0.69248145410E+02 0.65521021571E+02 0.62789878533E+02 0.61029815684E+02 0.60057947439E+02
 0.59619528296E+02 0.57845560457E+02 0.57971317512E+02 0.58393856348E+02 0.59234873944E+02
 0.60653194410E+02 0.62789878533E+02 0.65711025608E+02 0.69356839993E+02 0.73499287843E+02
 0.77736648753E+02 0.81543090010E+02 0.84243726280E+02 0.85227036867E+02 0.84243726280E+02
 0.81543090010E+02 0.77736648753E+02 0.73499287843E+02 0.69356839993E+02 0.65711025608E+02
 0.62789878533E+02 0.60653194410E+02 0.59234873944E+02 0.58393856348E+02 0.57971317512E+02
 0.56384855142E+02 0.56550057887E+02 0.57055298229E+02 0.57931998855E+02 0.59234873944E+02
 0.61029815684E+02 0.63360236096E+02 0.66195705637E+02 0.69379303027E+02 0.72600022665E+02
 0.75418707608E+02 0.77360883138E+02 0.78055274781E+02 0.77360883138E+02 0.75418707608E+02
 0.72600022665E+02 0.69379303027E+02 0.66195705637E+02 0.63360236096E+02 0.61029815684E+02
 0.59234873944E+02 0.57931998855E+02 0.57055298229E+02 0.56550057887E+02 0.55204570833E+02
 0.55421405743E+02 0.56052626973E+02 0.57055298229E+02 0.58393856348E+02 0.60057947439E+02
 0.62046788957E+02 0.64324713237E+02 0.66773675409E+02 0.69172751940E+02 0.71222506173E+02
 0.72611727619E+02 0.73104209856E+02 0.72611727619E+02 0.71222506173E+02 0.69172751940E+02
 0.66773675409E+02 0.64324713237E+02 0.62046788957E+02 0.60057947439E+02 0.58393856348E+02
 0.57055298229E+02 0.56052626973E+02 0.55421405743E+02 0.54422666060E+02 0.54681816043E+02
 0.55421405743E+02 0.56550057887E+02 0.57971317512E+02 0.59619528296E+02 0.61456328549E+02
 0.63433333318E+02 0.65451441484E+02 0.67346880690E+02 0.68913790098E+02 0.69951432545E+02
 0.70314864728E+02 0.69951432545E+02 0.68913790098E+02 0.67346880690E+02 0.65451441484E+02
 0.63433333318E+02 0.61456328549E+02 0.59619528296E+02 0.57971317512E+02 0.56550057887E+02
 0.55421405743E+02 0.54681816043E+02 0.50221136363E+02 0.50542431826E+02 0.51464260463E+02
 0.52883723506E+02 0.54689723781E+02 0.56806002373E+02 0.59192153608E+02 0.61800043422E+02
 0.64514675283E+02 0.67120419658E+02 0.69319279051E+02 0.70798765459E+02 0.71321451752E+02
 0.70798765459E+02 0.69319279051E+02 0.67120419658E+02 0.64514675283E+02 0.61800043422E+02
 0.59192153608E+02 0.56806002373E+02 0.54689723781E+02 0.52883723506E+02 0.51464260463E+02
 0.50542431826E+02 0.50542431826E+02 0.50843799817E+02 0.51714352582E+02 0.53073566177E+02
 0.54838914082E+02 0.56960609838E+02 0.59416679282E+02 0.62165706447E+02 0.65084305686E+02
 0.67930029401E+02 0.70360133414E+02 0.72008618874E+02 0.72593459192E+02 0.72008618874E+02
 0.70360133414E+02 0.67930029401E+02 0.65084305686E+02 0.62165706447E+02 0.59416679282E+02
 0.56960609838E+02 0.54838914082E+02 0.53073566177E+02 0.51714352582E+02 0.50843799817E+02
 0.51464260463E+02 0.51714352582E+02 0.52455152436E+02 0.53669064531E+02 0.55352812139E+02
 0.57528313229E+02 0.60221603688E+02 0.63406654177E+02 0.66934352736E+02 0.70485783198E+02
 0.73591103499E+02 0.75731551530E+02 0.76497129032E+02 0.75731551530E+02 0.73591103499E+02
 0.70485783198E+02 0.66934352736E+02 0.63406654177E+02 0.60221603688E+02 0.57528313229E+02
 0.55352812139E+02 0.53669064531E+02 0.52455152436E+02 0.51714352582E+02 0.52883723506E+02
 0.53073566177E+02 0.53669064531E+02 0.54744340116E+02 0.56408364514E+02 0.58778078162E+02
 0.61933990745E+02 0.65856132940E+02 0.70347796039E+02 0.74978057530E+02 0.79101355187E+02
 0.81994642010E+02 0.83041861758E+02 0.81994642010E+02 0.79101355187E+02 0.74978057530E+02
 0.70347796039E+02 0.65856132940E+02 0.61933990745E+02 0.58778078162E+02 0.56408364514E+02
 0.54744340116E+02 0.53669064531E+02 0.53073566177E+02 0.54689723781E+02 0.54838914082E+02
 0.55352812139E+02 0.56408364514E+02 0.58233078663E+02 0.61026229050E+02 0.64886129480E+02
 0.69752120904E+02 0.75386603001E+02 0.81400992106E+02 0.87010910854E+02 0.91090538350E+02
 0.92594035410E+02 0.91090538350E+02 0.87010910854E+02 0.81400992106E+02 0.75386603001E+02
 0.69752120904E+02 0.64886129480E+02 0.61026229050E+02 0.58233078663E+02 0.56408364514E+02
 0.55352812139E+02 0.54838914082E+02 0.56806002373E+02 0.56960609838E+02 0.57528313229E+02
 0.58778078162E+02 0.61026229050E+02 0.64488685712E+02 0.69181620075E+02 0.75064163783E+02
 0.82115100175E+02 0.89921143861E+02 0.97421504553E+02 0.10298985737E+03 0.10506358141E+03
 0.10298985737E+03 0.97421504553E+02 0.89921143861E+02 0.82115100175E+02 0.75064163783E+02
 0.69181620075E+02 0.64488685712E+02 0.61026229050E+02 0.58778078162E+02 0.57528313229E+02
 0.56960609838E+02 0.59192153608E+02 0.59416679282E+02 0.60221603688E+02 0.61933990745E+02
 0.64886129480E+02 0.69181620075E+02 0.74801022310E+02 0.81841839844E+02 0.90236235276E+02
 0.99543226445E+02 0.10856168899E+03 0.11532090899E+03 0.11785274196E+03 0.11532090899E+03
 0.10856168899E+03 0.99543226445E+02 0.90236235276E+02 0.81841839844E+02 0.74801022310E+02
 0.69181620075E+02 0.64886129480E+02 0.61933990745E+02 0.60221603688E+02 0.59416679282E+02
 0.61800043422E+02 0.62165706447E+02 0.63406654177E+02 0.65856132940E+02 0.69752120904E+02
 0.75064163783E+02 0.81841839844E+02 0.89865913798E+02 0.98873699298E+02 0.10850371614E+03
 0.11774373126E+03 0.12469383367E+03 0.12730946399E+03 0.12469383367E+03 0.11774373126E+03
 0.10850371614E+03 0.98873699298E+02 0.89865913798E+02 0.81841839844E+02 0.75064163783E+02
 0.69752120904E+02 0.65856132940E+02 0.63406654177E+02 0.62165706447E+02 0.64514675283E+02
 0.65084305686E+02 0.66934352736E+02 0.70347796039E+02 0.75386603001E+02 0.82115100175E+02
 0.90236235276E+02 0.98873699298E+02 0.10742447194E+03 0.11575377456E+03 0.12346525341E+03
 0.12926675066E+03 0.13146594340E+03 0.12926675066E+03 0.12346525341E+03 0.11575377456E+03
 0.10742447194E+03 0.98873699298E+02 0.90236235276E+02 0.82115100175E+02 0.75386603001E+02
 0.70347796039E+02 0.66934352736E+02 0.65084305686E+02 0.67120419658E+02 0.67930029401E+02
 0.70485783198E+02 0.74978057530E+02 0.81400992106E+02 0.89921143861E+02 0.99543226445E+02
 0.10850371614E+03 0.11575377456E+03 0.12150796580E+03 0.12632052747E+03 0.12992494982E+03
 0.13131603361E+03 0.12992494982E+03 0.12632052747E+03 0.12150796580E+03 0.11575377456E+03
 0.10850371614E+03 0.99543226445E+02 0.89921143861E+02 0.81400992106E+02 0.74978057530E+02
 0.70485783198E+02 0.67930029401E+02 0.69319279051E+02 0.70360133414E+02 0.73591103499E+02
 0.79101355187E+02 0.87010910854E+02 0.97421504553E+02 0.10856168899E+03 0.11774373126E+03
 0.12346525341E+03 0.12632052747E+03 0.12788629171E+03 0.12902223051E+03 0.12950218767E+03
 0.12902223051E+03 0.12788629171E+03 0.12632052747E+03 0.12346525341E+03 0.11774373126E+03
 0.10856168899E+03 0.97421504553E+02 0.87010910854E+02 0.79101355187E+02 0.73591103499E+02
 0.70360133414E+02 0.70798765459E+02 0.72008618874E+02 0.75731551530E+02 0.81994642010E+02
 0.91090538350E+02 0.10298985737E+03 0.11532090899E+03 0.12469383367E+03 0.12926675066E+03
 0.12992494982E+03 0.12902223051E+03 0.12827707885E+03 0.12806174013E+03 0.12827707885E+03
 0.12902223051E+03 0.12992494982E+03 0.12926675066E+03 0.12469383367E+03 0.11532090899E+03
 0.10298985737E+03 0.91090538350E+02 0.81994642010E+02 0.75731551530E+02 0.72008618874E+02
 0.71321451752E+02 0.72593459192E+02 0.76497129032E+02 0.83041861758E+02 0.92594035410E+02
 0.10506358141E+03 0.11785274196E+03 0.12730946399E+03 0.13146594340E+03 0.13131603361E+03
 0.12950218767E+03 0.12806174013E+03 0.12758925196E+03 0.12806174013E+03 0.12950218767E+03
 0.13131603361E+03 0.13146594340E+03 0.12730946399E+03 0.11785274196E+03 0.10506358141E+03
 0.92594035410E+02 0.83041861758E+02 0.76497129032E+02 0.72593459192E+02 0.70798765459E+02
 0.72008618874E+02 0.75731551530E+02 0.81994642010E+02 0.91090538350E+02 0.10298985737E+03
 0.11532090899E+03 0.12469383367E+03 0.12926675066E+03 0.12992494982E+03 0.12902223051E+03
 0.12827707885E+03 0.12806174013E+03 0.12827707885E+03 0.12902223051E+03 0.12992494982E+03
 0.12926675066E+03 0.12469383367E+03 0.11532090899E+03 0.10298985737E+03 0.91090538350E+02
 0.81994642010E+02 0.75731551530E+02 0.72008618874E+02 0.69319279051E+02 0.70360133414E+02
 0.73591103499E+02 0.79101355187E+02 0.87010910854E+02 0.97421504553E+02 0.10856168899E+03
 0.11774373126E+03 0.12346525341E+03 0.12632052747E+03 0.12788629171E+03 0.12902223051E+03
 0.12950218767E+03 0.12902223051E+03 0.12788629171E+03 0.12632052747E+03 0.12346525341E+03
 0.11774373126E+03 0.10856168899E+03 0.97421504553E+02 0.87010910854E+02 0.79101355187E+02
 0.73591103499E+02 0.70360133414E+02 0.67120419658E+02 0.67930029401E+02 0.70485783198E+02
 0.74978057530E+02 0.81400992106E+02 0.89921143861E+02 0.99543226445E+02 0.10850371614E+03
 0.11575377456E+03 0.12150796580E+03 0.12632052747E+03 0.12992494982E+03 0.13131603361E+03
 0.12992494982E+03 0.12632052747E+03 0.12150796580E+03 0.11575377456E+03 0.10850371614E+03
 0.99543226445E+02 0.89921143861E+02 0.81400992106E+02 0.74978057530E+02 0.70485783198E+02
 0.67930029401E+02 0.64514675283E+02 0.65084305686E+02 0.66934352736E+02 0.70347796039E+02
 0.75386603001E+02 0.82115100175E+02 0.90236235276E+02 0.98873699298E+02 0.10742447194E+03
 0.11575377456E+03 0.12346525341E+03 0.12926675066E+03 0.13146594340E+03 0.12926675066E+03
 0.12346525341E+03 0.11575377456E+03 0.10742447194E+03 0.98873699298E+02 0.90236235276E+02
 0.82115100175E+02 0.75386603001E+02 0.70347796039E+02 0.66934352736E+02 0.65084305686E+02
 0.61800043422E+02 0.62165706447E+02 0.63406654177E+02 0.65856132940E+02 0.69752120904E+02
 0.75064163783E+02 0.81841839844E+02 0.89865913798E+02 0.98873699298E+02 0.10850371614E+03
 0.11774373126E+03 0.12469383367E+03 0.12730946399E+03 0.12469383367E+03 0.11774373126E+03
 0.10850371614E+03 0.98873699298E+02 0.89865913798E+02 0.81841839844E+02 0.75064163783E+02
 0.69752120904E+02 0.65856132940E+02 0.63406654177E+02 0.62165706447E+02 0.59192153608E+02
 0.59416679282E+02 0.60221603688E+02 0.61933990745E+02 0.64886129480E+02 0.69181620075E+02
 0.74801022310E+02 0.81841839844E+02 0.90236235276E+02 0.99543226445E+02 0.10856168899E+03
 0.11532090899E+03 0.11785274196E+03 0.11532090899E+03 0.10856168899E+03 0.99543226445E+02
 0.90236235276E+02 0.81841839844E+02 0.74801022310E+02 0.69181620075E+02 0.64886129480E+02
 0.61933990745E+02 0.60221603688E+02 0.59416679282E+02 0.56806002373E+02 0.56960609838E+02
 0.57528313229E+02 0.58778078162E+02 0.61026229050E+02 0.64488685712E+02 0.69181620075E+02
 0.75064163783E+02 0.82115100175E+02 0.89921143861E+02 0.97421504553E+02 0.10298985737E+03
 0.10506358141E+03 0.10298985737E+03 0.97421504553E+02 0.89921143861E+02 0.82115100175E+02