unknown system                          
   2.76000000000000     
     1.000000    0.000000    0.000000
     0.000000    1.000000    0.000000
     0.000000    0.000000   10.000000
   W 
     5
Direct
  0.000000  0.000000  0.951379
  0.500000  0.500000  0.025457
  0.000000  0.000000  0.100000
  0.500000  0.500000  0.174543
  0.000000  0.000000  0.248621
 
   24   24  240
 -.11943902813E+02 -.11903548153E+02 -.11789430384E+02 -.11625707930E+02 -.11446178485E+02
 -.11302340762E+02 -.11230480310E+02 -.11213437358E+02 -.11251923395E+02 -.11334240749E+02
 -.11423762803E+02 -.11492234457E+02 -.11515569121E+02 -.11492234457E+02 -.11423762803E+02
 -.11334240749E+02 -.11251923395E+02 -.11213437358E+02 -.11230480310E+02 -.11302340762E+02
 -.11446178485E+02 -.11625707930E+02 -.11789430384E+02 -.11903548153E+02 -.11903548153E+02
 -.11869795668E+02 -.11771194741E+02 -.11634653863E+02 -.11490455300E+02 -.11397268103E+02
 -.11376378863E+02 -.11412864402E+02 -.11517787479E+02 -.11649314222E+02 -.11772028113E+02
 -.11863517947E+02 -.11895592392E+02 -.11863517947E+02 -.11772028113E+02 -.11649314222E+02
 -.11517787479E+02 -.11412864402E+02 -.11376378863E+02 -.11397268103E+02 -.11490455300E+02
 -.11634653863E+02 -.11771194741E+02 -.11869795668E+02 -.11789430384E+02 -.11771194741E+02
 -.11721639937E+02 -.11666077817E+02 -.11639227339E+02 -.11689628823E+02 -.11827438743E+02
 -.12038651400E+02 -.12311870161E+02 -.12608495194E+02 -.12877725064E+02 -.13062643102E+02
 -.13128152189E+02 -.13062643102E+02 -.12877725064E+02 -.12608495194E+02 -.12311870161E+02
 -.12038651400E+02 -.11827438743E+02 -.11689628823E+02 -.11639227339E+02 -.11666077817E+02
 -.11721639937E+02 -.11771194741E+02 -.11625707930E+02 -.11634653863E+02 -.11666077817E+02
 -.11748020522E+02 -.11915996918E+02 -.12210281687E+02 -.12615331208E+02 -.13128550499E+02
 -.13723824952E+02 -.14306988024E+02 -.14804421338E+02 -.15140826576E+02 -.15261619918E+02
 -.15140826576E+02 -.14804421338E+02 -.14306988024E+02 -.13723824952E+02 -.13128550499E+02
 -.12615331208E+02 -.12210281687E+02 -.11915996918E+02 -.11748020522E+02 -.11666077817E+02
 -.11634653863E+02 -.11446178485E+02 -.11490455300E+02 -.11639227339E+02 -.11915996918E+02
 -.12362277662E+02 -.12983851280E+02 -.13786718098E+02 -.14756553101E+02 -.15800884215E+02
 -.16836161513E+02 -.17728783801E+02 -.18326424425E+02 -.18536949768E+02 -.18326424425E+02
 -.17728783801E+02 -.16836161513E+02 -.15800884215E+02 -.14756553101E+02 -.13786718098E+02
 -.12983851280E+02 -.12362277662E+02 -.11915996918E+02 -.11639227339E+02 -.11490455300E+02
 -.11302340762E+02 -.11397268103E+02 -.11689628823E+02 -.12210281687E+02 -.12983851280E+02
 -.14037939765E+02 -.15378865449E+02 -.16951509366E+02 -.18670927752E+02 -.20303901985E+02
 -.21589188178E+02 -.22397611084E+02 -.22669794522E+02 -.22397611084E+02 -.21589188178E+02
 -.20303901985E+02 -.18670927752E+02 -.16951509366E+02 -.15378865449E+02 -.14037939765E+02
 -.12983851280E+02 -.12210281687E+02 -.11689628823E+02 -.11397268103E+02 -.11230480310E+02
 -.11376378863E+02 -.11827438743E+02 -.12615331208E+02 -.13786718098E+02 -.15378865449E+02
 -.17384772916E+02 -.19746492496E+02 -.22113528307E+02 -.24101609662E+02 -.25580936736E+02
 -.26489553140E+02 -.26799750886E+02 -.26489553140E+02 -.25580936736E+02 -.24101609662E+02
 -.22113528307E+02 -.19746492496E+02 -.17384772916E+02 -.15378865449E+02 -.13786718098E+02
 -.12615331208E+02 -.11827438743E+02 -.11376378863E+02 -.11213437358E+02 -.11412864402E+02
 -.12038651400E+02 -.13128550499E+02 -.14756553101E+02 -.16951509366E+02 -.19746492496E+02
 -.22750816641E+02 -.25421330438E+02 -.27623794007E+02 -.29281238794E+02 -.30316553043E+02
 -.30665790210E+02 -.30316553043E+02 -.29281238794E+02 -.27623794007E+02 -.25421330438E+02
 -.22750816641E+02 -.19746492496E+02 -.16951509366E+02 -.14756553101E+02 -.13128550499E+02
 -.12038651400E+02 -.11412864402E+02 -.11251923395E+02 -.11517787479E+02 -.12311870161E+02
 -.13723824952E+02 -.15800884215E+02 -.18670927752E+02 -.22113528307E+02 -.25421330438E+02
 -.28335535211E+02 -.30780799943E+02 -.32608848913E+02 -.33743908290E+02 -.34122847198E+02
 -.33743908290E+02 -.32608848913E+02 -.30780799943E+02 -.28335535211E+02 -.25421330438E+02
 -.22113528307E+02 -.18670927752E+02 -.15800884215E+02 -.13723824952E+02 -.12311870161E+02
 -.11517787479E+02 -.11334240749E+02 -.11649314222E+02 -.12608495194E+02 -.14306988024E+02
 -.16836161513E+02 -.20303901985E+02 -.24101609662E+02 -.27623794007E+02 -.30780799943E+02
 -.33391496988E+02 -.35354373200E+02 -.36558890755E+02 -.36972986751E+02 -.36558890755E+02
 -.35354373200E+02 -.33391496988E+02 -.30780799943E+02 -.27623794007E+02 -.24101609662E+02
 -.20303901985E+02 -.16836161513E+02 -.14306988024E+02 -.12608495194E+02 -.11649314222E+02
 -.11423762803E+02 -.11772028113E+02 -.12877725064E+02 -.14804421338E+02 -.17728783801E+02
 -.21589188178E+02 -.25580936736E+02 -.29281238794E+02 -.32608848913E+02 -.35354373200E+02
 -.37411752403E+02 -.38668363728E+02 -.39101804100E+02 -.38668363728E+02 -.37411752403E+02
 -.35354373200E+02 -.32608848913E+02 -.29281238794E+02 -.25580936736E+02 -.21589188178E+02
 -.17728783801E+02 -.14804421338E+02 -.12877725064E+02 -.11772028113E+02 -.11492234457E+02
 -.11863517947E+02 -.13062643102E+02 -.15140826576E+02 -.18326424425E+02 -.22397611084E+02
 -.26489553140E+02 -.30316553043E+02 -.33743908290E+02 -.36558890755E+02 -.38668363728E+02
 -.39962607240E+02 -.40408015229E+02 -.39962607240E+02 -.38668363728E+02 -.36558890755E+02
 -.33743908290E+02 -.30316553043E+02 -.26489553140E+02 -.22397611084E+02 -.18326424425E+02
 -.15140826576E+02 -.13062643102E+02 -.11863517947E+02 -.11515569121E+02 -.11895592392E+02
 -.13128152189E+02 -.15261619918E+02 -.18536949768E+02 -.22669794522E+02 -.26799750886E+02
 -.30665790210E+02 -.34122847198E+02 -.36972986751E+02 -.39101804100E+02 -.40408015229E+02
 -.40854715606E+02 -.40408015229E+02 -.39101804100E+02 -.36972986751E+02 -.34122847198E+02
 -.30665790210E+02 -.26799750886E+02 -.22669794522E+02 -.18536949768E+02 -.15261619918E+02
 -.13128152189E+02 -.11895592392E+02 -.11492234457E+02 -.11863517947E+02 -.13062643102E+02
 -.15140826576E+02 -.18326424425E+02 -.22397611084E+02 -.26489553140E+02 -.30316553043E+02
 -.33743908290E+02 -.36558890755E+02 -.38668363728E+02 -.39962607240E+02 -.40408015229E+02
 -.39962607240E+02 -.38668363728E+02 -.36558890755E+02 -.33743908290E+02 -.30316553043E+02
 -.26489553140E+02 -.22397611084E+02 -.18326424425E+02 -.15140826576E+02 -.13062643102E+02
 -.11863517947E+02 -.11423762803E+02 -.11772028113E+02 -.12877725064E+02 -.14804421338E+02
 -.17728783801E+02 -.21589188178E+02 -.25580936736E+02 -.29281238794E+02 -.32608848913E+02
 -.35354373200E+02 -.37411752403E+02 -.38668363728E+02 -.39101804100E+02 -.38668363728E+02
 -.37411752403E+02 -.35354373200E+02 -.32608848913E+02 -.29281238794E+02 -.25580936736E+02
 -.21589188178E+02 -.17728783801E+02 -.14804421338E+02 -.12877725064E+02 -.11772028113E+02
 -.11334240749E+02 -.11649314222E+02 -.12608495194E+02 -.14306988024E+02 -.16836161513E+02
 -.20303901985E+02 -.24101609662E+02 -.27623794007E+02 -.30780799943E+02 -.33391496988E+02
 -.35354373200E+02 -.36558890755E+02 -.36972986751E+02 -.36558890755E+02 -.35354373200E+02
 -.33391496988E+02 -.30780799943E+02 -.27623794007E+02 -.24101609662E+02 -.20303901985E+02
 -.16836161513E+02 -.14306988024E+02 -.12608495194E+02 -.11649314222E+02 -.11251923395E+02
 -.11517787479E+02 -.12311870161E+02 -.13723824952E+02 -.15800884215E+02 -.18670927752E+02
 -.22113528307E+02 -.25421330438E+02 -.28335535211E+02 -.30780799943E+02 -.32608848913E+02
 -.33743908290E+02 -.34122847198E+02 -.33743908290E+02 -.32608848913E+02 -.30780799943E+02
 -.28335535211E+02 -.25421330438E+02 -.22113528307E+02 -.18670927752E+02 -.15800884215E+02
 -.13723824952E+02 -.12311870161E+02 -.11517787479E+02 -.11213437358E+02 -.11412864402E+02
 -.12038651400E+02 -.13128550499E+02 -.14756553101E+02 -.16951509366E+02 -.19746492496E+02
 -.22750816641E+02 -.25421330438E+02 -.27623794007E+02 -.29281238794E+02 -.30316553043E+02
 -.30665790210E+02 -.30316553043E+02 -.29281238794E+02 -.27623794007E+02 -.25421330438E+02
 -.22750816641E+02 -.19746492496E+02 -.16951509366E+02 -.14756553101E+02 -.13128550499E+02
 -.12038651400E+02 -.11412864402E+02 -.11230480310E+02 -.11376378863E+02 -.11827438743E+02
 -.12615331208E+02 -.13786718098E+02 -.15378865449E+02 -.17384772916E+02 -.19746492496E+02
 -.22113528307E+02 -.24101609662E+02 -.25580936736E+02 -.26489553140E+02 -.26799750886E+02
 -.26489553140E+02 -.25580936736E+02 -.24101609662E+02 -.22113528307E+02 -.19746492496E+02
 -.17384772916E+02 -.15378865449E+02 -.13786718098E+02 -.12615331208E+02 -.11827438743E+02
 -.11376378863E+02 -.11302340762E+02 -.11397268103E+02 -.11689628823E+02 -.12210281687E+02
 -.12983851280E+02 -.14037939765E+02 -.15378865449E+02 -.16951509366E+02 -.18670927752E+02
 -.20303901985E+02 -.21589188178E+02 -.22397611084E+02 -.22669794522E+02 -.22397611084E+02
 -.21589188178E+02 -.20303901985E+02 -.18670927752E+02 -.16951509366E+02 -.15378865449E+02
 -.14037939765E+02 -.12983851280E+02 -.12210281687E+02 -.11689628823E+02 -.11397268103E+02
 -.11446178485E+02 -.11490455300E+02 -.11639227339E+02 -.11915996918E+02 -.12362277662E+02
 -.12983851280E+02 -.13786718098E+02 -.14756553101E+02 -.15800884215E+02 -.16836161513E+02
 -.17728783801E+02 -.18326424425E+02 -.18536949768E+02 -.18326424425E+02 -.17728783801E+02
 -.16836161513E+02 -.15800884215E+02 -.14756553101E+02 -.13786718098E+02 -.12983851280E+02
 -.12362277662E+02 -.11915996918E+02 -.11639227339E+02 -.11490455300E+02 -.11625707930E+02
 -.11634653863E+02 -.11666077817E+02 -.11748020522E+02 -.11915996918E+02 -.12210281687E+02
 -.12615331208E+02 -.13128550499E+02 -.13723824952E+02 -.14306988024E+02 -.14804421338E+02
 -.15140826576E+02 -.15261619918E+02 -.15140826576E+02 -.14804421338E+02 -.14306988024E+02
 -.13723824952E+02 -.13128550499E+02 -.12615331208E+02 -.12210281687E+02 -.11915996918E+02
 -.11748020522E+02 -.11666077817E+02 -.11634653863E+02 -.11789430384E+02 -.11771194741E+02
 -.11721639937E+02 -.11666077817E+02 -.11639227339E+02 -.11689628823E+02 -.11827438743E+02
 -.12038651400E+02 -.12311870161E+02 -.12608495194E+02 -.12877725064E+02 -.13062643102E+02
 -.13128152189E+02 -.13062643102E+02 -.12877725064E+02 -.12608495194E+02 -.12311870161E+02
 -.12038651400E+02 -.11827438743E+02 -.11689628823E+02 -.11639227339E+02 -.11666077817E+02
 -.11721639937E+02 -.11771194741E+02 -.11903548153E+02 -.11869795668E+02 -.11771194741E+02
 -.11634653863E+02 -.11490455300E+02 -.11397268103E+02 -.11376378863E+02 -.11412864402E+02
 -.11517787479E+02 -.11649314222E+02 -.11772028113E+02 -.11863517947E+02 -.11895592392E+02
 -.11863517947E+02 -.11772028113E+02 -.11649314222E+02 -.11517787479E+02 -.11412864402E+02
 -.11376378863E+02 -.11397268103E+02 -.11490455300E+02 -.11634653863E+02 -.11771194741E+02
 -.11869795668E+02 -.98376969577E+01 -.98558464834E+01 -.99151717928E+01 -.10026101331E+02
 -.10201283196E+02 -.10437038120E+02 -.10726904764E+02 -.11072705823E+02 -.11449280572E+02
 -.11807684761E+02 -.12097713791E+02 -.12286181624E+02 -.12352702196E+02 -.12286181624E+02
 -.12097713791E+02 -.11807684761E+02 -.11449280572E+02 -.11072705823E+02 -.10726904764E+02
 -.10437038120E+02 -.10201283196E+02 -.10026101331E+02 -.99151717928E+01 -.98558464834E+01
 -.98558464834E+01 -.98783141268E+01 -.99552152511E+01 -.10093554164E+02 -.10309194091E+02
 -.10590774620E+02 -.10938099122E+02 -.11360316035E+02 -.11793182802E+02 -.12204668611E+02
 -.12558108890E+02 -.12792369001E+02 -.12876546929E+02 -.12792369001E+02 -.12558108890E+02
 -.12204668611E+02 -.11793182802E+02 -.11360316035E+02 -.10938099122E+02 -.10590774620E+02
 -.10309194091E+02 -.10093554164E+02 -.99552152511E+01 -.98783141268E+01 -.99151717928E+01
 -.99552152511E+01 -.10081960504E+02 -.10304655809E+02 -.10633969582E+02 -.11063233682E+02
 -.11597508050E+02 -.12215711386E+02 -.12874366472E+02 -.13505424140E+02 -.14017949788E+02
 -.14355775962E+02 -.14473346937E+02 -.14355775962E+02 -.14017949788E+02 -.13505424140E+02
 -.12874366472E+02 -.12215711386E+02 -.11597508050E+02 -.11063233682E+02 -.10633969582E+02
 -.10304655809E+02 -.10081960504E+02 -.99552152511E+01 -.10026101331E+02 -.10093554164E+02
 -.10304655809E+02 -.10667873992E+02 -.11194592499E+02 -.11882059145E+02 -.12741660135E+02
 -.13736355564E+02 -.14765524329E+02 -.15751611961E+02 -.16590344799E+02 -.17155522870E+02
 -.17354316026E+02 -.17155522870E+02 -.16590344799E+02 -.15751611961E+02 -.14765524329E+02
 -.13736355564E+02 -.12741660135E+02 -.11882059145E+02 -.11194592499E+02 -.10667873992E+02
 -.10304655809E+02 -.10093554164E+02 -.10201283196E+02 -.10309194091E+02 -.10633969582E+02
 -.11194592499E+02 -.12003569776E+02 -.13088314497E+02 -.14437257055E+02 -.15968937279E+02
 -.17624622670E+02 -.19214460237E+02 -.20487183276E+02 -.21297389840E+02 -.21571524460E+02
 -.21297389840E+02 -.20487183276E+02 -.19214460237E+02 -.17624622670E+02 -.15968937279E+02
 -.14437257055E+02 -.13088314497E+02 -.12003569776E+02 -.11194592499E+02 -.10633969582E+02
 -.10309194091E+02 -.10437038120E+02 -.10590774620E+02 -.11063233682E+02 -.11882059145E+02
 -.13088314497E+02 -.14706557706E+02 -.16708255966E+02 -.19055793318E+02 -.21433032085E+02
 -.23451591541E+02 -.24960587488E+02 -.25886092210E+02 -.26201947832E+02 -.25886092210E+02
 -.24960587488E+02 -.23451591541E+02 -.21433032085E+02 -.19055793318E+02 -.16708255966E+02
 -.14706557706E+02 -.13088314497E+02 -.11882059145E+02 -.11063233682E+02 -.10590774620E+02
 -.10726904764E+02 -.10938099122E+02 -.11597508050E+02 -.12741660135E+02 -.14437257055E+02
 -.16708255966E+02 -.19585207716E+02 -.22656494675E+02 -.25382106862E+02 -.27630973816E+02
 -.29317882515E+02 -.30370044121E+02 -.30723856595E+02 -.30370044121E+02 -.29317882515E+02
 -.27630973816E+02 -.25382106862E+02 -.22656494675E+02 -.19585207716E+02 -.16708255966E+02
 -.14437257055E+02 -.12741660135E+02 -.11597508050E+02 -.10938099122E+02 -.11072705823E+02
 -.11360316035E+02 -.12215711386E+02 -.13736355564E+02 -.15968937279E+02 -.19055793318E+02
 -.22656494675E+02 -.26045666496E+02 -.29051329065E+02 -.31569002338E+02 -.33446814566E+02
 -.34606098528E+02 -.34994777921E+02 -.34606098528E+02 -.33446814566E+02 -.31569002338E+02
 -.29051329065E+02 -.26045666496E+02 -.22656494675E+02 -.19055793318E+02 -.15968937279E+02
 -.13736355564E+02 -.12215711386E+02 -.11360316035E+02 -.11449280572E+02 -.11793182802E+02
 -.12874366472E+02 -.14765524329E+02 -.17624622670E+02 -.21433032085E+02 -.25382106862E+02
 -.29051329065E+02 -.32353309635E+02 -.35048089829E+02 -.37072659652E+02 -.38309293770E+02
 -.38739582021E+02 -.38309293770E+02 -.37072659652E+02 -.35048089829E+02 -.32353309635E+02
 -.29051329065E+02 -.25382106862E+02 -.21433032085E+02 -.17624622670E+02 -.14765524329E+02
 -.12874366472E+02 -.11793182802E+02 -.11807684761E+02 -.12204668611E+02 -.13505424140E+02
 -.15751611961E+02 -.19214460237E+02 -.23451591541E+02 -.27630973816E+02 -.31569002338E+02
 -.35048089829E+02 -.37925188212E+02 -.40075024498E+02 -.41400318678E+02 -.41849420192E+02
 -.41400318678E+02 -.40075024498E+02 -.37925188212E+02 -.35048089829E+02 -.31569002338E+02
 -.27630973816E+02 -.23451591541E+02 -.19214460237E+02 -.15751611961E+02 -.13505424140E+02
 -.12204668611E+02 -.12097713791E+02 -.12558108890E+02 -.14017949788E+02 -.16590344799E+02
 -.20487183276E+02 -.24960587488E+02 -.29317882515E+02 -.33446814566E+02 -.37072659652E+02
 -.40075024498E+02 -.42300570464E+02 -.43688832054E+02 -.44147977694E+02 -.43688832054E+02
 -.42300570464E+02 -.40075024498E+02 -.37072659652E+02 -.33446814566E+02 -.29317882515E+02
 -.24960587488E+02 -.20487183276E+02 -.16590344799E+02 -.14017949788E+02 -.12558108890E+02
 -.12286181624E+02 -.12792369001E+02 -.14355775962E+02 -.17155522870E+02 -.21297389840E+02
 -.25886092210E+02 -.30370044121E+02 -.34606098528E+02 -.38309293770E+02 -.41400318678E+02
 -.43688832054E+02 -.45118347633E+02 -.45585967408E+02 -.45118347633E+02 -.43688832054E+02
 -.41400318678E+02 -.38309293770E+02 -.34606098528E+02 -.30370044121E+02 -.25886092210E+02
 -.21297389840E+02 -.17155522870E+02 -.14355775962E+02 -.12792369001E+02 -.12352702196E+02
 -.12876546929E+02 -.14473346937E+02 -.17354316026E+02 -.21571524460E+02 -.26201947832E+02
 -.30723856595E+02 -.34994777921E+02 -.38739582021E+02 -.41849420192E+02 -.44147977694E+02
 -.45585967408E+02 -.46057140813E+02 -.45585967408E+02 -.44147977694E+02 -.41849420192E+02
 -.38739582021E+02 -.34994777921E+02 -.30723856595E+02 -.26201947832E+02 -.21571524460E+02
 -.17354316026E+02 -.14473346937E+02 -.12876546929E+02 -.12286181624E+02 -.12792369001E+02
 -.14355775962E+02 -.17155522870E+02 -.21297389840E+02 -.25886092210E+02 -.30370044121E+02
 -.34606098528E+02 -.38309293770E+02 -.41400318678E+02 -.43688832054E+02 -.45118347633E+02
 -.45585967408E+02 -.45118347633E+02 -.43688832054E+02 -.41400318678E+02 -.38309293770E+02
 -.34606098528E+02 -.30370044121E+02 -.25886092210E+02 -.21297389840E+02 -.17155522870E+02
 -.14355775962E+02 -.12792369001E+02 -.12097713791E+02 -.12558108890E+02 -.14017949788E+02
 -.16590344799E+02 -.20487183276E+02 -.24960587488E+02 -.29317882515E+02 -.33446814566E+02
 -.37072659652E+02 -.40075024498E+02 -.42300570464E+02 -.43688832054E+02 -.44147977694E+02
 -.43688832054E+02 -.42300570464E+02 -.40075024498E+02 -.37072659652E+02 -.33446814566E+02
 -.29317882515E+02 -.24960587488E+02 -.20487183276E+02 -.16590344799E+02 -.14017949788E+02
 -.12558108890E+02 -.11807684761E+02 -.12204668611E+02 -.13505424140E+02 -.15751611961E+02
 -.19214460237E+02 -.23451591541E+02 -.27630973816E+02 -.31569002338E+02 -.35048089829E+02
 -.37925188212E+02 -.40075024498E+02 -.41400318678E+02 -.41849420192E+02 -.41400318678E+02
 -.40075024498E+02 -.37925188212E+02 -.35048089829E+02 -.31569002338E+02 -.27630973816E+02
 -.23451591541E+02 -.19214460237E+02 -.15751611961E+02 -.13505424140E+02 -.12204668611E+02
 -.11449280572E+02 -.11793182802E+02 -.12874366472E+02 -.14765524329E+02 -.17624622670E+02
 -.21433032085E+02 -.25382106862E+02 -.29051329065E+02 -.32353309635E+02 -.35048089829E+02
 -.37072659652E+02 -.38309293770E+02 -.38739582021E+02 -.38309293770E+02 -.37072659652E+02
 -.35048089829E+02 -.32353309635E+02 -.29051329065E+02 -.25382106862E+02 -.21433032085E+02
 -.17624622670E+02 -.14765524329E+02 -.12874366472E+02 -.11793182802E+02 -.11072705823E+02
 -.11360316035E+02 -.12215711386E+02 -.13736355564E+02 -.15968937279E+02 -.19055793318E+02
 -.22656494675E+02 -.26045666496E+02 -.29051329065E+02 -.31569002338E+02 -.33446814566E+02
 -.34606098528E+02 -.34994777921E+02 -.34606098528E+02 -.33446814566E+02 -.31569002338E+02
 -.29051329065E+02 -.26045666496E+02 -.22656494675E+02 -.19055793318E+02 -.15968937279E+02
 -.13736355564E+02 -.12215711386E+02 -.11360316035E+02 -.10726904764E+02 -.10938099122E+02
 -.11597508050E+02 -.12741660135E+02 -.14437257055E+02 -.16708255966E+02 -.19585207716E+02
 -.22656494675E+02 -.25382106862E+02 -.27630973816E+02 -.29317882515E+02 -.30370044121E+02
 -.30723856595E+02 -.30370044121E+02 -.29317882515E+02 -.27630973816E+02 -.25382106862E+02
 -.22656494675E+02 -.19585207716E+02 -.16708255966E+02 -.14437257055E+02 -.12741660135E+02
 -.11597508050E+02 -.10938099122E+02 -.10437038120E+02 -.10590774620E+02 -.11063233682E+02
 -.11882059145E+02 -.13088314497E+02 -.14706557706E+02 -.16708255966E+02 -.19055793318E+02
 -.21433032085E+02 -.23451591541E+02 -.24960587488E+02 -.25886092210E+02 -.26201947832E+02
 -.25886092210E+02 -.24960587488E+02 -.23451591541E+02 -.21433032085E+02 -.19055793318E+02
 -.16708255966E+02 -.14706557706E+02 -.13088314497E+02 -.11882059145E+02 -.11063233682E+02
 -.10590774620E+02 -.10201283196E+02 -.10309194091E+02 -.10633969582E+02 -.11194592499E+02
 -.12003569776E+02 -.13088314497E+02 -.14437257055E+02 -.15968937279E+02 -.17624622670E+02
 -.19214460237E+02 -.20487183276E+02 -.21297389840E+02 -.21571524460E+02 -.21297389840E+02
 -.20487183276E+02 -.19214460237E+02 -.17624622670E+02 -.15968937279E+02 -.14437257055E+02
 -.13088314497E+02 -.12003569776E+02 -.11194592499E+02 -.10633969582E+02 -.10309194091E+02
 -.10026101331E+02 -.10093554164E+02 -.10304655809E+02 -.10667873992E+02 -.11194592499E+02
 -.11882059145E+02 -.12741660135E+02 -.13736355564E+02 -.14765524329E+02 -.15751611961E+02
 -.16590344799E+02 -.17155522870E+02 -.17354316026E+02 -.17155522870E+02 -.16590344799E+02
 -.15751611961E+02 -.14765524329E+02 -.13736355564E+02 -.12741660135E+02 -.11882059145E+02
 -.11194592499E+02 -.10667873992E+02 -.10304655809E+02 -.10093554164E+02 -.99151717928E+01
 -.99552152511E+01 -.10081960504E+02 -.10304655809E+02 -.10633969582E+02 -.11063233682E+02
 -.11597508050E+02 -.12215711386E+02 -.12874366472E+02 -.13505424140E+02 -.14017949788E+02
 -.14355775962E+02 -.14473346937E+02 -.14355775962E+02 -.14017949788E+02 -.13505424140E+02
 -.12874366472E+02 -.12215711386E+02 -.11597508050E+02 -.11063233682E+02 -.10633969582E+02
 -.10304655809E+02 -.10081960504E+02 -.99552152511E+01 -.98558464834E+01 -.98783141268E+01
 -.99552152511E+01 -.10093554164E+02 -.10309194091E+02 -.10590774620E+02 -.10938099122E+02
 -.11360316035E+02 -.11793182802E+02 -.12204668611E+02 -.12558108890E+02 -.12792369001E+02
 -.12876546929E+02 -.12792369001E+02 -.12558108890E+02 -.12204668611E+02 -.11793182802E+02
 -.11360316035E+02 -.10938099122E+02 -.10590774620E+02 -.10309194091E+02 -.10093554164E+02
 -.99552152511E+01 -.98783141268E+01 -.85198921355E+01 -.85826849134E+01 -.87644288327E+01
 -.90622246304E+01 -.94622180967E+01 -.99689681996E+01 -.10557278232E+02 -.11194500740E+02
 -.11836454164E+02 -.12408989086E+02 -.12873842749E+02 -.13181074497E+02 -.13288550195E+02
 -.13181074497E+02 -.12873842749E+02 -.12408989086E+02 -.11836454164E+02 -.11194500740E+02
 -.10557278232E+02 -.99689681996E+01 -.94622180967E+01 -.90622246304E+01 -.87644288327E+01
 -.85826849134E+01 -.85826849134E+01 -.86499175867E+01 -.88481897967E+01 -.91718316991E+01
 -.96144668171E+01 -.10174740412E+02 -.10841347862E+02 -.11544985165E+02 -.12260424195E+02
 -.12939638894E+02 -.13485808231E+02 -.13841314695E+02 -.13961707944E+02 -.13841314695E+02
 -.13485808231E+02 -.12939638894E+02 -.12260424195E+02 -.11544985165E+02 -.10841347862E+02
 -.10174740412E+02 -.96144668171E+01 -.91718316991E+01 -.88481897967E+01 -.86499175867E+01
 -.87644288327E+01 -.88481897967E+01 -.90933481547E+01 -.95049160693E+01 -.10076403241E+02
 -.10818080887E+02 -.11686273815E+02 -.12649531314E+02 -.13641676283E+02 -.14543090442E+02
 -.15286863793E+02 -.15781015850E+02 -.15956079289E+02 -.15781015850E+02 -.15286863793E+02
 -.14543090442E+02 -.13641676283E+02 -.12649531314E+02 -.11686273815E+02 -.10818080887E+02
 -.10076403241E+02 -.95049160693E+01 -.90933481547E+01 -.88481897967E+01 -.90622246304E+01
 -.91718316991E+01 -.95049160693E+01 -.10067085077E+02 -.10873308881E+02 -.11920558253E+02
 -.13180132218E+02 -.14576715497E+02 -.16035661585E+02 -.17447279902E+02 -.18613586450E+02
 -.19371921728E+02 -.19633239127E+02 -.19371921728E+02 -.18613586450E+02 -.17447279902E+02
 -.16035661585E+02 -.14576715497E+02 -.13180132218E+02 -.11920558253E+02 -.10873308881E+02
 -.10067085077E+02 -.95049160693E+01 -.91718316991E+01 -.94622180967E+01 -.96144668171E+01
 -.10076403241E+02 -.10873308881E+02 -.12024637669E+02 -.13537499124E+02 -.15365158861E+02
 -.17489119791E+02 -.19713236272E+02 -.21681076383E+02 -.23179971156E+02 -.24105357614E+02
 -.24420055626E+02 -.24105357614E+02 -.23179971156E+02 -.21681076383E+02 -.19713236272E+02
 -.17489119791E+02 -.15365158861E+02 -.13537499124E+02 -.12024637669E+02 -.10873308881E+02
 -.10076403241E+02 -.96144668171E+01 -.99689681996E+01 -.10174740412E+02 -.10818080887E+02
 -.11920558253E+02 -.13537499124E+02 -.15672964689E+02 -.18371958388E+02 -.21350333881E+02
 -.24074138290E+02 -.26319439472E+02 -.27990066273E+02 -.29024295994E+02 -.29372752089E+02
 -.29024295994E+02 -.27990066273E+02 -.26319439472E+02 -.24074138290E+02 -.21350333881E+02
 -.18371958388E+02 -.15672964689E+02 -.13537499124E+02 -.11920558253E+02 -.10818080887E+02
 -.10174740412E+02 -.10557278232E+02 -.10841347862E+02 -.11686273815E+02 -.13180132218E+02
 -.15365158861E+02 -.18371958388E+02 -.21935666892E+02 -.25344389823E+02 -.28345610874E+02
 -.30846701630E+02 -.32715011663E+02 -.33872252901E+02 -.34259978861E+02 -.33872252901E+02
 -.32715011663E+02 -.30846701630E+02 -.28345610874E+02 -.25344389823E+02 -.21935666892E+02
 -.18371958388E+02 -.15365158861E+02 -.13180132218E+02 -.11686273815E+02 -.10841347862E+02
 -.11194500740E+02 -.11544985165E+02 -.12649531314E+02 -.14576715497E+02 -.17489119791E+02
 -.21350333881E+02 -.25344389823E+02 -.29050599539E+02 -.32378684678E+02 -.35099581315E+02
 -.37140713828E+02 -.38384693483E+02 -.38816137581E+02 -.38384693483E+02 -.37140713828E+02
 -.35099581315E+02 -.32378684678E+02 -.29050599539E+02 -.25344389823E+02 -.21350333881E+02
 -.17489119791E+02 -.14576715497E+02 -.12649531314E+02 -.11544985165E+02 -.11836454164E+02
 -.12260424195E+02 -.13641676283E+02 -.16035661585E+02 -.19713236272E+02 -.24074138290E+02
 -.28345610874E+02 -.32378684678E+02 -.35912347666E+02 -.38849085567E+02 -.41034760517E+02
 -.42387671877E+02 -.42838703828E+02 -.42387671877E+02 -.41034760517E+02 -.38849085567E+02
 -.35912347666E+02 -.32378684678E+02 -.28345610874E+02 -.24074138290E+02 -.19713236272E+02
 -.16035661585E+02 -.13641676283E+02 -.12260424195E+02 -.12408989086E+02 -.12939638894E+02
 -.14543090442E+02 -.17447279902E+02 -.21681076383E+02 -.26319439472E+02 -.30846701630E+02
 -.35099581315E+02 -.38849085567E+02 -.41964104383E+02 -.44248128852E+02 -.45670719898E+02
 -.46133422314E+02 -.45670719898E+02 -.44248128852E+02 -.41964104383E+02 -.38849085567E+02
 -.35099581315E+02 -.30846701630E+02 -.26319439472E+02 -.21681076383E+02 -.17447279902E+02
 -.14543090442E+02 -.12939638894E+02 -.12873842749E+02 -.13485808231E+02 -.15286863793E+02
 -.18613586450E+02 -.23179971156E+02 -.27990066273E+02 -.32715011663E+02 -.37140713828E+02
 -.41034760517E+02 -.44248128852E+02 -.46628973685E+02 -.48102585760E+02 -.48592637448E+02
 -.48102585760E+02 -.46628973685E+02 -.44248128852E+02 -.41034760517E+02 -.37140713828E+02
 -.32715011663E+02 -.27990066273E+02 -.23179971156E+02 -.18613586450E+02 -.15286863793E+02
 -.13485808231E+02 -.13181074497E+02 -.13841314695E+02 -.15781015850E+02 -.19371921728E+02
 -.24105357614E+02 -.29024295994E+02 -.33872252901E+02 -.38384693483E+02 -.42387671877E+02
 -.45670719898E+02 -.48102585760E+02 -.49598466767E+02 -.50103001639E+02 -.49598466767E+02
 -.48102585760E+02 -.45670719898E+02 -.42387671877E+02 -.38384693483E+02 -.33872252901E+02
 -.29024295994E+02 -.24105357614E+02 -.19371921728E+02 -.15781015850E+02 -.13841314695E+02
 -.13288550195E+02 -.13961707944E+02 -.15956079289E+02 -.19633239127E+02 -.24420055626E+02
 -.29372752089E+02 -.34259978861E+02 -.38816137581E+02 -.42838703828E+02 -.46133422314E+02
 -.48592637448E+02 -.50103001639E+02 -.50617356764E+02 -.50103001639E+02 -.48592637448E+02
 -.46133422314E+02 -.42838703828E+02 -.38816137581E+02 -.34259978861E+02 -.29372752089E+02
 -.24420055626E+02 -.19633239127E+02 -.15956079289E+02 -.13961707944E+02 -.13181074497E+02
 -.13841314695E+02 -.15781015850E+02 -.19371921728E+02 -.24105357614E+02 -.29024295994E+02
 -.33872252901E+02 -.38384693483E+02 -.42387671877E+02 -.45670719898E+02 -.48102585760E+02
 -.49598466767E+02 -.50103001639E+02 -.49598466767E+02 -.48102585760E+02 -.45670719898E+02
 -.42387671877E+02 -.38384693483E+02 -.33872252901E+02 -.29024295994E+02 -.24105357614E+02
 -.19371921728E+02 -.15781015850E+02 -.13841314695E+02 -.12873842749E+02 -.13485808231E+02
 -.15286863793E+02 -.18613586450E+02 -.23179971156E+02 -.27990066273E+02 -.32715011663E+02
 -.37140713828E+02 -.41034760517E+02 -.44248128852E+02 -.46628973685E+02 -.48102585760E+02
 -.48592637448E+02 -.48102585760E+02 -.46628973685E+02 -.44248128852E+02 -.41034760517E+02
 -.37140713828E+02 -.32715011663E+02 -.27990066273E+02 -.23179971156E+02 -.18613586450E+02
 -.15286863793E+02 -.13485808231E+02 -.12408989086E+02 -.12939638894E+02 -.14543090442E+02
 -.17447279902E+02 -.21681076383E+02 -.26319439472E+02 -.30846701630E+02 -.35099581315E+02
 -.38849085567E+02 -.41964104383E+02 -.44248128852E+02 -.45670719898E+02 -.46133422314E+02
 -.45670719898E+02 -.44248128852E+02 -.41964104383E+02 -.38849085567E+02 -.35099581315E+02
 -.30846701630E+02 -.26319439472E+02 -.21681076383E+02 -.17447279902E+02 -.14543090442E+02
 -.12939638894E+02 -.11836454164E+02 -.12260424195E+02 -.13641676283E+02 -.16035661585E+02
 -.19713236272E+02 -.24074138290E+02 -.28345610874E+02 -.32378684678E+02 -.35912347666E+02
 -.38849085567E+02 -.41034760517E+02 -.42387671877E+02 -.42838703828E+02 -.42387671877E+02
 -.41034760517E+02 -.38849085567E+02 -.35912347666E+02 -.32378684678E+02 -.28345610874E+02
 -.24074138290E+02 -.19713236272E+02 -.16035661585E+02 -.13641676283E+02 -.12260424195E+02
 -.11194500740E+02 -.11544985165E+02 -.12649531314E+02 -.14576715497E+02 -.17489119791E+02
 -.21350333881E+02 -.25344389823E+02 -.29050599539E+02 -.32378684678E+02 -.35099581315E+02
 -.37140713828E+02 -.38384693483E+02 -.38816137581E+02 -.38384693483E+02 -.37140713828E+02
 -.35099581315E+02 -.32378684678E+02 -.29050599539E+02 -.25344389823E+02 -.21350333881E+02
 -.17489119791E+02 -.14576715497E+02 -.12649531314E+02 -.11544985165E+02 -.10557278232E+02
 -.10841347862E+02 -.11686273815E+02 -.13180132218E+02 -.15365158861E+02 -.18371958388E+02
 -.21935666892E+02 -.25344389823E+02 -.28345610874E+02 -.30846701630E+02 -.32715011663E+02
 -.33872252901E+02 -.34259978861E+02 -.33872252901E+02 -.32715011663E+02 -.30846701630E+02
 -.28345610874E+02 -.25344389823E+02 -.21935666892E+02 -.18371958388E+02 -.15365158861E+02
 -.13180132218E+02 -.11686273815E+02 -.10841347862E+02 -.99689681996E+01 -.10174740412E+02
 -.10818080887E+02 -.11920558253E+02 -.13537499124E+02 -.15672964689E+02 -.18371958388E+02
 -.21350333881E+02 -.24074138290E+02 -.26319439472E+02 -.27990066273E+02 -.29024295994E+02
 -.29372752089E+02 -.29024295994E+02 -.27990066273E+02 -.26319439472E+02 -.24074138290E+02