   1   1   0   0
  0.1798157E+02  0.2858577E-09  0.2858577E-09  0.2858577E-09  0.5000000E-15
  1.000000000000000E-004
  CAR 
 Nb tetrahedron                          
    102.43978371    -32.18052237  301      4.83444123      1.00000000
    -32.181  0.0000E+00  0.0000E+00
    -31.732  0.0000E+00  0.0000E+00
    -31.283  0.0000E+00  0.0000E+00
    -30.834  0.0000E+00  0.0000E+00
    -30.386  0.0000E+00  0.0000E+00
    -29.937  0.0000E+00  0.0000E+00
    -29.488  0.0000E+00  0.0000E+00
    -29.039  0.0000E+00  0.0000E+00
    -28.591  0.0000E+00  0.0000E+00
    -28.142  0.0000E+00  0.0000E+00
    -27.693  0.0000E+00  0.0000E+00
    -27.244  0.0000E+00  0.0000E+00
    -26.796  0.0000E+00  0.0000E+00
    -26.347  0.0000E+00  0.0000E+00
    -25.898  0.3479E+01  0.3180E+00
    -25.450  0.3254E+01  0.2069E+01
    -25.001  0.4458E+01  0.4085E+01
    -24.552  0.0000E+00  0.6000E+01
    -24.103  0.0000E+00  0.6000E+01
    -23.655  0.0000E+00  0.6000E+01
    -23.206  0.0000E+00  0.6000E+01
    -22.757  0.0000E+00  0.6000E+01
    -22.308  0.0000E+00  0.6000E+01
    -21.860  0.0000E+00  0.6000E+01
    -21.411  0.0000E+00  0.6000E+01
    -20.962  0.0000E+00  0.6000E+01
    -20.513  0.0000E+00  0.6000E+01
    -20.065  0.0000E+00  0.6000E+01
    -19.616  0.0000E+00  0.6000E+01
    -19.167  0.0000E+00  0.6000E+01
    -18.718  0.0000E+00  0.6000E+01
    -18.270  0.0000E+00  0.6000E+01
    -17.821  0.0000E+00  0.6000E+01
    -17.372  0.0000E+00  0.6000E+01
    -16.924  0.0000E+00  0.6000E+01
    -16.475  0.0000E+00  0.6000E+01
    -16.026  0.0000E+00  0.6000E+01
    -15.577  0.0000E+00  0.6000E+01
    -15.129  0.0000E+00  0.6000E+01
    -14.680  0.0000E+00  0.6000E+01
    -14.231  0.0000E+00  0.6000E+01
    -13.782  0.0000E+00  0.6000E+01
    -13.334  0.0000E+00  0.6000E+01
    -12.885  0.0000E+00  0.6000E+01
    -12.436  0.0000E+00  0.6000E+01
    -11.987  0.0000E+00  0.6000E+01
    -11.539  0.0000E+00  0.6000E+01
    -11.090  0.0000E+00  0.6000E+01
    -10.641  0.0000E+00  0.6000E+01
    -10.193  0.0000E+00  0.6000E+01
     -9.744  0.0000E+00  0.6000E+01
     -9.295  0.0000E+00  0.6000E+01
     -8.846  0.0000E+00  0.6000E+01
     -8.398  0.0000E+00  0.6000E+01
     -7.949  0.0000E+00  0.6000E+01
     -7.500  0.0000E+00  0.6000E+01
     -7.051  0.0000E+00  0.6000E+01
     -6.603  0.0000E+00  0.6000E+01
     -6.154  0.0000E+00  0.6000E+01
     -5.705  0.0000E+00  0.6000E+01
     -5.256  0.0000E+00  0.6000E+01
     -4.808  0.0000E+00  0.6000E+01
     -4.359  0.0000E+00  0.6000E+01
     -3.910  0.0000E+00  0.6000E+01
     -3.462  0.0000E+00  0.6000E+01
     -3.013  0.0000E+00  0.6000E+01
     -2.564  0.0000E+00  0.6000E+01
     -2.115  0.0000E+00  0.6000E+01
     -1.667  0.0000E+00  0.6000E+01
     -1.218  0.0000E+00  0.6000E+01
     -0.769  0.3718E-01  0.6006E+01
     -0.320  0.6650E-01  0.6028E+01
      0.128  0.9751E-01  0.6064E+01
      0.577  0.1354E+00  0.6116E+01
      1.026  0.2128E+00  0.6192E+01
      1.475  0.1003E+01  0.6482E+01
      1.923  0.1226E+01  0.6973E+01
      2.372  0.1497E+01  0.7617E+01
      2.821  0.5445E+00  0.8110E+01
      3.269  0.1711E+01  0.8435E+01
      3.718  0.1471E+01  0.9374E+01
      4.167  0.9934E+00  0.9876E+01
      4.616  0.2480E+01  0.1052E+02
      5.064  0.1123E+01  0.1132E+02
      5.513  0.4835E+00  0.1161E+02
      5.962  0.4664E+00  0.1182E+02
      6.411  0.5406E+00  0.1203E+02
      6.859  0.9422E+00  0.1236E+02
      7.308  0.1104E+01  0.1280E+02
      7.757  0.1340E+01  0.1339E+02
      8.206  0.1410E+01  0.1403E+02
      8.654  0.1677E+01  0.1464E+02
      9.103  0.1287E+01  0.1563E+02
      9.552  0.7730E+00  0.1607E+02
     10.001  0.6762E+00  0.1639E+02
     10.449  0.4751E+00  0.1667E+02
     10.898  0.3100E+00  0.1684E+02
     11.347  0.3759E+00  0.1700E+02
     11.795  0.3270E+00  0.1715E+02
     12.244  0.3087E+00  0.1730E+02
     12.693  0.2946E+00  0.1743E+02
     13.142  0.2834E+00  0.1756E+02
     13.590  0.2610E+00  0.1768E+02
     14.039  0.2318E+00  0.1780E+02
     14.488  0.1748E+00  0.1789E+02
     14.937  0.1260E+00  0.1799E+02
     15.385  0.2412E+00  0.1804E+02
     15.834  0.4836E+00  0.1820E+02
     16.283  0.5298E+00  0.1842E+02
     16.732  0.5958E+00  0.1867E+02
     17.180  0.5641E+00  0.1895E+02
     17.629  0.6417E+00  0.1921E+02
     18.078  0.8588E+00  0.1954E+02
     18.526  0.8335E+00  0.1994E+02
     18.975  0.7905E+00  0.2030E+02
     19.424  0.7385E+00  0.2065E+02
     19.873  0.7117E+00  0.2097E+02
     20.321  0.5756E+00  0.2126E+02
     20.770  0.6573E+00  0.2153E+02
     21.219  0.7568E+00  0.2186E+02
     21.668  0.9011E+00  0.2220E+02
     22.116  0.7995E+00  0.2263E+02
     22.565  0.6974E+00  0.2296E+02
     23.014  0.5692E+00  0.2326E+02
     23.463  0.4471E+00  0.2348E+02
     23.911  0.4806E+00  0.2368E+02
     24.360  0.5843E+00  0.2393E+02
     24.809  0.7953E+00  0.2419E+02
     25.257  0.8343E+00  0.2465E+02
     25.706  0.6255E+00  0.2497E+02
     26.155  0.5559E+00  0.2524E+02
     26.604  0.5473E+00  0.2549E+02
     27.052  0.4854E+00  0.2572E+02
     27.501  0.4770E+00  0.2593E+02
     27.950  0.6063E+00  0.2618E+02
     28.399  0.5567E+00  0.2644E+02
     28.847  0.7832E+00  0.2673E+02
     29.296  0.8062E+00  0.2716E+02
     29.745  0.7112E+00  0.2749E+02
     30.194  0.7314E+00  0.2781E+02
     30.642  0.6369E+00  0.2813E+02
     31.091  0.6013E+00  0.2841E+02
     31.540  0.6373E+00  0.2869E+02
     31.988  0.7009E+00  0.2898E+02
     32.437  0.9238E+00  0.2934E+02
     32.886  0.9112E+00  0.2975E+02
     33.335  0.9392E+00  0.3014E+02
     33.783  0.8588E+00  0.3054E+02
     34.232  0.9031E+00  0.3096E+02
     34.681  0.7726E+00  0.3132E+02
     35.130  0.6955E+00  0.3167E+02
     35.578  0.5292E+00  0.3195E+02
     36.027  0.5291E+00  0.3218E+02
     36.476  0.5801E+00  0.3243E+02
     36.925  0.7910E+00  0.3272E+02
     37.373  0.1133E+01  0.3316E+02
     37.822  0.1052E+01  0.3367E+02
     38.271  0.9241E+00  0.3412E+02
     38.720  0.6684E+00  0.3447E+02
     39.168  0.6864E+00  0.3477E+02
     39.617  0.8832E+00  0.3512E+02
     40.066  0.6615E+00  0.3551E+02
     40.514  0.7416E+00  0.3582E+02
     40.963  0.8368E+00  0.3620E+02
     41.412  0.1110E+01  0.3662E+02
     41.861  0.2003E+01  0.3736E+02
     42.309  0.2559E+01  0.3864E+02
     42.758  0.1460E+01  0.3944E+02
     43.207  0.1081E+01  0.3994E+02
     43.656  0.1254E+01  0.4046E+02
     44.104  0.1135E+01  0.4099E+02
     44.553  0.1023E+01  0.4148E+02
     45.002  0.9141E+00  0.4193E+02
     45.451  0.9908E+00  0.4232E+02
     45.899  0.7961E+00  0.4274E+02
     46.348  0.6494E+00  0.4305E+02
     46.797  0.5399E+00  0.4332E+02
     47.245  0.6061E+00  0.4356E+02
     47.694  0.1086E+01  0.4395E+02
     48.143  0.7984E+00  0.4437E+02
     48.592  0.7575E+00  0.4471E+02
     49.040  0.5785E+00  0.4501E+02
     49.489  0.7503E+00  0.4532E+02
     49.938  0.8268E+00  0.4568E+02
     50.387  0.1082E+01  0.4611E+02
     50.835  0.9725E+00  0.4655E+02
     51.284  0.9092E+00  0.4699E+02
     51.733  0.9633E+00  0.4743E+02
     52.182  0.8553E+00  0.4782E+02
     52.630  0.8742E+00  0.4821E+02
     53.079  0.1031E+01  0.4863E+02
     53.528  0.8075E+00  0.4905E+02
     53.976  0.8883E+00  0.4940E+02
     54.425  0.8703E+00  0.4980E+02
     54.874  0.8350E+00  0.5019E+02
     55.323  0.9665E+00  0.5063E+02
     55.771  0.9690E+00  0.5106E+02
     56.220  0.9767E+00  0.5149E+02
     56.669  0.1050E+01  0.5195E+02
     57.118  0.9589E+00  0.5239E+02
     57.566  0.9030E+00  0.5282E+02
     58.015  0.9934E+00  0.5325E+02
     58.464  0.1093E+01  0.5370E+02
     58.913  0.1129E+01  0.5419E+02
     59.361  0.1081E+01  0.5468E+02
     59.810  0.1089E+01  0.5518E+02
     60.259  0.1035E+01  0.5564E+02
     60.707  0.1060E+01  0.5613E+02
     61.156  0.9736E+00  0.5658E+02
     61.605  0.9479E+00  0.5700E+02
     62.054  0.1149E+01  0.5747E+02
     62.502  0.1071E+01  0.5797E+02
     62.951  0.6710E+00  0.5836E+02
     63.400  0.7373E+00  0.5866E+02
     63.849  0.1075E+01  0.5906E+02
     64.297  0.1229E+01  0.5962E+02
     64.746  0.8757E+00  0.6009E+02
     65.195  0.7708E+00  0.6042E+02
     65.644  0.9843E+00  0.6081E+02
     66.092  0.1073E+01  0.6128E+02
     66.541  0.1097E+01  0.6178E+02
     66.990  0.9236E+00  0.6224E+02
     67.439  0.9121E+00  0.6264E+02
     67.887  0.1127E+01  0.6312E+02
     68.336  0.1226E+01  0.6363E+02
     68.785  0.9537E+00  0.6412E+02
     69.233  0.9429E+00  0.6453E+02
     69.682  0.9287E+00  0.6495E+02
     70.131  0.9277E+00  0.6538E+02
     70.580  0.1044E+01  0.6581E+02
     71.028  0.9643E+00  0.6627E+02
     71.477  0.1032E+01  0.6671E+02
     71.926  0.1069E+01  0.6718E+02
     72.375  0.1266E+01  0.6769E+02
     72.823  0.1110E+01  0.6824E+02
     73.272  0.1048E+01  0.6872E+02
     73.721  0.1039E+01  0.6920E+02
     74.170  0.9661E+00  0.6962E+02
     74.618  0.1040E+01  0.7011E+02
     75.067  0.1123E+01  0.7056E+02
     75.516  0.1066E+01  0.7104E+02
     75.964  0.1059E+01  0.7152E+02
     76.413  0.1184E+01  0.7197E+02
     76.862  0.1114E+01  0.7246E+02
     77.311  0.1149E+01  0.7296E+02
     77.759  0.1075E+01  0.7346E+02
     78.208  0.1109E+01  0.7394E+02
     78.657  0.1089E+01  0.7443E+02
     79.106  0.1146E+01  0.7492E+02
     79.554  0.1094E+01  0.7543E+02
     80.003  0.8516E+00  0.7585E+02
     80.452  0.9317E+00  0.7625E+02
     80.901  0.1102E+01  0.7670E+02
     81.349  0.1123E+01  0.7721E+02
     81.798  0.9782E+00  0.7769E+02
     82.247  0.1201E+01  0.7815E+02
     82.695  0.1137E+01  0.7868E+02
     83.144  0.7314E+00  0.7913E+02
     83.593  0.4680E+00  0.7939E+02
     84.042  0.3287E+00  0.7956E+02
     84.490  0.2640E+00  0.7970E+02
     84.939  0.1579E+00  0.7980E+02
     85.388  0.8721E-01  0.7985E+02
     85.837  0.5521E-01  0.7988E+02
     86.285  0.4258E-01  0.7990E+02
     86.734  0.3242E-01  0.7992E+02
     87.183  0.2463E-01  0.7993E+02
     87.632  0.1777E-01  0.7994E+02
     88.080  0.1352E-01  0.7995E+02
     88.529  0.1274E-01  0.7995E+02
     88.978  0.1237E-01  0.7996E+02
     89.426  0.1169E-01  0.7996E+02
     89.875  0.1104E-01  0.7997E+02
     90.324  0.1090E-01  0.7997E+02
     90.773  0.9510E-02  0.7998E+02
     91.221  0.5632E-02  0.7998E+02
     91.670  0.5172E-02  0.7998E+02
     92.119  0.4730E-02  0.7999E+02
     92.568  0.4304E-02  0.7999E+02
     93.016  0.3895E-02  0.7999E+02
     93.465  0.3503E-02  0.7999E+02
     93.914  0.3129E-02  0.7999E+02
     94.363  0.2771E-02  0.7999E+02
     94.811  0.2430E-02  0.8000E+02
     95.260  0.2106E-02  0.8000E+02
     95.709  0.1799E-02  0.8000E+02
     96.158  0.4165E-02  0.8000E+02
     96.606  0.0000E+00  0.8000E+02
     97.055  0.0000E+00  0.8000E+02
     97.504  0.0000E+00  0.8000E+02
     97.952  0.0000E+00  0.8000E+02
     98.401  0.0000E+00  0.8000E+02
     98.850  0.0000E+00  0.8000E+02
     99.299  0.0000E+00  0.8000E+02
     99.747  0.0000E+00  0.8000E+02
    100.196  0.0000E+00  0.8000E+02
    100.645  0.0000E+00  0.8000E+02
    101.094  0.0000E+00  0.8000E+02
    101.542  0.0000E+00  0.8000E+02
    101.991  0.0000E+00  0.8000E+02
    102.440  0.0000E+00  0.8000E+02
