Automatically generated mesh
     140
Reciprocal lattice
    0.03125000000000    0.03125000000000    0.03125000000000             8
    0.09375000000000    0.03125000000000    0.03125000000000            24
    0.15625000000000    0.03125000000000    0.03125000000000            24
    0.21875000000000    0.03125000000000    0.03125000000000            24
    0.28125000000000    0.03125000000000    0.03125000000000            24
    0.34375000000000    0.03125000000000    0.03125000000000            24
    0.40625000000000    0.03125000000000    0.03125000000000            24
    0.46875000000000    0.03125000000000    0.03125000000000            12
   -0.03125000000000    0.03125000000000    0.03125000000000             6
    0.09375000000000    0.09375000000000    0.03125000000000            24
    0.15625000000000    0.09375000000000    0.03125000000000            48
    0.21875000000000    0.09375000000000    0.03125000000000            48
    0.28125000000000    0.09375000000000    0.03125000000000            48
    0.34375000000000    0.09375000000000    0.03125000000000            48
    0.40625000000000    0.09375000000000    0.03125000000000            48
   -0.09375000000000    0.09375000000000    0.03125000000000            24
    0.15625000000000    0.15625000000000    0.03125000000000            24
    0.21875000000000    0.15625000000000    0.03125000000000            48
    0.28125000000000    0.15625000000000    0.03125000000000            48
    0.34375000000000    0.15625000000000    0.03125000000000            48
    0.40625000000000    0.15625000000000    0.03125000000000            24
   -0.15625000000000    0.15625000000000    0.03125000000000            24
   -0.09375000000000    0.15625000000000    0.03125000000000            24
    0.21875000000000    0.21875000000000    0.03125000000000            24
    0.28125000000000    0.21875000000000    0.03125000000000            48
    0.34375000000000    0.21875000000000    0.03125000000000            48
   -0.21875000000000    0.21875000000000    0.03125000000000            24
   -0.15625000000000    0.21875000000000    0.03125000000000            48
    0.28125000000000    0.28125000000000    0.03125000000000            24
    0.34375000000000    0.28125000000000    0.03125000000000            24
   -0.28125000000000    0.28125000000000    0.03125000000000            24
   -0.21875000000000    0.28125000000000    0.03125000000000            48
   -0.15625000000000    0.28125000000000    0.03125000000000            24
   -0.34375000000000    0.34375000000000    0.03125000000000            24
   -0.28125000000000    0.34375000000000    0.03125000000000            48
   -0.21875000000000    0.34375000000000    0.03125000000000            48
   -0.40625000000000    0.40625000000000    0.03125000000000            24
   -0.34375000000000    0.40625000000000    0.03125000000000            48
   -0.28125000000000    0.40625000000000    0.03125000000000            48
   -0.21875000000000    0.40625000000000    0.03125000000000            24
   -0.46875000000000    0.46875000000000    0.03125000000000            24
   -0.40625000000000    0.46875000000000    0.03125000000000            48
   -0.34375000000000    0.46875000000000    0.03125000000000            48
   -0.28125000000000    0.46875000000000    0.03125000000000            48
   -0.46875000000000   -0.46875000000000    0.03125000000000            24
   -0.40625000000000   -0.46875000000000    0.03125000000000            48
   -0.34375000000000   -0.46875000000000    0.03125000000000            48
   -0.28125000000000   -0.46875000000000    0.03125000000000            24
   -0.40625000000000   -0.40625000000000    0.03125000000000            24
   -0.34375000000000   -0.40625000000000    0.03125000000000            48
   -0.34375000000000   -0.34375000000000    0.03125000000000             8
    0.09375000000000    0.09375000000000    0.09375000000000             8
    0.15625000000000    0.09375000000000    0.09375000000000            24
    0.21875000000000    0.09375000000000    0.09375000000000            24
    0.28125000000000    0.09375000000000    0.09375000000000            24
    0.34375000000000    0.09375000000000    0.09375000000000            24
    0.40625000000000    0.09375000000000    0.09375000000000            12
   -0.09375000000000    0.09375000000000    0.09375000000000             6
    0.15625000000000    0.15625000000000    0.09375000000000            24
    0.21875000000000    0.15625000000000    0.09375000000000            48
    0.28125000000000    0.15625000000000    0.09375000000000            48
    0.34375000000000    0.15625000000000    0.09375000000000            48
   -0.15625000000000    0.15625000000000    0.09375000000000            24
    0.21875000000000    0.21875000000000    0.09375000000000            24
    0.28125000000000    0.21875000000000    0.09375000000000            48
    0.34375000000000    0.21875000000000    0.09375000000000            24
   -0.21875000000000    0.21875000000000    0.09375000000000            24
   -0.15625000000000    0.21875000000000    0.09375000000000            24
    0.28125000000000    0.28125000000000    0.09375000000000            24
   -0.28125000000000    0.28125000000000    0.09375000000000            24
   -0.21875000000000    0.28125000000000    0.09375000000000            48
   -0.34375000000000    0.34375000000000    0.09375000000000            24
   -0.28125000000000    0.34375000000000    0.09375000000000            48
   -0.21875000000000    0.34375000000000    0.09375000000000            24
   -0.40625000000000    0.40625000000000    0.09375000000000            24
   -0.34375000000000    0.40625000000000    0.09375000000000            48
   -0.28125000000000    0.40625000000000    0.09375000000000            48
   -0.46875000000000    0.46875000000000    0.09375000000000            24
   -0.40625000000000    0.46875000000000    0.09375000000000            48
   -0.34375000000000    0.46875000000000    0.09375000000000            48
   -0.28125000000000    0.46875000000000    0.09375000000000            24
   -0.46875000000000   -0.46875000000000    0.09375000000000            24
   -0.40625000000000   -0.46875000000000    0.09375000000000            48
   -0.34375000000000   -0.46875000000000    0.09375000000000            48
   -0.40625000000000   -0.40625000000000    0.09375000000000            24
   -0.34375000000000   -0.40625000000000    0.09375000000000            24
    0.15625000000000    0.15625000000000    0.15625000000000             8
    0.21875000000000    0.15625000000000    0.15625000000000            24
    0.28125000000000    0.15625000000000    0.15625000000000            24
    0.34375000000000    0.15625000000000    0.15625000000000            12
   -0.15625000000000    0.15625000000000    0.15625000000000             6
    0.21875000000000    0.21875000000000    0.15625000000000            24
    0.28125000000000    0.21875000000000    0.15625000000000            48
   -0.21875000000000    0.21875000000000    0.15625000000000            24
    0.28125000000000    0.28125000000000    0.15625000000000             8
   -0.28125000000000    0.28125000000000    0.15625000000000            24
   -0.21875000000000    0.28125000000000    0.15625000000000            24
   -0.34375000000000    0.34375000000000    0.15625000000000            24
   -0.28125000000000    0.34375000000000    0.15625000000000            48
   -0.40625000000000    0.40625000000000    0.15625000000000            24
   -0.34375000000000    0.40625000000000    0.15625000000000            48
   -0.28125000000000    0.40625000000000    0.15625000000000            24
   -0.46875000000000    0.46875000000000    0.15625000000000            24
   -0.40625000000000    0.46875000000000    0.15625000000000            48
   -0.34375000000000    0.46875000000000    0.15625000000000            48
   -0.46875000000000   -0.46875000000000    0.15625000000000            24
   -0.40625000000000   -0.46875000000000    0.15625000000000            48
   -0.34375000000000   -0.46875000000000    0.15625000000000            24
   -0.40625000000000   -0.40625000000000    0.15625000000000            24
    0.21875000000000    0.21875000000000    0.21875000000000             8
    0.28125000000000    0.21875000000000    0.21875000000000            12
   -0.21875000000000    0.21875000000000    0.21875000000000             6
   -0.28125000000000    0.28125000000000    0.21875000000000            24
   -0.34375000000000    0.34375000000000    0.21875000000000            24
   -0.28125000000000    0.34375000000000    0.21875000000000            24
   -0.40625000000000    0.40625000000000    0.21875000000000            24
   -0.34375000000000    0.40625000000000    0.21875000000000            48
   -0.46875000000000    0.46875000000000    0.21875000000000            24
   -0.40625000000000    0.46875000000000    0.21875000000000            48
   -0.34375000000000    0.46875000000000    0.21875000000000            24
   -0.46875000000000   -0.46875000000000    0.21875000000000            24
   -0.40625000000000   -0.46875000000000    0.21875000000000            48
   -0.40625000000000   -0.40625000000000    0.21875000000000             8
   -0.28125000000000    0.28125000000000    0.28125000000000             6
   -0.34375000000000    0.34375000000000    0.28125000000000            24
   -0.40625000000000    0.40625000000000    0.28125000000000            24
   -0.34375000000000    0.40625000000000    0.28125000000000            24
   -0.46875000000000    0.46875000000000    0.28125000000000            24
   -0.40625000000000    0.46875000000000    0.28125000000000            48
   -0.46875000000000   -0.46875000000000    0.28125000000000            24
   -0.40625000000000   -0.46875000000000    0.28125000000000            24
   -0.34375000000000    0.34375000000000    0.34375000000000             6
   -0.40625000000000    0.40625000000000    0.34375000000000            24
   -0.46875000000000    0.46875000000000    0.34375000000000            24
   -0.40625000000000    0.46875000000000    0.34375000000000            24
   -0.46875000000000   -0.46875000000000    0.34375000000000            24
   -0.40625000000000    0.40625000000000    0.40625000000000             6
   -0.46875000000000    0.46875000000000    0.40625000000000            24
   -0.46875000000000   -0.46875000000000    0.40625000000000             8
   -0.46875000000000    0.46875000000000    0.46875000000000             6
Tetrahedra
      4772    0.00004069010417
         4         1         2         2        10
         8         2         2        10        10
         4         2        10        10        52
         4         2         3        10        11
         4         2        10        10        11
        12        10        10        11        52
         8         3        10        11        11
         8        10        11        11        53
         8        10        11        52        53
         4         3         4        11        12
         4         3        11        11        12
        12        11        11        12        53
         8         4        11        12        12
         4        11        12        12        54
         4        11        12        53        54
         4         4         5        12        13
         4         4        12        12        13
         8        12        12        13        54
         8         5        12        13        13
         4        12        13        13        55
         4        12        13        54        55
         4         5         6        13        14
         4         5        13        13        14
         8        13        13        14        55
         8         6        13        14        14
         4        13        14        14        56
         4        13        14        55        56
         4         6         7        14        15
         4         6        14        14        15
         8        14        14        15        56
         8         7        14        15        15
         4        14        15        15        57
         4        14        15        56        57
         4         7         8        15        15
         4         7        15        15        15
         8        15        15        15        57
         8         8        15        15        15
         4        15        15        15        56
         4        15        15        56        57
         4         7         8        14        15
         4         8        14        15        15
         8        14        15        15        56
         8         7        14        14        15
         4        14        14        15        55
         4        14        15        55        56
         4         6         7        13        14
         4         7        13        14        14
         8        13        14        14        55
         8         6        13        13        14
         4        13        13        14        54
         4        13        14        54        55
         4         5         6        12        13
         4         6        12        13        13
         8        12        13        13        54
         8         5        12        12        13
         4        12        12        13        53
         4        12        13        53        54
         4         4         5        11        12
         4         5        11        12        12
         8        11        12        12        53
         8         4        11        11        12
         4        11        11        12        52
         4        11        12        52        53
         4         3         4        10        11
         4         4        10        11        11
        16        10        11        11        52
         8         3        10        10        11
         4        10        10        10        11
         4         2         2         3        10
         8         2         3        10        10
         4         2        10        10        10
         4         2         2         2        10
         8         2         2        10        23
         4         2        10        10        23
        16         1         2         2        16
         4         2         2         2        16
        12         2         2        16        23
        16         1         2        16        16
         4         2        16        16        58
         4         2        16        23        58
        20         1         9        16        16
         4         1        16        16        16
         4        16        16        16        58
         8         9        16        16        16
         4        16        16        16        23
         4        16        16        23        58
         8         1         2         9        16
         8         2         9        16        16
         8         2        16        16        23
         4         2         2        10        16
         4         2        10        16        23
         4        10        11        17        52
        12        11        17        52        53
         4        17        52        53        59
         4        11        12        18        53
         4        11        17        18        53
         8        17        18        53        59
        12        12        18        53        54
         4        18        53        54        60
         4        18        53        59        60
         4        12        13        19        54
         4        12        18        19        54
         8        18        19        54        60
        12        13        19        54        55
         4        19        54        55        61
         4        19        54        60        61
         4        13        14        20        55
         4        13        19        20        55
         8        19        20        55        61
        12        14        20        55        56
         4        20        55        56        62
         4        20        55        61        62
         4        14        15        21        56
         4        14        20        21        56
         8        20        21        56        62
        16        15        21        56        57
        16        21        56        57        62
         8        21        56        62        62
         8        15        15        20        57
        12        15        20        21        57
        12        20        21        57        62
        12        15        20        56        57
         4        20        56        57        61
         4        20        57        61        62
         4        14        15        19        56
         4        15        19        20        56
         8        19        20        56        61
        12        14        19        55        56
         4        19        55        56        60
         4        19        56        60        61
         4        13        14        18        55
         4        14        18        19        55
         8        18        19        55        60
        12        13        18        54        55
         4        18        54        55        59
         4        18        55        59        60
         4        12        13        17        54
         4        13        17        18        54
        12        17        18        54        59
        12        12        17        53        54
         4        17        53        53        54
        16        17        53        54        59
        16        11        12        17        53
         8        11        17        53        53
        16        11        11        52        53
         4        11        11        53        53
        12         3        10        11        52
         8         3        11        11        52
         8         3        10        10        52
         4         3        10        28        52
         4         3        11        28        52
         4         2        10        10        22
         4         3        10        10        22
         8         3        10        22        28
        12         2        10        22        23
         4        10        22        23        63
         4        10        22        28        63
         4         2        16        23        23
         4         2        22        23        23
         4        22        23        23        63
         8        16        23        23        58
         8        23        23        58        63
         4        23        23        63        63
         4        16        16        22        58
        12        16        22        23        58
        12        22        23        58        63
         4        22        23        28        58
         4        22        28        58        63
         4         2         3        16        23
         4         3        16        22        23
         8         3        22        23        28
        16         2         3        10        23
         4         3        10        11        23
         4         3        11        23        28
         4        17        18        24        59
         8        18        24        59        60
         4        24        59        60        64
         4        18        19        25        60
         4        18        24        25        60
         8        24        25        60        64
         8        19        25        60        61
         4        25        60        61        65
         4        25        60        64        65
         4        19        20        26        61
         4        19        25        26        61
         8        25        26        61        65
         8        20        26        61        62
         4        26        61        62        66
         4        26        61        65        66
         8        20        21        26        62
         4        20        26        26        62
         8        26        26        62        66
         8        21        26        62        62
         4        26        62        62        65
         8        26        62        65        66
         4        20        21        25        62
         4        21        25        26        62
         8        25        26        62        65
         8        20        25        61        62
         4        25        61        62        64
         4        25        62        64        65
         4        19        20        24        61
         4        20        24        25        61
        12        24        25        61        64
         8        19        24        60        61
         4        24        60        60        61
        12        24        60        61        64
         4        18        18        19        60
         8        18        19        24        60
         8        18        24        60        60
         8        18        18        59        60
        16        18        54        59        60
         4        18        54        60        60
        12        12        17        18        59
         4        12        18        18        59
         8        12        18        54        59
        12        12        17        53        59
         4        12        12        53        59
         4        12        12        54        59
         4         4        11        17        53
         4         4        12        17        53
         4         4        12        12        53
         4         4        11        11        53
         4         4        11        32        53
         4         4        12        32        53
         4         3        11        11        27
         4         4        11        11        27
         8         4        11        27        32
         8         3        11        27        28
         4        11        27        28        67
         4        11        27        32        67
         4         3        22        28        28
         4         3        27        28        28
         4        27        28        28        67
         8        22        28        28        63
        12        28        28        63        68
         4        28        28        67        68
         8        22        23        28        63
         8        23        28        63        63
         4        28        63        63        67
         8        28        63        67        68
         4        22        23        27        63
         4        23        27        28        63
         8        27        28        63        67
         8        22        27        28        63
         4        27        28        32        63
         4        27        32        63        67
         4         3         4        22        28
         4         4        22        27        28
         8         4        27        28        32
        12         3         4        11        28
         4         4        11        12        28
         4         4        12        28        32
         4        24        25        29        64
         8        25        29        64        65
         4        29        64        65        69
         4        25        26        30        65
         4        25        29        30        65
         8        29        30        65        69
        12        26        30        65        66
        12        30        65        66        69
         4        30        65        69        69
         4        26        26        29        66
        12        26        29        30        66
        16        29        30        66        69
         8        26        29        65        66
         4        29        65        65        66
        12        29        65        66        69
         4        25        25        26        65
         8        25        26        29        65
         8        25        29        65        65
         8        25        25        64        65
         8        25        61        64        65
         4        25        61        65        65
        12        19        24        25        64
         4        19        25        25        64
         8        19        25        61        64
        12        19        24        60        64
         4        19        55        60        64
         4        19        55        61        64
         4        13        18        24        60
         4        13        19        24        60
         8        13        19        55        60
         8        13        18        54        60
         4        13        13        54        60
         4        13        13        55        60
         4         5        12        18        54
         4         5        13        18        54
         4         5        13        13        54
         4         5        12        12        54
         4         5        12        35        54
         4         5        13        35        54
         4         4        12        12        31
         4         5        12        12        31
         8         5        12        31        35
         8         4        12        31        32
         4        12        31        32        70
         4        12        31        35        70
         4         4        27        32        32
         4         4        31        32        32
         4        31        32        32        70
         4        27        32        32        67
         4        32        32        67        71
         4        32        32        70        71
         4        27        28        33        67
         4        27        32        33        67
         8        32        33        67        71
        12        28        33        67        68
        12        33        67        68        71
         4        33        67        71        71
         4        28        28        32        68
        12        28        32        33        68
        12        32        33        68        71
         8        28        32        67        68
         4        32        67        68        70
         4        32        68        70        71
         4        27        28        31        67
         4        28        31        32        67
         8        31        32        67        70
         8        27        31        32        67
         4        31        32        35        67
         4        31        35        67        70
         4         4         5        27        32
         4         5        27        31        32
         8         5        31        32        35
        12         4         5        12        32
         4         5        12        13        32
         4         5        13        32        35
         8        29        30        30        69
         8        30        30        69        69
         8        30        66        69        69
        12        26        29        30        69
         4        26        30        30        69
         8        26        30        66        69
        12        26        29        65        69
         4        26        62        65        69
         4        26        62        66        69
         4        20        25        29        65
         4        20        26        29        65
         8        20        26        62        65
         8        20        25        61        65
         4        20        56        61        65
         4        20        56        62        65
         4        14        19        25        61
         4        14        20        25        61
         8        14        20        56        61
         8        14        19        55        61
         4        14        14        55        61
         4        14        14        56        61
         4         6        13        19        55
         4         6        14        19        55
         4         6        14        14        55
         4         6        13        13        55
         4         6        13        38        55
         4         6        14        38        55
         4         5        13        13        34
         4         6        13        13        34
         8         6        13        34        38
         8         5        13        34        35
         4        13        34        35        72
         4        13        34        38        72
         4         5        31        35        35
         4         5        34        35        35
         4        34        35        35        72
         4        31        35        35        70
         4        35        35        70        73
         4        35        35        72        73
         4        31        32        36        70
         4        31        35        36        70
         8        35        36        70        73
         8        32        36        70        71
         4        36        70        71        74
         4        36        70        73        74
         8        32        33        36        71
         4        32        36        36        71
         8        36        36        71        74
         8        33        36        71        71
         4        36        71        71        73
         8        36        71        73        74
         4        32        33        35        71