 vasp.5.4.4.18Apr17-6-g9f103f2a35 (build May 20 2018 16:52:39) complex          
  
 executed on             LinuxIFC date 2022.11.17  22:01:40
 running on   40 total cores
 distrk:  each k-point on   40 cores,    1 groups
 distr:  one band on NCORES_PER_BAND=   1 cores,   40 groups


--------------------------------------------------------------------------------------------------------


 INCAR:
 POTCAR:    PAW Nb_pv 09Jan2002                   

 ----------------------------------------------------------------------------- 
|                                                                             |
|           W    W    AA    RRRRR   N    N  II  N    N   GGGG   !!!           |
|           W    W   A  A   R    R  NN   N  II  NN   N  G    G  !!!           |
|           W    W  A    A  R    R  N N  N  II  N N  N  G       !!!           |
|           W WW W  AAAAAA  RRRRR   N  N N  II  N  N N  G  GGG   !            |
|           WW  WW  A    A  R   R   N   NN  II  N   NN  G    G                |
|           W    W  A    A  R    R  N    N  II  N    N   GGGG   !!!           |
|                                                                             |
|      For optimal performance we recommend to set                            |
|        NCORE= 4 - approx SQRT( number of cores)                             |
|      NCORE specifies how many cores store one orbital (NPAR=cpu/NCORE).     |
|      This setting can  greatly improve the performance of VASP for DFT.     |
|      The default,   NCORE=1            might be grossly inefficient         |
|      on modern multi-core architectures or massively parallel machines.     |
|      Do your own testing !!!!                                               |
|      Unfortunately you need to use the default for GW and RPA calculations. |
|      (for HF NCORE is supported but not extensively tested yet)             |
|                                                                             |
 ----------------------------------------------------------------------------- 

 POTCAR:    PAW Nb_pv 09Jan2002                   
   VRHFIN =Nb: s1d4                                                             
   LEXCH  = CA                                                                  
   EATOM  =  1046.3740 eV,   76.9063 Ry                                         
                                                                                
   TITEL  = PAW Nb_pv 09Jan2002                                                 
   LULTRA =        F    use ultrasoft PP ?                                      
   IUNSCR =        1    unscreen: 0-lin 1-nonlin 2-no                           
   RPACOR =    2.200    partial core radius                                     
   POMASS =   92.910; ZVAL   =   11.000    mass and valenz                      
   RCORE  =    2.750    outmost cutoff radius                                   
   RWIGS  =    2.840; RWIGS  =    1.503    wigner-seitz radius (au A)           
   ENMAX  =  207.263; ENMIN  =  155.447 eV                                      
   RCLOC  =    2.209    cutoff for local pot                                    
   LCOR   =        T    correct aug charges                                     
   LPAW   =        T    paw PP                                                  
   EAUG   =  352.745                                                            
   DEXC   =    0.000                                                            
   RMAX   =    2.814    core radius for proj-oper                               
   RAUG   =    1.300    factor for augmentation sphere                          
   RDEP   =    2.785    radius for radial grids                                 
   RDEPT  =    2.205    core radius for aug-charge                              
                                                                                
   Atomic configuration                                                         
   11 entries                                                                   
     n  l   j            E        occ.                                          
     1  0  0.50    -18704.9804   2.0000                                         
     2  0  0.50     -2619.6337   2.0000                                         
     2  1  1.50     -2343.2033   6.0000                                         
     3  0  0.50      -436.6391   2.0000                                         
     3  1  1.50      -345.9106   6.0000                                         
     3  2  2.50      -196.5794  10.0000                                         
     4  0  0.50       -58.2950   2.0000                                         
     4  1  1.50       -34.5590   6.0000                                         
     4  2  2.50        -3.2208   4.0000                                         
     5  0  0.50        -4.1880   1.0000                                         
     4  3  2.50        -1.3606   0.0000                                         
   Description                                                                  
     l       E           TYP  RCUT    TYP  RCUT                                 
     1    -34.5590103     23  2.600                                             
     1     -1.3605826     23  2.600                                             
     2     -3.2207521     23  2.600                                             
     2     -1.6263194     23  2.600                                             
     0     -4.1879630     23  2.750                                             
     0     20.4087390     23  2.750                                             
  local pseudopotential read in
  partial core-charges read in
  partial kinetic energy density read in
  atomic valenz-charges read in
  non local Contribution for L=           1  read in
    real space projection operators read in
  non local Contribution for L=           1  read in
    real space projection operators read in
  non local Contribution for L=           2  read in
    real space projection operators read in
  non local Contribution for L=           2  read in
    real space projection operators read in
  non local Contribution for L=           0  read in
    real space projection operators read in
  non local Contribution for L=           0  read in
    real space projection operators read in
    PAW grid and wavefunctions read in
 
   number of l-projection  operators is LMAX  =           6
   number of lm-projection operators is LMMAX =          18
 
  PAW Nb_pv 09Jan2002                   :
 energy of atom  1       EATOM=-1046.3740
 kinetic energy error for atom=    0.0109 (will be added to EATOM!!)
 
 
 POSCAR: primitive Nb                            
  positions in direct lattice
  No initial velocities read in
 exchange correlation table for  LEXCH =        2
   RHO(1)=    0.500       N(1)  =     2000
   RHO(2)=  100.500       N(2)  =     4000
 


--------------------------------------------------------------------------------------------------------


 ion  position               nearest neighbor table
   1  0.000  0.000  0.000-
 
  LATTYP: Found a body centered cubic cell.
 ALAT       =     3.3008000000
  
  Lattice vectors:
  
 A1 = (  -1.6504000000,   1.6504000000,   1.6504000000)
 A2 = (   1.6504000000,  -1.6504000000,   1.6504000000)
 A3 = (   1.6504000000,   1.6504000000,  -1.6504000000)


Analysis of symmetry for initial positions (statically):
=====================================================================
 Subroutine PRICEL returns:
 Original cell was already a primitive cell.
 

 Routine SETGRP: Setting up the symmetry group for a 
 body centered cubic supercell.


 Subroutine GETGRP returns: Found 48 space group operations
 (whereof 48 operations were pure point group operations)
 out of a pool of 48 trial point group operations.


The static configuration has the point symmetry O_h .


Analysis of symmetry for dynamics (positions and initial velocities):
=====================================================================
 Subroutine PRICEL returns:
 Original cell was already a primitive cell.
 

 Routine SETGRP: Setting up the symmetry group for a 
 body centered cubic supercell.


 Subroutine GETGRP returns: Found 48 space group operations
 (whereof 48 operations were pure point group operations)
 out of a pool of 48 trial point group operations.


The dynamic configuration has the point symmetry O_h .


 Subroutine INISYM returns: Found 48 space group operations
 (whereof 48 operations are pure point group operations),
 and found     1 'primitive' translations

 
 
 KPOINTS: 16*16*16                                

Automatic generation of k-mesh.
Space group operators:
 irot       det(A)        alpha          n_x          n_y          n_z        tau_x        tau_y        tau_z
    1     1.000000     0.000000     1.000000     0.000000     0.000000     0.000000     0.000000     0.000000
    2    -1.000000     0.000000     1.000000     0.000000     0.000000     0.000000     0.000000     0.000000
    3     1.000000   120.000000    -0.577350    -0.577350    -0.577350     0.000000     0.000000     0.000000
    4    -1.000000   120.000000    -0.577350    -0.577350    -0.577350     0.000000     0.000000     0.000000
    5     1.000000   120.000000     0.577350     0.577350     0.577350     0.000000     0.000000     0.000000
    6    -1.000000   120.000000     0.577350     0.577350     0.577350     0.000000     0.000000     0.000000
    7     1.000000    90.000000     0.000000     0.000000    -1.000000     0.000000     0.000000     0.000000
    8    -1.000000    90.000000     0.000000     0.000000    -1.000000     0.000000     0.000000     0.000000
    9     1.000000   180.000000     0.000000     0.707107     0.707107     0.000000     0.000000     0.000000
   10    -1.000000   180.000000     0.000000     0.707107     0.707107     0.000000     0.000000     0.000000
   11     1.000000    90.000000     0.000000     1.000000     0.000000     0.000000     0.000000     0.000000
   12    -1.000000    90.000000     0.000000     1.000000     0.000000     0.000000     0.000000     0.000000
   13     1.000000   180.000000     0.000000     0.000000     1.000000     0.000000     0.000000     0.000000
   14    -1.000000   180.000000     0.000000     0.000000     1.000000     0.000000     0.000000     0.000000
   15     1.000000   120.000000    -0.577350     0.577350     0.577350     0.000000     0.000000     0.000000
   16    -1.000000   120.000000    -0.577350     0.577350     0.577350     0.000000     0.000000     0.000000
   17     1.000000   120.000000    -0.577350     0.577350    -0.577350     0.000000     0.000000     0.000000
   18    -1.000000   120.000000    -0.577350     0.577350    -0.577350     0.000000     0.000000     0.000000
   19     1.000000    90.000000     0.000000     0.000000     1.000000     0.000000     0.000000     0.000000
   20    -1.000000    90.000000     0.000000     0.000000     1.000000     0.000000     0.000000     0.000000
   21     1.000000    90.000000    -1.000000     0.000000     0.000000     0.000000     0.000000     0.000000
   22    -1.000000    90.000000    -1.000000     0.000000     0.000000     0.000000     0.000000     0.000000
   23     1.000000   180.000000     0.707107     0.000000     0.707107     0.000000     0.000000     0.000000
   24    -1.000000   180.000000     0.707107     0.000000     0.707107     0.000000     0.000000     0.000000
   25     1.000000   120.000000     0.577350    -0.577350     0.577350     0.000000     0.000000     0.000000
   26    -1.000000   120.000000     0.577350    -0.577350     0.577350     0.000000     0.000000     0.000000
   27     1.000000   120.000000    -0.577350    -0.577350     0.577350     0.000000     0.000000     0.000000
   28    -1.000000   120.000000    -0.577350    -0.577350     0.577350     0.000000     0.000000     0.000000
   29     1.000000   180.000000     1.000000     0.000000     0.000000     0.000000     0.000000     0.000000
   30    -1.000000   180.000000     1.000000     0.000000     0.000000     0.000000     0.000000     0.000000
   31     1.000000    90.000000     0.000000    -1.000000     0.000000     0.000000     0.000000     0.000000
   32    -1.000000    90.000000     0.000000    -1.000000     0.000000     0.000000     0.000000     0.000000
   33     1.000000   180.000000     0.707107     0.707107     0.000000     0.000000     0.000000     0.000000
   34    -1.000000   180.000000     0.707107     0.707107     0.000000     0.000000     0.000000     0.000000
   35     1.000000    90.000000     1.000000     0.000000     0.000000     0.000000     0.000000     0.000000
   36    -1.000000    90.000000     1.000000     0.000000     0.000000     0.000000     0.000000     0.000000
   37     1.000000   120.000000     0.577350    -0.577350    -0.577350     0.000000     0.000000     0.000000
   38    -1.000000   120.000000     0.577350    -0.577350    -0.577350     0.000000     0.000000     0.000000
   39     1.000000   180.000000     0.000000     1.000000     0.000000     0.000000     0.000000     0.000000
   40    -1.000000   180.000000     0.000000     1.000000     0.000000     0.000000     0.000000     0.000000
   41     1.000000   120.000000     0.577350     0.577350    -0.577350     0.000000     0.000000     0.000000
   42    -1.000000   120.000000     0.577350     0.577350    -0.577350     0.000000     0.000000     0.000000
   43     1.000000   180.000000     0.000000    -0.707107     0.707107     0.000000     0.000000     0.000000
   44    -1.000000   180.000000     0.000000    -0.707107     0.707107     0.000000     0.000000     0.000000
   45     1.000000   180.000000     0.707107    -0.707107     0.000000     0.000000     0.000000     0.000000
   46    -1.000000   180.000000     0.707107    -0.707107     0.000000     0.000000     0.000000     0.000000
   47     1.000000   180.000000     0.707107     0.000000    -0.707107     0.000000     0.000000     0.000000
   48    -1.000000   180.000000     0.707107     0.000000    -0.707107     0.000000     0.000000     0.000000
 
 Subroutine IBZKPT returns following result:
 ===========================================
 
 Found    140 irreducible k-points:
 
 Following reciprocal coordinates:
            Coordinates               Weight
  0.031250  0.031250  0.031250      8.000000
  0.093750  0.031250  0.031250     24.000000
  0.156250  0.031250  0.031250     24.000000
  0.218750  0.031250  0.031250     24.000000
  0.281250  0.031250  0.031250     24.000000
  0.343750  0.031250  0.031250     24.000000
  0.406250  0.031250  0.031250     24.000000
  0.468750  0.031250  0.031250     12.000000
 -0.031250  0.031250  0.031250      6.000000
  0.093750  0.093750  0.031250     24.000000
  0.156250  0.093750  0.031250     48.000000
  0.218750  0.093750  0.031250     48.000000
  0.281250  0.093750  0.031250     48.000000
  0.343750  0.093750  0.031250     48.000000
  0.406250  0.093750  0.031250     48.000000
 -0.093750  0.093750  0.031250     24.000000
  0.156250  0.156250  0.031250     24.000000
  0.218750  0.156250  0.031250     48.000000
  0.281250  0.156250  0.031250     48.000000
  0.343750  0.156250  0.031250     48.000000
  0.406250  0.156250  0.031250     24.000000
 -0.156250  0.156250  0.031250     24.000000
 -0.093750  0.156250  0.031250     24.000000
  0.218750  0.218750  0.031250     24.000000
  0.281250  0.218750  0.031250     48.000000
  0.343750  0.218750  0.031250     48.000000
 -0.218750  0.218750  0.031250     24.000000
 -0.156250  0.218750  0.031250     48.000000
  0.281250  0.281250  0.031250     24.000000
  0.343750  0.281250  0.031250     24.000000
 -0.281250  0.281250  0.031250     24.000000
 -0.218750  0.281250  0.031250     48.000000
 -0.156250  0.281250  0.031250     24.000000
 -0.343750  0.343750  0.031250     24.000000
 -0.281250  0.343750  0.031250     48.000000
 -0.218750  0.343750  0.031250     48.000000
 -0.406250  0.406250  0.031250     24.000000
 -0.343750  0.406250  0.031250     48.000000
 -0.281250  0.406250  0.031250     48.000000
 -0.218750  0.406250  0.031250     24.000000
 -0.468750  0.468750  0.031250     24.000000
 -0.406250  0.468750  0.031250     48.000000
 -0.343750  0.468750  0.031250     48.000000
 -0.281250  0.468750  0.031250     48.000000
 -0.468750 -0.468750  0.031250     24.000000
 -0.406250 -0.468750  0.031250     48.000000
 -0.343750 -0.468750  0.031250     48.000000
 -0.281250 -0.468750  0.031250     24.000000
 -0.406250 -0.406250  0.031250     24.000000
 -0.343750 -0.406250  0.031250     48.000000
 -0.343750 -0.343750  0.031250      8.000000
  0.093750  0.093750  0.093750      8.000000
  0.156250  0.093750  0.093750     24.000000
  0.218750  0.093750  0.093750     24.000000
  0.281250  0.093750  0.093750     24.000000
  0.343750  0.093750  0.093750     24.000000
  0.406250  0.093750  0.093750     12.000000
 -0.093750  0.093750  0.093750      6.000000
  0.156250  0.156250  0.093750     24.000000
  0.218750  0.156250  0.093750     48.000000
  0.281250  0.156250  0.093750     48.000000
  0.343750  0.156250  0.093750     48.000000
 -0.156250  0.156250  0.093750     24.000000
  0.218750  0.218750  0.093750     24.000000
  0.281250  0.218750  0.093750     48.000000
  0.343750  0.218750  0.093750     24.000000
 -0.218750  0.218750  0.093750     24.000000
 -0.156250  0.218750  0.093750     24.000000
  0.281250  0.281250  0.093750     24.000000
 -0.281250  0.281250  0.093750     24.000000
 -0.218750  0.281250  0.093750     48.000000
 -0.343750  0.343750  0.093750     24.000000
 -0.281250  0.343750  0.093750     48.000000
 -0.218750  0.343750  0.093750     24.000000
 -0.406250  0.406250  0.093750     24.000000
 -0.343750  0.406250  0.093750     48.000000
 -0.281250  0.406250  0.093750     48.000000
 -0.468750  0.468750  0.093750     24.000000
 -0.406250  0.468750  0.093750     48.000000
 -0.343750  0.468750  0.093750     48.000000
 -0.281250  0.468750  0.093750     24.000000
 -0.468750 -0.468750  0.093750     24.000000
 -0.406250 -0.468750  0.093750     48.000000
 -0.343750 -0.468750  0.093750     48.000000
 -0.406250 -0.406250  0.093750     24.000000
 -0.343750 -0.406250  0.093750     24.000000
  0.156250  0.156250  0.156250      8.000000
  0.218750  0.156250  0.156250     24.000000
  0.281250  0.156250  0.156250     24.000000
  0.343750  0.156250  0.156250     12.000000
 -0.156250  0.156250  0.156250      6.000000
  0.218750  0.218750  0.156250     24.000000
  0.281250  0.218750  0.156250     48.000000
 -0.218750  0.218750  0.156250     24.000000
  0.281250  0.281250  0.156250      8.000000
 -0.281250  0.281250  0.156250     24.000000
 -0.218750  0.281250  0.156250     24.000000
 -0.343750  0.343750  0.156250     24.000000
 -0.281250  0.343750  0.156250     48.000000
 -0.406250  0.406250  0.156250     24.000000
 -0.343750  0.406250  0.156250     48.000000
 -0.281250  0.406250  0.156250     24.000000
 -0.468750  0.468750  0.156250     24.000000
 -0.406250  0.468750  0.156250     48.000000
 -0.343750  0.468750  0.156250     48.000000
 -0.468750 -0.468750  0.156250     24.000000
 -0.406250 -0.468750  0.156250     48.000000
 -0.343750 -0.468750  0.156250     24.000000
 -0.406250 -0.406250  0.156250     24.000000
  0.218750  0.218750  0.218750      8.000000
  0.281250  0.218750  0.218750     12.000000
 -0.218750  0.218750  0.218750      6.000000
 -0.281250  0.281250  0.218750     24.000000
 -0.343750  0.343750  0.218750     24.000000
 -0.281250  0.343750  0.218750     24.000000
 -0.406250  0.406250  0.218750     24.000000
 -0.343750  0.406250  0.218750     48.000000
 -0.468750  0.468750  0.218750     24.000000
 -0.406250  0.468750  0.218750     48.000000
 -0.343750  0.468750  0.218750     24.000000
 -0.468750 -0.468750  0.218750     24.000000
 -0.406250 -0.468750  0.218750     48.000000
 -0.406250 -0.406250  0.218750      8.000000
 -0.281250  0.281250  0.281250      6.000000
 -0.343750  0.343750  0.281250     24.000000
 -0.406250  0.406250  0.281250     24.000000
 -0.343750  0.406250  0.281250     24.000000
 -0.468750  0.468750  0.281250     24.000000
 -0.406250  0.468750  0.281250     48.000000
 -0.468750 -0.468750  0.281250     24.000000
 -0.406250 -0.468750  0.281250     24.000000
 -0.343750  0.343750  0.343750      6.000000
 -0.406250  0.406250  0.343750     24.000000
 -0.468750  0.468750  0.343750     24.000000
 -0.406250  0.468750  0.343750     24.000000
 -0.468750 -0.468750  0.343750     24.000000
 -0.406250  0.406250  0.406250      6.000000
 -0.468750  0.468750  0.406250     24.000000
 -0.468750 -0.468750  0.406250      8.000000
 -0.468750  0.468750  0.468750      6.000000
 
 Following cartesian coordinates:
            Coordinates               Weight
  0.062500  0.062500  0.062500      8.000000
  0.062500  0.125000  0.125000     24.000000
  0.062500  0.187500  0.187500     24.000000
  0.062500  0.250000  0.250000     24.000000
  0.062500  0.312500  0.312500     24.000000
  0.062500  0.375000  0.375000     24.000000
  0.062500  0.437500  0.437500     24.000000
  0.062500  0.500000  0.500000     12.000000
  0.062500  0.000000  0.000000      6.000000
  0.125000  0.125000  0.187500     24.000000
  0.125000  0.187500  0.250000     48.000000
  0.125000  0.250000  0.312500     48.000000
  0.125000  0.312500  0.375000     48.000000
  0.125000  0.375000  0.437500     48.000000
  0.125000  0.437500  0.500000     48.000000
  0.125000 -0.062500  0.000000     24.000000
  0.187500  0.187500  0.312500     24.000000
  0.187500  0.250000  0.375000     48.000000
  0.187500  0.312500  0.437500     48.000000
  0.187500  0.375000  0.500000     48.000000
  0.187500  0.437500  0.562500     24.000000
  0.187500 -0.125000  0.000000     24.000000
  0.187500 -0.062500  0.062500     24.000000
  0.250000  0.250000  0.437500     24.000000
  0.250000  0.312500  0.500000     48.000000
  0.250000  0.375000  0.562500     48.000000
  0.250000 -0.187500  0.000000     24.000000
  0.250000 -0.125000  0.062500     48.000000
  0.312500  0.312500  0.562500     24.000000
  0.312500  0.375000  0.625000     24.000000
  0.312500 -0.250000  0.000000     24.000000
  0.312500 -0.187500  0.062500     48.000000
  0.312500 -0.125000  0.125000     24.000000
  0.375000 -0.312500  0.000000     24.000000
  0.375000 -0.250000  0.062500     48.000000
  0.375000 -0.187500  0.125000     48.000000
  0.437500 -0.375000  0.000000     24.000000
  0.437500 -0.312500  0.062500     48.000000
  0.437500 -0.250000  0.125000     48.000000
  0.437500 -0.187500  0.187500     24.000000
  0.500000 -0.437500  0.000000     24.000000
  0.500000 -0.375000  0.062500     48.000000
  0.500000 -0.312500  0.125000     48.000000
  0.500000 -0.250000  0.187500     48.000000
 -0.437500 -0.437500 -0.937500     24.000000
 -0.437500 -0.375000 -0.875000     48.000000
 -0.437500 -0.312500 -0.812500     48.000000
 -0.437500 -0.250000 -0.750000     24.000000
 -0.375000 -0.375000 -0.812500     24.000000
 -0.375000 -0.312500 -0.750000     48.000000
 -0.312500 -0.312500 -0.687500      8.000000
  0.187500  0.187500  0.187500      8.000000
  0.187500  0.250000  0.250000     24.000000
  0.187500  0.312500  0.312500     24.000000
  0.187500  0.375000  0.375000     24.000000
  0.187500  0.437500  0.437500     24.000000
  0.187500  0.500000  0.500000     12.000000
  0.187500  0.000000  0.000000      6.000000
  0.250000  0.250000  0.312500     24.000000
  0.250000  0.312500  0.375000     48.000000
  0.250000  0.375000  0.437500     48.000000
  0.250000  0.437500  0.500000     48.000000
  0.250000 -0.062500  0.000000     24.000000
  0.312500  0.312500  0.437500     24.000000
  0.312500  0.375000  0.500000     48.000000
  0.312500  0.437500  0.562500     24.000000
  0.312500 -0.125000  0.000000     24.000000
  0.312500 -0.062500  0.062500     24.000000
  0.375000  0.375000  0.562500     24.000000
  0.375000 -0.187500  0.000000     24.000000
  0.375000 -0.125000  0.062500     48.000000
  0.437500 -0.250000  0.000000     24.000000
  0.437500 -0.187500  0.062500     48.000000
  0.437500 -0.125000  0.125000     24.000000
  0.500000 -0.312500  0.000000     24.000000
  0.500000 -0.250000  0.062500     48.000000
  0.500000 -0.187500  0.125000     48.000000
  0.562500 -0.375000  0.000000     24.000000
  0.562500 -0.312500  0.062500     48.000000
  0.562500 -0.250000  0.125000     48.000000
  0.562500 -0.187500  0.187500     24.000000
 -0.375000 -0.375000 -0.937500     24.000000
 -0.375000 -0.312500 -0.875000     48.000000
 -0.375000 -0.250000 -0.812500     48.000000
 -0.312500 -0.312500 -0.812500     24.000000
 -0.312500 -0.250000 -0.750000     24.000000
  0.312500  0.312500  0.312500      8.000000
  0.312500  0.375000  0.375000     24.000000
  0.312500  0.437500  0.437500     24.000000
  0.312500  0.500000  0.500000     12.000000
  0.312500  0.000000  0.000000      6.000000
  0.375000  0.375000  0.437500     24.000000
  0.375000  0.437500  0.500000     48.000000
  0.375000 -0.062500  0.000000     24.000000
  0.437500  0.437500  0.562500      8.000000
  0.437500 -0.125000  0.000000     24.000000
  0.437500 -0.062500  0.062500     24.000000
  0.500000 -0.187500  0.000000     24.000000
  0.500000 -0.125000  0.062500     48.000000
  0.562500 -0.250000  0.000000     24.000000
  0.562500 -0.187500  0.062500     48.000000
  0.562500 -0.125000  0.125000     24.000000
  0.625000 -0.312500  0.000000     24.000000
  0.625000 -0.250000  0.062500     48.000000
  0.625000 -0.187500  0.125000     48.000000
 -0.312500 -0.312500 -0.937500     24.000000
 -0.312500 -0.250000 -0.875000     48.000000
 -0.312500 -0.187500 -0.812500     24.000000
 -0.250000 -0.250000 -0.812500     24.000000
  0.437500  0.437500  0.437500      8.000000
  0.437500  0.500000  0.500000     12.000000
  0.437500  0.000000  0.000000      6.000000
  0.500000 -0.062500  0.000000     24.000000
  0.562500 -0.125000  0.000000     24.000000
  0.562500 -0.062500  0.062500     24.000000
  0.625000 -0.187500  0.000000     24.000000
  0.625000 -0.125000  0.062500     48.000000
  0.687500 -0.250000  0.000000     24.000000
  0.687500 -0.187500  0.062500     48.000000
  0.687500 -0.125000  0.125000     24.000000
 -0.250000 -0.250000 -0.937500     24.000000
 -0.250000 -0.187500 -0.875000     48.000000
 -0.187500 -0.187500 -0.812500      8.000000
  0.562500  0.000000  0.000000      6.000000
  0.625000 -0.062500  0.000000     24.000000
  0.687500 -0.125000  0.000000     24.000000
  0.687500 -0.062500  0.062500     24.000000
  0.750000 -0.187500  0.000000     24.000000
  0.750000 -0.125000  0.062500     48.000000
 -0.187500 -0.187500 -0.937500     24.000000
 -0.187500 -0.125000 -0.875000     24.000000
  0.687500  0.000000  0.000000      6.000000
  0.750000 -0.062500  0.000000     24.000000
  0.812500 -0.125000  0.000000     24.000000
  0.812500 -0.062500  0.062500     24.000000
 -0.125000 -0.125000 -0.937500     24.000000
  0.812500  0.000000  0.000000      6.000000
  0.875000 -0.062500  0.000000     24.000000
 -0.062500 -0.062500 -0.937500      8.000000
  0.937500  0.000000  0.000000      6.000000
 
 TETIRR: Found   4772 inequivalent tetrahedra from    24576


--------------------------------------------------------------------------------------------------------




 Dimension of arrays:
   k-points           NKPTS =    140   k-points in BZ     NKDIM =    140   number of bands    NBANDS=     40
   number of dos      NEDOS =    301   number of ions     NIONS =      1
   non local maximal  LDIM  =      6   non local SUM 2l+1 LMDIM =     18
   total plane-waves  NPLWV =   1728
   max r-space proj   IRMAX =      1   max aug-charges    IRDMAX=   6174
   dimension x,y,z NGX =    12 NGY =   12 NGZ =   12
   dimension x,y,z NGXF=    24 NGYF=   24 NGZF=   24
   support grid    NGXF=    24 NGYF=   24 NGZF=   24
   ions per type =               1
   NGX,Y,Z   is equivalent  to a cutoff of   6.98,  6.98,  6.98 a.u.
   NGXF,Y,Z  is equivalent  to a cutoff of  13.96, 13.96, 13.96 a.u.

 SYSTEM =  Nb tetrahedron                          
 POSCAR =  primitive Nb                            

 Startparameter for this run:
   NWRITE =      2    write-flag & timer
   PREC   = normal    normal or accurate (medium, high low for compatibility)
   ISTART =      0    job   : 0-new  1-cont  2-samecut
   ICHARG =     11    charge: 1-file 2-atom 10-const
   ISPIN  =      1    spin polarized calculation?
   LNONCOLLINEAR =      F non collinear calculations
   LSORBIT =      F    spin-orbit coupling
   INIWAV =      1    electr: 0-lowe 1-rand  2-diag
   LASPH  =      F    aspherical Exc in radial PAW
   METAGGA=      F    non-selfconsistent MetaGGA calc.

 Electronic Relaxation 1
   ENCUT  =  300.0 eV  22.05 Ry    4.70 a.u.   4.04  4.04  4.04*2*pi/ulx,y,z
   ENINI  =  300.0     initial cutoff
   ENAUG  =  352.7 eV  augmentation charge cutoff
   NELM   =     60;   NELMIN=  2; NELMDL= -5     # of ELM steps 
   EDIFF  = 0.1E-06   stopping-criterion for ELM
   LREAL  =      F    real-space projection
   NLSPLINE    = F    spline interpolate recip. space projectors
   LCOMPAT=      F    compatible to vasp.4.4
   GGA_COMPAT  = T    GGA compatible to vasp.4.4-vasp.4.6
   LMAXPAW     = -100 max onsite density
   LMAXMIX     =    2 max onsite mixed and CHGCAR
   VOSKOWN=      0    Vosko Wilk Nusair interpolation
   ROPT   =    0.00000
 Ionic relaxation
   EDIFFG = 0.1E-05   stopping-criterion for IOM
   NSW    =      0    number of steps for IOM
   NBLOCK =      1;   KBLOCK =      1    inner block; outer block 
   IBRION =     -1    ionic relax: 0-MD 1-quasi-New 2-CG
   NFREE  =      0    steps in history (QN), initial steepest desc. (CG)
   ISIF   =      2    stress and relaxation
   IWAVPR =     10    prediction:  0-non 1-charg 2-wave 3-comb
   ISYM   =      2    0-nonsym 1-usesym 2-fastsym
   LCORR  =      T    Harris-Foulkes like correction to forces

   POTIM  = 0.5000    time-step for ionic-motion
   TEIN   =    0.0    initial temperature
   TEBEG  =    0.0;   TEEND  =   0.0 temperature during run
   SMASS  =  -3.00    Nose mass-parameter (am)
   estimated Nose-frequenzy (Omega)   =  0.10E-29 period in steps =****** mass=  -0.187E-27a.u.
   SCALEE = 1.0000    scale energy and forces
   NPACO  =    256;   APACO  = 16.0  distance and # of slots for P.C.
   PSTRESS=    0.0 pullay stress

  Mass of Ions in am
   POMASS =  92.91
  Ionic Valenz
   ZVAL   =  11.00
  Atomic Wigner-Seitz radii
   RWIGS  =  -1.00
  virtual crystal weights 
   VCA    =   1.00
   NELECT =      11.0000    total number of electrons
   NUPDOWN=      -1.0000    fix difference up-down

 DOS related values:
   EMIN   =  10.00;   EMAX   =-10.00  energy-range for DOS
   EFERMI =   0.00
   ISMEAR =    -5;   SIGMA  =   0.20  broadening in eV -4-tet -1-fermi 0-gaus

 Electronic relaxation 2 (details)
   IALGO  =     38    algorithm
   LDIAG  =      T    sub-space diagonalisation (order eigenvalues)
   LSUBROT=      F    optimize rotation matrix (better conditioning)
   TURBO    =      0    0=normal 1=particle mesh
   IRESTART =      0    0=no restart 2=restart with 2 vectors
   NREBOOT  =      0    no. of reboots
   NMIN     =      0    reboot dimension
   EREF     =   0.00    reference energy to select bands
   IMIX   =      4    mixing-type and parameters
     AMIX     =   0.40;   BMIX     =  1.00
     AMIX_MAG =   1.60;   BMIX_MAG =  1.00
     AMIN     =   0.10
     WC   =   100.;   INIMIX=   1;  MIXPRE=   1;  MAXMIX= -45

 Intra band minimization:
   WEIMIN = 0.0000     energy-eigenvalue tresh-hold
   EBREAK =  0.63E-09  absolut break condition
   DEPER  =   0.30     relativ break condition  

   TIME   =   0.40     timestep for ELM

  volume/ion in A,a.u.               =      17.98       121.35
  Fermi-wavevector in a.u.,A,eV,Ry     =   1.389728  2.626205 26.277534  1.931344
  Thomas-Fermi vector in A             =   2.513731
 
 Write flags
   LWAVE        =      T    write WAVECAR
   LDOWNSAMPLE  =      F    k-point downsampling of WAVECAR
   LCHARG       =      F    write CHGCAR
   LVTOT        =      F    write LOCPOT, total local potential
   LVHAR        =      F    write LOCPOT, Hartree potential only
   LELF         =      F    write electronic localiz. function (ELF)
   LORBIT       =      0    0 simple, 1 ext, 2 COOP (PROOUT), +10 PAW based schemes


 Dipole corrections
   LMONO  =      F    monopole corrections only (constant potential shift)
   LDIPOL =      F    correct potential (dipole corrections)
   IDIPOL =      0    1-x, 2-y, 3-z, 4-all directions 
   EPSILON=  1.0000000 bulk dielectric constant

 Exchange correlation treatment:
   GGA     =    --    GGA type
   LEXCH   =     2    internal setting for exchange type
   VOSKOWN=      0    Vosko Wilk Nusair interpolation
   LHFCALC =     F    Hartree Fock is set to
   LHFONE  =     F    Hartree Fock one center treatment
   AEXX    =    0.0000 exact exchange contribution

 Linear response parameters
   LEPSILON=     F    determine dielectric tensor
   LRPA    =     F    only Hartree local field effects (RPA)
   LNABLA  =     F    use nabla operator in PAW spheres
   LVEL    =     F    velocity operator in full k-point grid
   LINTERFAST=   F  fast interpolation
   KINTER  =     0    interpolate to denser k-point grid
   CSHIFT  =0.1000    complex shift for real part using Kramers Kronig
   OMEGAMAX=  -1.0    maximum frequency
   DEG_THRESHOLD= 0.2000000E-02 threshold for treating states as degnerate
   RTIME   =   -0.100 relaxation time in fs
  (WPLASMAI=    0.000 imaginary part of plasma frequency in eV, 0.658/RTIME)
   DFIELD  = 0.0000000 0.0000000 0.0000000 field for delta impulse in time
 
 Orbital magnetization related:
   ORBITALMAG=     F  switch on orbital magnetization
   LCHIMAG   =     F  perturbation theory with respect to B field
   DQ        =  0.001000  dq finite difference perturbation B field
   LLRAUG    =     F  two centre corrections for induced B field



--------------------------------------------------------------------------------------------------------


 Static calculation
 charge density and potential remain constant during run
 non-spin polarized calculation
 Variant of blocked Davidson
 Davidson routine will perform the subspace rotation
 perform sub-space diagonalisation
    after iterative eigenvector-optimisation
 no mixing
 using additional bands           34
 reciprocal scheme for non local part
 use partial core corrections
 calculate Harris-corrections to forces 
   (improved forces if not selfconsistent)
 use of overlap-Matrix (Vanderbilt PP)
 Fermi weights with tetrahedron method with Bloechl corrections


--------------------------------------------------------------------------------------------------------


  energy-cutoff  :      300.00
  volume of cell :       17.98
      direct lattice vectors                 reciprocal lattice vectors
    -1.650400000  1.650400000  1.650400000     0.000000000  0.302956859  0.302956859
     1.650400000 -1.650400000  1.650400000     0.302956859  0.000000000  0.302956859
     1.650400000  1.650400000 -1.650400000     0.302956859  0.302956859  0.000000000

  length of vectors
     2.858576653  2.858576653  2.858576653     0.428445699  0.428445699  0.428445699


 
 k-points in units of 2pi/SCALE and weight: 16*16*16                                
   0.06250000  0.06250000  0.06250000       0.002
   0.06250000  0.12500000  0.12500000       0.006
   0.06250000  0.18750000  0.18750000       0.006
   0.06250000  0.25000000  0.25000000       0.006
   0.06250000  0.31250000  0.31250000       0.006
   0.06250000  0.37500000  0.37500000       0.006
   0.06250000  0.43750000  0.43750000       0.006
   0.06250000  0.50000000  0.50000000       0.003
   0.06250000  0.00000000  0.00000000       0.001
   0.12500000  0.12500000  0.18750000       0.006
   0.12500000  0.18750000  0.25000000       0.012
   0.12500000  0.25000000  0.31250000       0.012
   0.12500000  0.31250000  0.37500000       0.012
   0.12500000  0.37500000  0.43750000       0.012
   0.12500000  0.43750000  0.50000000       0.012
   0.12500000 -0.06250000  0.00000000       0.006
   0.18750000  0.18750000  0.31250000       0.006
   0.18750000  0.25000000  0.37500000       0.012
   0.18750000  0.31250000  0.43750000       0.012
   0.18750000  0.37500000  0.50000000       0.012
   0.18750000  0.43750000  0.56250000       0.006
   0.18750000 -0.12500000  0.00000000       0.006
   0.18750000 -0.06250000  0.06250000       0.006
   0.25000000  0.25000000  0.43750000       0.006
   0.25000000  0.31250000  0.50000000       0.012
   0.25000000  0.37500000  0.56250000       0.012
   0.25000000 -0.18750000  0.00000000       0.006
   0.25000000 -0.12500000  0.06250000       0.012
   0.31250000  0.31250000  0.56250000       0.006
   0.31250000  0.37500000  0.62500000       0.006
   0.31250000 -0.25000000  0.00000000       0.006
   0.31250000 -0.18750000  0.06250000       0.012
   0.31250000 -0.12500000  0.12500000       0.006
   0.37500000 -0.31250000  0.00000000       0.006
   0.37500000 -0.25000000  0.06250000       0.012
   0.37500000 -0.18750000  0.12500000       0.012
   0.43750000 -0.37500000  0.00000000       0.006
   0.43750000 -0.31250000  0.06250000       0.012
   0.43750000 -0.25000000  0.12500000       0.012
   0.43750000 -0.18750000  0.18750000       0.006
   0.50000000 -0.43750000  0.00000000       0.006
   0.50000000 -0.37500000  0.06250000       0.012
   0.50000000 -0.31250000  0.12500000       0.012
   0.50000000 -0.25000000  0.18750000       0.012
  -0.43750000 -0.43750000 -0.93750000       0.006
  -0.43750000 -0.37500000 -0.87500000       0.012
  -0.43750000 -0.31250000 -0.81250000       0.012
  -0.43750000 -0.25000000 -0.75000000       0.006
  -0.37500000 -0.37500000 -0.81250000       0.006
  -0.37500000 -0.31250000 -0.75000000       0.012
  -0.31250000 -0.31250000 -0.68750000       0.002
   0.18750000  0.18750000  0.18750000       0.002
   0.18750000  0.25000000  0.25000000       0.006
   0.18750000  0.31250000  0.31250000       0.006
   0.18750000  0.37500000  0.37500000       0.006
   0.18750000  0.43750000  0.43750000       0.006
   0.18750000  0.50000000  0.50000000       0.003
   0.18750000  0.00000000  0.00000000       0.001
   0.25000000  0.25000000  0.31250000       0.006
   0.25000000  0.31250000  0.37500000       0.012
   0.25000000  0.37500000  0.43750000       0.012
   0.25000000  0.43750000  0.50000000       0.012
   0.25000000 -0.06250000  0.00000000       0.006
   0.31250000  0.31250000  0.43750000       0.006
   0.31250000  0.37500000  0.50000000       0.012
   0.31250000  0.43750000  0.56250000       0.006
   0.31250000 -0.12500000  0.00000000       0.006
   0.31250000 -0.06250000  0.06250000       0.006
   0.37500000  0.37500000  0.56250000       0.006
   0.37500000 -0.18750000  0.00000000       0.006
   0.37500000 -0.12500000  0.06250000       0.012
   0.43750000 -0.25000000  0.00000000       0.006
   0.43750000 -0.18750000  0.06250000       0.012
   0.43750000 -0.12500000  0.12500000       0.006
   0.50000000 -0.31250000  0.00000000       0.006
   0.50000000 -0.25000000  0.06250000       0.012
   0.50000000 -0.18750000  0.12500000       0.012
   0.56250000 -0.37500000  0.00000000       0.006
   0.56250000 -0.31250000  0.06250000       0.012
   0.56250000 -0.25000000  0.12500000       0.012
   0.56250000 -0.18750000  0.18750000       0.006
  -0.37500000 -0.37500000 -0.93750000       0.006
  -0.37500000 -0.31250000 -0.87500000       0.012
  -0.37500000 -0.25000000 -0.81250000       0.012
  -0.31250000 -0.31250000 -0.81250000       0.006
  -0.31250000 -0.25000000 -0.75000000       0.006
   0.31250000  0.31250000  0.31250000       0.002
   0.31250000  0.37500000  0.37500000       0.006
   0.31250000  0.43750000  0.43750000       0.006
   0.31250000  0.50000000  0.50000000       0.003
   0.31250000  0.00000000  0.00000000       0.001
   0.37500000  0.37500000  0.43750000       0.006
   0.37500000  0.43750000  0.50000000       0.012
   0.37500000 -0.06250000  0.00000000       0.006
   0.43750000  0.43750000  0.56250000       0.002
   0.43750000 -0.12500000  0.00000000       0.006
   0.43750000 -0.06250000  0.06250000       0.006
   0.50000000 -0.18750000  0.00000000       0.006
   0.50000000 -0.12500000  0.06250000       0.012
   0.56250000 -0.25000000  0.00000000       0.006
   0.56250000 -0.18750000  0.06250000       0.012
   0.56250000 -0.12500000  0.12500000       0.006
   0.62500000 -0.31250000  0.00000000       0.006
   0.62500000 -0.25000000  0.06250000       0.012
   0.62500000 -0.18750000  0.12500000       0.012
  -0.31250000 -0.31250000 -0.93750000       0.006
  -0.31250000 -0.25000000 -0.87500000       0.012
  -0.31250000 -0.18750000 -0.81250000       0.006
  -0.25000000 -0.25000000 -0.81250000       0.006
   0.43750000  0.43750000  0.43750000       0.002
   0.43750000  0.50000000  0.50000000       0.003
   0.43750000  0.00000000  0.00000000       0.001
   0.50000000 -0.06250000  0.00000000       0.006
   0.56250000 -0.12500000  0.00000000       0.006
   0.56250000 -0.06250000  0.06250000       0.006
   0.62500000 -0.18750000  0.00000000       0.006
   0.62500000 -0.12500000  0.06250000       0.012
   0.68750000 -0.25000000  0.00000000       0.006
   0.68750000 -0.18750000  0.06250000       0.012
   0.68750000 -0.12500000  0.12500000       0.006
  -0.25000000 -0.25000000 -0.93750000       0.006
  -0.25000000 -0.18750000 -0.87500000       0.012
  -0.18750000 -0.18750000 -0.81250000       0.002
   0.56250000  0.00000000  0.00000000       0.001
   0.62500000 -0.06250000  0.00000000       0.006
   0.68750000 -0.12500000  0.00000000       0.006
   0.68750000 -0.06250000  0.06250000       0.006
   0.75000000 -0.18750000  0.00000000       0.006
   0.75000000 -0.12500000  0.06250000       0.012
  -0.18750000 -0.18750000 -0.93750000       0.006
  -0.18750000 -0.12500000 -0.87500000       0.006
   0.68750000  0.00000000  0.00000000       0.001
   0.75000000 -0.06250000  0.00000000       0.006
   0.81250000 -0.12500000  0.00000000       0.006
   0.81250000 -0.06250000  0.06250000       0.006
  -0.12500000 -0.12500000 -0.93750000       0.006
   0.81250000  0.00000000  0.00000000       0.001
   0.87500000 -0.06250000  0.00000000       0.006
  -0.06250000 -0.06250000 -0.93750000       0.002
   0.93750000  0.00000000  0.00000000       0.001
 
 k-points in reciprocal lattice and weights: 16*16*16                                
   0.03125000  0.03125000  0.03125000       0.002
   0.09375000  0.03125000  0.03125000       0.006
   0.15625000  0.03125000  0.03125000       0.006
   0.21875000  0.03125000  0.03125000       0.006
   0.28125000  0.03125000  0.03125000       0.006
   0.34375000  0.03125000  0.03125000       0.006
   0.40625000  0.03125000  0.03125000       0.006
   0.46875000  0.03125000  0.03125000       0.003
  -0.03125000  0.03125000  0.03125000       0.001
   0.09375000  0.09375000  0.03125000       0.006
   0.15625000  0.09375000  0.03125000       0.012
   0.21875000  0.09375000  0.03125000       0.012
   0.28125000  0.09375000  0.03125000       0.012
   0.34375000  0.09375000  0.03125000       0.012
   0.40625000  0.09375000  0.03125000       0.012
  -0.09375000  0.09375000  0.03125000       0.006
   0.15625000  0.15625000  0.03125000       0.006
   0.21875000  0.15625000  0.03125000       0.012
   0.28125000  0.15625000  0.03125000       0.012
   0.34375000  0.15625000  0.03125000       0.012
   0.40625000  0.15625000  0.03125000       0.006
  -0.15625000  0.15625000  0.03125000       0.006
  -0.09375000  0.15625000  0.03125000       0.006
   0.21875000  0.21875000  0.03125000       0.006
   0.28125000  0.21875000  0.03125000       0.012
   0.34375000  0.21875000  0.03125000       0.012
  -0.21875000  0.21875000  0.03125000       0.006
  -0.15625000  0.21875000  0.03125000       0.012
   0.28125000  0.28125000  0.03125000       0.006
   0.34375000  0.28125000  0.03125000       0.006
  -0.28125000  0.28125000  0.03125000       0.006
  -0.21875000  0.28125000  0.03125000       0.012
  -0.15625000  0.28125000  0.03125000       0.006
  -0.34375000  0.34375000  0.03125000       0.006
  -0.28125000  0.34375000  0.03125000       0.012
  -0.21875000  0.34375000  0.03125000       0.012
  -0.40625000  0.40625000  0.03125000       0.006
  -0.34375000  0.40625000  0.03125000       0.012
  -0.28125000  0.40625000  0.03125000       0.012
  -0.21875000  0.40625000  0.03125000       0.006
  -0.46875000  0.46875000  0.03125000       0.006
  -0.40625000  0.46875000  0.03125000       0.012
  -0.34375000  0.46875000  0.03125000       0.012
  -0.28125000  0.46875000  0.03125000       0.012
  -0.46875000 -0.46875000  0.03125000       0.006
  -0.40625000 -0.46875000  0.03125000       0.012
  -0.34375000 -0.46875000  0.03125000       0.012
  -0.28125000 -0.46875000  0.03125000       0.006
  -0.40625000 -0.40625000  0.03125000       0.006
  -0.34375000 -0.40625000  0.03125000       0.012
  -0.34375000 -0.34375000  0.03125000       0.002
   0.09375000  0.09375000  0.09375000       0.002
   0.15625000  0.09375000  0.09375000       0.006
   0.21875000  0.09375000  0.09375000       0.006
   0.28125000  0.09375000  0.09375000       0.006
   0.34375000  0.09375000  0.09375000       0.006
   0.40625000  0.09375000  0.09375000       0.003
  -0.09375000  0.09375000  0.09375000       0.001
   0.15625000  0.15625000  0.09375000       0.006
   0.21875000  0.15625000  0.09375000       0.012
   0.28125000  0.15625000  0.09375000       0.012
   0.34375000  0.15625000  0.09375000       0.012
  -0.15625000  0.15625000  0.09375000       0.006
   0.21875000  0.21875000  0.09375000       0.006
   0.28125000  0.21875000  0.09375000       0.012
   0.34375000  0.21875000  0.09375000       0.006
  -0.21875000  0.21875000  0.09375000       0.006
  -0.15625000  0.21875000  0.09375000       0.006
   0.28125000  0.28125000  0.09375000       0.006
  -0.28125000  0.28125000  0.09375000       0.006
  -0.21875000  0.28125000  0.09375000       0.012
  -0.34375000  0.34375000  0.09375000       0.006
  -0.28125000  0.34375000  0.09375000       0.012
  -0.21875000  0.34375000  0.09375000       0.006
  -0.40625000  0.40625000  0.09375000       0.006
  -0.34375000  0.40625000  0.09375000       0.012
  -0.28125000  0.40625000  0.09375000       0.012
  -0.46875000  0.46875000  0.09375000       0.006
  -0.40625000  0.46875000  0.09375000       0.012
  -0.34375000  0.46875000  0.09375000       0.012
  -0.28125000  0.46875000  0.09375000       0.006
  -0.46875000 -0.46875000  0.09375000       0.006
  -0.40625000 -0.46875000  0.09375000       0.012
  -0.34375000 -0.46875000  0.09375000       0.012
  -0.40625000 -0.40625000  0.09375000       0.006
  -0.34375000 -0.40625000  0.09375000       0.006
   0.15625000  0.15625000  0.15625000       0.002
   0.21875000  0.15625000  0.15625000       0.006
   0.28125000  0.15625000  0.15625000       0.006
   0.34375000  0.15625000  0.15625000       0.003
  -0.15625000  0.15625000  0.15625000       0.001
   0.21875000  0.21875000  0.15625000       0.006
   0.28125000  0.21875000  0.15625000       0.012
  -0.21875000  0.21875000  0.15625000       0.006
   0.28125000  0.28125000  0.15625000       0.002
  -0.28125000  0.28125000  0.15625000       0.006
  -0.21875000  0.28125000  0.15625000       0.006
  -0.34375000  0.34375000  0.15625000       0.006
  -0.28125000  0.34375000  0.15625000       0.012
  -0.40625000  0.40625000  0.15625000       0.006
  -0.34375000  0.40625000  0.15625000       0.012
  -0.28125000  0.40625000  0.15625000       0.006
  -0.46875000  0.46875000  0.15625000       0.006
  -0.40625000  0.46875000  0.15625000       0.012
  -0.34375000  0.46875000  0.15625000       0.012
  -0.46875000 -0.46875000  0.15625000       0.006
  -0.40625000 -0.46875000  0.15625000       0.012
  -0.34375000 -0.46875000  0.15625000       0.006
  -0.40625000 -0.40625000  0.15625000       0.006
   0.21875000  0.21875000  0.21875000       0.002
   0.28125000  0.21875000  0.21875000       0.003
  -0.21875000  0.21875000  0.21875000       0.001
  -0.28125000  0.28125000  0.21875000       0.006
  -0.34375000  0.34375000  0.21875000       0.006
  -0.28125000  0.34375000  0.21875000       0.006
  -0.40625000  0.40625000  0.21875000       0.006
  -0.34375000  0.40625000  0.21875000       0.012
  -0.46875000  0.46875000  0.21875000       0.006
  -0.40625000  0.46875000  0.21875000       0.012
  -0.34375000  0.46875000  0.21875000       0.006
  -0.46875000 -0.46875000  0.21875000       0.006
  -0.40625000 -0.46875000  0.21875000       0.012
  -0.40625000 -0.40625000  0.21875000       0.002
  -0.28125000  0.28125000  0.28125000       0.001
  -0.34375000  0.34375000  0.28125000       0.006
  -0.40625000  0.40625000  0.28125000       0.006
  -0.34375000  0.40625000  0.28125000       0.006
  -0.46875000  0.46875000  0.28125000       0.006
  -0.40625000  0.46875000  0.28125000       0.012
  -0.46875000 -0.46875000  0.28125000       0.006
  -0.40625000 -0.46875000  0.28125000       0.006
  -0.34375000  0.34375000  0.34375000       0.001
  -0.40625000  0.40625000  0.34375000       0.006
  -0.46875000  0.46875000  0.34375000       0.006
  -0.40625000  0.46875000  0.34375000       0.006
  -0.46875000 -0.46875000  0.34375000       0.006
  -0.40625000  0.40625000  0.40625000       0.001
  -0.46875000  0.46875000  0.40625000       0.006
  -0.46875000 -0.46875000  0.40625000       0.002
  -0.46875000  0.46875000  0.46875000       0.001
 
 position of ions in fractional coordinates (direct lattice) 
   0.00000000  0.00000000  0.00000000
 
 position of ions in cartesian coordinates  (Angst):
   0.00000000  0.00000000  0.00000000
 


--------------------------------------------------------------------------------------------------------


 k-point  1 :   0.0312 0.0312 0.0312  plane waves:     207
 k-point  2 :   0.0938 0.0312 0.0312  plane waves:     209
 k-point  3 :   0.1563 0.0313 0.0312  plane waves:     207
 k-point  4 :   0.2188 0.0312 0.0312  plane waves:     208
 k-point  5 :   0.2812 0.0312 0.0312  plane waves:     207
 k-point  6 :   0.3438 0.0312 0.0312  plane waves:     203
 k-point  7 :   0.4063 0.0312 0.0312  plane waves:     208
 k-point  8 :   0.4688 0.0312 0.0312  plane waves:     208
 k-point  9 :  -0.0312 0.0312 0.0312  plane waves:     209
 k-point 10 :   0.0938 0.0938 0.0312  plane waves:     208
 k-point 11 :   0.1563 0.0937 0.0312  plane waves:     208
 k-point 12 :   0.2188 0.0938 0.0312  plane waves:     209
 k-point 13 :   0.2812 0.0938 0.0312  plane waves:     206
 k-point 14 :   0.3438 0.0938 0.0312  plane waves:     210
 k-point 15 :   0.4062 0.0937 0.0312  plane waves:     210
 k-point 16 :  -0.0938 0.0938 0.0312  plane waves:     211
 k-point 17 :   0.1563 0.1563 0.0312  plane waves:     208
 k-point 18 :   0.2188 0.1563 0.0312  plane waves:     210
 k-point 19 :   0.2812 0.1562 0.0312  plane waves:     211
 k-point 20 :   0.3438 0.1562 0.0312  plane waves:     211
 k-point 21 :   0.4063 0.1563 0.0312  plane waves:     208
 k-point 22 :  -0.1562 0.1562 0.0313  plane waves:     209
 k-point 23 :  -0.0938 0.1562 0.0313  plane waves:     210
 k-point 24 :   0.2188 0.2188 0.0312  plane waves:     211
 k-point 25 :   0.2812 0.2188 0.0312  plane waves:     212
 k-point 26 :   0.3438 0.2188 0.0312  plane waves:     212
 k-point 27 :  -0.2188 0.2188 0.0312  plane waves:     211
 k-point 28 :  -0.1562 0.2188 0.0312  plane waves:     209
 k-point 29 :   0.2812 0.2812 0.0312  plane waves:     213
 k-point 30 :   0.3438 0.2813 0.0312  plane waves:     214
 k-point 31 :  -0.2812 0.2812 0.0312  plane waves:     207
 k-point 32 :  -0.2188 0.2812 0.0312  plane waves:     210
 k-point 33 :  -0.1563 0.2812 0.0313  plane waves:     211
 k-point 34 :  -0.3438 0.3438 0.0312  plane waves:     207
 k-point 35 :  -0.2812 0.3438 0.0312  plane waves:     207
 k-point 36 :  -0.2188 0.3438 0.0312  plane waves:     209
 k-point 37 :  -0.4063 0.4063 0.0312  plane waves:     205
 k-point 38 :  -0.3438 0.4063 0.0312  plane waves:     207
 k-point 39 :  -0.2812 0.4062 0.0313  plane waves:     212
 k-point 40 :  -0.2188 0.4063 0.0312  plane waves:     208
 k-point 41 :  -0.4688 0.4688 0.0312  plane waves:     208
 k-point 42 :  -0.4062 0.4688 0.0312  plane waves:     209
 k-point 43 :  -0.3438 0.4688 0.0312  plane waves:     210
 k-point 44 :  -0.2812 0.4688 0.0312  plane waves:     216
 k-point 45 :  -0.4688-0.4688 0.0312  plane waves:     208
 k-point 46 :  -0.4063-0.4688 0.0312  plane waves:     214
 k-point 47 :  -0.3438-0.4688 0.0312  plane waves:     215
 k-point 48 :  -0.2812-0.4688 0.0312  plane waves:     216
 k-point 49 :  -0.4063-0.4063 0.0312  plane waves:     213
 k-point 50 :  -0.3438-0.4062 0.0312  plane waves:     215
 k-point 51 :  -0.3438-0.3438 0.0312  plane waves:     213
 k-point 52 :   0.0938 0.0938 0.0938  plane waves:     210
 k-point 53 :   0.1562 0.0938 0.0938  plane waves:     210
 k-point 54 :   0.2188 0.0938 0.0937  plane waves:     211
 k-point 55 :   0.2812 0.0938 0.0938  plane waves:     209
 k-point 56 :   0.3438 0.0938 0.0938  plane waves:     211
 k-point 57 :   0.4062 0.0938 0.0938  plane waves:     206
 k-point 58 :  -0.0938 0.0938 0.0938  plane waves:     213
 k-point 59 :   0.1563 0.1563 0.0937  plane waves:     214
 k-point 60 :   0.2188 0.1562 0.0937  plane waves:     211
 k-point 61 :   0.2812 0.1562 0.0938  plane waves:     210
 k-point 62 :   0.3438 0.1562 0.0938  plane waves:     210
 k-point 63 :  -0.1562 0.1562 0.0938  plane waves:     209
 k-point 64 :   0.2188 0.2188 0.0938  plane waves:     212
 k-point 65 :   0.2812 0.2188 0.0938  plane waves:     211
 k-point 66 :   0.3438 0.2188 0.0937  plane waves:     214
 k-point 67 :  -0.2188 0.2188 0.0938  plane waves:     210
 k-point 68 :  -0.1563 0.2188 0.0938  plane waves:     210
 k-point 69 :   0.2812 0.2812 0.0938  plane waves:     214
 k-point 70 :  -0.2812 0.2812 0.0938  plane waves:     210
 k-point 71 :  -0.2188 0.2812 0.0938  plane waves:     211
 k-point 72 :  -0.3438 0.3438 0.0938  plane waves:     210
 k-point 73 :  -0.2812 0.3438 0.0938  plane waves:     213
 k-point 74 :  -0.2188 0.3438 0.0938  plane waves:     215
 k-point 75 :  -0.4062 0.4062 0.0937  plane waves:     214
 k-point 76 :  -0.3438 0.4062 0.0938  plane waves:     213
 k-point 77 :  -0.2812 0.4062 0.0937  plane waves:     214
 k-point 78 :  -0.4688 0.4688 0.0938  plane waves:     210
 k-point 79 :  -0.4063 0.4688 0.0938  plane waves:     212
 k-point 80 :  -0.3438 0.4688 0.0938  plane waves:     214
 k-point 81 :  -0.2813 0.4688 0.0938  plane waves:     216
 k-point 82 :  -0.4688-0.4688 0.0938  plane waves:     212
 k-point 83 :  -0.4063-0.4688 0.0937  plane waves:     213
 k-point 84 :  -0.3438-0.4688 0.0938  plane waves:     214
 k-point 85 :  -0.4063-0.4063 0.0938  plane waves:     214
 k-point 86 :  -0.3438-0.4062 0.0938  plane waves:     217
 k-point 87 :   0.1563 0.1563 0.1563  plane waves:     210
 k-point 88 :   0.2188 0.1563 0.1563  plane waves:     210
 k-point 89 :   0.2812 0.1563 0.1562  plane waves:     214
 k-point 90 :   0.3438 0.1563 0.1562  plane waves:     214
 k-point 91 :  -0.1563 0.1563 0.1563  plane waves:     213
 k-point 92 :   0.2188 0.2188 0.1563  plane waves:     216
 k-point 93 :   0.2812 0.2188 0.1562  plane waves:     214
 k-point 94 :  -0.2188 0.2188 0.1563  plane waves:     212
 k-point 95 :   0.2812 0.2812 0.1562  plane waves:     216
 k-point 96 :  -0.2812 0.2812 0.1562  plane waves:     211
 k-point 97 :  -0.2188 0.2812 0.1562  plane waves:     214
 k-point 98 :  -0.3438 0.3438 0.1562  plane waves:     213
 k-point 99 :  -0.2812 0.3438 0.1562  plane waves:     215
 k-point ** :  -0.4063 0.4063 0.1563  plane waves:     215
 k-point ** :  -0.3438 0.4063 0.1563  plane waves:     215
 k-point ** :  -0.2813 0.4063 0.1563  plane waves:     217
 k-point ** :  -0.4688 0.4688 0.1563  plane waves:     209
 k-point ** :  -0.4063 0.4688 0.1563  plane waves:     214
 k-point ** :  -0.3438 0.4688 0.1563  plane waves:     216
 k-point ** :  -0.4688-0.4688 0.1562  plane waves:     212
 k-point ** :  -0.4062-0.4688 0.1562  plane waves:     212
 k-point ** :  -0.3438-0.4688 0.1563  plane waves:     213
 k-point ** :  -0.4063-0.4063 0.1563  plane waves:     212
 k-point ** :   0.2188 0.2188 0.2188  plane waves:     216
 k-point ** :   0.2812 0.2188 0.2188  plane waves:     216
 k-point ** :  -0.2188 0.2188 0.2188  plane waves:     209
 k-point ** :  -0.2812 0.2812 0.2188  plane waves:     209
 k-point ** :  -0.3438 0.3438 0.2188  plane waves:     217
 k-point ** :  -0.2813 0.3438 0.2188  plane waves:     213
 k-point ** :  -0.4063 0.4063 0.2188  plane waves:     215
 k-point ** :  -0.3438 0.4063 0.2188  plane waves:     215
 k-point ** :  -0.4688 0.4688 0.2188  plane waves:     214
 k-point ** :  -0.4062 0.4688 0.2188  plane waves:     214
 k-point ** :  -0.3438 0.4688 0.2188  plane waves:     216
 k-point ** :  -0.4688-0.4688 0.2188  plane waves:     214
 k-point ** :  -0.4063-0.4688 0.2188  plane waves:     215
 k-point ** :  -0.4063-0.4063 0.2188  plane waves:     218
 k-point ** :  -0.2812 0.2812 0.2812  plane waves:     209
 k-point ** :  -0.3438 0.3438 0.2813  plane waves:     215
 k-point ** :  -0.4062 0.4062 0.2812  plane waves:     216
 k-point ** :  -0.3438 0.4062 0.2812  plane waves:     218
 k-point ** :  -0.4688 0.4688 0.2812  plane waves:     218
 k-point ** :  -0.4062 0.4688 0.2812  plane waves:     219
 k-point ** :  -0.4688-0.4688 0.2812  plane waves:     218
 k-point ** :  -0.4063-0.4688 0.2812  plane waves:     218
 k-point ** :  -0.3438 0.3438 0.3438  plane waves:     220
 k-point ** :  -0.4062 0.4062 0.3438  plane waves:     218
 k-point ** :  -0.4688 0.4688 0.3438  plane waves:     220
 k-point ** :  -0.4063 0.4688 0.3438  plane waves:     222
 k-point ** :  -0.4688-0.4688 0.3438  plane waves:     222
 k-point ** :  -0.4063 0.4063 0.4063  plane waves:     220
 k-point ** :  -0.4688 0.4688 0.4063  plane waves:     224
 k-point ** :  -0.4688-0.4688 0.4063  plane waves:     230
 k-point ** :  -0.4688 0.4688 0.4688  plane waves:     236

 maximum and minimum number of plane-waves per node :       236      203

 maximum number of plane-waves:       236
 maximum index in each direction: 
   IXMAX=    4   IYMAX=    4   IZMAX=    4
   IXMIN=   -4   IYMIN=   -4   IZMIN=   -4


 serial   3D FFT for wavefunctions
 parallel 3D FFT for charge:
    minimum data exchange during FFTs selected (reduces bandwidth)


 total amount of memory used by VASP MPI-rank0    35640. kBytes
=======================================================================

   base      :      30000. kBytes
   nonl-proj :       4842. kBytes
   fftplans  :         55. kBytes
   grid      :        101. kBytes
   one-center:         15. kBytes
   wavefun   :        627. kBytes
 
     INWAV:  cpu time    0.0000: real time    0.0000
 initial charge density was supplied:
 number of electron      10.9999986 magnetization 
 keeping initial charge density in first step


--------------------------------------------------------------------------------------------------------


 Maximum index for augmentation-charges          345 (set IRDMAX)


--------------------------------------------------------------------------------------------------------


 First call to EWALD:  gamma=   0.677
 Maximum number of real-space cells 3x 3x 3
 Maximum number of reciprocal cells 3x 3x 3

    FEWALD:  cpu time    0.0018: real time    0.0022


--------------------------------------- Iteration      1(   1)  ---------------------------------------


    POTLOK:  cpu time    0.0107: real time    0.0197
    SETDIJ:  cpu time    0.0057: real time    0.0081
     EDDAV:  cpu time    2.0087: real time    2.0318
 BZINTS: Fermi energy:  5.059138; 11.000000 electrons
         Band energy:-135.333198;  BLOECHL correction: -0.064942
       DOS:  cpu time    0.3427: real time    0.3469
    --------------------------------------------
      LOOP:  cpu time    2.3679: real time    2.4065

 eigenvalue-minimisations  : 15120
 total energy-change (2. order) :-0.1004641E+02  (-0.5513724E+03)
 number of electron      10.9999986 magnetization 
 augmentation part       10.9999986 magnetization 

 Free energy of the ion-electron system (eV)
  ---------------------------------------------------
  alpha Z        PSCENC =       124.80261925
  Ewald energy   TEWEN  =      -960.51057943
  -Hartree energ DENC   =      -120.12100212
  -exchange      EXHF   =         0.00000000
  -V(xc)+E(xc)   XCENC  =        26.43668385
  PAW double counting   =      1498.93283437    -1490.61690634
  entropy T*S    EENTRO =         0.00000000
  eigenvalues    EBANDS =      -135.33319750
  atomic energy  EATOM  =      1046.36313925
  Solvation  Ediel_sol  =         0.00000000
  ---------------------------------------------------
  free energy    TOTEN  =       -10.04640867 eV

  energy without entropy =      -10.04640867  energy(sigma->0) =      -10.04640867


--------------------------------------------------------------------------------------------------------




--------------------------------------- Iteration      1(   2)  ---------------------------------------


     EDDAV:  cpu time    1.4401: real time    1.4484
 BZINTS: Fermi energy:  4.834534; 11.000000 electrons
         Band energy:-136.424287;  BLOECHL correction: -0.045938
       DOS:  cpu time    0.3437: real time    0.3449
    --------------------------------------------
      LOOP:  cpu time    1.7838: real time    1.7933

 eigenvalue-minimisations  : 12320
 total energy-change (2. order) :-0.1091090E+01  (-0.1064754E+01)
 number of electron      10.9999986 magnetization 
 augmentation part       10.9999986 magnetization 

 Free energy of the ion-electron system (eV)
  ---------------------------------------------------
  alpha Z        PSCENC =       124.80261925
  Ewald energy   TEWEN  =      -960.51057943
  -Hartree energ DENC   =      -120.12100212
  -exchange      EXHF   =         0.00000000
  -V(xc)+E(xc)   XCENC  =        26.43668385
  PAW double counting   =      1498.93283437    -1490.61690634
  entropy T*S    EENTRO =         0.00000000
  eigenvalues    EBANDS =      -136.42428713
  atomic energy  EATOM  =      1046.36313925
  Solvation  Ediel_sol  =         0.00000000
  ---------------------------------------------------
  free energy    TOTEN  =       -11.13749830 eV

  energy without entropy =      -11.13749830  energy(sigma->0) =      -11.13749830


--------------------------------------------------------------------------------------------------------




--------------------------------------- Iteration      1(   3)  ---------------------------------------


     EDDAV:  cpu time    3.0163: real time    3.0251
 BZINTS: Fermi energy:  4.834441; 11.000000 electrons
         Band energy:-136.424590;  BLOECHL correction: -0.045932
       DOS:  cpu time    0.3438: real time    0.3448
    --------------------------------------------
      LOOP:  cpu time    3.3602: real time    3.3700

 eigenvalue-minimisations  : 18680
 total energy-change (2. order) :-0.3029668E-03  (-0.3052300E-03)
 number of electron      10.9999986 magnetization 
 augmentation part       10.9999986 magnetization 

 Free energy of the ion-electron system (eV)
  ---------------------------------------------------
  alpha Z        PSCENC =       124.80261925
  Ewald energy   TEWEN  =      -960.51057943
  -Hartree energ DENC   =      -120.12100212
  -exchange      EXHF   =         0.00000000
  -V(xc)+E(xc)   XCENC  =        26.43668385
  PAW double counting   =      1498.93283437    -1490.61690634
  entropy T*S    EENTRO =         0.00000000
  eigenvalues    EBANDS =      -136.42459010
  atomic energy  EATOM  =      1046.36313925
  Solvation  Ediel_sol  =         0.00000000
  ---------------------------------------------------
  free energy    TOTEN  =       -11.13780127 eV

  energy without entropy =      -11.13780127  energy(sigma->0) =      -11.13780127


--------------------------------------------------------------------------------------------------------




--------------------------------------- Iteration      1(   4)  ---------------------------------------


     EDDAV:  cpu time    1.5536: real time    1.5619
 BZINTS: Fermi energy:  4.834441; 11.000000 electrons
         Band energy:-136.424590;  BLOECHL correction: -0.045932
       DOS:  cpu time    0.3624: real time    0.3663
    --------------------------------------------
      LOOP:  cpu time    1.9160: real time    1.9282

 eigenvalue-minimisations  : 12760
 total energy-change (2. order) :-0.1363787E-08  (-0.1070094E-08)
 number of electron      10.9999986 magnetization 
 augmentation part       10.9999986 magnetization 

 Free energy of the ion-electron system (eV)
  ---------------------------------------------------
  alpha Z        PSCENC =       124.80261925
  Ewald energy   TEWEN  =      -960.51057943
  -Hartree energ DENC   =      -120.12100212
  -exchange      EXHF   =         0.00000000
  -V(xc)+E(xc)   XCENC  =        26.43668385
  PAW double counting   =      1498.93283437    -1490.61690634
  entropy T*S    EENTRO =         0.00000000
  eigenvalues    EBANDS =      -136.42459010
  atomic energy  EATOM  =      1046.36313925
  Solvation  Ediel_sol  =         0.00000000
  ---------------------------------------------------
  free energy    TOTEN  =       -11.13780127 eV

  energy without entropy =      -11.13780127  energy(sigma->0) =      -11.13780127


--------------------------------------------------------------------------------------------------------




--------------------------------------- Iteration      1(   5)  ---------------------------------------


     EDDAV:  cpu time    2.9385: real time    2.9476
 BZINTS: Fermi energy:  4.834441; 11.000000 electrons
         Band energy:-136.424590;  BLOECHL correction: -0.045932
       DOS:  cpu time    0.3530: real time    0.3541
    --------------------------------------------
      LOOP:  cpu time    3.2916: real time    3.3017

 eigenvalue-minimisations  : 18560
 total energy-change (2. order) :-0.2048637E-09  (-0.2700802E-12)
 number of electron      10.9999986 magnetization 
 augmentation part       10.9999986 magnetization 

 Free energy of the ion-electron system (eV)
  ---------------------------------------------------
  alpha Z        PSCENC =       124.80261925
  Ewald energy   TEWEN  =      -960.51057943
  -Hartree energ DENC   =      -120.12100212
  -exchange      EXHF   =         0.00000000
  -V(xc)+E(xc)   XCENC  =        26.43668385
  PAW double counting   =      1498.93283437    -1490.61690634
  entropy T*S    EENTRO =         0.00000000
  eigenvalues    EBANDS =      -136.42459010
  atomic energy  EATOM  =      1046.36313925
  Solvation  Ediel_sol  =         0.00000000
  ---------------------------------------------------
  free energy    TOTEN  =       -11.13780127 eV

  energy without entropy =      -11.13780127  energy(sigma->0) =      -11.13780127


--------------------------------------------------------------------------------------------------------




--------------------------------------- Iteration      1(   6)  ---------------------------------------


     EDDAV:  cpu time    1.3443: real time    1.3522
 BZINTS: Fermi energy:  4.834441; 11.000000 electrons
         Band energy:-136.424590;  BLOECHL correction: -0.045932
       DOS:  cpu time    0.3067: real time    0.3075
    --------------------------------------------
      LOOP:  cpu time    1.6510: real time    1.6597

 eigenvalue-minimisations  : 11080
 total energy-change (2. order) : 0.5504717E-09  ( 0.9834186E-13)
 number of electron      10.9999986 magnetization 
 augmentation part       10.9999986 magnetization 

 Free energy of the ion-electron system (eV)
  ---------------------------------------------------
  alpha Z        PSCENC =       124.80261925
  Ewald energy   TEWEN  =      -960.51057943
  -Hartree energ DENC   =      -120.12100212
  -exchange      EXHF   =         0.00000000
  -V(xc)+E(xc)   XCENC  =        26.43668385
  PAW double counting   =      1498.93283437    -1490.61690634
  entropy T*S    EENTRO =         0.00000000
  eigenvalues    EBANDS =      -136.42459010
  atomic energy  EATOM  =      1046.36313925
  Solvation  Ediel_sol  =         0.00000000
  ---------------------------------------------------
  free energy    TOTEN  =       -11.13780127 eV

  energy without entropy =      -11.13780127  energy(sigma->0) =      -11.13780127


--------------------------------------------------------------------------------------------------------




 average (electrostatic) potential at core
  the test charge radii are     1.2165
  (the norm of the test charge is              1.0000)
       1 -34.9059
 
 
 
 E-fermi :   4.8344     XC(G=0): -12.6480     alpha+bet :-12.9149


 k-point     1 :       0.0312    0.0312    0.0312
  band No.  band energies     occupation 
      1     -24.7847      2.00000
      2     -24.7010      2.00000
      3     -24.7010      2.00000
      4      -0.8452      2.00000
      5       5.0516     -0.13518
      6       5.0516     -0.00771
      7       5.4446      0.00000
      8       7.9804      0.00000
      9       7.9804      0.00000
     10      20.5656      0.00000
     11      20.8620      0.00000
     12      20.8620      0.00000
     13      29.4108      0.00000
     14      29.4108      0.00000
     15      32.8239      0.00000
     16      35.5946      0.00000
     17      35.5946      0.00000
     18      39.8147      0.00000
     19      40.8849      0.00000
     20      40.8849      0.00000
     21      41.9361      0.00000
     22      44.3574      0.00000
     23      53.7285      0.00000
     24      53.7285      0.00000
     25      54.1438      0.00000
     26      62.7908      0.00000
     27      62.7908      0.00000
     28      64.4835      0.00000
     29      67.4393      0.00000
     30      67.9767      0.00000
     31      67.9767      0.00000
     32      68.8982      0.00000
     33      70.4486      0.00000
     34      70.4486      0.00000
     35      71.4503      0.00000
     36      73.3835      0.00000
     37      73.3835      0.00000
     38      74.5255      0.00000
     39      75.5382      0.00000
     40      75.5382      0.00000

 k-point     2 :       0.0938    0.0312    0.0312
  band No.  band energies     occupation 
      1     -24.9457      2.00000
      2     -24.7458      2.00000
      3     -24.7028      2.00000
      4      -0.3900      2.00000
      5       4.7745      1.60886
      6       4.9242      0.28325
      7       5.9539      0.00000
      8       7.6995      0.00000
      9       8.0386      0.00000
     10      20.8677      0.00000
     11      21.5357      0.00000
     12      21.5773      0.00000
     13      27.7999      0.00000
     14      28.9919      0.00000
     15      31.2789      0.00000
     16      35.3077      0.00000
     17      38.0448      0.00000
     18      38.2078      0.00000
     19      40.6070      0.00000
     20      41.0394      0.00000
     21      42.1179      0.00000
     22      46.2649      0.00000
     23      52.8973      0.00000
     24      54.1113      0.00000
     25      55.4182      0.00000
     26      59.8073      0.00000
     27      60.3724      0.00000
     28      64.2276      0.00000
     29      64.5468      0.00000
     30      66.6678      0.00000
     31      67.7978      0.00000
     32      68.6502      0.00000
     33      69.7609      0.00000
     34      71.0308      0.00000
     35      72.5507      0.00000
     36      73.3638      0.00000
     37      74.1148      0.00000
     38      76.8773      0.00000
     39      76.9169      0.00000
     40      78.1462      0.00000

 k-point     3 :       0.1563    0.0313    0.0312
  band No.  band energies     occupation 
      1     -25.1722      2.00000
      2     -24.8207      2.00000
      3     -24.7056      2.00000
      4       0.2684      2.00000
      5       4.4010      2.02316
      6       4.7271      1.87737
      7       6.7284      0.00000
      8       7.5401      0.00000
      9       8.1290      0.00000
     10      20.9498      0.00000
     11      22.0008      0.00000
     12      22.5471      0.00000
     13      26.9881      0.00000
     14      28.1925      0.00000
     15      30.2756      0.00000
     16      34.2734      0.00000
     17      36.7280      0.00000
     18      39.7258      0.00000
     19      40.6483      0.00000
     20      42.1730      0.00000
     21      42.1801      0.00000
     22      48.8513      0.00000
     23      51.1478      0.00000
     24      54.3032      0.00000
     25      56.6200      0.00000
     26      57.0556      0.00000
     27      58.1104      0.00000
     28      60.4189      0.00000
     29      62.9246      0.00000
     30      66.3970      0.00000
     31      67.6994      0.00000
     32      68.7895      0.00000
     33      71.9447      0.00000
     34      72.4006      0.00000
     35      74.0482      0.00000
     36      74.1406      0.00000
     37      75.6947      0.00000
     38      77.3696      0.00000
     39      78.5900      0.00000
     40      78.7737      0.00000

 k-point     4 :       0.2188    0.0312    0.0312
  band No.  band energies     occupation 
      1     -25.4291      2.00000
      2     -24.9098      2.00000
      3     -24.7090      2.00000
      4       0.9328      2.00000
      5       4.0066      2.00000
      6       4.6147      2.03794
      7       7.5724      0.00000
      8       7.7722      0.00000
      9       8.2555      0.00000
     10      20.3298      0.00000
     11      21.4003      0.00000
     12      23.9224      0.00000
     13      27.2454      0.00000
     14      27.4528      0.00000
     15      29.8082      0.00000
     16      32.7951      0.00000
     17      36.4116      0.00000
     18      39.9135      0.00000
     19      41.1235      0.00000
     20      42.1919      0.00000
     21      44.6349      0.00000
     22      48.4317      0.00000
     23      50.9047      0.00000
     24      54.2078      0.00000
     25      54.7430      0.00000
     26      56.1559      0.00000
     27      57.8202      0.00000
     28      58.2156      0.00000
     29      60.6025      0.00000
     30      66.6174      0.00000
     31      67.9475      0.00000
     32      69.7439      0.00000
     33      71.6793      0.00000
     34      72.6732      0.00000
     35      75.1210      0.00000
     36      75.4839      0.00000
     37      76.0816      0.00000
     38      79.0644      0.00000
     39      80.4817      0.00000
     40      81.2342      0.00000

 k-point     5 :       0.2812    0.0312    0.0312
  band No.  band energies     occupation 
      1     -25.6771      2.00000
      2     -24.9981      2.00000
      3     -24.7125      2.00000
      4       1.3079      2.00000
      5       3.6500      2.00000
      6       4.9287      0.64796
      7       7.8123      0.00000
      8       8.4175      0.00000
      9       8.9140      0.00000
     10      19.3070      0.00000
     11      20.0112      0.00000
     12      25.5939      0.00000
     13      25.6821      0.00000
     14      28.8699      0.00000
     15      30.1885      0.00000
     16      31.0056      0.00000
     17      37.6934      0.00000
     18      39.6178      0.00000
     19      41.9065      0.00000
     20      42.2258      0.00000
     21      44.9722      0.00000
     22      47.2130      0.00000
     23      51.2377      0.00000
     24      52.2296      0.00000
     25      52.6893      0.00000
     26      57.2353      0.00000
     27      57.2641      0.00000
     28      58.6979      0.00000
     29      59.6685      0.00000
     30      64.8998      0.00000
     31      67.9129      0.00000
     32      68.4180      0.00000
     33      72.4304      0.00000
     34      73.3850      0.00000
     35      76.2148      0.00000
     36      76.5353      0.00000
     37      78.7252      0.00000
     38      79.9778      0.00000
     39      81.4842      0.00000
     40      81.9920      0.00000

 k-point     6 :       0.3438    0.0312    0.0312
  band No.  band energies     occupation 
      1     -25.8813      2.00000
      2     -25.0722      2.00000
      3     -24.7154      2.00000
      4       1.3265      2.00000
      5       3.3706      2.00000
      6       5.7224     -0.07771
      7       8.0439      0.00000
      8       8.5953      0.00000
      9      10.0950      0.00000
     10      18.3361      0.00000
     11      18.4869      0.00000
     12      23.9728      0.00000
     13      27.4092      0.00000
     14      29.3841      0.00000
     15      30.7698      0.00000
     16      30.8203      0.00000
     17      38.9436      0.00000
     18      39.8714      0.00000
     19      42.0558      0.00000
     20      42.1784      0.00000
     21      43.0851      0.00000
     22      47.7927      0.00000
     23      50.0426      0.00000
     24      50.8351      0.00000
     25      51.8474      0.00000
     26      55.9836      0.00000
     27      58.3118      0.00000
     28      58.7782      0.00000
     29      60.2430      0.00000
     30      63.2100      0.00000
     31      68.4515      0.00000
     32      69.0091      0.00000
     33      73.6624      0.00000
     34      74.0704      0.00000
     35      75.6483      0.00000
     36      75.7035      0.00000
     37      80.3397      0.00000
     38      81.2684      0.00000
     39      82.4231      0.00000
     40      82.8483      0.00000

 k-point     7 :       0.4063    0.0312    0.0312
  band No.  band energies     occupation 
      1     -26.0150      2.00000
      2     -25.1212      2.00000
      3     -24.7174      2.00000
      4       1.2236      2.00000
      5       3.1936      2.00000
      6       6.6092      0.00000
      7       8.1536      0.00000
      8       8.7397      0.00000
      9      11.0523      0.00000
     10      17.2959      0.00000
     11      17.6642      0.00000
     12      22.6467      0.00000
     13      28.3233      0.00000
     14      29.0400      0.00000
     15      31.2367      0.00000
     16      32.8460      0.00000
     17      37.6743      0.00000
     18      39.7529      0.00000
     19      41.8732      0.00000
     20      42.1946      0.00000
     21      44.8639      0.00000
     22      46.8719      0.00000
     23      48.7659      0.00000
     24      50.6956      0.00000
     25      50.9112      0.00000
     26      55.0156      0.00000
     27      56.7967      0.00000
     28      58.8887      0.00000
     29      60.1056      0.00000
     30      66.8792      0.00000
     31      69.3234      0.00000
     32      69.4362      0.00000
     33      73.8398      0.00000
     34      73.9793      0.00000
     35      74.8219      0.00000
     36      75.4374      0.00000
     37      77.7309      0.00000
     38      79.7661      0.00000
     39      81.4832      0.00000
     40      82.4957      0.00000

 k-point     8 :       0.4688    0.0312    0.0312
  band No.  band energies     occupation 
      1     -26.0614      2.00000
      2     -25.1383      2.00000
      3     -24.7181      2.00000
      4       1.1731      2.00000
      5       3.1335      2.00000
      6       7.0437      0.00000
      7       8.1363      0.00000
      8       8.7961      0.00000
      9      11.4395      0.00000
     10      16.8333      0.00000
     11      17.4246      0.00000
     12      22.1320      0.00000
     13      27.9496      0.00000
     14      29.7780      0.00000
     15      31.3855      0.00000
     16      34.3191      0.00000
     17      36.3589      0.00000
     18      38.9148      0.00000
     19      42.1812      0.00000
     20      42.6163      0.00000
     21      46.4205      0.00000
     22      46.8001      0.00000
     23      48.0689      0.00000
     24      49.2273      0.00000
     25      51.0191      0.00000
     26      55.0971      0.00000
     27      55.2045      0.00000
     28      58.8645      0.00000
     29      61.0601      0.00000
     30      68.7908      0.00000
     31      69.4550      0.00000
     32      70.3019      0.00000
     33      73.5769      0.00000
     34      73.8072      0.00000
[...]
     12      23.9973      0.00000
     13      25.2449      0.00000
     14      27.1541      0.00000
     15      31.3646      0.00000
     16      37.0156      0.00000
     17      38.7993      0.00000
     18      42.1029      0.00000
     19      43.6495      0.00000
     20      43.8404      0.00000
     21      45.4526      0.00000
     22      48.1383      0.00000
     23      49.4825      0.00000
     24      52.1303      0.00000
     25      53.8024      0.00000
     26      54.1379      0.00000
     27      55.0520      0.00000
     28      56.0105      0.00000
     29      57.8708      0.00000
     30      58.3181      0.00000
     31      60.4057      0.00000
     32      61.4801      0.00000
     33      64.4356      0.00000
     34      65.9723      0.00000
     35      67.4383      0.00000
     36      69.0594      0.00000
     37      70.8963      0.00000
     38      75.1254      0.00000
     39      83.9379      0.00000
     40      84.7629      0.00000

 k-point   135 :      -0.4063    0.4688    0.3438
  band No.  band energies     occupation 
      1     -25.6887      2.00000
      2     -25.5719      2.00000
      3     -25.4656      2.00000
      4       1.5931      2.00000
      5       1.7715      2.00000
      6       7.7667      0.00000
      7       8.7479      0.00000
      8      10.0816      0.00000
      9      13.1122      0.00000
     10      16.4824      0.00000
     11      16.6682      0.00000
     12      23.8942      0.00000
     13      25.4227      0.00000
     14      26.8478      0.00000
     15      31.2099      0.00000
     16      37.4575      0.00000
     17      39.0572      0.00000
     18      41.8963      0.00000
     19      43.1625      0.00000
     20      44.3851      0.00000
     21      45.7569      0.00000
     22      47.7331      0.00000
     23      51.7349      0.00000
     24      51.9258      0.00000
     25      52.2071      0.00000
     26      54.6313      0.00000
     27      54.9124      0.00000
     28      56.7570      0.00000
     29      58.3520      0.00000
     30      58.3765      0.00000
     31      59.0103      0.00000
     32      62.0530      0.00000
     33      62.7258      0.00000
     34      65.0474      0.00000
     35      66.6571      0.00000
     36      68.9098      0.00000
     37      70.0515      0.00000
     38      74.0845      0.00000
     39      84.4803      0.00000
     40      88.7709      0.00000

 k-point   136 :      -0.4688   -0.4688    0.3438
  band No.  band energies     occupation 
      1     -25.6941      2.00000
      2     -25.6087      2.00000
      3     -25.4618      2.00000
      4       1.5354      2.00000
      5       1.6342      2.00000
      6       7.7705      0.00000
      7       9.1596      0.00000
      8      10.2559      0.00000
      9      14.3803      0.00000
     10      15.2064      0.00000
     11      16.0335      0.00000
     12      24.7661      0.00000
     13      25.3464      0.00000
     14      25.9919      0.00000
     15      31.0129      0.00000
     16      37.5616      0.00000
     17      40.4070      0.00000
     18      42.2403      0.00000
     19      42.7495      0.00000
     20      44.8891      0.00000
     21      45.3763      0.00000
     22      47.7046      0.00000
     23      51.0776      0.00000
     24      52.4796      0.00000
     25      53.4305      0.00000
     26      53.9488      0.00000
     27      55.0364      0.00000
     28      55.4403      0.00000
     29      57.4168      0.00000
     30      59.2449      0.00000
     31      60.2686      0.00000
     32      61.1219      0.00000
     33      63.0779      0.00000
     34      64.5433      0.00000
     35      64.8084      0.00000
     36      68.6641      0.00000
     37      69.3905      0.00000
     38      72.4968      0.00000
     39      84.6405      0.00000
     40      90.1729      0.00000

 k-point   137 :      -0.4063    0.4063    0.4063
  band No.  band energies     occupation 
      1     -25.6419      2.00000
      2     -25.5558      2.00000
      3     -25.5558      2.00000
      4       1.4802      2.00000
      5       1.6699      2.00000
      6       8.7047      0.00000
      7       8.7047      0.00000
      8       9.8318      0.00000
      9      12.5517      0.00000
     10      16.7459      0.00000
     11      16.7459      0.00000
     12      23.4718      0.00000
     13      25.5850      0.00000
     14      26.8067      0.00000
     15      31.0310      0.00000
     16      38.7405      0.00000
     17      38.7405      0.00000
     18      41.0179      0.00000
     19      42.7435      0.00000
     20      45.9526      0.00000
     21      45.9526      0.00000
     22      46.7268      0.00000
     23      51.4012      0.00000
     24      53.7748      0.00000
     25      53.7748      0.00000
     26      54.5910      0.00000
     27      55.6691      0.00000
     28      56.4649      0.00000
     29      56.4876      0.00000
     30      56.4876      0.00000
     31      60.0837      0.00000
     32      62.3552      0.00000
     33      62.3553      0.00000
     34      64.3295      0.00000
     35      64.7595      0.00000
     36      68.7577      0.00000
     37      68.7577      0.00000
     38      73.2153      0.00000
     39      89.0711      0.00000
     40      89.0718      0.00000

 k-point   138 :      -0.4688    0.4688    0.4063
  band No.  band energies     occupation 
      1     -25.6695      2.00000
      2     -25.5920      2.00000
      3     -25.5657      2.00000
      4       1.3180      2.00000
      5       1.4139      2.00000
      6       9.0705      0.00000
      7       9.2182      0.00000
      8      10.3852      0.00000
      9      13.6522      0.00000
     10      15.3333      0.00000
     11      15.7337      0.00000
     12      24.1169      0.00000
     13      25.6593      0.00000
     14      25.9014      0.00000
     15      30.6073      0.00000
     16      39.4101      0.00000
     17      40.2028      0.00000
     18      42.0383      0.00000
     19      42.8675      0.00000
     20      44.9852      0.00000
     21      45.8028      0.00000
     22      47.1919      0.00000
     23      52.8316      0.00000
     24      53.0442      0.00000
     25      53.7269      0.00000
     26      54.4960      0.00000
     27      55.3223      0.00000
     28      55.5950      0.00000
     29      57.2315      0.00000
     30      58.5090      0.00000
     31      59.3762      0.00000
     32      60.2478      0.00000
     33      62.5811      0.00000
     34      62.8333      0.00000
     35      64.4364      0.00000
     36      66.0073      0.00000
     37      66.9106      0.00000
     38      70.3199      0.00000
     39      90.3444      0.00000
     40      91.0374      0.00000

 k-point   139 :      -0.4688   -0.4688    0.4063
  band No.  band energies     occupation 
      1     -25.6457      2.00000
      2     -25.6457      2.00000
      3     -25.5710      2.00000
      4       1.2551      2.00000
      5       1.2551      2.00000
      6       9.2002      0.00000
      7      10.1738      0.00000
      8      10.1738      0.00000
      9      14.5589      0.00000
     10      14.5589      0.00000
     11      14.9043      0.00000
     12      24.0812      0.00000
     13      25.7232      0.00000
     14      25.7232      0.00000
     15      30.3925      0.00000
     16      39.7341      0.00000
     17      41.9252      0.00000
     18      41.9252      0.00000
     19      42.2412      0.00000
     20      45.5042      0.00000
     21      45.5043      0.00000
     22      46.8162      0.00000
     23      52.4105      0.00000
     24      53.4331      0.00000
     25      54.6220      0.00000
     26      54.6220      0.00000
     27      55.1885      0.00000
     28      55.1885      0.00000
     29      58.0902      0.00000
     30      58.6258      0.00000
     31      60.2893      0.00000
     32      60.2893      0.00000
     33      61.8266      0.00000
     34      61.8266      0.00000
     35      62.1944      0.00000
     36      65.8722      0.00000
     37      65.8722      0.00000
     38      68.2974      0.00000
     39      90.9948      0.00000
     40      96.1002      0.00000

 k-point   140 :      -0.4688    0.4688    0.4688
  band No.  band energies     occupation 
      1     -25.6391      2.00000
      2     -25.6285      2.00000
      3     -25.6285      2.00000
      4       1.1266      2.00000
      5       1.1535      2.00000
      6      10.1448      0.00000
      7      10.1448      0.00000
      8      10.3738      0.00000
      9      13.9831      0.00000
     10      14.6084      0.00000
     11      14.6084      0.00000
     12      23.5817      0.00000
     13      25.8439      0.00000
     14      25.8911      0.00000
     15      30.1703      0.00000
     16      41.5075      0.00000
     17      41.5075      0.00000
     18      41.6928      0.00000
     19      42.3896      0.00000
     20      45.8793      0.00000
     21      45.9042      0.00000
     22      45.9042      0.00000
     23      51.5821      0.00000
     24      54.1466      0.00000
     25      54.4974      0.00000
     26      54.4974      0.00000
     27      56.7698      0.00000
     28      56.7698      0.00000
     29      57.2949      0.00000
     30      59.3256      0.00000
     31      59.6539      0.00000
     32      60.4935      0.00000
     33      60.4935      0.00000
     34      61.4264      0.00000
     35      62.8698      0.00000
     36      63.7545      0.00000
     37      63.7545      0.00000
     38      66.4719      0.00000
     39      96.3195      0.00000
     40      96.3207      0.00000


--------------------------------------------------------------------------------------------------------


 soft charge-density along one line, spin component           1
         0         1         2         3         4         5         6         7         8         9
 total charge-density along one line
 
 pseudopotential strength for first ion, spin component:           1
-27.829   0.000   0.000   0.000   0.000   0.000   5.816   0.000  -0.000   0.000  -0.000   0.000  -0.000   0.000  -0.000   0.000
  0.000   0.000 -27.829   0.000   0.000   0.000  -0.000   0.000   5.816   0.000  -0.000   0.000  -0.000   0.000   0.000   0.000
  0.000   0.000   0.000   0.000 -27.829   0.000  -0.000   0.000  -0.000   0.000   5.816   0.000   0.000   0.000  -0.000   0.000
  5.816   0.000  -0.000   0.000  -0.000   0.000   4.386   0.000   0.000   0.000   0.000   0.000   0.000   0.000   0.000   0.000
 -0.000   0.000   5.816   0.000  -0.000   0.000   0.000   0.000   4.386   0.000   0.000   0.000   0.000   0.000  -0.000   0.000
 -0.000   0.000  -0.000   0.000   5.816   0.000   0.000   0.000   0.000   0.000   4.386   0.000  -0.000   0.000   0.000   0.000
 -0.000   0.000  -0.000   0.000   0.000   0.000   0.000   0.000   0.000   0.000  -0.000   0.000  -6.228   0.000   0.000   0.000
 -0.000   0.000   0.000   0.000  -0.000   0.000   0.000   0.000  -0.000   0.000   0.000   0.000   0.000   0.000  -6.228   0.000
  0.000   0.000   0.000   0.000   0.000   0.000   0.000   0.000   0.000   0.000  -0.000   0.000  -0.000   0.000   0.000   0.000
 -0.000   0.000  -0.000   0.000  -0.000   0.000   0.000   0.000   0.000   0.000   0.000   0.000   0.000   0.000   0.000   0.000
  0.000   0.000  -0.000   0.000  -0.000   0.000   0.000   0.000   0.000   0.000   0.000   0.000   0.000   0.000  -0.000   0.000
 -0.000   0.000  -0.000   0.000   0.000   0.000   0.000   0.000   0.000   0.000  -0.000   0.000  -7.057   0.000   0.000   0.000
 -0.000   0.000   0.000   0.000  -0.000   0.000   0.000   0.000   0.000   0.000   0.000   0.000   0.000   0.000  -7.057   0.000
 -0.000   0.000  -0.000   0.000   0.000   0.000   0.000   0.000   0.000   0.000  -0.000   0.000  -0.000   0.000   0.000   0.000
 -0.000   0.000  -0.000   0.000  -0.000   0.000   0.000   0.000   0.000   0.000   0.000   0.000   0.000   0.000   0.000   0.000
 -0.000   0.000  -0.000   0.000  -0.000   0.000   0.000   0.000   0.000   0.000   0.000   0.000   0.000   0.000  -0.000   0.000
 -0.000   0.000   0.000   0.000   0.000   0.000   0.000   0.000  -0.000   0.000  -0.000   0.000  -0.000   0.000  -0.000   0.000
  0.000   0.000  -0.000   0.000  -0.000   0.000   0.000   0.000   0.000   0.000  -0.000   0.000   0.000   0.000   0.000   0.000
 total augmentation occupancy for first ion, spin component:           1
  2.000   0.000   0.000   0.000   0.000   0.000   0.000   0.000   0.000   0.000   0.000   0.000   0.000   0.000   0.000   0.000
  0.000   2.000   0.000   0.000   0.000   0.000   0.000   0.000   0.000   0.000   0.000   0.000   0.000   0.000   0.000   0.000
  0.000   0.000   2.000   0.000   0.000   0.000   0.000   0.000   0.000   0.000   0.000   0.000   0.000   0.000   0.000   0.000
  0.000   0.000   0.000   0.000   0.000   0.000   0.000   0.000   0.000   0.000   0.000   0.000   0.000   0.000   0.000   0.000
  0.000   0.000   0.000   0.000   0.000   0.000   0.000   0.000   0.000   0.000   0.000   0.000   0.000   0.000   0.000   0.000
  0.000   0.000   0.000   0.000   0.000   0.000   0.000   0.000   0.000   0.000   0.000   0.000   0.000   0.000   0.000   0.000
  0.000   0.000   0.000   0.000   0.000   0.000   0.800   0.000   0.000   0.000   0.000   0.000   0.000   0.000   0.000   0.000
  0.000   0.000   0.000   0.000   0.000   0.000   0.000   0.800   0.000   0.000   0.000   0.000   0.000   0.000   0.000   0.000
  0.000   0.000   0.000   0.000   0.000   0.000   0.000   0.000   0.800   0.000   0.000   0.000   0.000   0.000   0.000   0.000
  0.000   0.000   0.000   0.000   0.000   0.000   0.000   0.000   0.000   0.800   0.000   0.000   0.000   0.000   0.000   0.000
  0.000   0.000   0.000   0.000   0.000   0.000   0.000   0.000   0.000   0.000   0.800   0.000   0.000   0.000   0.000   0.000
  0.000   0.000   0.000   0.000   0.000   0.000   0.000   0.000   0.000   0.000   0.000   0.000   0.000   0.000   0.000   0.000
  0.000   0.000   0.000   0.000   0.000   0.000   0.000   0.000   0.000   0.000   0.000   0.000   0.000   0.000   0.000   0.000
  0.000   0.000   0.000   0.000   0.000   0.000   0.000   0.000   0.000   0.000   0.000   0.000   0.000   0.000   0.000   0.000
  0.000   0.000   0.000   0.000   0.000   0.000   0.000   0.000   0.000   0.000   0.000   0.000   0.000   0.000   0.000   0.000
  0.000   0.000   0.000   0.000   0.000   0.000   0.000   0.000   0.000   0.000   0.000   0.000   0.000   0.000   0.000   0.000
  0.000   0.000   0.000   0.000   0.000   0.000   0.000   0.000   0.000   0.000   0.000   0.000   0.000   0.000   0.000   0.000
  0.000   0.000   0.000   0.000   0.000   0.000   0.000   0.000   0.000   0.000   0.000   0.000   0.000   0.000   0.000   0.000


------------------------ aborting loop because EDIFF is reached ----------------------------------------


    CHARGE:  cpu time    0.0060: real time    0.0118
    FORLOC:  cpu time    0.0000: real time    0.0009
    FORNL :  cpu time    0.0062: real time    0.0090
    STRESS:  cpu time    0.0919: real time    0.0952
    FORCOR:  cpu time    0.0012: real time    0.0029
    FORHAR:  cpu time    0.0008: real time    0.0018
    OFIELD:  cpu time    0.0004: real time    0.0012

  FORCE on cell =-STRESS in cart. coord.  units (eV):
  Direction    XX          YY          ZZ          XY          YZ          ZX
  --------------------------------------------------------------------------------------
  Alpha Z   124.80262   124.80262   124.80262
  Ewald    -320.17018  -320.17018  -320.17018    -0.00000    -0.00000     0.00000
  Hartree    40.04427    40.04427    40.04427     0.00000     0.00000     0.00000
  E(xc)     -46.88484   -46.88484   -46.88484    -0.00000    -0.00000    -0.00000
  Local     102.78108   102.78108   102.78108    -0.00000    -0.00000    -0.00000
  n-local   -42.91930   -42.17940   -40.56781     3.35315    -2.37029    -2.97840
  augment    26.17648    26.17648    26.17648    -0.00000    -0.00000    -0.00000
  Kinetic   114.09836   112.54515   116.51120    -0.50679     1.00231     1.70771
  Fock        0.00000     0.00000     0.00000     0.00000     0.00000     0.00000
  -------------------------------------------------------------------------------------
  Total      -0.75450    -0.75450    -0.75450     0.00000     0.00000     0.00000
  in kB     -67.22673   -67.22673   -67.22673     0.00000     0.00000     0.00000
  external pressure =      -67.23 kB  Pullay stress =        0.00 kB


 VOLUME and BASIS-vectors are now :
 -----------------------------------------------------------------------------
  energy-cutoff  :      300.00
  volume of cell :       17.98
      direct lattice vectors                 reciprocal lattice vectors
    -1.650400000  1.650400000  1.650400000     0.000000000  0.302956859  0.302956859
     1.650400000 -1.650400000  1.650400000     0.302956859  0.000000000  0.302956859
     1.650400000  1.650400000 -1.650400000     0.302956859  0.302956859  0.000000000

  length of vectors
     2.858576653  2.858576653  2.858576653     0.428445699  0.428445699  0.428445699


 FORCES acting on ions
    electron-ion (+dipol)            ewald-force                    non-local-force                 convergence-correction
 -----------------------------------------------------------------------------------------------
   -.231E-14 0.755E-15 -.207E-15   0.544E-15 -.107E-14 -.107E-14   -.113E-25 0.969E-26 -.113E-25   0.645E-15 -.597E-14 -.330E-14
 -----------------------------------------------------------------------------------------------
   -.231E-14 0.755E-15 -.207E-15   0.544E-15 -.107E-14 -.107E-14   -.113E-25 0.969E-26 -.113E-25   0.645E-15 -.597E-14 -.330E-14
 
 
 POSITION                                       TOTAL-FORCE (eV/Angst)
 -----------------------------------------------------------------------------------
      0.00000      0.00000      0.00000        -0.000000      0.000000     -0.000000
 -----------------------------------------------------------------------------------
    total drift:                               -0.000000     -0.000000     -0.000000


--------------------------------------------------------------------------------------------------------



  FREE ENERGIE OF THE ION-ELECTRON SYSTEM (eV)
  ---------------------------------------------------
  free  energy   TOTEN  =       -11.13780127 eV

  energy  without entropy=      -11.13780127  energy(sigma->0) =      -11.13780127
 


--------------------------------------------------------------------------------------------------------


    POTLOK:  cpu time    0.0032: real time    0.0046


--------------------------------------------------------------------------------------------------------


 writing wavefunctions
     LOOP+:  cpu time   14.7019: real time   14.8341
    4ORBIT:  cpu time    0.0000: real time    0.0000
 BZINTS: Fermi energy:  4.834441; 11.000000 electrons
         Band energy:-136.424590;  BLOECHL correction: -0.045932

 total amount of memory used by VASP MPI-rank0    35640. kBytes
=======================================================================

   base      :      30000. kBytes
   nonl-proj :       4842. kBytes
   fftplans  :         55. kBytes
   grid      :        101. kBytes
   one-center:         15. kBytes
   wavefun   :        627. kBytes
 
  
  
 General timing and accounting informations for this job:
 ========================================================
  
                  Total CPU time used (sec):       17.184
                            User time (sec):       15.161
                          System time (sec):        2.023
                         Elapsed time (sec):       17.755
  
                   Maximum memory used (kb):       59828.
                   Average memory used (kb):           0.
  
                          Minor page faults:        17710
                          Major page faults:           54
                 Voluntary context switches:         1410
