<?xml version="1.0" encoding="ISO-8859-1"?>
<modeling>
 <generator>
  <i name="program" type="string">vasp </i>
  <i name="version" type="string">5.4.4.18Apr17-6-g9f103f2a35  </i>
  <i name="subversion" type="string">(build May 20 2018 16:52:39) complex            parallel </i>
  <i name="platform" type="string">LinuxIFC </i>
  <i name="date" type="string">2022 11 17 </i>
  <i name="time" type="string">22:01:40 </i>
 </generator>
 <incar>
  <i type="string" name="SYSTEM"> Nb tetrahedron</i>
  <i type="string" name="PREC">normal</i>
  <i type="int" name="ICHARG">    11</i>
  <i name="EDIFF">      0.00000010</i>
  <i name="ENCUT">    300.00000000</i>
  <i type="int" name="ISMEAR">    -5</i>
  <i type="logical" name="LCHARG"> F  </i>
  <v type="int" name="KPOINT_BSE">    -1     0     0     0</v>
 </incar>
 <structure name="primitive_cell" >
  <crystal>
   <varray name="basis" >
    <v>      -1.65040000       1.65040000       1.65040000 </v>
    <v>       1.65040000      -1.65040000       1.65040000 </v>
    <v>       1.65040000       1.65040000      -1.65040000 </v>
   </varray>
   <i name="volume">     17.98157117 </i>
   <varray name="rec_basis" >
    <v>       0.00000000       0.30295686       0.30295686 </v>
    <v>       0.30295686       0.00000000       0.30295686 </v>
    <v>       0.30295686       0.30295686       0.00000000 </v>
   </varray>
  </crystal>
  <varray name="positions" >
   <v>       0.00000000       0.00000000       0.00000000 </v>
  </varray>
 </structure>
 <varray name="primitive_index" >
  <v type="int" >        1 </v>
 </varray>
 <kpoints>
  <generation param="Monkhorst-Pack">
   <v type="int" name="divisions">      16       16       16 </v>
   <v name="usershift">      0.00000000       0.00000000       0.00000000 </v>
   <v name="genvec1">      0.06250000       0.00000000       0.00000000 </v>
   <v name="genvec2">      0.00000000       0.06250000       0.00000000 </v>
   <v name="genvec3">      0.00000000       0.00000000       0.06250000 </v>
   <v name="shift">      0.50000000       0.50000000       0.50000000 </v>
  </generation>
  <varray name="kpointlist" >
   <v>       0.03125000       0.03125000       0.03125000 </v>
   <v>       0.09375000       0.03125000       0.03125000 </v>
   <v>       0.15625000       0.03125000       0.03125000 </v>
   <v>       0.21875000       0.03125000       0.03125000 </v>
   <v>       0.28125000       0.03125000       0.03125000 </v>
   <v>       0.34375000       0.03125000       0.03125000 </v>
   <v>       0.40625000       0.03125000       0.03125000 </v>
   <v>       0.46875000       0.03125000       0.03125000 </v>
   <v>      -0.03125000       0.03125000       0.03125000 </v>
   <v>       0.09375000       0.09375000       0.03125000 </v>
   <v>       0.15625000       0.09375000       0.03125000 </v>
   <v>       0.21875000       0.09375000       0.03125000 </v>
   <v>       0.28125000       0.09375000       0.03125000 </v>
   <v>       0.34375000       0.09375000       0.03125000 </v>
   <v>       0.40625000       0.09375000       0.03125000 </v>
   <v>      -0.09375000       0.09375000       0.03125000 </v>
   <v>       0.15625000       0.15625000       0.03125000 </v>
   <v>       0.21875000       0.15625000       0.03125000 </v>
   <v>       0.28125000       0.15625000       0.03125000 </v>
   <v>       0.34375000       0.15625000       0.03125000 </v>
   <v>       0.40625000       0.15625000       0.03125000 </v>
   <v>      -0.15625000       0.15625000       0.03125000 </v>
   <v>      -0.09375000       0.15625000       0.03125000 </v>
   <v>       0.21875000       0.21875000       0.03125000 </v>
   <v>       0.28125000       0.21875000       0.03125000 </v>
   <v>       0.34375000       0.21875000       0.03125000 </v>
   <v>      -0.21875000       0.21875000       0.03125000 </v>
   <v>      -0.15625000       0.21875000       0.03125000 </v>
   <v>       0.28125000       0.28125000       0.03125000 </v>
   <v>       0.34375000       0.28125000       0.03125000 </v>
   <v>      -0.28125000       0.28125000       0.03125000 </v>
   <v>      -0.21875000       0.28125000       0.03125000 </v>
   <v>      -0.15625000       0.28125000       0.03125000 </v>
   <v>      -0.34375000       0.34375000       0.03125000 </v>
   <v>      -0.28125000       0.34375000       0.03125000 </v>
   <v>      -0.21875000       0.34375000       0.03125000 </v>
   <v>      -0.40625000       0.40625000       0.03125000 </v>
   <v>      -0.34375000       0.40625000       0.03125000 </v>
   <v>      -0.28125000       0.40625000       0.03125000 </v>
   <v>      -0.21875000       0.40625000       0.03125000 </v>
   <v>      -0.46875000       0.46875000       0.03125000 </v>
   <v>      -0.40625000       0.46875000       0.03125000 </v>
   <v>      -0.34375000       0.46875000       0.03125000 </v>
   <v>      -0.28125000       0.46875000       0.03125000 </v>
   <v>      -0.46875000      -0.46875000       0.03125000 </v>
   <v>      -0.40625000      -0.46875000       0.03125000 </v>
   <v>      -0.34375000      -0.46875000       0.03125000 </v>
   <v>      -0.28125000      -0.46875000       0.03125000 </v>
   <v>      -0.40625000      -0.40625000       0.03125000 </v>
   <v>      -0.34375000      -0.40625000       0.03125000 </v>
   <v>      -0.34375000      -0.34375000       0.03125000 </v>
   <v>       0.09375000       0.09375000       0.09375000 </v>
   <v>       0.15625000       0.09375000       0.09375000 </v>
   <v>       0.21875000       0.09375000       0.09375000 </v>
   <v>       0.28125000       0.09375000       0.09375000 </v>
   <v>       0.34375000       0.09375000       0.09375000 </v>
   <v>       0.40625000       0.09375000       0.09375000 </v>
   <v>      -0.09375000       0.09375000       0.09375000 </v>
   <v>       0.15625000       0.15625000       0.09375000 </v>
   <v>       0.21875000       0.15625000       0.09375000 </v>
   <v>       0.28125000       0.15625000       0.09375000 </v>
   <v>       0.34375000       0.15625000       0.09375000 </v>
   <v>      -0.15625000       0.15625000       0.09375000 </v>
   <v>       0.21875000       0.21875000       0.09375000 </v>
   <v>       0.28125000       0.21875000       0.09375000 </v>
   <v>       0.34375000       0.21875000       0.09375000 </v>
   <v>      -0.21875000       0.21875000       0.09375000 </v>
   <v>      -0.15625000       0.21875000       0.09375000 </v>
   <v>       0.28125000       0.28125000       0.09375000 </v>
   <v>      -0.28125000       0.28125000       0.09375000 </v>
   <v>      -0.21875000       0.28125000       0.09375000 </v>
   <v>      -0.34375000       0.34375000       0.09375000 </v>
   <v>      -0.28125000       0.34375000       0.09375000 </v>
   <v>      -0.21875000       0.34375000       0.09375000 </v>
   <v>      -0.40625000       0.40625000       0.09375000 </v>
   <v>      -0.34375000       0.40625000       0.09375000 </v>
   <v>      -0.28125000       0.40625000       0.09375000 </v>
   <v>      -0.46875000       0.46875000       0.09375000 </v>
   <v>      -0.40625000       0.46875000       0.09375000 </v>
   <v>      -0.34375000       0.46875000       0.09375000 </v>
   <v>      -0.28125000       0.46875000       0.09375000 </v>
   <v>      -0.46875000      -0.46875000       0.09375000 </v>
   <v>      -0.40625000      -0.46875000       0.09375000 </v>
   <v>      -0.34375000      -0.46875000       0.09375000 </v>
   <v>      -0.40625000      -0.40625000       0.09375000 </v>
   <v>      -0.34375000      -0.40625000       0.09375000 </v>
   <v>       0.15625000       0.15625000       0.15625000 </v>
   <v>       0.21875000       0.15625000       0.15625000 </v>
   <v>       0.28125000       0.15625000       0.15625000 </v>
   <v>       0.34375000       0.15625000       0.15625000 </v>
   <v>      -0.15625000       0.15625000       0.15625000 </v>
   <v>       0.21875000       0.21875000       0.15625000 </v>
   <v>       0.28125000       0.21875000       0.15625000 </v>
   <v>      -0.21875000       0.21875000       0.15625000 </v>
   <v>       0.28125000       0.28125000       0.15625000 </v>
   <v>      -0.28125000       0.28125000       0.15625000 </v>
   <v>      -0.21875000       0.28125000       0.15625000 </v>
   <v>      -0.34375000       0.34375000       0.15625000 </v>
   <v>      -0.28125000       0.34375000       0.15625000 </v>
   <v>      -0.40625000       0.40625000       0.15625000 </v>
   <v>      -0.34375000       0.40625000       0.15625000 </v>
   <v>      -0.28125000       0.40625000       0.15625000 </v>
   <v>      -0.46875000       0.46875000       0.15625000 </v>
   <v>      -0.40625000       0.46875000       0.15625000 </v>
   <v>      -0.34375000       0.46875000       0.15625000 </v>
   <v>      -0.46875000      -0.46875000       0.15625000 </v>
   <v>      -0.40625000      -0.46875000       0.15625000 </v>
   <v>      -0.34375000      -0.46875000       0.15625000 </v>
   <v>      -0.40625000      -0.40625000       0.15625000 </v>
   <v>       0.21875000       0.21875000       0.21875000 </v>
   <v>       0.28125000       0.21875000       0.21875000 </v>
   <v>      -0.21875000       0.21875000       0.21875000 </v>
   <v>      -0.28125000       0.28125000       0.21875000 </v>
   <v>      -0.34375000       0.34375000       0.21875000 </v>
   <v>      -0.28125000       0.34375000       0.21875000 </v>
   <v>      -0.40625000       0.40625000       0.21875000 </v>
   <v>      -0.34375000       0.40625000       0.21875000 </v>
   <v>      -0.46875000       0.46875000       0.21875000 </v>
   <v>      -0.40625000       0.46875000       0.21875000 </v>
   <v>      -0.34375000       0.46875000       0.21875000 </v>
   <v>      -0.46875000      -0.46875000       0.21875000 </v>
   <v>      -0.40625000      -0.46875000       0.21875000 </v>
   <v>      -0.40625000      -0.40625000       0.21875000 </v>
   <v>      -0.28125000       0.28125000       0.28125000 </v>
   <v>      -0.34375000       0.34375000       0.28125000 </v>
   <v>      -0.40625000       0.40625000       0.28125000 </v>
   <v>      -0.34375000       0.40625000       0.28125000 </v>
   <v>      -0.46875000       0.46875000       0.28125000 </v>
   <v>      -0.40625000       0.46875000       0.28125000 </v>
   <v>      -0.46875000      -0.46875000       0.28125000 </v>
   <v>      -0.40625000      -0.46875000       0.28125000 </v>
   <v>      -0.34375000       0.34375000       0.34375000 </v>
   <v>      -0.40625000       0.40625000       0.34375000 </v>
   <v>      -0.46875000       0.46875000       0.34375000 </v>
   <v>      -0.40625000       0.46875000       0.34375000 </v>
   <v>      -0.46875000      -0.46875000       0.34375000 </v>
   <v>      -0.40625000       0.40625000       0.40625000 </v>
   <v>      -0.46875000       0.46875000       0.40625000 </v>
   <v>      -0.46875000      -0.46875000       0.40625000 </v>
   <v>      -0.46875000       0.46875000       0.46875000 </v>
  </varray>
  <varray name="weights" >
   <v>       0.00195312 </v>
   <v>       0.00585938 </v>
   <v>       0.00585938 </v>
   <v>       0.00585938 </v>
   <v>       0.00585938 </v>
   <v>       0.00585938 </v>
   <v>       0.00585938 </v>
   <v>       0.00292969 </v>
   <v>       0.00146484 </v>
   <v>       0.00585938 </v>
   <v>       0.01171875 </v>
   <v>       0.01171875 </v>
   <v>       0.01171875 </v>
   <v>       0.01171875 </v>
   <v>       0.01171875 </v>
   <v>       0.00585938 </v>
   <v>       0.00585938 </v>
   <v>       0.01171875 </v>
   <v>       0.01171875 </v>
   <v>       0.01171875 </v>
   <v>       0.00585938 </v>
   <v>       0.00585938 </v>
   <v>       0.00585938 </v>
   <v>       0.00585938 </v>
   <v>       0.01171875 </v>
   <v>       0.01171875 </v>
   <v>       0.00585938 </v>
   <v>       0.01171875 </v>
   <v>       0.00585938 </v>
   <v>       0.00585938 </v>
   <v>       0.00585938 </v>
   <v>       0.01171875 </v>
   <v>       0.00585938 </v>
   <v>       0.00585938 </v>
   <v>       0.01171875 </v>
   <v>       0.01171875 </v>
   <v>       0.00585938 </v>
   <v>       0.01171875 </v>
   <v>       0.01171875 </v>
   <v>       0.00585938 </v>
   <v>       0.00585938 </v>
   <v>       0.01171875 </v>
   <v>       0.01171875 </v>
   <v>       0.01171875 </v>
   <v>       0.00585938 </v>
   <v>       0.01171875 </v>
   <v>       0.01171875 </v>
   <v>       0.00585938 </v>
   <v>       0.00585938 </v>
   <v>       0.01171875 </v>
   <v>       0.00195312 </v>
   <v>       0.00195312 </v>
   <v>       0.00585938 </v>
   <v>       0.00585938 </v>
   <v>       0.00585938 </v>
   <v>       0.00585938 </v>
   <v>       0.00292969 </v>
   <v>       0.00146484 </v>
   <v>       0.00585938 </v>
   <v>       0.01171875 </v>
   <v>       0.01171875 </v>
   <v>       0.01171875 </v>
   <v>       0.00585938 </v>
   <v>       0.00585938 </v>
   <v>       0.01171875 </v>
   <v>       0.00585938 </v>
   <v>       0.00585938 </v>
   <v>       0.00585938 </v>
   <v>       0.00585938 </v>
   <v>       0.00585938 </v>
   <v>       0.01171875 </v>
   <v>       0.00585938 </v>
   <v>       0.01171875 </v>
   <v>       0.00585938 </v>
   <v>       0.00585938 </v>
   <v>       0.01171875 </v>
   <v>       0.01171875 </v>
   <v>       0.00585938 </v>
   <v>       0.01171875 </v>
   <v>       0.01171875 </v>
   <v>       0.00585938 </v>
   <v>       0.00585938 </v>
   <v>       0.01171875 </v>
   <v>       0.01171875 </v>
   <v>       0.00585938 </v>
   <v>       0.00585938 </v>
   <v>       0.00195312 </v>
   <v>       0.00585938 </v>
   <v>       0.00585938 </v>
   <v>       0.00292969 </v>
   <v>       0.00146484 </v>
   <v>       0.00585938 </v>
   <v>       0.01171875 </v>
   <v>       0.00585938 </v>
   <v>       0.00195312 </v>
   <v>       0.00585938 </v>
   <v>       0.00585938 </v>
   <v>       0.00585938 </v>
   <v>       0.01171875 </v>
   <v>       0.00585938 </v>
   <v>       0.01171875 </v>
   <v>       0.00585938 </v>
   <v>       0.00585938 </v>
   <v>       0.01171875 </v>
   <v>       0.01171875 </v>
   <v>       0.00585938 </v>
   <v>       0.01171875 </v>
   <v>       0.00585938 </v>
   <v>       0.00585938 </v>
   <v>       0.00195312 </v>
   <v>       0.00292969 </v>
   <v>       0.00146484 </v>
   <v>       0.00585938 </v>
   <v>       0.00585938 </v>
   <v>       0.00585938 </v>
   <v>       0.00585938 </v>
   <v>       0.01171875 </v>
   <v>       0.00585938 </v>
   <v>       0.01171875 </v>
   <v>       0.00585938 </v>
   <v>       0.00585938 </v>
   <v>       0.01171875 </v>
   <v>       0.00195312 </v>
   <v>       0.00146484 </v>
   <v>       0.00585938 </v>
   <v>       0.00585938 </v>
   <v>       0.00585938 </v>
   <v>       0.00585938 </v>
   <v>       0.01171875 </v>
   <v>       0.00585938 </v>
   <v>       0.00585938 </v>
   <v>       0.00146484 </v>
   <v>       0.00585938 </v>
   <v>       0.00585938 </v>
   <v>       0.00585938 </v>
   <v>       0.00585938 </v>
   <v>       0.00146484 </v>
   <v>       0.00585938 </v>
   <v>       0.00195312 </v>
   <v>       0.00146484 </v>
  </varray>
  <varray name="tetrahedronlist"  type="int" >
   <v type="int" >        4        1        2        2       10 </v>
   <v type="int" >        8        2        2       10       10 </v>
   <v type="int" >        4        2       10       10       52 </v>
   <v type="int" >        4        2        3       10       11 </v>
   <v type="int" >        4        2       10       10       11 </v>
   <v type="int" >       12       10       10       11       52 </v>
   <v type="int" >        8        3       10       11       11 </v>
   <v type="int" >        8       10       11       11       53 </v>
   <v type="int" >        8       10       11       52       53 </v>
   <v type="int" >        4        3        4       11       12 </v>
   <v type="int" >        4        3       11       11       12 </v>
   <v type="int" >       12       11       11       12       53 </v>
   <v type="int" >        8        4       11       12       12 </v>
   <v type="int" >        4       11       12       12       54 </v>
   <v type="int" >        4       11       12       53       54 </v>
   <v type="int" >        4        4        5       12       13 </v>
   <v type="int" >        4        4       12       12       13 </v>
   <v type="int" >        8       12       12       13       54 </v>
   <v type="int" >        8        5       12       13       13 </v>
   <v type="int" >        4       12       13       13       55 </v>
   <v type="int" >        4       12       13       54       55 </v>
   <v type="int" >        4        5        6       13       14 </v>
   <v type="int" >        4        5       13       13       14 </v>
   <v type="int" >        8       13       13       14       55 </v>
   <v type="int" >        8        6       13       14       14 </v>
   <v type="int" >        4       13       14       14       56 </v>
   <v type="int" >        4       13       14       55       56 </v>
   <v type="int" >        4        6        7       14       15 </v>
   <v type="int" >        4        6       14       14       15 </v>
   <v type="int" >        8       14       14       15       56 </v>
   <v type="int" >        8        7       14       15       15 </v>
   <v type="int" >        4       14       15       15       57 </v>
   <v type="int" >        4       14       15       56       57 </v>
   <v type="int" >        4        7        8       15       15 </v>
   <v type="int" >        4        7       15       15       15 </v>
   <v type="int" >        8       15       15       15       57 </v>
   <v type="int" >        8        8       15       15       15 </v>
   <v type="int" >        4       15       15       15       56 </v>
   <v type="int" >        4       15       15       56       57 </v>
   <v type="int" >        4        7        8       14       15 </v>
   <v type="int" >        4        8       14       15       15 </v>
   <v type="int" >        8       14       15       15       56 </v>
   <v type="int" >        8        7       14       14       15 </v>
   <v type="int" >        4       14       14       15       55 </v>
   <v type="int" >        4       14       15       55       56 </v>
   <v type="int" >        4        6        7       13       14 </v>
   <v type="int" >        4        7       13       14       14 </v>
   <v type="int" >        8       13       14       14       55 </v>
   <v type="int" >        8        6       13       13       14 </v>
   <v type="int" >        4       13       13       14       54 </v>
   <v type="int" >        4       13       14       54       55 </v>
   <v type="int" >        4        5        6       12       13 </v>
   <v type="int" >        4        6       12       13       13 </v>
   <v type="int" >        8       12       13       13       54 </v>
   <v type="int" >        8        5       12       12       13 </v>
   <v type="int" >        4       12       12       13       53 </v>
   <v type="int" >        4       12       13       53       54 </v>
   <v type="int" >        4        4        5       11       12 </v>
   <v type="int" >        4        5       11       12       12 </v>
   <v type="int" >        8       11       12       12       53 </v>
   <v type="int" >        8        4       11       11       12 </v>
   <v type="int" >        4       11       11       12       52 </v>
   <v type="int" >        4       11       12       52       53 </v>
   <v type="int" >        4        3        4       10       11 </v>
   <v type="int" >        4        4       10       11       11 </v>
   <v type="int" >       16       10       11       11       52 </v>
   <v type="int" >        8        3       10       10       11 </v>
   <v type="int" >        4       10       10       10       11 </v>
   <v type="int" >        4        2        2        3       10 </v>
   <v type="int" >        8        2        3       10       10 </v>
   <v type="int" >        4        2       10       10       10 </v>
   <v type="int" >        4        2        2        2       10 </v>
   <v type="int" >        8        2        2       10       23 </v>
   <v type="int" >        4        2       10       10       23 </v>
   <v type="int" >       16        1        2        2       16 </v>
   <v type="int" >        4        2        2        2       16 </v>
   <v type="int" >       12        2        2       16       23 </v>
   <v type="int" >       16        1        2       16       16 </v>
   <v type="int" >        4        2       16       16       58 </v>
   <v type="int" >        4        2       16       23       58 </v>
   <v type="int" >       20        1        9       16       16 </v>
   <v type="int" >        4        1       16       16       16 </v>
   <v type="int" >        4       16       16       16       58 </v>
   <v type="int" >        8        9       16       16       16 </v>
   <v type="int" >        4       16       16       16       23 </v>
   <v type="int" >        4       16       16       23       58 </v>
   <v type="int" >        8        1        2        9       16 </v>
   <v type="int" >        8        2        9       16       16 </v>
   <v type="int" >        8        2       16       16       23 </v>
   <v type="int" >        4        2        2       10       16 </v>
   <v type="int" >        4        2       10       16       23 </v>
   <v type="int" >        4       10       11       17       52 </v>
   <v type="int" >       12       11       17       52       53 </v>
   <v type="int" >        4       17       52       53       59 </v>
   <v type="int" >        4       11       12       18       53 </v>
   <v type="int" >        4       11       17       18       53 </v>
   <v type="int" >        8       17       18       53       59 </v>
   <v type="int" >       12       12       18       53       54 </v>
   <v type="int" >        4       18       53       54       60 </v>
   <v type="int" >        4       18       53       59       60 </v>
   <v type="int" >        4       12       13       19       54 </v>
   <v type="int" >        4       12       18       19       54 </v>
   <v type="int" >        8       18       19       54       60 </v>
   <v type="int" >       12       13       19       54       55 </v>
   <v type="int" >        4       19       54       55       61 </v>
   <v type="int" >        4       19       54       60       61 </v>
   <v type="int" >        4       13       14       20       55 </v>
   <v type="int" >        4       13       19       20       55 </v>
   <v type="int" >        8       19       20       55       61 </v>
   <v type="int" >       12       14       20       55       56 </v>
   <v type="int" >        4       20       55       56       62 </v>
   <v type="int" >        4       20       55       61       62 </v>
   <v type="int" >        4       14       15       21       56 </v>
   <v type="int" >        4       14       20       21       56 </v>
   <v type="int" >        8       20       21       56       62 </v>
   <v type="int" >       16       15       21       56       57 </v>
   <v type="int" >       16       21       56       57       62 </v>
   <v type="int" >        8       21       56       62       62 </v>
   <v type="int" >        8       15       15       20       57 </v>
   <v type="int" >       12       15       20       21       57 </v>
   <v type="int" >       12       20       21       57       62 </v>
   <v type="int" >       12       15       20       56       57 </v>
   <v type="int" >        4       20       56       57       61 </v>
   <v type="int" >        4       20       57       61       62 </v>
   <v type="int" >        4       14       15       19       56 </v>
   <v type="int" >        4       15       19       20       56 </v>
   <v type="int" >        8       19       20       56       61 </v>
   <v type="int" >       12       14       19       55       56 </v>
   <v type="int" >        4       19       55       56       60 </v>
   <v type="int" >        4       19       56       60       61 </v>
   <v type="int" >        4       13       14       18       55 </v>
   <v type="int" >        4       14       18       19       55 </v>
   <v type="int" >        8       18       19       55       60 </v>
   <v type="int" >       12       13       18       54       55 </v>
   <v type="int" >        4       18       54       55       59 </v>
   <v type="int" >        4       18       55       59       60 </v>
   <v type="int" >        4       12       13       17       54 </v>
   <v type="int" >        4       13       17       18       54 </v>
   <v type="int" >       12       17       18       54       59 </v>
   <v type="int" >       12       12       17       53       54 </v>
   <v type="int" >        4       17       53       53       54 </v>
   <v type="int" >       16       17       53       54       59 </v>
   <v type="int" >       16       11       12       17       53 </v>
   <v type="int" >        8       11       17       53       53 </v>
   <v type="int" >       16       11       11       52       53 </v>
   <v type="int" >        4       11       11       53       53 </v>
   <v type="int" >       12        3       10       11       52 </v>
   <v type="int" >        8        3       11       11       52 </v>
   <v type="int" >        8        3       10       10       52 </v>
   <v type="int" >        4        3       10       28       52 </v>
   <v type="int" >        4        3       11       28       52 </v>
   <v type="int" >        4        2       10       10       22 </v>
   <v type="int" >        4        3       10       10       22 </v>
   <v type="int" >        8        3       10       22       28 </v>
   <v type="int" >       12        2       10       22       23 </v>
   <v type="int" >        4       10       22       23       63 </v>
   <v type="int" >        4       10       22       28       63 </v>
   <v type="int" >        4        2       16       23       23 </v>
   <v type="int" >        4        2       22       23       23 </v>
   <v type="int" >        4       22       23       23       63 </v>
   <v type="int" >        8       16       23       23       58 </v>
   <v type="int" >        8       23       23       58       63 </v>
   <v type="int" >        4       23       23       63       63 </v>
   <v type="int" >        4       16       16       22       58 </v>
   <v type="int" >       12       16       22       23       58 </v>
   <v type="int" >       12       22       23       58       63 </v>
   <v type="int" >        4       22       23       28       58 </v>
   <v type="int" >        4       22       28       58       63 </v>
   <v type="int" >        4        2        3       16       23 </v>
   <v type="int" >        4        3       16       22       23 </v>
   <v type="int" >        8        3       22       23       28 </v>
   <v type="int" >       16        2        3       10       23 </v>
   <v type="int" >        4        3       10       11       23 </v>
   <v type="int" >        4        3       11       23       28 </v>
   <v type="int" >        4       17       18       24       59 </v>
   <v type="int" >        8       18       24       59       60 </v>
   <v type="int" >        4       24       59       60       64 </v>
   <v type="int" >        4       18       19       25       60 </v>
   <v type="int" >        4       18       24       25       60 </v>
   <v type="int" >        8       24       25       60       64 </v>
   <v type="int" >        8       19       25       60       61 </v>
   <v type="int" >        4       25       60       61       65 </v>
   <v type="int" >        4       25       60       64       65 </v>
   <v type="int" >        4       19       20       26       61 </v>
   <v type="int" >        4       19       25       26       61 </v>
   <v type="int" >        8       25       26       61       65 </v>
   <v type="int" >        8       20       26       61       62 </v>
   <v type="int" >        4       26       61       62       66 </v>
   <v type="int" >        4       26       61       65       66 </v>
   <v type="int" >        8       20       21       26       62 </v>
   <v type="int" >        4       20       26       26       62 </v>
   <v type="int" >        8       26       26       62       66 </v>
   <v type="int" >        8       21       26       62       62 </v>
   <v type="int" >        4       26       62       62       65 </v>
   <v type="int" >        8       26       62       65       66 </v>
   <v type="int" >        4       20       21       25       62 </v>
   <v type="int" >        4       21       25       26       62 </v>
   <v type="int" >        8       25       26       62       65 </v>
   <v type="int" >        8       20       25       61       62 </v>
   <v type="int" >        4       25       61       62       64 </v>
   <v type="int" >        4       25       62       64       65 </v>
   <v type="int" >        4       19       20       24       61 </v>
   <v type="int" >        4       20       24       25       61 </v>
   <v type="int" >       12       24       25       61       64 </v>
   <v type="int" >        8       19       24       60       61 </v>
   <v type="int" >        4       24       60       60       61 </v>
   <v type="int" >       12       24       60       61       64 </v>
   <v type="int" >        4       18       18       19       60 </v>
   <v type="int" >        8       18       19       24       60 </v>
   <v type="int" >        8       18       24       60       60 </v>
   <v type="int" >        8       18       18       59       60 </v>
   <v type="int" >       16       18       54       59       60 </v>
   <v type="int" >        4       18       54       60       60 </v>
   <v type="int" >       12       12       17       18       59 </v>
   <v type="int" >        4       12       18       18       59 </v>
   <v type="int" >        8       12       18       54       59 </v>
   <v type="int" >       12       12       17       53       59 </v>
   <v type="int" >        4       12       12       53       59 </v>
   <v type="int" >        4       12       12       54       59 </v>
   <v type="int" >        4        4       11       17       53 </v>
   <v type="int" >        4        4       12       17       53 </v>
   <v type="int" >        4        4       12       12       53 </v>
   <v type="int" >        4        4       11       11       53 </v>
   <v type="int" >        4        4       11       32       53 </v>
   <v type="int" >        4        4       12       32       53 </v>
   <v type="int" >        4        3       11       11       27 </v>
   <v type="int" >        4        4       11       11       27 </v>
   <v type="int" >        8        4       11       27       32 </v>
   <v type="int" >        8        3       11       27       28 </v>
   <v type="int" >        4       11       27       28       67 </v>
   <v type="int" >        4       11       27       32       67 </v>
   <v type="int" >        4        3       22       28       28 </v>
   <v type="int" >        4        3       27       28       28 </v>
   <v type="int" >        4       27       28       28       67 </v>
   <v type="int" >        8       22       28       28       63 </v>
   <v type="int" >       12       28       28       63       68 </v>
   <v type="int" >        4       28       28       67       68 </v>
   <v type="int" >        8       22       23       28       63 </v>
   <v type="int" >        8       23       28       63       63 </v>
   <v type="int" >        4       28       63       63       67 </v>
   <v type="int" >        8       28       63       67       68 </v>
   <v type="int" >        4       22       23       27       63 </v>
   <v type="int" >        4       23       27       28       63 </v>
   <v type="int" >        8       27       28       63       67 </v>
   <v type="int" >        8       22       27       28       63 </v>
   <v type="int" >        4       27       28       32       63 </v>
   <v type="int" >        4       27       32       63       67 </v>
   <v type="int" >        4        3        4       22       28 </v>
   <v type="int" >        4        4       22       27       28 </v>
   <v type="int" >        8        4       27       28       32 </v>
   <v type="int" >       12        3        4       11       28 </v>
   <v type="int" >        4        4       11       12       28 </v>
   <v type="int" >        4        4       12       28       32 </v>
   <v type="int" >        4       24       25       29       64 </v>
   <v type="int" >        8       25       29       64       65 </v>
   <v type="int" >        4       29       64       65       69 </v>
   <v type="int" >        4       25       26       30       65 </v>
   <v type="int" >        4       25       29       30       65 </v>
   <v type="int" >        8       29       30       65       69 </v>
   <v type="int" >       12       26       30       65       66 </v>
   <v type="int" >       12       30       65       66       69 </v>
   <v type="int" >        4       30       65       69       69 </v>
   <v type="int" >        4       26       26       29       66 </v>
   <v type="int" >       12       26       29       30       66 </v>
   <v type="int" >       16       29       30       66       69 </v>
   <v type="int" >        8       26       29       65       66 </v>
   <v type="int" >        4       29       65       65       66 </v>
   <v type="int" >       12       29       65       66       69 </v>
   <v type="int" >        4       25       25       26       65 </v>
   <v type="int" >        8       25       26       29       65 </v>
   <v type="int" >        8       25       29       65       65 </v>
   <v type="int" >        8       25       25       64       65 </v>
   <v type="int" >        8       25       61       64       65 </v>
   <v type="int" >        4       25       61       65       65 </v>
   <v type="int" >       12       19       24       25       64 </v>
   <v type="int" >        4       19       25       25       64 </v>
   <v type="int" >        8       19       25       61       64 </v>
   <v type="int" >       12       19       24       60       64 </v>
   <v type="int" >        4       19       55       60       64 </v>
   <v type="int" >        4       19       55       61       64 </v>
   <v type="int" >        4       13       18       24       60 </v>
   <v type="int" >        4       13       19       24       60 </v>
   <v type="int" >        8       13       19       55       60 </v>
   <v type="int" >        8       13       18       54       60 </v>
   <v type="int" >        4       13       13       54       60 </v>
   <v type="int" >        4       13       13       55       60 </v>
   <v type="int" >        4        5       12       18       54 </v>
   <v type="int" >        4        5       13       18       54 </v>
   <v type="int" >        4        5       13       13       54 </v>
   <v type="int" >        4        5       12       12       54 </v>
   <v type="int" >        4        5       12       35       54 </v>
   <v type="int" >        4        5       13       35       54 </v>
   <v type="int" >        4        4       12       12       31 </v>
   <v type="int" >        4        5       12       12       31 </v>
   <v type="int" >        8        5       12       31       35 </v>
   <v type="int" >        8        4       12       31       32 </v>
   <v type="int" >        4       12       31       32       70 </v>
   <v type="int" >        4       12       31       35       70 </v>
   <v type="int" >        4        4       27       32       32 </v>
   <v type="int" >        4        4       31       32       32 </v>
   <v type="int" >        4       31       32       32       70 </v>
   <v type="int" >        4       27       32       32       67 </v>
   <v type="int" >        4       32       32       67       71 </v>
   <v type="int" >        4       32       32       70       71 </v>
   <v type="int" >        4       27       28       33       67 </v>
   <v type="int" >        4       27       32       33       67 </v>
   <v type="int" >        8       32       33       67       71 </v>
   <v type="int" >       12       28       33       67       68 </v>
   <v type="int" >       12       33       67       68       71 </v>
   <v type="int" >        4       33       67       71       71 </v>
   <v type="int" >        4       28       28       32       68 </v>
   <v type="int" >       12       28       32       33       68 </v>
   <v type="int" >       12       32       33       68       71 </v>
   <v type="int" >        8       28       32       67       68 </v>
   <v type="int" >        4       32       67       68       70 </v>
   <v type="int" >        4       32       68       70       71 </v>
   <v type="int" >        4       27       28       31       67 </v>
   <v type="int" >        4       28       31       32       67 </v>
   <v type="int" >        8       31       32       67       70 </v>
   <v type="int" >        8       27       31       32       67 </v>
   <v type="int" >        4       31       32       35       67 </v>
   <v type="int" >        4       31       35       67       70 </v>
   <v type="int" >        4        4        5       27       32 </v>
   <v type="int" >        4        5       27       31       32 </v>
   <v type="int" >        8        5       31       32       35 </v>
   <v type="int" >       12        4        5       12       32 </v>
   <v type="int" >        4        5       12       13       32 </v>
   <v type="int" >        4        5       13       32       35 </v>
   <v type="int" >        8       29       30       30       69 </v>
   <v type="int" >        8       30       30       69       69 </v>
   <v type="int" >        8       30       66       69       69 </v>
   <v type="int" >       12       26       29       30       69 </v>
   <v type="int" >        4       26       30       30       69 </v>
   <v type="int" >        8       26       30       66       69 </v>
   <v type="int" >       12       26       29       65       69 </v>
   <v type="int" >        4       26       62       65       69 </v>
   <v type="int" >        4       26       62       66       69 </v>
   <v type="int" >        4       20       25       29       65 </v>
   <v type="int" >        4       20       26       29       65 </v>
   <v type="int" >        8       20       26       62       65 </v>
   <v type="int" >        8       20       25       61       65 </v>
   <v type="int" >        4       20       56       61       65 </v>
   <v type="int" >        4       20       56       62       65 </v>
   <v type="int" >        4       14       19       25       61 </v>
   <v type="int" >        4       14       20       25       61 </v>
   <v type="int" >        8       14       20       56       61 </v>
   <v type="int" >        8       14       19       55       61 </v>
   <v type="int" >        4       14       14       55       61 </v>
   <v type="int" >        4       14       14       56       61 </v>
   <v type="int" >        4        6       13       19       55 </v>
   <v type="int" >        4        6       14       19       55 </v>
   <v type="int" >        4        6       14       14       55 </v>
   <v type="int" >        4        6       13       13       55 </v>
   <v type="int" >        4        6       13       38       55 </v>
   <v type="int" >        4        6       14       38       55 </v>
   <v type="int" >        4        5       13       13       34 </v>
   <v type="int" >        4        6       13       13       34 </v>
   <v type="int" >        8        6       13       34       38 </v>
   <v type="int" >        8        5       13       34       35 </v>
   <v type="int" >        4       13       34       35       72 </v>
   <v type="int" >        4       13       34       38       72 </v>
   <v type="int" >        4        5       31       35       35 </v>
   <v type="int" >        4        5       34       35       35 </v>
   <v type="int" >        4       34       35       35       72 </v>
   <v type="int" >        4       31       35       35       70 </v>
   <v type="int" >        4       35       35       70       73 </v>
   <v type="int" >        4       35       35       72       73 </v>
   <v type="int" >        4       31       32       36       70 </v>
   <v type="int" >        4       31       35       36       70 </v>
   <v type="int" >        8       35       36       70       73 </v>
   <v type="int" >        8       32       36       70       71 </v>
   <v type="int" >        4       36       70       71       74 </v>
   <v type="int" >        4       36       70       73       74 </v>
   <v type="int" >        8       32       33       36       71 </v>
   <v type="int" >        4       32       36       36       71 </v>
   <v type="int" >        8       36       36       71       74 </v>
   <v type="int" >        8       33       36       71       71 </v>
   <v type="int" >        4       36       71       71       73 </v>
   <v type="int" >        8       36       71       73       74 </v>
   <v type="int" >        4       32       33       35       71 </v>
   <v type="int" >        4       33       35       36       71 </v>
   <v type="int" >        8       35       36       71       73 </v>
   <v type="int" >        8       32       35       70       71 </v>
   <v type="int" >        4       35       70       71       72 </v>
   <v type="int" >        4       35       71       72       73 </v>
   <v type="int" >        4       31       32       34       70 </v>
   <v type="int" >        4       32       34       35       70 </v>
   <v type="int" >        8       34       35       70       72 </v>
   <v type="int" >        8       31       34       35       70 </v>
   <v type="int" >        4       34       35       38       70 </v>
   <v type="int" >        4       34       38       70       72 </v>
   <v type="int" >        4        5        6       31       35 </v>
   <v type="int" >        4        6       31       34       35 </v>
   <v type="int" >        8        6       34       35       38 </v>
   <v type="int" >       12        5        6       13       35 </v>
   <v type="int" >        4        6       13       14       35 </v>
   <v type="int" >        4        6       14       35       38 </v>
   <v type="int" >        4       21       26       30       66 </v>
   <v type="int" >        8       21       26       62       66 </v>
   <v type="int" >        4       21       57       62       66 </v>
   <v type="int" >        4       15       20       26       62 </v>
   <v type="int" >        4       15       21       26       62 </v>
   <v type="int" >        8       15       21       57       62 </v>
   <v type="int" >        8       15       20       56       62 </v>
   <v type="int" >        4       15       15       56       62 </v>
   <v type="int" >        8       15       15       57       62 </v>
   <v type="int" >        4        7       14       20       56 </v>
   <v type="int" >        4        7       15       20       56 </v>
   <v type="int" >        4        7       15       15       56 </v>
   <v type="int" >        4        7       14       14       56 </v>
   <v type="int" >        4        7       14       42       56 </v>
   <v type="int" >        4        7       15       42       56 </v>
   <v type="int" >        4        6       14       14       37 </v>
   <v type="int" >        4        7       14       14       37 </v>
   <v type="int" >        8        7       14       37       42 </v>
   <v type="int" >        8        6       14       37       38 </v>
   <v type="int" >        4       14       37       38       75 </v>
   <v type="int" >        4       14       37       42       75 </v>
   <v type="int" >        4        6       34       38       38 </v>
   <v type="int" >        4        6       37       38       38 </v>
   <v type="int" >        4       37       38       38       75 </v>
   <v type="int" >        4       34       38       38       72 </v>
   <v type="int" >        4       38       38       72       76 </v>
   <v type="int" >        4       38       38       75       76 </v>
   <v type="int" >        4       34       35       39       72 </v>
   <v type="int" >        4       34       38       39       72 </v>
   <v type="int" >        8       38       39       72       76 </v>
   <v type="int" >        8       35       39       72       73 </v>
   <v type="int" >        4       39       72       73       77 </v>
   <v type="int" >        4       39       72       76       77 </v>
   <v type="int" >        4       35       36       40       73 </v>
   <v type="int" >        4       35       39       40       73 </v>
   <v type="int" >        8       39       40       73       77 </v>
   <v type="int" >       12       36       40       73       74 </v>
   <v type="int" >       12       40       73       74       77 </v>
   <v type="int" >        4       40       73       77       77 </v>
   <v type="int" >        4       36       36       39       74 </v>
   <v type="int" >       12       36       39       40       74 </v>
   <v type="int" >       12       39       40       74       77 </v>
   <v type="int" >        8       36       39       73       74 </v>
   <v type="int" >        4       39       73       74       76 </v>
   <v type="int" >        4       39       74       76       77 </v>
   <v type="int" >        4       35       36       38       73 </v>
   <v type="int" >        4       36       38       39       73 </v>
   <v type="int" >        8       38       39       73       76 </v>
   <v type="int" >        8       35       38       72       73 </v>
   <v type="int" >        4       38       72       73       75 </v>
   <v type="int" >        4       38       73       75       76 </v>
   <v type="int" >        4       34       35       37       72 </v>
   <v type="int" >        4       35       37       38       72 </v>
   <v type="int" >        8       37       38       72       75 </v>
   <v type="int" >        8       34       37       38       72 </v>
   <v type="int" >        4       37       38       42       72 </v>
   <v type="int" >        4       37       42       72       75 </v>
   <v type="int" >        4        6        7       34       38 </v>
   <v type="int" >        4        7       34       37       38 </v>
   <v type="int" >        8        7       37       38       42 </v>
   <v type="int" >       12        6        7       14       38 </v>
   <v type="int" >        4        7       14       15       38 </v>
   <v type="int" >        4        7       15       38       42 </v>
   <v type="int" >        4        8       15       21       57 </v>
   <v type="int" >        8        8       15       15       57 </v>
   <v type="int" >        4        8       15       45       57 </v>
   <v type="int" >        4        7       15       15       41 </v>
   <v type="int" >        8        8       15       15       41 </v>
   <v type="int" >        8        8       15       41       45 </v>
   <v type="int" >        8        7       15       41       42 </v>
   <v type="int" >        4       15       41       42       78 </v>
   <v type="int" >        4       15       41       45       78 </v>
   <v type="int" >        4        7       37       42       42 </v>
   <v type="int" >        4        7       41       42       42 </v>
   <v type="int" >        4       41       42       42       78 </v>
   <v type="int" >        4       37       42       42       75 </v>
   <v type="int" >        4       42       42       75       79 </v>
   <v type="int" >        4       42       42       78       79 </v>
   <v type="int" >        4       37       38       43       75 </v>
   <v type="int" >        4       37       42       43       75 </v>
   <v type="int" >        8       42       43       75       79 </v>
   <v type="int" >        8       38       43       75       76 </v>
   <v type="int" >        4       43       75       76       80 </v>
   <v type="int" >        4       43       75       79       80 </v>
   <v type="int" >        4       38       39       44       76 </v>
   <v type="int" >        4       38       43       44       76 </v>
   <v type="int" >        8       43       44       76       80 </v>
   <v type="int" >        8       39       44       76       77 </v>
   <v type="int" >        4       44       76       77       81 </v>
   <v type="int" >        4       44       76       80       81 </v>
   <v type="int" >        8       39       40       44       77 </v>
   <v type="int" >        4       39       44       44       77 </v>
   <v type="int" >        8       44       44       77       81 </v>
   <v type="int" >        8       40       44       77       77 </v>
   <v type="int" >        4       44       77       77       80 </v>
   <v type="int" >        8       44       77       80       81 </v>
   <v type="int" >        4       39       40       43       77 </v>
   <v type="int" >        4       40       43       44       77 </v>
   <v type="int" >        8       43       44       77       80 </v>
   <v type="int" >        8       39       43       76       77 </v>
   <v type="int" >        4       43       76       77       79 </v>
   <v type="int" >        4       43       77       79       80 </v>
   <v type="int" >        4       38       39       42       76 </v>
   <v type="int" >        4       39       42       43       76 </v>
   <v type="int" >        8       42       43       76       79 </v>
   <v type="int" >        8       38       42       75       76 </v>
   <v type="int" >        4       42       75       76       78 </v>
   <v type="int" >        4       42       76       78       79 </v>
   <v type="int" >        4       37       38       41       75 </v>
   <v type="int" >        4       38       41       42       75 </v>
   <v type="int" >        8       41       42       75       78 </v>
   <v type="int" >        8       37       41       42       75 </v>
   <v type="int" >        4       41       42       45       75 </v>
   <v type="int" >        4       41       45       75       78 </v>
   <v type="int" >        4        7        8       37       42 </v>
   <v type="int" >        4        8       37       41       42 </v>
   <v type="int" >       12        8       41       42       45 </v>
   <v type="int" >       12        7        8       15       42 </v>
   <v type="int" >        8        8       15       15       42 </v>
   <v type="int" >       12        8       15       42       45 </v>
   <v type="int" >        4        8       41       45       45 </v>
   <v type="int" >        4       41       45       45       78 </v>
   <v type="int" >        4       45       45       78       82 </v>
   <v type="int" >        4       41       42       46       78 </v>
   <v type="int" >        4       41       45       46       78 </v>
   <v type="int" >        8       45       46       78       82 </v>
   <v type="int" >        8       42       46       78       79 </v>
   <v type="int" >        4       46       78       79       83 </v>
   <v type="int" >        4       46       78       82       83 </v>
   <v type="int" >        4       42       43       47       79 </v>
   <v type="int" >        4       42       46       47       79 </v>
   <v type="int" >        8       46       47       79       83 </v>
   <v type="int" >        8       43       47       79       80 </v>
   <v type="int" >        4       47       79       80       84 </v>
   <v type="int" >        4       47       79       83       84 </v>
   <v type="int" >        4       43       44       48       80 </v>
   <v type="int" >        4       43       47       48       80 </v>
   <v type="int" >        8       47       48       80       84 </v>
   <v type="int" >       12       44       48       80       81 </v>
   <v type="int" >       12       48       80       81       84 </v>
   <v type="int" >        4       48       80       84       84 </v>
   <v type="int" >        4       44       44       47       81 </v>
   <v type="int" >       12       44       47       48       81 </v>
   <v type="int" >       12       47       48       81       84 </v>
   <v type="int" >        8       44       47       80       81 </v>
   <v type="int" >        4       47       80       81       83 </v>
   <v type="int" >        4       47       81       83       84 </v>
   <v type="int" >        4       43       44       46       80 </v>
   <v type="int" >        4       44       46       47       80 </v>
   <v type="int" >        8       46       47       80       83 </v>
   <v type="int" >        8       43       46       79       80 </v>
   <v type="int" >        4       46       79       80       82 </v>
   <v type="int" >        4       46       80       82       83 </v>
   <v type="int" >        4       42       43       45       79 </v>
   <v type="int" >        4       43       45       46       79 </v>
   <v type="int" >       12       45       46       79       82 </v>
   <v type="int" >        8       42       45       78       79 </v>
   <v type="int" >        4       45       78       78       79 </v>
   <v type="int" >       12       45       78       79       82 </v>
   <v type="int" >        4       41       41       42       78 </v>
   <v type="int" >        8       41       42       45       78 </v>
   <v type="int" >        8       41       45       78       78 </v>
   <v type="int" >        8       41       41       45       78 </v>
   <v type="int" >        4       41       42       78       78 </v>
   <v type="int" >       16        7        8       41       45 </v>
   <v type="int" >        8        7       41       41       45 </v>
   <v type="int" >        8        7       41       42       45 </v>
   <v type="int" >       16        7        8       15       45 </v>
   <v type="int" >        4        7       14       15       45 </v>
   <v type="int" >        4        7       14       42       45 </v>
   <v type="int" >        4       45       46       49       82 </v>
   <v type="int" >        8       46       49       82       83 </v>
   <v type="int" >        4       49       82       83       85 </v>
   <v type="int" >        4       46       47       50       83 </v>
   <v type="int" >        4       46       49       50       83 </v>
   <v type="int" >        8       49       50       83       85 </v>
   <v type="int" >        8       47       50       83       84 </v>
   <v type="int" >        4       50       83       84       86 </v>
   <v type="int" >        4       50       83       85       86 </v>
   <v type="int" >        8       47       48       50       84 </v>
   <v type="int" >        4       47       50       50       84 </v>
   <v type="int" >       12       50       50       84       86 </v>
   <v type="int" >        8       48       50       84       84 </v>
   <v type="int" >        4       50       84       84       85 </v>
   <v type="int" >       16       50       84       85       86 </v>
   <v type="int" >        4       47       48       49       84 </v>
   <v type="int" >        4       48       49       50       84 </v>
   <v type="int" >       12       49       50       84       85 </v>
   <v type="int" >        8       47       49       83       84 </v>
   <v type="int" >        4       49       83       83       84 </v>
   <v type="int" >       12       49       83       84       85 </v>
   <v type="int" >        4       46       46       47       83 </v>
   <v type="int" >        8       46       47       49       83 </v>
   <v type="int" >        8       46       49       83       83 </v>
   <v type="int" >        8       46       46       82       83 </v>
   <v type="int" >        8       46       79       82       83 </v>
   <v type="int" >        4       46       79       83       83 </v>
   <v type="int" >       12       42       45       46       82 </v>
   <v type="int" >        4       42       46       46       82 </v>
   <v type="int" >        8       42       46       79       82 </v>
   <v type="int" >       12       42       45       78       82 </v>
   <v type="int" >        4       42       75       78       82 </v>
   <v type="int" >        4       42       75       79       82 </v>
   <v type="int" >        4       37       41       45       78 </v>
   <v type="int" >        4       37       42       45       78 </v>
   <v type="int" >        8       37       42       75       78 </v>
   <v type="int" >        8       37       41       42       78 </v>
   <v type="int" >        4       37       38       42       78 </v>
   <v type="int" >        4       37       38       75       78 </v>
   <v type="int" >        4        6        7       41       42 </v>
   <v type="int" >        4        6       37       41       42 </v>
   <v type="int" >        8        6       37       38       42 </v>
   <v type="int" >       12        6        7       14       42 </v>
   <v type="int" >        4        6       13       14       42 </v>
   <v type="int" >        4        6       13       38       42 </v>
   <v type="int" >        4       49       50       51       85 </v>
   <v type="int" >       12       50       51       85       86 </v>
   <v type="int" >        8       51       85       86       86 </v>
   <v type="int" >        4       50       50       50       86 </v>
   <v type="int" >       16       50       50       51       86 </v>
   <v type="int" >       12       50       51       86       86 </v>
   <v type="int" >        8       50       50       85       86 </v>
   <v type="int" >        4       50       84       86       86 </v>
   <v type="int" >       12       47       49       50       85 </v>
   <v type="int" >        4       47       50       50       85 </v>
   <v type="int" >        8       47       50       84       85 </v>
   <v type="int" >       12       47       49       83       85 </v>
   <v type="int" >        4       47       80       83       85 </v>
   <v type="int" >        4       47       80       84       85 </v>
   <v type="int" >        4       43       46       49       83 </v>
   <v type="int" >        4       43       47       49       83 </v>
   <v type="int" >        8       43       47       80       83 </v>
   <v type="int" >        8       43       46       79       83 </v>
   <v type="int" >        4       43       76       79       83 </v>
   <v type="int" >        4       43       76       80       83 </v>
   <v type="int" >        4       38       42       46       79 </v>
   <v type="int" >        4       38       43       46       79 </v>
   <v type="int" >        8       38       43       76       79 </v>
   <v type="int" >        8       38       42       75       79 </v>
   <v type="int" >        4       38       72       75       79 </v>
   <v type="int" >        4       38       72       76       79 </v>
   <v type="int" >        4       34       37       42       75 </v>
   <v type="int" >        4       34       38       42       75 </v>
   <v type="int" >        8       34       38       72       75 </v>
   <v type="int" >        8       34       37       38       75 </v>
   <v type="int" >        4       34       35       38       75 </v>
   <v type="int" >        4       34       35       72       75 </v>
   <v type="int" >        4        5        6       37       38 </v>
   <v type="int" >        4        5       34       37       38 </v>
   <v type="int" >        8        5       34       35       38 </v>
   <v type="int" >       12        5        6       13       38 </v>
   <v type="int" >        4        5       12       13       38 </v>
   <v type="int" >        4        5       12       35       38 </v>
   <v type="int" >        4       48       50       51       86 </v>
   <v type="int" >        8       48       50       84       86 </v>
   <v type="int" >        4       48       81       84       86 </v>
   <v type="int" >        4       44       47       50       84 </v>
   <v type="int" >        4       44       48       50       84 </v>
   <v type="int" >        8       44       48       81       84 </v>
   <v type="int" >        8       44       47       80       84 </v>
   <v type="int" >        4       44       77       80       84 </v>
   <v type="int" >        4       44       77       81       84 </v>
   <v type="int" >        4       39       43       47       80 </v>
   <v type="int" >        4       39       44       47       80 </v>
   <v type="int" >        8       39       44       77       80 </v>
   <v type="int" >        8       39       43       76       80 </v>
   <v type="int" >        4       39       73       76       80 </v>
   <v type="int" >        4       39       73       77       80 </v>
   <v type="int" >        4       35       38       43       76 </v>
   <v type="int" >        4       35       39       43       76 </v>
   <v type="int" >        8       35       39       73       76 </v>
   <v type="int" >        8       35       38       72       76 </v>
   <v type="int" >        4       35       70       72       76 </v>
   <v type="int" >        4       35       70       73       76 </v>
   <v type="int" >        4       31       34       38       72 </v>
   <v type="int" >        4       31       35       38       72 </v>
   <v type="int" >        8       31       35       70       72 </v>
   <v type="int" >        8       31       34       35       72 </v>
   <v type="int" >        4       31       32       35       72 </v>
   <v type="int" >        4       31       32       70       72 </v>
   <v type="int" >        4        4        5       34       35 </v>
   <v type="int" >        4        4       31       34       35 </v>
   <v type="int" >        8        4       31       32       35 </v>
   <v type="int" >       12        4        5       12       35 </v>
   <v type="int" >        4        4       11       12       35 </v>
   <v type="int" >        4        4       11       32       35 </v>
   <v type="int" >        4       40       44       48       81 </v>
   <v type="int" >        8       40       44       77       81 </v>
   <v type="int" >        4       40       74       77       81 </v>
   <v type="int" >        4       36       39       44       77 </v>
   <v type="int" >        4       36       40       44       77 </v>
   <v type="int" >        8       36       40       74       77 </v>
   <v type="int" >        8       36       39       73       77 </v>
   <v type="int" >        4       36       71       73       77 </v>
   <v type="int" >        4       36       71       74       77 </v>
   <v type="int" >        4       32       35       39       73 </v>
   <v type="int" >        4       32       36       39       73 </v>
   <v type="int" >        8       32       36       71       73 </v>
   <v type="int" >        8       32       35       70       73 </v>
   <v type="int" >        4       32       67       70       73 </v>
   <v type="int" >        4       32       67       71       73 </v>
   <v type="int" >        4       27       31       35       70 </v>
   <v type="int" >        4       27       32       35       70 </v>
   <v type="int" >        8       27       32       67       70 </v>
   <v type="int" >        8       27       31       32       70 </v>
   <v type="int" >        4       27       28       32       70 </v>
   <v type="int" >        4       27       28       67       70 </v>
   <v type="int" >        4        3        4       31       32 </v>
   <v type="int" >        4        3       27       31       32 </v>
   <v type="int" >        8        3       27       28       32 </v>
   <v type="int" >       12        3        4       11       32 </v>
   <v type="int" >        4        3       10       11       32 </v>
   <v type="int" >        4        3       10       28       32 </v>
   <v type="int" >        4       33       36       40       74 </v>
   <v type="int" >        8       33       36       71       74 </v>
   <v type="int" >        4       33       68       71       74 </v>
   <v type="int" >        4       28       32       36       71 </v>
   <v type="int" >        4       28       33       36       71 </v>
   <v type="int" >        8       28       33       68       71 </v>
   <v type="int" >        8       28       32       67       71 </v>
   <v type="int" >        4       28       63       67       71 </v>
   <v type="int" >        4       28       63       68       71 </v>
   <v type="int" >        4       22       27       32       67 </v>
   <v type="int" >        4       22       28       32       67 </v>
   <v type="int" >        8       22       28       63       67 </v>
   <v type="int" >        8       22       27       28       67 </v>
   <v type="int" >        4       22       23       28       67 </v>
   <v type="int" >        4       22       23       63       67 </v>
   <v type="int" >        4        2        3       27       28 </v>
   <v type="int" >        4        2       22       27       28 </v>
   <v type="int" >        8        2       22       23       28 </v>
   <v type="int" >       12        2        3       10       28 </v>
   <v type="int" >        4        2        2       10       28 </v>
   <v type="int" >        4        2        2       23       28 </v>
   <v type="int" >        4       23       28       33       68 </v>
   <v type="int" >        8       23       28       63       68 </v>
   <v type="int" >        4       23       58       63       68 </v>
   <v type="int" >        4       16       22       28       63 </v>
   <v type="int" >        4       16       23       28       63 </v>
   <v type="int" >        8       16       23       58       63 </v>
   <v type="int" >        8       16       22       23       63 </v>
   <v type="int" >        4       16       16       23       63 </v>
   <v type="int" >        4       16       16       58       63 </v>
   <v type="int" >        4        1        2       22       23 </v>
   <v type="int" >        4        1       16       22       23 </v>
   <v type="int" >        8        1       16       16       23 </v>
   <v type="int" >        8        1        2        2       23 </v>
   <v type="int" >       12        1        2       16       23 </v>
   <v type="int" >        4        9       16       23       58 </v>
   <v type="int" >        4        9       16       16       58 </v>
   <v type="int" >        4        1        9       16       58 </v>
   <v type="int" >        4        9        9       16       16 </v>
   <v type="int" >       12        1        9        9       16 </v>
   <v type="int" >        6        1        1        9        9 </v>
   <v type="int" >        8        1        1        9       16 </v>
   <v type="int" >        4        1        1        2       16 </v>
   <v type="int" >        4        2        3       10       52 </v>
   <v type="int" >        4        3       11       52       53 </v>
   <v type="int" >       12       11       52       53       53 </v>
   <v type="int" >        8       11       11       17       53 </v>
   <v type="int" >        4       11       17       53       59 </v>
   <v type="int" >        4       11       53       53       59 </v>
   <v type="int" >        4       11       12       17       54 </v>
   <v type="int" >        4       11       17       53       54 </v>
   <v type="int" >        8       12       17       18       54 </v>
   <v type="int" >        4       17       18       54       60 </v>
   <v type="int" >        4       17       54       59       60 </v>
   <v type="int" >        4       12       13       18       55 </v>
   <v type="int" >        4       12       18       54       55 </v>
   <v type="int" >       12       18       54       55       60 </v>
   <v type="int" >        8       13       18       19       55 </v>
   <v type="int" >        4       18       19       55       61 </v>
   <v type="int" >        4       18       55       60       61 </v>
   <v type="int" >        4       13       14       19       56 </v>
   <v type="int" >        4       13       19       55       56 </v>
   <v type="int" >       12       19       55       56       61 </v>
   <v type="int" >        8       14       19       20       56 </v>
   <v type="int" >        4       19       20       56       62 </v>
   <v type="int" >        4       19       56       61       62 </v>
   <v type="int" >        4       14       15       20       57 </v>
   <v type="int" >        4       14       20       56       57 </v>
   <v type="int" >       12       20       56       57       62 </v>
   <v type="int" >        8       20       57       62       62 </v>
   <v type="int" >        8       15       15       21       56 </v>
   <v type="int" >        8       15       20       21       56 </v>
   <v type="int" >        4       20       21       56       61 </v>
   <v type="int" >        4       21       56       61       62 </v>
   <v type="int" >        4       14       15       20       55 </v>
   <v type="int" >        4       15       20       55       56 </v>
   <v type="int" >       12       20       55       56       61 </v>
   <v type="int" >        8       14       19       20       55 </v>
   <v type="int" >        4       19       20       55       60 </v>
   <v type="int" >        4       20       55       60       61 </v>
   <v type="int" >        4       13       14       19       54 </v>
   <v type="int" >        4       14       19       54       55 </v>
   <v type="int" >       12       19       54       55       60 </v>
   <v type="int" >        8       13       18       19       54 </v>
   <v type="int" >        4       18       19       54       59 </v>
   <v type="int" >        4       19       54       59       60 </v>
   <v type="int" >        4       12       13       18       53 </v>
   <v type="int" >        4       13       18       53       54 </v>
   <v type="int" >       12       18       53       54       59 </v>
   <v type="int" >        8       12       17       18       53 </v>
   <v type="int" >        4       17       18       53       53 </v>
   <v type="int" >        4       18       53       53       59 </v>
   <v type="int" >        4       11       12       17       52 </v>
   <v type="int" >        4       12       17       52       53 </v>
   <v type="int" >        8       17       52       53       53 </v>
   <v type="int" >        8       11       11       17       52 </v>
   <v type="int" >        4       10       10       11       11 </v>
   <v type="int" >       16        3       10       11       28 </v>
   <v type="int" >       12       10       11       11       28 </v>
   <v type="int" >        4        3       10       10       23 </v>
   <v type="int" >       12        3       10       23       28 </v>
   <v type="int" >       12        2        3       22       23 </v>
   <v type="int" >        4        3       22       23       63 </v>
   <v type="int" >        4        3       23       28       63 </v>
   <v type="int" >        4        2       16       22       58 </v>
   <v type="int" >        4        2       22       23       58 </v>
   <v type="int" >        4       22       58       63       63 </v>
   <v type="int" >        4       16       16       23       23 </v>
   <v type="int" >        4       16       22       23       23 </v>
   <v type="int" >        4       22       23       23       28 </v>
   <v type="int" >        4       23       23       28       63 </v>
   <v type="int" >        4        2       10       16       22 </v>
   <v type="int" >        4       10       16       22       23 </v>
   <v type="int" >       12       10       22       23       28 </v>
   <v type="int" >        8        2        3       10       22 </v>
   <v type="int" >        4        3       10       11       22 </v>
   <v type="int" >        4       10       11       22       28 </v>
   <v type="int" >        4       52       53       53       59 </v>
   <v type="int" >        8       53       53       59       59 </v>
   <v type="int" >        4       53       59       59       87 </v>
   <v type="int" >        4       53       54       59       60 </v>
   <v type="int" >        4       53       59       59       60 </v>
   <v type="int" >       12       59       59       60       87 </v>
   <v type="int" >        8       54       59       60       60 </v>
   <v type="int" >        8       59       60       60       88 </v>
   <v type="int" >        8       59       60       87       88 </v>
   <v type="int" >        4       54       55       60       61 </v>
   <v type="int" >        4       54       60       60       61 </v>
   <v type="int" >       12       60       60       61       88 </v>
   <v type="int" >        8       55       60       61       61 </v>
   <v type="int" >        4       60       61       61       89 </v>
   <v type="int" >        4       60       61       88       89 </v>
   <v type="int" >        4       55       56       61       62 </v>
   <v type="int" >        4       55       61       61       62 </v>
   <v type="int" >        8       61       61       62       89 </v>
   <v type="int" >        8       56       61       62       62 </v>
   <v type="int" >        4       61       62       62       90 </v>
   <v type="int" >        4       61       62       89       90 </v>
   <v type="int" >        4       56       57       62       62 </v>
   <v type="int" >        4       56       62       62       62 </v>
   <v type="int" >        8       62       62       62       90 </v>
   <v type="int" >        8       57       62       62       62 </v>
   <v type="int" >        4       62       62       62       89 </v>
   <v type="int" >        4       62       62       89       90 </v>
   <v type="int" >        4       56       57       61       62 </v>
   <v type="int" >        4       57       61       62       62 </v>
   <v type="int" >        8       61       62       62       89 </v>
   <v type="int" >        8       56       61       61       62 </v>
   <v type="int" >        4       61       61       62       88 </v>
   <v type="int" >        4       61       62       88       89 </v>
   <v type="int" >        4       55       56       60       61 </v>
   <v type="int" >        4       56       60       61       61 </v>
   <v type="int" >        8       60       61       61       88 </v>
   <v type="int" >        8       55       60       60       61 </v>
   <v type="int" >        4       60       60       61       87 </v>
   <v type="int" >        4       60       61       87       88 </v>
   <v type="int" >        4       54       55       59       60 </v>
   <v type="int" >        4       55       59       60       60 </v>
   <v type="int" >       16       59       60       60       87 </v>
   <v type="int" >        8       54       59       59       60 </v>
   <v type="int" >        4       59       59       59       60 </v>
   <v type="int" >        4       53       53       54       59 </v>
   <v type="int" >        8       53       54       59       59 </v>
   <v type="int" >        4       53       59       59       59 </v>
   <v type="int" >        4       53       53       53       59 </v>
   <v type="int" >        8       17       53       53       59 </v>
   <v type="int" >        4       17       53       59       59 </v>
   <v type="int" >        4       11       53       53       53 </v>
   <v type="int" >        4       11       11       33       53 </v>
   <v type="int" >        4       11       17       33       53 </v>
   <v type="int" >        4       10       11       28       52 </v>
   <v type="int" >        4       11       11       28       52 </v>
   <v type="int" >        8       11       11       28       33 </v>
   <v type="int" >        8       10       11       28       28 </v>
   <v type="int" >        4       11       28       28       68 </v>
   <v type="int" >        4       11       28       33       68 </v>
   <v type="int" >        4       10       23       28       63 </v>
   <v type="int" >        4       10       28       28       63 </v>
   <v type="int" >        4       28       63       63       91 </v>
   <v type="int" >        4       28       63       68       91 </v>
   <v type="int" >        4       23       58       63       63 </v>
   <v type="int" >        4       23       63       63       63 </v>
   <v type="int" >        4       63       63       63       91 </v>
   <v type="int" >        4       58       63       63       63 </v>
   <v type="int" >        4       63       63       63       68 </v>
   <v type="int" >        4       63       63       68       91 </v>
   <v type="int" >        4       23       28       58       63 </v>
   <v type="int" >        4       28       58       63       63 </v>
   <v type="int" >        8       28       63       63       68 </v>
   <v type="int" >       12       23       28       28       63 </v>
   <v type="int" >        4       28       28       33       63 </v>
   <v type="int" >        4       28       33       63       68 </v>
   <v type="int" >        4       10       11       23       28 </v>
   <v type="int" >        4       11       23       28       28 </v>
   <v type="int" >        8       11       28       28       33 </v>
   <v type="int" >        4       11       11       17       28 </v>
   <v type="int" >        4       11       17       28       33 </v>
   <v type="int" >        4       59       60       64       87 </v>
   <v type="int" >       12       60       64       87       88 </v>
   <v type="int" >        4       64       87       88       92 </v>
   <v type="int" >        4       60       61       65       88 </v>
   <v type="int" >        4       60       64       65       88 </v>
   <v type="int" >        8       64       65       88       92 </v>
   <v type="int" >       12       61       65       88       89 </v>
   <v type="int" >        4       65       88       89       93 </v>
   <v type="int" >        4       65       88       92       93 </v>
   <v type="int" >        4       61       62       66       89 </v>
   <v type="int" >        4       61       65       66       89 </v>
   <v type="int" >        8       65       66       89       93 </v>
   <v type="int" >       16       62       66       89       90 </v>
   <v type="int" >       16       66       89       90       93 </v>
   <v type="int" >        8       66       89       93       93 </v>
   <v type="int" >        8       62       62       65       90 </v>
   <v type="int" >       12       62       65       66       90 </v>
   <v type="int" >       12       65       66       90       93 </v>
   <v type="int" >       12       62       65       89       90 </v>
   <v type="int" >        4       65       89       90       92 </v>
   <v type="int" >        4       65       90       92       93 </v>
   <v type="int" >        4       61       62       64       89 </v>
   <v type="int" >        4       62       64       65       89 </v>
   <v type="int" >       12       64       65       89       92 </v>
   <v type="int" >       12       61       64       88       89 </v>
   <v type="int" >        4       64       88       88       89 </v>
   <v type="int" >       16       64       88       89       92 </v>
   <v type="int" >       16       60       61       64       88 </v>
   <v type="int" >        8       60       64       88       88 </v>
   <v type="int" >       16       60       60       87       88 </v>
   <v type="int" >        4       60       60       88       88 </v>
   <v type="int" >       12       54       59       60       87 </v>
   <v type="int" >        8       54       60       60       87 </v>
[...]
       <r>   25.6593    0.0000 </r>
       <r>   25.9014    0.0000 </r>
       <r>   30.6073    0.0000 </r>
       <r>   39.4101    0.0000 </r>
       <r>   40.2028    0.0000 </r>
       <r>   42.0383    0.0000 </r>
       <r>   42.8675    0.0000 </r>
       <r>   44.9852    0.0000 </r>
       <r>   45.8028    0.0000 </r>
       <r>   47.1919    0.0000 </r>
       <r>   52.8316    0.0000 </r>
       <r>   53.0442    0.0000 </r>
       <r>   53.7269    0.0000 </r>
       <r>   54.4960    0.0000 </r>
       <r>   55.3223    0.0000 </r>
       <r>   55.5950    0.0000 </r>
       <r>   57.2315    0.0000 </r>
       <r>   58.5090    0.0000 </r>
       <r>   59.3762    0.0000 </r>
       <r>   60.2478    0.0000 </r>
       <r>   62.5811    0.0000 </r>
       <r>   62.8333    0.0000 </r>
       <r>   64.4364    0.0000 </r>
       <r>   66.0073    0.0000 </r>
       <r>   66.9106    0.0000 </r>
       <r>   70.3199    0.0000 </r>
       <r>   90.3444    0.0000 </r>
       <r>   91.0374    0.0000 </r>
      </set>
      <set comment="kpoint 139">
       <r>  -25.6457    1.0000 </r>
       <r>  -25.6457    1.0000 </r>
       <r>  -25.5710    1.0000 </r>
       <r>    1.2551    1.0000 </r>
       <r>    1.2551    1.0000 </r>
       <r>    9.2002    0.0000 </r>
       <r>   10.1738    0.0000 </r>
       <r>   10.1738    0.0000 </r>
       <r>   14.5589    0.0000 </r>
       <r>   14.5589    0.0000 </r>
       <r>   14.9043    0.0000 </r>
       <r>   24.0812    0.0000 </r>
       <r>   25.7232    0.0000 </r>
       <r>   25.7232    0.0000 </r>
       <r>   30.3925    0.0000 </r>
       <r>   39.7341    0.0000 </r>
       <r>   41.9252    0.0000 </r>
       <r>   41.9252    0.0000 </r>
       <r>   42.2412    0.0000 </r>
       <r>   45.5042    0.0000 </r>
       <r>   45.5043    0.0000 </r>
       <r>   46.8162    0.0000 </r>
       <r>   52.4105    0.0000 </r>
       <r>   53.4331    0.0000 </r>
       <r>   54.6220    0.0000 </r>
       <r>   54.6220    0.0000 </r>
       <r>   55.1885    0.0000 </r>
       <r>   55.1885    0.0000 </r>
       <r>   58.0902    0.0000 </r>
       <r>   58.6258    0.0000 </r>
       <r>   60.2893    0.0000 </r>
       <r>   60.2893    0.0000 </r>
       <r>   61.8266    0.0000 </r>
       <r>   61.8266    0.0000 </r>
       <r>   62.1944    0.0000 </r>
       <r>   65.8722    0.0000 </r>
       <r>   65.8722    0.0000 </r>
       <r>   68.2974    0.0000 </r>
       <r>   90.9948    0.0000 </r>
       <r>   96.1002    0.0000 </r>
      </set>
      <set comment="kpoint 140">
       <r>  -25.6391    1.0000 </r>
       <r>  -25.6285    1.0000 </r>
       <r>  -25.6285    1.0000 </r>
       <r>    1.1266    1.0000 </r>
       <r>    1.1535    1.0000 </r>
       <r>   10.1448    0.0000 </r>
       <r>   10.1448    0.0000 </r>
       <r>   10.3738    0.0000 </r>
       <r>   13.9831    0.0000 </r>
       <r>   14.6084    0.0000 </r>
       <r>   14.6084    0.0000 </r>
       <r>   23.5817    0.0000 </r>
       <r>   25.8439    0.0000 </r>
       <r>   25.8911    0.0000 </r>
       <r>   30.1703    0.0000 </r>
       <r>   41.5075    0.0000 </r>
       <r>   41.5075    0.0000 </r>
       <r>   41.6928    0.0000 </r>
       <r>   42.3896    0.0000 </r>
       <r>   45.8793    0.0000 </r>
       <r>   45.9042    0.0000 </r>
       <r>   45.9042    0.0000 </r>
       <r>   51.5821    0.0000 </r>
       <r>   54.1466    0.0000 </r>
       <r>   54.4974    0.0000 </r>
       <r>   54.4974    0.0000 </r>
       <r>   56.7698    0.0000 </r>
       <r>   56.7698    0.0000 </r>
       <r>   57.2949    0.0000 </r>
       <r>   59.3256    0.0000 </r>
       <r>   59.6539    0.0000 </r>
       <r>   60.4935    0.0000 </r>
       <r>   60.4935    0.0000 </r>
       <r>   61.4264    0.0000 </r>
       <r>   62.8698    0.0000 </r>
       <r>   63.7545    0.0000 </r>
       <r>   63.7545    0.0000 </r>
       <r>   66.4719    0.0000 </r>
       <r>   96.3195    0.0000 </r>
       <r>   96.3207    0.0000 </r>
      </set>
     </set>
    </set>
   </array>
  </eigenvalues>
  <separator name="orbital magnetization" >
   <v name="MAGDIPOLOUT">      0.00000000      0.00000000      0.00000000</v>
  </separator>
  <dos>
   <i name="efermi">      4.83444123 </i>
   <total>
    <array>
     <dimension dim="1">gridpoints</dimension>
     <dimension dim="2">spin</dimension>
     <field>energy</field>
     <field>total</field>
     <field>integrated</field>
     <set>
      <set comment="spin 1">
       <r>   -32.1805     0.0000     0.0000 </r>
       <r>   -31.7318     0.0000     0.0000 </r>
       <r>   -31.2831     0.0000     0.0000 </r>
       <r>   -30.8343     0.0000     0.0000 </r>
       <r>   -30.3856     0.0000     0.0000 </r>
       <r>   -29.9369     0.0000     0.0000 </r>
       <r>   -29.4881     0.0000     0.0000 </r>
       <r>   -29.0394     0.0000     0.0000 </r>
       <r>   -28.5906     0.0000     0.0000 </r>
       <r>   -28.1419     0.0000     0.0000 </r>
       <r>   -27.6932     0.0000     0.0000 </r>
       <r>   -27.2444     0.0000     0.0000 </r>
       <r>   -26.7957     0.0000     0.0000 </r>
       <r>   -26.3470     0.0000     0.0000 </r>
       <r>   -25.8982     3.4791     0.3180 </r>
       <r>   -25.4495     3.2540     2.0692 </r>
       <r>   -25.0008     4.4584     4.0849 </r>
       <r>   -24.5520     0.0000     6.0000 </r>
       <r>   -24.1033     0.0000     6.0000 </r>
       <r>   -23.6546     0.0000     6.0000 </r>
       <r>   -23.2058     0.0000     6.0000 </r>
       <r>   -22.7571     0.0000     6.0000 </r>
       <r>   -22.3084     0.0000     6.0000 </r>
       <r>   -21.8596     0.0000     6.0000 </r>
       <r>   -21.4109     0.0000     6.0000 </r>
       <r>   -20.9622     0.0000     6.0000 </r>
       <r>   -20.5134     0.0000     6.0000 </r>
       <r>   -20.0647     0.0000     6.0000 </r>
       <r>   -19.6160     0.0000     6.0000 </r>
       <r>   -19.1672     0.0000     6.0000 </r>
       <r>   -18.7185     0.0000     6.0000 </r>
       <r>   -18.2698     0.0000     6.0000 </r>
       <r>   -17.8210     0.0000     6.0000 </r>
       <r>   -17.3723     0.0000     6.0000 </r>
       <r>   -16.9236     0.0000     6.0000 </r>
       <r>   -16.4748     0.0000     6.0000 </r>
       <r>   -16.0261     0.0000     6.0000 </r>
       <r>   -15.5774     0.0000     6.0000 </r>
       <r>   -15.1286     0.0000     6.0000 </r>
       <r>   -14.6799     0.0000     6.0000 </r>
       <r>   -14.2311     0.0000     6.0000 </r>
       <r>   -13.7824     0.0000     6.0000 </r>
       <r>   -13.3337     0.0000     6.0000 </r>
       <r>   -12.8849     0.0000     6.0000 </r>
       <r>   -12.4362     0.0000     6.0000 </r>
       <r>   -11.9875     0.0000     6.0000 </r>
       <r>   -11.5387     0.0000     6.0000 </r>
       <r>   -11.0900     0.0000     6.0000 </r>
       <r>   -10.6413     0.0000     6.0000 </r>
       <r>   -10.1925     0.0000     6.0000 </r>
       <r>    -9.7438     0.0000     6.0000 </r>
       <r>    -9.2951     0.0000     6.0000 </r>
       <r>    -8.8463     0.0000     6.0000 </r>
       <r>    -8.3976     0.0000     6.0000 </r>
       <r>    -7.9489     0.0000     6.0000 </r>
       <r>    -7.5001     0.0000     6.0000 </r>
       <r>    -7.0514     0.0000     6.0000 </r>
       <r>    -6.6027     0.0000     6.0000 </r>
       <r>    -6.1539     0.0000     6.0000 </r>
       <r>    -5.7052     0.0000     6.0000 </r>
       <r>    -5.2565     0.0000     6.0000 </r>
       <r>    -4.8077     0.0000     6.0000 </r>
       <r>    -4.3590     0.0000     6.0000 </r>
       <r>    -3.9103     0.0000     6.0000 </r>
       <r>    -3.4615     0.0000     6.0000 </r>
       <r>    -3.0128     0.0000     6.0000 </r>
       <r>    -2.5641     0.0000     6.0000 </r>
       <r>    -2.1153     0.0000     6.0000 </r>
       <r>    -1.6666     0.0000     6.0000 </r>
       <r>    -1.2179     0.0000     6.0000 </r>
       <r>    -0.7691     0.0372     6.0057 </r>
       <r>    -0.3204     0.0665     6.0284 </r>
       <r>     0.1284     0.0975     6.0643 </r>
       <r>     0.5771     0.1354     6.1159 </r>
       <r>     1.0258     0.2128     6.1915 </r>
       <r>     1.4746     1.0031     6.4824 </r>
       <r>     1.9233     1.2256     6.9725 </r>
       <r>     2.3720     1.4968     7.6171 </r>
       <r>     2.8208     0.5445     8.1099 </r>
       <r>     3.2695     1.7110     8.4352 </r>
       <r>     3.7182     1.4715     9.3740 </r>
       <r>     4.1670     0.9934     9.8758 </r>
       <r>     4.6157     2.4803    10.5203 </r>
       <r>     5.0644     1.1230    11.3172 </r>
       <r>     5.5132     0.4835    11.6124 </r>
       <r>     5.9619     0.4664    11.8159 </r>
       <r>     6.4106     0.5406    12.0324 </r>
       <r>     6.8594     0.9422    12.3604 </r>
       <r>     7.3081     1.1041    12.8041 </r>
       <r>     7.7568     1.3401    13.3863 </r>
       <r>     8.2056     1.4101    14.0304 </r>
       <r>     8.6543     1.6774    14.6443 </r>
       <r>     9.1030     1.2865    15.6274 </r>
       <r>     9.5518     0.7730    16.0656 </r>
       <r>    10.0005     0.6762    16.3870 </r>
       <r>    10.4492     0.4751    16.6711 </r>
       <r>    10.8980     0.3100    16.8374 </r>
       <r>    11.3467     0.3759    16.9988 </r>
       <r>    11.7954     0.3270    17.1547 </r>
       <r>    12.2442     0.3087    17.2968 </r>
       <r>    12.6929     0.2946    17.4329 </r>
       <r>    13.1416     0.2834    17.5628 </r>
       <r>    13.5904     0.2610    17.6848 </r>
       <r>    14.0391     0.2318    17.7971 </r>
       <r>    14.4879     0.1748    17.8947 </r>
       <r>    14.9366     0.1260    17.9881 </r>
       <r>    15.3853     0.2412    18.0384 </r>
       <r>    15.8341     0.4836    18.1957 </r>
       <r>    16.2828     0.5298    18.4230 </r>
       <r>    16.7315     0.5958    18.6748 </r>
       <r>    17.1803     0.5641    18.9476 </r>
       <r>    17.6290     0.6417    19.2094 </r>
       <r>    18.0777     0.8588    19.5383 </r>
       <r>    18.5265     0.8335    19.9365 </r>
       <r>    18.9752     0.7905    20.3048 </r>
       <r>    19.4239     0.7385    20.6463 </r>
       <r>    19.8727     0.7117    20.9699 </r>
       <r>    20.3214     0.5756    21.2571 </r>
       <r>    20.7701     0.6573    21.5259 </r>
       <r>    21.2189     0.7568    21.8626 </r>
       <r>    21.6676     0.9011    22.2026 </r>
       <r>    22.1163     0.7995    22.6251 </r>
       <r>    22.5651     0.6974    22.9635 </r>
       <r>    23.0138     0.5692    23.2575 </r>
       <r>    23.4625     0.4471    23.4787 </r>
       <r>    23.9113     0.4806    23.6831 </r>
       <r>    24.3600     0.5843    23.9273 </r>
       <r>    24.8087     0.7953    24.1897 </r>
       <r>    25.2575     0.8343    24.6484 </r>
       <r>    25.7062     0.6255    24.9661 </r>
       <r>    26.1549     0.5559    25.2353 </r>
       <r>    26.6037     0.5473    25.4863 </r>
       <r>    27.0524     0.4854    25.7183 </r>
       <r>    27.5011     0.4770    25.9273 </r>
       <r>    27.9499     0.6063    26.1760 </r>
       <r>    28.3986     0.5567    26.4424 </r>
       <r>    28.8473     0.7832    26.7295 </r>
       <r>    29.2961     0.8062    27.1626 </r>
       <r>    29.7448     0.7112    27.4896 </r>
       <r>    30.1936     0.7314    27.8136 </r>
       <r>    30.6423     0.6369    28.1291 </r>
       <r>    31.0910     0.6013    28.4079 </r>
       <r>    31.5398     0.6373    28.6890 </r>
       <r>    31.9885     0.7009    28.9768 </r>
       <r>    32.4372     0.9238    29.3450 </r>
       <r>    32.8860     0.9112    29.7461 </r>
       <r>    33.3347     0.9392    30.1357 </r>
       <r>    33.7834     0.8588    30.5418 </r>
       <r>    34.2322     0.9031    30.9555 </r>
       <r>    34.6809     0.7726    31.3247 </r>
       <r>    35.1296     0.6955    31.6684 </r>
       <r>    35.5784     0.5292    31.9456 </r>
       <r>    36.0271     0.5291    32.1807 </r>
       <r>    36.4758     0.5801    32.4310 </r>
       <r>    36.9246     0.7910    32.7245 </r>
       <r>    37.3733     1.1329    33.1550 </r>
       <r>    37.8220     1.0521    33.6720 </r>
       <r>    38.2708     0.9241    34.1176 </r>
       <r>    38.7195     0.6684    34.4696 </r>
       <r>    39.1682     0.6864    34.7668 </r>
       <r>    39.6170     0.8832    35.1225 </r>
       <r>    40.0657     0.6615    35.5135 </r>
       <r>    40.5144     0.7416    35.8229 </r>
       <r>    40.9632     0.8368    36.2015 </r>
       <r>    41.4119     1.1095    36.6163 </r>
       <r>    41.8606     2.0035    37.3575 </r>
       <r>    42.3094     2.5592    38.6375 </r>
       <r>    42.7581     1.4604    39.4353 </r>
       <r>    43.2068     1.0808    39.9362 </r>
       <r>    43.6556     1.2536    40.4606 </r>
       <r>    44.1043     1.1351    40.9926 </r>
       <r>    44.5531     1.0228    41.4777 </r>
       <r>    45.0018     0.9141    41.9280 </r>
       <r>    45.4505     0.9908    42.3179 </r>
       <r>    45.8993     0.7961    42.7430 </r>
       <r>    46.3480     0.6494    43.0521 </r>
       <r>    46.7967     0.5399    43.3163 </r>
       <r>    47.2455     0.6061    43.5625 </r>
       <r>    47.6942     1.0856    43.9499 </r>
       <r>    48.1429     0.7984    44.3698 </r>
       <r>    48.5917     0.7575    44.7110 </r>
       <r>    49.0404     0.5785    45.0137 </r>
       <r>    49.4891     0.7503    45.3224 </r>
       <r>    49.9379     0.8268    45.6766 </r>
       <r>    50.3866     1.0815    46.1099 </r>
       <r>    50.8353     0.9725    46.5515 </r>
       <r>    51.2841     0.9092    46.9923 </r>
       <r>    51.7328     0.9633    47.4272 </r>
       <r>    52.1815     0.8553    47.8236 </r>
       <r>    52.6303     0.8742    48.2066 </r>
       <r>    53.0790     1.0312    48.6298 </r>
       <r>    53.5277     0.8075    49.0465 </r>
       <r>    53.9765     0.8883    49.4018 </r>
       <r>    54.4252     0.8703    49.8000 </r>
       <r>    54.8739     0.8350    50.1904 </r>
       <r>    55.3227     0.9665    50.6295 </r>
       <r>    55.7714     0.9690    51.0639 </r>
       <r>    56.2201     0.9767    51.4935 </r>
       <r>    56.6689     1.0504    51.9465 </r>
       <r>    57.1176     0.9589    52.3925 </r>
       <r>    57.5663     0.9030    52.8211 </r>
       <r>    58.0151     0.9934    53.2474 </r>
       <r>    58.4638     1.0931    53.7033 </r>
       <r>    58.9126     1.1290    54.1869 </r>
       <r>    59.3613     1.0809    54.6790 </r>
       <r>    59.8100     1.0889    55.1824 </r>
       <r>    60.2588     1.0349    55.6433 </r>
       <r>    60.7075     1.0601    56.1320 </r>
       <r>    61.1562     0.9736    56.5820 </r>
       <r>    61.6050     0.9479    57.0045 </r>
       <r>    62.0537     1.1494    57.4699 </r>
       <r>    62.5024     1.0714    57.9737 </r>
       <r>    62.9512     0.6710    58.3610 </r>
       <r>    63.3999     0.7373    58.6643 </r>
       <r>    63.8486     1.0751    59.0615 </r>
       <r>    64.2974     1.2295    59.6221 </r>
       <r>    64.7461     0.8757    60.0858 </r>
       <r>    65.1948     0.7708    60.4212 </r>
       <r>    65.6436     0.9843    60.8122 </r>
       <r>    66.0923     1.0731    61.2809 </r>
       <r>    66.5410     1.0974    61.7830 </r>
       <r>    66.9898     0.9236    62.2357 </r>
       <r>    67.4385     0.9121    62.6373 </r>
       <r>    67.8872     1.1273    63.1156 </r>
       <r>    68.3360     1.2261    63.6263 </r>
       <r>    68.7847     0.9537    64.1224 </r>
       <r>    69.2334     0.9429    64.5312 </r>
       <r>    69.6822     0.9287    64.9510 </r>
       <r>    70.1309     0.9277    65.3773 </r>
       <r>    70.5796     1.0444    65.8145 </r>
       <r>    71.0284     0.9643    66.2658 </r>
       <r>    71.4771     1.0317    66.7082 </r>
       <r>    71.9258     1.0685    67.1827 </r>
       <r>    72.3746     1.2657    67.6917 </r>
       <r>    72.8233     1.1098    68.2363 </r>
       <r>    73.2721     1.0480    68.7158 </r>
       <r>    73.7208     1.0393    69.1981 </r>
       <r>    74.1695     0.9661    69.6207 </r>
       <r>    74.6183     1.0405    70.1111 </r>
       <r>    75.0670     1.1229    70.5626 </r>
       <r>    75.5157     1.0664    71.0373 </r>
       <r>    75.9645     1.0587    71.5186 </r>
       <r>    76.4132     1.1845    71.9742 </r>
       <r>    76.8619     1.1137    72.4552 </r>
       <r>    77.3107     1.1487    72.9603 </r>
       <r>    77.7594     1.0753    73.4629 </r>
       <r>    78.2081     1.1087    73.9357 </r>
       <r>    78.6569     1.0887    74.4270 </r>
       <r>    79.1056     1.1463    74.9176 </r>
       <r>    79.5543     1.0944    75.4312 </r>
       <r>    80.0031     0.8516    75.8455 </r>
       <r>    80.4518     0.9317    76.2483 </r>
       <r>    80.9005     1.1018    76.6985 </r>
       <r>    81.3493     1.1232    77.2139 </r>
       <r>    81.7980     0.9782    77.6900 </r>
       <r>    82.2467     1.2010    78.1486 </r>
       <r>    82.6955     1.1372    78.6806 </r>
       <r>    83.1442     0.7314    79.1303 </r>
       <r>    83.5929     0.4680    79.3924 </r>
       <r>    84.0417     0.3287    79.5648 </r>
       <r>    84.4904     0.2640    79.6960 </r>
       <r>    84.9391     0.1579    79.7985 </r>
       <r>    85.3879     0.0872    79.8487 </r>
       <r>    85.8366     0.0552    79.8795 </r>
       <r>    86.2853     0.0426    79.9013 </r>
       <r>    86.7341     0.0324    79.9181 </r>
       <r>    87.1828     0.0246    79.9308 </r>
       <r>    87.6316     0.0178    79.9403 </r>
       <r>    88.0803     0.0135    79.9470 </r>
       <r>    88.5290     0.0127    79.9529 </r>
       <r>    88.9778     0.0124    79.9584 </r>
       <r>    89.4265     0.0117    79.9638 </r>
       <r>    89.8752     0.0110    79.9689 </r>
       <r>    90.3240     0.0109    79.9738 </r>
       <r>    90.7727     0.0095    79.9787 </r>
       <r>    91.2214     0.0056    79.9819 </r>
       <r>    91.6702     0.0052    79.9844 </r>
       <r>    92.1189     0.0047    79.9866 </r>
       <r>    92.5676     0.0043    79.9886 </r>
       <r>    93.0164     0.0039    79.9904 </r>
       <r>    93.4651     0.0035    79.9921 </r>
       <r>    93.9138     0.0031    79.9936 </r>
       <r>    94.3626     0.0028    79.9949 </r>
       <r>    94.8113     0.0024    79.9961 </r>
       <r>    95.2600     0.0021    79.9971 </r>
       <r>    95.7088     0.0018    79.9980 </r>
       <r>    96.1575     0.0042    79.9988 </r>
       <r>    96.6062     0.0000    80.0000 </r>
       <r>    97.0550     0.0000    80.0000 </r>
       <r>    97.5037     0.0000    80.0000 </r>
       <r>    97.9524     0.0000    80.0000 </r>
       <r>    98.4012     0.0000    80.0000 </r>
       <r>    98.8499     0.0000    80.0000 </r>
       <r>    99.2986     0.0000    80.0000 </r>
       <r>    99.7474     0.0000    80.0000 </r>
       <r>   100.1961     0.0000    80.0000 </r>
       <r>   100.6448     0.0000    80.0000 </r>
       <r>   101.0936     0.0000    80.0000 </r>
       <r>   101.5423     0.0000    80.0000 </r>
       <r>   101.9910     0.0000    80.0000 </r>
       <r>   102.4398     0.0000    80.0000 </r>
      </set>
     </set>
    </array>
   </total>
  </dos>
 </calculation>
 <structure name="finalpos" >
  <crystal>
   <varray name="basis" >
    <v>      -1.65040000       1.65040000       1.65040000 </v>
    <v>       1.65040000      -1.65040000       1.65040000 </v>
    <v>       1.65040000       1.65040000      -1.65040000 </v>
   </varray>
   <i name="volume">     17.98157117 </i>
   <varray name="rec_basis" >
    <v>       0.00000000       0.30295686       0.30295686 </v>
    <v>       0.30295686       0.00000000       0.30295686 </v>
    <v>       0.30295686       0.30295686       0.00000000 </v>
   </varray>
  </crystal>
  <varray name="positions" >
   <v>       0.00000000       0.00000000       0.00000000 </v>
  </varray>
 </structure>
</modeling>
