 running on   40 total cores
 distrk:  each k-point on   40 cores,    1 groups
 distr:  one band on    1 cores,   40 groups
 using from now: INCAR     
 vasp.5.4.4.18Apr17-6-g9f103f2a35 (build May 20 2018 16:52:39) complex          
  
 POSCAR found type information on POSCAR  Nb
 POSCAR found :  1 types and       1 ions
 scaLAPACK will be used

 ----------------------------------------------------------------------------- 
|                                                                             |
|           W    W    AA    RRRRR   N    N  II  N    N   GGGG   !!!           |
|           W    W   A  A   R    R  NN   N  II  NN   N  G    G  !!!           |
|           W    W  A    A  R    R  N N  N  II  N N  N  G       !!!           |
|           W WW W  AAAAAA  RRRRR   N  N N  II  N  N N  G  GGG   !            |
|           WW  WW  A    A  R   R   N   NN  II  N   NN  G    G                |
|           W    W  A    A  R    R  N    N  II  N    N   GGGG   !!!           |
|                                                                             |
|      For optimal performance we recommend to set                            |
|        NCORE= 4 - approx SQRT( number of cores)                             |
|      NCORE specifies how many cores store one orbital (NPAR=cpu/NCORE).     |
|      This setting can  greatly improve the performance of VASP for DFT.     |
|      The default,   NCORE=1            might be grossly inefficient         |
|      on modern multi-core architectures or massively parallel machines.     |
|      Do your own testing !!!!                                               |
|      Unfortunately you need to use the default for GW and RPA calculations. |
|      (for HF NCORE is supported but not extensively tested yet)             |
|                                                                             |
 ----------------------------------------------------------------------------- 

 LDA part: xc-table for Ceperly-Alder, standard interpolation
 POSCAR, INCAR and KPOINTS ok, starting setup
 FFT: planning ...
 WAVECAR not read
 reading imaginary part of occupancies ...
 charge-density read from file: Nb                                      
 entering main loop
       N       E                     dE             d eps       ncg     rms          rms(c)
DAV:   1    -0.100464086672E+02   -0.10046E+02   -0.55137E+03 15120   0.185E+02
DAV:   2    -0.111374982987E+02   -0.10911E+01   -0.10648E+01 12320   0.964E+00
DAV:   3    -0.111378012655E+02   -0.30297E-03   -0.30523E-03 18680   0.150E-01
DAV:   4    -0.111378012669E+02   -0.13638E-08   -0.10701E-08 12760   0.185E-04
DAV:   5    -0.111378012671E+02   -0.20486E-09   -0.27008E-12 18560   0.118E-06
DAV:   6    -0.111378012665E+02    0.55047E-09    0.98342E-13 11080   0.422E-08
   1 F= -.11137801E+02 E0= -.11137801E+02  d E =0.000000E+00
 writing wavefunctions
