fcc Fe                                  
   3.45000000000000     
     0.000000    0.500000    0.500000
     0.500000    0.000000    0.500000
     0.500000    0.500000    0.000000
   Fe
     1
Direct
  0.000000  0.000000  0.000000
 
   20   20   20
 0.85874366804E+02 0.80956030576E+02 0.67831494700E+02 0.50493750212E+02 0.33342018325E+02
 0.19566526741E+02 0.10557455045E+02 0.60420543608E+01 0.45060174049E+01 0.39884212710E+01
 0.38152527587E+01 0.39884212710E+01 0.45060174049E+01 0.60420543608E+01 0.10557455045E+02
 0.19566526741E+02 0.33342018325E+02 0.50493750212E+02 0.67831494700E+02 0.80956030576E+02
 0.80956030576E+02 0.71958395646E+02 0.56832909479E+02 0.39837516118E+02 0.24760749294E+02
 0.13833158519E+02 0.75466416512E+01 0.49449095712E+01 0.41626676521E+01 0.38232160096E+01
 0.38237589321E+01 0.41633711462E+01 0.49449831832E+01 0.75477003777E+01 0.13836741959E+02
 0.24763621457E+02 0.39832572767E+02 0.56817284255E+02 0.71939699969E+02 0.80947582362E+02
 0.67831494700E+02 0.56832909479E+02 0.42267395698E+02 0.27862996776E+02 0.16381693205E+02
 0.90283128024E+01 0.54902886471E+01 0.43219221080E+01 0.38479269879E+01 0.36901165185E+01
 0.38483042110E+01 0.43217722372E+01 0.54904285009E+01 0.90311633361E+01 0.16386785504E+02
 0.27864344642E+02 0.42258603773E+02 0.56815792877E+02 0.67817368431E+02 0.71939699969E+02
 0.50493750212E+02 0.39837516118E+02 0.27862996776E+02 0.17344465178E+02 0.99501153772E+01
 0.59635043888E+01 0.44559857226E+01 0.38837424277E+01 0.36007007905E+01 0.36007496146E+01
 0.38834523991E+01 0.44550165953E+01 0.59628760824E+01 0.99513558838E+01 0.17347340920E+02
 0.27865061852E+02 0.39836700757E+02 0.50491015600E+02 0.56815792877E+02 0.56817284255E+02
 0.33342018325E+02 0.24760749294E+02 0.16381693205E+02 0.99501153772E+01 0.61522478017E+01
 0.45442513231E+01 0.39165055415E+01 0.35528176217E+01 0.34372270693E+01 0.35532525411E+01
 0.39164788486E+01 0.45428091710E+01 0.61494947630E+01 0.99476623839E+01 0.16381755541E+02
 0.24764301362E+02 0.33347528299E+02 0.39836700757E+02 0.42258603773E+02 0.39832572767E+02
 0.19566526741E+02 0.13833158519E+02 0.90283128024E+01 0.59635043888E+01 0.45442513231E+01
 0.39302009429E+01 0.35346917101E+01 0.33490560836E+01 0.33493712709E+01 0.35357392274E+01
 0.39315947836E+01 0.45443988945E+01 0.59607559139E+01 0.90231261067E+01 0.13828342867E+02
 0.19564625944E+02 0.24764301362E+02 0.27865061852E+02 0.27864344642E+02 0.24763621457E+02
 0.10557455045E+02 0.75466416512E+01 0.54902886471E+01 0.44559857226E+01 0.39165055415E+01
 0.35346917101E+01 0.33220000858E+01 0.32560659414E+01 0.33219604534E+01 0.35361811424E+01
 0.39201399261E+01 0.44596466559E+01 0.54904942587E+01 0.75416842557E+01 0.10548958680E+02
 0.13828342867E+02 0.16381755541E+02 0.17347340920E+02 0.16386785504E+02 0.13836741959E+02
 0.60420543608E+01 0.49449095712E+01 0.43219221080E+01 0.38837424277E+01 0.35528176217E+01
 0.33490560836E+01 0.32560659414E+01 0.32553166317E+01 0.33476801594E+01 0.35529419558E+01
 0.38871914068E+01 0.43281397917E+01 0.49502764346E+01 0.60422291784E+01 0.75416842557E+01
 0.90231261067E+01 0.99476623839E+01 0.99513558838E+01 0.90311633361E+01 0.75477003777E+01
 0.45060174049E+01 0.41626676521E+01 0.38479269879E+01 0.36007007905E+01 0.34372270693E+01
 0.33493712709E+01 0.33219604534E+01 0.33476801594E+01 0.34337164503E+01 0.35971389063E+01
 0.38479665871E+01 0.41682102975E+01 0.45141691582E+01 0.49502764346E+01 0.54904942587E+01
 0.59607559139E+01 0.61494947630E+01 0.59628760824E+01 0.54904285009E+01 0.49449831832E+01
 0.39884212710E+01 0.38232160096E+01 0.36901165185E+01 0.36007496146E+01 0.35532525411E+01
 0.35357392274E+01 0.35361811424E+01 0.35529419558E+01 0.35971389063E+01 0.36837511474E+01
 0.38181487800E+01 0.39883731385E+01 0.41682102975E+01 0.43281397917E+01 0.44596466559E+01
 0.45443988945E+01 0.45428091710E+01 0.44550165953E+01 0.43217722372E+01 0.41633711462E+01
 0.38152527587E+01 0.38237589321E+01 0.38483042110E+01 0.38834523991E+01 0.39164788486E+01
 0.39315947836E+01 0.39201399261E+01 0.38871914068E+01 0.38479665871E+01 0.38181487800E+01
 0.38072606991E+01 0.38181487800E+01 0.38479665871E+01 0.38871914068E+01 0.39201399261E+01
 0.39315947836E+01 0.39164788486E+01 0.38834523991E+01 0.38483042110E+01 0.38237589321E+01
 0.39884212710E+01 0.41633711462E+01 0.43217722372E+01 0.44550165953E+01 0.45428091710E+01
 0.45443988945E+01 0.44596466559E+01 0.43281397917E+01 0.41682102975E+01 0.39883731385E+01
 0.38181487800E+01 0.36837511474E+01 0.35971389063E+01 0.35529419558E+01 0.35361811424E+01
 0.35357392274E+01 0.35532525411E+01 0.36007496146E+01 0.36901165185E+01 0.38232160096E+01
 0.45060174049E+01 0.49449831832E+01 0.54904285009E+01 0.59628760824E+01 0.61494947630E+01
 0.59607559139E+01 0.54904942587E+01 0.49502764346E+01 0.45141691582E+01 0.41682102975E+01
 0.38479665871E+01 0.35971389063E+01 0.34337164503E+01 0.33476801594E+01 0.33219604534E+01
 0.33493712709E+01 0.34372270693E+01 0.36007007905E+01 0.38479269879E+01 0.41626676521E+01
 0.60420543608E+01 0.75477003777E+01 0.90311633361E+01 0.99513558838E+01 0.99476623839E+01
 0.90231261067E+01 0.75416842557E+01 0.60422291784E+01 0.49502764346E+01 0.43281397917E+01
 0.38871914068E+01 0.35529419558E+01 0.33476801594E+01 0.32553166317E+01 0.32560659414E+01
 0.33490560836E+01 0.35528176217E+01 0.38837424277E+01 0.43219221080E+01 0.49449095712E+01
 0.10557455045E+02 0.13836741959E+02 0.16386785504E+02 0.17347340920E+02 0.16381755541E+02
 0.13828342867E+02 0.10548958680E+02 0.75416842557E+01 0.54904942587E+01 0.44596466559E+01
 0.39201399261E+01 0.35361811424E+01 0.33219604534E+01 0.32560659414E+01 0.33220000858E+01
 0.35346917101E+01 0.39165055415E+01 0.44559857226E+01 0.54902886471E+01 0.75466416512E+01
 0.19566526741E+02 0.24763621457E+02 0.27864344642E+02 0.27865061852E+02 0.24764301362E+02
 0.19564625944E+02 0.13828342867E+02 0.90231261067E+01 0.59607559139E+01 0.45443988945E+01
 0.39315947836E+01 0.35357392274E+01 0.33493712709E+01 0.33490560836E+01 0.35346917101E+01
 0.39302009429E+01 0.45442513231E+01 0.59635043888E+01 0.90283128024E+01 0.13833158519E+02
 0.33342018325E+02 0.39832572767E+02 0.42258603773E+02 0.39836700757E+02 0.33347528299E+02
 0.24764301362E+02 0.16381755541E+02 0.99476623839E+01 0.61494947630E+01 0.45428091710E+01
 0.39164788486E+01 0.35532525411E+01 0.34372270693E+01 0.35528176217E+01 0.39165055415E+01
 0.45442513231E+01 0.61522478017E+01 0.99501153772E+01 0.16381693205E+02 0.24760749294E+02
 0.50493750212E+02 0.56817284255E+02 0.56815792877E+02 0.50491015600E+02 0.39836700757E+02
 0.27865061852E+02 0.17347340920E+02 0.99513558838E+01 0.59628760824E+01 0.44550165953E+01
 0.38834523991E+01 0.36007496146E+01 0.36007007905E+01 0.38837424277E+01 0.44559857226E+01
 0.59635043888E+01 0.99501153772E+01 0.17344465178E+02 0.27862996776E+02 0.39837516118E+02
 0.67831494700E+02 0.71939699969E+02 0.67817368431E+02 0.56815792877E+02 0.42258603773E+02
 0.27864344642E+02 0.16386785504E+02 0.90311633361E+01 0.54904285009E+01 0.43217722372E+01
 0.38483042110E+01 0.36901165185E+01 0.38479269879E+01 0.43219221080E+01 0.54902886471E+01
 0.90283128024E+01 0.16381693205E+02 0.27862996776E+02 0.42267395698E+02 0.56832909479E+02
 0.80956030576E+02 0.80947582362E+02 0.71939699969E+02 0.56817284255E+02 0.39832572767E+02
 0.24763621457E+02 0.13836741959E+02 0.75477003777E+01 0.49449831832E+01 0.41633711462E+01
 0.38237589321E+01 0.38232160096E+01 0.41626676521E+01 0.49449095712E+01 0.75466416512E+01
 0.13833158519E+02 0.24760749294E+02 0.39837516118E+02 0.56832909479E+02 0.71958395646E+02
 0.80956030576E+02 0.71958395646E+02 0.56832909479E+02 0.39837516118E+02 0.24760749294E+02
 0.13833158519E+02 0.75466416512E+01 0.49449095712E+01 0.41626676521E+01 0.38232160096E+01
 0.38237589321E+01 0.41633711462E+01 0.49449831832E+01 0.75477003777E+01 0.13836741959E+02
 0.24763621457E+02 0.39832572767E+02 0.56817284255E+02 0.71939699969E+02 0.80947582362E+02
 0.71958395646E+02 0.60250244458E+02 0.44778092922E+02 0.29505845934E+02 0.17327313002E+02
 0.94846517165E+01 0.56614459085E+01 0.43893428054E+01 0.39033443428E+01 0.37407426681E+01
 0.39036405450E+01 0.43889820671E+01 0.56619193733E+01 0.94892957645E+01 0.17334777384E+02
 0.29506768090E+02 0.44763128183E+02 0.60222806631E+02 0.71936137845E+02 0.76334793467E+02
 0.56832909479E+02 0.44778092922E+02 0.31276652999E+02 0.19420240714E+02 0.11022605061E+02
 0.64003428977E+01 0.46053095069E+01 0.39873695537E+01 0.36872989478E+01 0.36872962081E+01
 0.39867718417E+01 0.46042213979E+01 0.64014625217E+01 0.11028165591E+02 0.19426846268E+02
 0.31276223035E+02 0.44766518427E+02 0.56816894026E+02 0.63998826105E+02 0.64006354811E+02
 0.39837516118E+02 0.29505845934E+02 0.19420240714E+02 0.11608339467E+02 0.68742307490E+01
 0.47900701610E+01 0.40591909923E+01 0.36627686284E+01 0.35352299254E+01 0.36632550863E+01
 0.40586163192E+01 0.47880141612E+01 0.68728372148E+01 0.11610173123E+02 0.19425161983E+02
 0.29510991691E+02 0.39840415455E+02 0.47679160551E+02 0.50615118309E+02 0.47678390910E+02
 0.24760749294E+02 0.17327313002E+02 0.11022605061E+02 0.68742307490E+01 0.48658070115E+01
 0.41025039388E+01 0.36582223478E+01 0.34455814523E+01 0.34461541712E+01 0.36591496044E+01
 0.41020987271E+01 0.48631104312E+01 0.68703800358E+01 0.11020589987E+02 0.17329807228E+02
 0.24767530350E+02 0.31495595709E+02 0.35513378767E+02 0.35510200331E+02 0.31488231634E+02
 0.13833158519E+02 0.94846517165E+01 0.64003428977E+01 0.47900701610E+01 0.41025039388E+01
 0.36596199554E+01 0.34069668997E+01 0.33286182566E+01 0.34072335913E+01 0.36609107107E+01
 0.41043667821E+01 0.47902413694E+01 0.63971323213E+01 0.94794467718E+01 0.13829404335E+02
 0.18484362641E+02 0.22082191054E+02 0.23437163276E+02 0.22081136973E+02 0.18484879634E+02
 0.75466416512E+01 0.56614459085E+01 0.46053095069E+01 0.40591909923E+01 0.36582223478E+01
 0.34069668997E+01 0.32926830044E+01 0.32921736021E+01 0.34067481922E+01 0.36604716083E+01
 0.40638330621E+01 0.46093095030E+01 0.56614004902E+01 0.75418118274E+01 0.10015322404E+02
 0.12389220960E+02 0.13847831817E+02 0.13850148356E+02 0.12395289953E+02 0.10022542770E+02
 0.49449095712E+01 0.43893428054E+01 0.39873695537E+01 0.36627686284E+01 0.34455814523E+01
 0.33286182566E+01 0.32921736021E+01 0.33272237615E+01 0.34439141087E+01 0.36629360976E+01
 0.39911026746E+01 0.43958114978E+01 0.49503219207E+01 0.58349268040E+01 0.69172091089E+01
 0.78248555030E+01 0.81814073120E+01 0.78291846604E+01 0.69213178904E+01 0.58343492314E+01
 0.41626676521E+01 0.39033443428E+01 0.36872989478E+01 0.35352299254E+01 0.34461541712E+01
 0.34072335913E+01 0.34067481922E+01 0.34439141087E+01 0.35307718191E+01 0.36830913720E+01
 0.39034581810E+01 0.41683092813E+01 0.44359346528E+01 0.47332660638E+01 0.50521139013E+01
 0.52683792732E+01 0.52686090378E+01 0.50510486257E+01 0.47283663912E+01 0.44283063621E+01
 0.38232160096E+01 0.37407426681E+01 0.36872962081E+01 0.36632550863E+01 0.36591496044E+01
 0.36609107107E+01 0.36604716083E+01 0.36629360976E+01 0.36830913720E+01 0.37341403917E+01
 0.38183511834E+01 0.39257156679E+01 0.40386315711E+01 0.41374311555E+01 0.42047340678E+01
 0.42284854741E+01 0.42013395080E+01 0.41322037124E+01 0.40345793203E+01 0.39258594565E+01
 0.38237589321E+01 0.39036405450E+01 0.39867718417E+01 0.40586163192E+01 0.41020987271E+01
 0.41043667821E+01 0.40638330621E+01 0.39911026746E+01 0.39034581810E+01 0.38183511834E+01
 0.37500332069E+01 0.37078125981E+01 0.36929666159E+01 0.36964167965E+01 0.37028091695E+01
 0.37012101420E+01 0.36936941691E+01 0.36932038372E+01 0.37128921135E+01 0.37575951409E+01
 0.41633711462E+01 0.43889820671E+01 0.46042213979E+01 0.47880141612E+01 0.48631104312E+01
 0.47902413694E+01 0.46093095030E+01 0.43958114978E+01 0.41683092813E+01 0.39257156679E+01
 0.37078125981E+01 0.35440791239E+01 0.34418342436E+01 0.33903972634E+01 0.33751665697E+01
 0.33907233822E+01 0.34443524434E+01 0.35491512537E+01 0.37123776596E+01 0.39258594565E+01
 0.49449831832E+01 0.56619193733E+01 0.64014625217E+01 0.68728372148E+01 0.68703800358E+01
 0.63971323213E+01 0.56614004902E+01 0.49503219207E+01 0.44359346528E+01 0.40386315711E+01
 0.36929666159E+01 0.34418342436E+01 0.32908950445E+01 0.32233620317E+01 0.32242588873E+01
 0.32933497999E+01 0.34444540185E+01 0.36929026378E+01 0.40338620263E+01 0.44283063621E+01
 0.75477003777E+01 0.94892957645E+01 0.11028165591E+02 0.11610173123E+02 0.11020589987E+02
 0.94794467718E+01 0.75418118274E+01 0.58349268040E+01 0.47332660638E+01 0.41374311555E+01
 0.36964167965E+01 0.33903972634E+01 0.32233620317E+01 0.31722867362E+01 0.32241343834E+01
 0.33904672739E+01 0.36940453822E+01 0.41325081528E+01 0.47284398667E+01 0.58343492314E+01
 0.13836741959E+02 0.17334777384E+02 0.19426846268E+02 0.19425161983E+02 0.17329807228E+02
 0.13829404335E+02 0.10015322404E+02 0.69172091089E+01 0.50521139013E+01 0.42047340678E+01
 0.37028091695E+01 0.33751665697E+01 0.32242588873E+01 0.32241343834E+01 0.33742183387E+01
 0.37004654325E+01 0.42022080506E+01 0.50520816453E+01 0.69213514740E+01 0.10022542770E+02
 0.24763621457E+02 0.29506768090E+02 0.31276223035E+02 0.29510991691E+02 0.24767530350E+02
 0.18484362641E+02 0.12389220960E+02 0.78248555030E+01 0.52683792732E+01 0.42284854741E+01
 0.37012101420E+01 0.33907233822E+01 0.32933497999E+01 0.33904672739E+01 0.37004654325E+01
 0.42281428098E+01 0.52703388519E+01 0.78295095396E+01 0.12393723756E+02 0.18484879634E+02
 0.39832572767E+02 0.44763128183E+02 0.44766518427E+02 0.39840415455E+02 0.31495595709E+02
 0.22082191054E+02 0.13847831817E+02 0.81814073120E+01 0.52686090378E+01 0.42013395080E+01
 0.36936941691E+01 0.34443524434E+01 0.34444540185E+01 0.36940453822E+01 0.42022080506E+01
 0.52703388519E+01 0.81835139660E+01 0.13848342253E+02 0.22078794115E+02 0.31488231634E+02
 0.56817284255E+02 0.60222806631E+02 0.56816894026E+02 0.47679160551E+02 0.35513378767E+02
 0.23437163276E+02 0.13850148356E+02 0.78291846604E+01 0.50510486257E+01 0.41322037124E+01
 0.36932038372E+01 0.35491512537E+01 0.36929026378E+01 0.41325081528E+01 0.50520816453E+01
 0.78295095396E+01 0.13848342253E+02 0.23433793909E+02 0.35510627209E+02 0.47678390910E+02
 0.71939699969E+02 0.71936137845E+02 0.63998826105E+02 0.50615118309E+02 0.35510200331E+02
 0.22081136973E+02 0.12395289953E+02 0.69213178904E+01 0.47283663912E+01 0.40345793203E+01
 0.37128921135E+01 0.37123776596E+01 0.40338620263E+01 0.47284398667E+01 0.69213514740E+01
 0.12393723756E+02 0.22078794115E+02 0.35510627209E+02 0.50620531162E+02 0.64006354811E+02
 0.80947582362E+02 0.76334793467E+02 0.64006354811E+02 0.47678390910E+02 0.31488231634E+02
 0.18484879634E+02 0.10022542770E+02 0.58343492314E+01 0.44283063621E+01 0.39258594565E+01
 0.37575951409E+01 0.39258594565E+01 0.44283063621E+01 0.58343492314E+01 0.10022542770E+02
 0.18484879634E+02 0.31488231634E+02 0.47678390910E+02 0.64006354811E+02 0.76334793467E+02
 0.67831494700E+02 0.56832909479E+02 0.42267395698E+02 0.27862996776E+02 0.16381693205E+02
 0.90283128024E+01 0.54902886471E+01 0.43219221080E+01 0.38479269879E+01 0.36901165185E+01
 0.38483042110E+01 0.43217722372E+01 0.54904285009E+01 0.90311633361E+01 0.16386785504E+02
 0.27864344642E+02 0.42258603773E+02 0.56815792877E+02 0.67817368431E+02 0.71939699969E+02
 0.56832909479E+02 0.44778092922E+02 0.31276652999E+02 0.19420240714E+02 0.11022605061E+02
 0.64003428977E+01 0.46053095069E+01 0.39873695537E+01 0.36872989478E+01 0.36872962081E+01
 0.39867718417E+01 0.46042213979E+01 0.64014625217E+01 0.11028165591E+02 0.19426846268E+02
 0.31276223035E+02 0.44766518427E+02 0.56816894026E+02 0.63998826105E+02 0.64006354811E+02
 0.42267395698E+02 0.31276652999E+02 0.20555314569E+02 0.12233551055E+02 0.71522727909E+01
 0.48849012589E+01 0.41089880159E+01 0.37018424994E+01 0.35700800281E+01 0.37021168853E+01
 0.41079856061E+01 0.48828284469E+01 0.71523102901E+01 0.12238252608E+02 0.20562651962E+02
 0.31281507296E+02 0.42267282986E+02 0.50618336706E+02 0.53751096120E+02 0.50620531162E+02
 0.27862996776E+02 0.19420240714E+02 0.12233551055E+02 0.74438813526E+01 0.50689393094E+01
 0.41932772468E+01 0.37254773069E+01 0.34986292476E+01 0.34991944538E+01 0.37260563255E+01
 0.41918695989E+01 0.50653214719E+01 0.74408072498E+01 0.12235068583E+02 0.19428388838E+02
 0.27875622486E+02 0.35522146718E+02 0.40096224763E+02 0.40091578095E+02 0.35510627209E+02
 0.16381693205E+02 0.11022605061E+02 0.71522727909E+01 0.50689393094E+01 0.42238345593E+01
 0.37442796619E+01 0.34651386492E+01 0.33784476750E+01 0.34656152756E+01 0.37448726179E+01
 0.42231598830E+01 0.50655296299E+01 0.71472568562E+01 0.11020510085E+02 0.16386676166E+02
 0.22089408525E+02 0.26490773534E+02 0.28146312884E+02 0.26481921400E+02 0.22078794115E+02
 0.90283128024E+01 0.64003428977E+01 0.48849012589E+01 0.41932772468E+01 0.37442796619E+01
 0.34564076897E+01 0.33252802098E+01 0.33249813717E+01 0.34565512700E+01 0.37461252725E+01
 0.41955516188E+01 0.48845603908E+01 0.63963502733E+01 0.90233875445E+01 0.12391391718E+02
 0.15581864629E+02 0.17530214061E+02 0.17529443072E+02 0.15581280995E+02 0.12393723756E+02
 0.54902886471E+01 0.46053095069E+01 0.41089880159E+01 0.37254773069E+01 0.34651386492E+01
 0.33252802098E+01 0.32821041943E+01 0.33243207633E+01 0.34651596894E+01 0.37281272887E+01
 0.41135373660E+01 0.46088867204E+01 0.54901945540E+01 0.69172600436E+01 0.86076887446E+01
 0.99935245720E+01 0.10531063598E+02 0.99975837882E+01 0.86134550739E+01 0.69213514740E+01
 0.43219221080E+01 0.39873695537E+01 0.37018424994E+01 0.34986292476E+01 0.33784476750E+01
 0.33249813717E+01 0.33243207633E+01 0.33765909290E+01 0.34965510247E+01 0.37017412143E+01
 0.39909789529E+01 0.43280746171E+01 0.47332967392E+01 0.53026599156E+01 0.59164433243E+01
 0.63221855808E+01 0.63237026601E+01 0.59188425498E+01 0.53020090993E+01 0.47284398667E+01
 0.38479269879E+01 0.36872989478E+01 0.35700800281E+01 0.34991944538E+01 0.34656152756E+01
 0.34565512700E+01 0.34651596894E+01 0.34965510247E+01 0.35650841804E+01 0.36830932685E+01
 0.38482088796E+01 0.40388391797E+01 0.42219709162E+01 0.43835651070E+01 0.45197803665E+01
 0.45757568514E+01 0.45184240414E+01 0.43795913414E+01 0.42157940892E+01 0.40338620263E+01
 0.36901165185E+01 0.36872962081E+01 0.37021168853E+01 0.37260563255E+01 0.37448726179E+01
 0.37461252725E+01 0.37281272887E+01 0.37017412143E+01 0.36830932685E+01 0.36841079267E+01
 0.37081915795E+01 0.37512698476E+01 0.38037297761E+01 0.38516105424E+01 0.38797443148E+01
 0.38782006274E+01 0.38480119058E+01 0.38006856600E+01 0.37514671288E+01 0.37123776596E+01
 0.38483042110E+01 0.39867718417E+01 0.41079856061E+01 0.41918695989E+01 0.42231598830E+01
 0.41955516188E+01 0.41135373660E+01 0.39909789529E+01 0.38482088796E+01 0.37081915795E+01
 0.35917204375E+01 0.35115958943E+01 0.34681263633E+01 0.34504798331E+01 0.34456043586E+01
 0.34490059664E+01 0.34681089513E+01 0.35153476547E+01 0.35979468839E+01 0.37128921135E+01
 0.43217722372E+01 0.46042213979E+01 0.48828284469E+01 0.50653214719E+01 0.50655296299E+01
 0.48845603908E+01 0.46088867204E+01 0.43280746171E+01 0.40388391797E+01 0.37512698476E+01
 0.35115958943E+01 0.33433781421E+01 0.32446888708E+01 0.32010327098E+01 0.32012604899E+01
 0.32461088287E+01 0.33466299871E+01 0.35149518587E+01 0.37514671288E+01 0.40345793203E+01
 0.54904285009E+01 0.64014625217E+01 0.71523102901E+01 0.74408072498E+01 0.71472568562E+01
 0.63963502733E+01 0.54901945540E+01 0.47332967392E+01 0.42219709162E+01 0.38037297761E+01
 0.34681263633E+01 0.32446888708E+01 0.31246215994E+01 0.30881065696E+01 0.31259266774E+01
 0.32463181017E+01 0.34680687581E+01 0.38002149716E+01 0.42157940892E+01 0.47283663912E+01
 0.90311633361E+01 0.11028165591E+02 0.12238252608E+02 0.12235068583E+02 0.11020510085E+02
 0.90233875445E+01 0.69172600436E+01 0.53026599156E+01 0.43835651070E+01 0.38516105424E+01
 0.34504798331E+01 0.32010327098E+01 0.30881065696E+01 0.30883893131E+01 0.32011576427E+01
 0.34490774865E+01 0.38483484228E+01 0.43801431711E+01 0.53020090993E+01 0.69213178904E+01
 0.16386785504E+02 0.19426846268E+02 0.20562651962E+02 0.19428388838E+02 0.16386676166E+02
 0.12391391718E+02 0.86076887446E+01 0.59164433243E+01 0.45197803665E+01 0.38797443148E+01
 0.34456043586E+01 0.32012604899E+01 0.31259266774E+01 0.32011576427E+01 0.34444296459E+01
 0.38778918775E+01 0.45197592755E+01 0.59201345370E+01 0.86134550739E+01 0.12395289953E+02
 0.27864344642E+02 0.31276223035E+02 0.31281507296E+02 0.27875622486E+02 0.22089408525E+02
 0.15581864629E+02 0.99935245720E+01 0.63221855808E+01 0.45757568514E+01 0.38782006274E+01
 0.34490059664E+01 0.32461088287E+01 0.32463181017E+01 0.34490774865E+01 0.38778918775E+01
 0.45767079380E+01 0.63259318389E+01 0.99978430809E+01 0.15581280995E+02 0.22081136973E+02
 0.42258603773E+02 0.44766518427E+02 0.42267282986E+02 0.35522146718E+02 0.26490773534E+02
 0.17530214061E+02 0.10531063598E+02 0.63237026601E+01 0.45184240414E+01 0.38480119058E+01
 0.34681089513E+01 0.33466299871E+01 0.34680687581E+01 0.38483484228E+01 0.45197592755E+01
 0.63259318389E+01 0.10532263884E+02 0.17527194869E+02 0.26481921400E+02 0.35510200331E+02
 0.56815792877E+02 0.56816894026E+02 0.50618336706E+02 0.40096224763E+02 0.28146312884E+02
 0.17529443072E+02 0.99975837882E+01 0.59188425498E+01 0.43795913414E+01 0.38006856600E+01
 0.35153476547E+01 0.35149518587E+01 0.38002149716E+01 0.43801431711E+01 0.59201345370E+01
 0.99978430809E+01 0.17527194869E+02 0.28141941234E+02 0.40091578095E+02 0.50615118309E+02
 0.67817368431E+02 0.63998826105E+02 0.53751096120E+02 0.40091578095E+02 0.26481921400E+02
 0.15581280995E+02 0.86134550739E+01 0.53020090993E+01 0.42157940892E+01 0.37514671288E+01
 0.35979468839E+01 0.37514671288E+01 0.42157940892E+01 0.53020090993E+01 0.86134550739E+01
 0.15581280995E+02 0.26481921400E+02 0.40091578095E+02 0.53751096120E+02 0.63998826105E+02
 0.71939699969E+02 0.64006354811E+02 0.50620531162E+02 0.35510627209E+02 0.22078794115E+02
 0.12393723756E+02 0.69213514740E+01 0.47284398667E+01 0.40338620263E+01 0.37123776596E+01
 0.37128921135E+01 0.40345793203E+01 0.47283663912E+01 0.69213178904E+01 0.12395289953E+02
 0.22081136973E+02 0.35510200331E+02 0.50615118309E+02 0.63998826105E+02 0.71936137845E+02
 0.50493750212E+02 0.39837516118E+02 0.27862996776E+02 0.17344465178E+02 0.99501153772E+01
 0.59635043888E+01 0.44559857226E+01 0.38837424277E+01 0.36007007905E+01 0.36007496146E+01
 0.38834523991E+01 0.44550165953E+01 0.59628760824E+01 0.99513558838E+01 0.17347340920E+02
 0.27865061852E+02 0.39836700757E+02 0.50491015600E+02 0.56815792877E+02 0.56817284255E+02
 0.39837516118E+02 0.29505845934E+02 0.19420240714E+02 0.11608339467E+02 0.68742307490E+01
 0.47900701610E+01 0.40591909923E+01 0.36627686284E+01 0.35352299254E+01 0.36632550863E+01
 0.40586163192E+01 0.47880141612E+01 0.68728372148E+01 0.11610173123E+02 0.19425161983E+02
 0.29510991691E+02 0.39840415455E+02 0.47679160551E+02 0.50615118309E+02 0.47678390910E+02
 0.27862996776E+02 0.19420240714E+02 0.12233551055E+02 0.74438813526E+01 0.50689393094E+01
 0.41932772468E+01 0.37254773069E+01 0.34986292476E+01 0.34991944538E+01 0.37260563255E+01
 0.41918695989E+01 0.50653214719E+01 0.74408072498E+01 0.12235068583E+02 0.19428388838E+02
 0.27875622486E+02 0.35522146718E+02 0.40096224763E+02 0.40091578095E+02 0.35510627209E+02
 0.17344465178E+02 0.11608339467E+02 0.74438813526E+01 0.51788428821E+01 0.42655112493E+01
 0.37740748073E+01 0.34860069373E+01 0.33963921771E+01 0.34864479774E+01 0.37744226916E+01
 0.42640982494E+01 0.51742385136E+01 0.74381296698E+01 0.11607534720E+02 0.17353597706E+02
 0.23450123069E+02 0.28154977119E+02 0.29923894559E+02 0.28141941234E+02 0.23433793909E+02
 0.99501153772E+01 0.68742307490E+01 0.50689393094E+01 0.42655112493E+01 0.37923808025E+01
 0.34848828658E+01 0.33447362685E+01 0.33446465483E+01 0.34853483104E+01 0.37936927061E+01
 0.42652670385E+01 0.50643661852E+01 0.68670546334E+01 0.99467154712E+01 0.13853071552E+02
 0.17536345471E+02 0.19780575837E+02 0.19775950500E+02 0.17527194869E+02 0.13848342253E+02
 0.59635043888E+01 0.47900701610E+01 0.41932772468E+01 0.37740748073E+01 0.34848828658E+01
 0.33295576459E+01 0.32821258097E+01 0.33291347832E+01 0.34857308138E+01 0.37766657717E+01
 0.41952730464E+01 0.47886179498E+01 0.59586386828E+01 0.78242375778E+01 0.99948320027E+01
 0.11755971239E+02 0.12434399393E+02 0.11756777162E+02 0.99978430809E+01 0.78295095396E+01
 0.44559857226E+01 0.40591909923E+01 0.37254773069E+01 0.34860069373E+01 0.33447362685E+01
 0.32821258097E+01 0.32814401703E+01 0.33435884056E+01 0.34862814601E+01 0.37282051364E+01
 0.40632925907E+01 0.44587699916E+01 0.50512791856E+01 0.59158824305E+01 0.68276645467E+01
 0.74197651654E+01 0.74219310862E+01 0.68326063607E+01 0.59201345370E+01 0.50520816453E+01
 0.38837424277E+01 0.36627686284E+01 0.34986292476E+01 0.33963921771E+01 0.33446465483E+01
 0.33291347832E+01 0.33435884056E+01 0.33942432982E+01 0.34964695075E+01 0.36627562408E+01
 0.38870007354E+01 0.41373635072E+01 0.43834048795E+01 0.46588679317E+01 0.49072152569E+01
 0.50099144767E+01 0.49083151047E+01 0.46586295672E+01 0.43801431711E+01 0.41325081528E+01
 0.36007007905E+01 0.35352299254E+01 0.34991944538E+01 0.34864479774E+01 0.34853483104E+01
 0.34857308138E+01 0.34862814601E+01 0.34964695075E+01 0.35304600271E+01 0.35971068138E+01
 0.36931845941E+01 0.38038709675E+01 0.39089109684E+01 0.39896421344E+01 0.40333328261E+01
 0.40325172495E+01 0.39869534216E+01 0.39046637964E+01 0.38002149716E+01 0.36929026378E+01
 0.36007496146E+01 0.36632550863E+01 0.37260563255E+01 0.37744226916E+01 0.37936927061E+01
 0.37766657717E+01 0.37282051364E+01 0.36627562408E+01 0.35971068138E+01 0.35443347947E+01
 0.35117306835E+01 0.35005565569E+01 0.35055008732E+01 0.35156691967E+01 0.35198361878E+01
 0.35138181135E+01 0.35035795155E+01 0.35007800091E+01 0.35149518587E+01 0.35491512537E+01
 0.38834523991E+01 0.40586163192E+01 0.41918695989E+01 0.42640982494E+01 0.42652670385E+01
 0.41952730464E+01 0.40632925907E+01 0.38870007354E+01 0.36931845941E+01 0.35117306835E+01
 0.33664844411E+01 0.32678687023E+01 0.32121075339E+01 0.31880793036E+01 0.31876149069E+01
 0.32119948775E+01 0.32701534081E+01 0.33709084117E+01 0.35153476547E+01 0.36932038372E+01
 0.44550165953E+01 0.47880141612E+01 0.50653214719E+01 0.51742385136E+01 0.50643661852E+01
 0.47886179498E+01 0.44587699916E+01 0.41373635072E+01 0.38038709675E+01 0.35005565569E+01
 0.32678687023E+01 0.31163696729E+01 0.30353847524E+01 0.30104578367E+01 0.30359212746E+01
 0.31179893148E+01 0.32699245769E+01 0.35007800091E+01 0.38006856600E+01 0.41322037124E+01
 0.59628760824E+01 0.68728372148E+01 0.74408072498E+01 0.74381296698E+01 0.68670546334E+01
 0.59586386828E+01 0.50512791856E+01 0.43834048795E+01 0.39089109684E+01 0.35055008732E+01
 0.32121075339E+01 0.30353847524E+01 0.29559749092E+01 0.29564081672E+01 0.30361969666E+01
 0.32120119098E+01 0.35032297009E+01 0.39046637964E+01 0.43795913414E+01 0.50510486257E+01
 0.99513558838E+01 0.11610173123E+02 0.12235068583E+02 0.11607534720E+02 0.99467154712E+01
 0.78242375778E+01 0.59158824305E+01 0.46588679317E+01 0.39896421344E+01 0.35156691967E+01
 0.31880793036E+01 0.30104578367E+01 0.29564081672E+01 0.30109036556E+01 0.31876065100E+01
 0.35135679723E+01 0.39872786101E+01 0.46586295672E+01 0.59188425498E+01 0.78291846604E+01
 0.17347340920E+02 0.19425161983E+02 0.19428388838E+02 0.17353597706E+02 0.13853071552E+02
 0.99948320027E+01 0.68276645467E+01 0.49072152569E+01 0.40333328261E+01 0.35198361878E+01
 0.31876149069E+01 0.30359212746E+01 0.30361969666E+01 0.31876065100E+01 0.35187936332E+01
 0.40328791634E+01 0.49098168245E+01 0.68326063607E+01 0.99975837882E+01 0.13850148356E+02
 0.27865061852E+02 0.29510991691E+02 0.27875622486E+02 0.23450123069E+02 0.17536345471E+02
 0.11755971239E+02 0.74197651654E+01 0.50099144767E+01 0.40325172495E+01 0.35138181135E+01
 0.32119948775E+01 0.31179893148E+01 0.32120119098E+01 0.35135679723E+01 0.40328791634E+01
 0.50124873215E+01 0.74237634748E+01 0.11756777162E+02 0.17529443072E+02 0.23437163276E+02
 0.39836700757E+02 0.39840415455E+02 0.35522146718E+02 0.28154977119E+02 0.19780575837E+02
 0.12434399393E+02 0.74219310862E+01 0.49083151047E+01 0.39869534216E+01 0.35035795155E+01
 0.32701534081E+01 0.32699245769E+01 0.35032297009E+01 0.39872786101E+01 0.49098168245E+01
 0.74237634748E+01 0.12434161879E+02 0.19775950500E+02 0.28146312884E+02 0.35513378767E+02
 0.50491015600E+02 0.47679160551E+02 0.40096224763E+02 0.29923894559E+02 0.19775950500E+02
 0.11756777162E+02 0.68326063607E+01 0.46586295672E+01 0.39046637964E+01 0.35007800091E+01
 0.33709084117E+01 0.35007800091E+01 0.39046637964E+01 0.46586295672E+01 0.68326063607E+01
 0.11756777162E+02 0.19775950500E+02 0.29923894559E+02 0.40096224763E+02 0.47679160551E+02
 0.56815792877E+02 0.50615118309E+02 0.40091578095E+02 0.28141941234E+02 0.17527194869E+02
 0.99978430809E+01 0.59201345370E+01 0.43801431711E+01 0.38002149716E+01 0.35149518587E+01
 0.35153476547E+01 0.38006856600E+01 0.43795913414E+01 0.59188425498E+01 0.99975837882E+01
 0.17529443072E+02 0.28146312884E+02 0.40096224763E+02 0.50618336706E+02 0.56816894026E+02
 0.56817284255E+02 0.47678390910E+02 0.35510627209E+02 0.23433793909E+02 0.13848342253E+02
 0.78295095396E+01 0.50520816453E+01 0.41325081528E+01 0.36929026378E+01 0.35491512537E+01
 0.36932038372E+01 0.41322037124E+01 0.50510486257E+01 0.78291846604E+01 0.13850148356E+02
 0.23437163276E+02 0.35513378767E+02 0.47679160551E+02 0.56816894026E+02 0.60222806631E+02
 0.33342018325E+02 0.24760749294E+02 0.16381693205E+02 0.99501153772E+01 0.61522478017E+01
 0.45442513231E+01 0.39165055415E+01 0.35528176217E+01 0.34372270693E+01 0.35532525411E+01
 0.39164788486E+01 0.45428091710E+01 0.61494947630E+01 0.99476623839E+01 0.16381755541E+02
 0.24764301362E+02 0.33347528299E+02 0.39836700757E+02 0.42258603773E+02 0.39832572767E+02
 0.24760749294E+02 0.17327313002E+02 0.11022605061E+02 0.68742307490E+01 0.48658070115E+01
 0.41025039388E+01 0.36582223478E+01 0.34455814523E+01 0.34461541712E+01 0.36591496044E+01