    1    1    1    2
  0.1026591E+02  0.2439518E-09  0.2439518E-09  0.2439518E-09  0.5000000E-15
  1.000000000000000E-004
  CAR 
 fcc Fe                                  
      8    770     10
 
  0.2500000E-01  0.2500000E-01  0.2500000E-01  0.2500000E-03
    1       -2.123399     -2.123062   1.000000   1.000000
    2        4.952449      4.953416   1.000000   1.000000
    3        4.970578      4.971545   1.000000   1.000000
    4        4.970578      4.971545   1.000000   1.000000
    5        6.523171      6.525412   0.808088   0.800777
    6        6.523171      6.525412   0.808088   0.800777
    7       29.972600     29.972679   0.000000   0.000000
    8       34.955353     34.955829   0.000000   0.000000
    9       35.334456     35.334949   0.000000   0.000000
   10       35.334456     35.334949   0.000000   0.000000
 
  0.7500000E-01  0.2500000E-01  0.2500000E-01  0.7500000E-03
    1       -1.981661     -1.981323   1.000000   1.000000
    2        4.896223      4.897184   1.000000   1.000000
    3        5.008578      5.009546   1.000000   1.000000
    4        5.019871      5.020842   1.000000   1.000000
    5        6.479996      6.482230   0.925488   0.920552
    6        6.526740      6.528979   0.796393   0.788915
    7       29.823933     29.824048   0.000000   0.000000
    8       33.619612     33.620055   0.000000   0.000000
    9       34.737561     34.738060   0.000000   0.000000
   10       35.521491     35.521993   0.000000   0.000000
 
  0.1250000E+00  0.2500000E-01  0.2500000E-01  0.7500000E-03
    1       -1.634525     -1.634185   1.000000   1.000000
    2        4.777613      4.778559   1.000000   1.000000
    3        5.100075      5.101055   1.000000   1.000000
    4        5.113083      5.114072   1.000000   1.000000
    5        6.423483      6.425696   1.010509   1.008503
    6        6.516769      6.518986   0.828344   0.821435
    7       29.082698     29.082958   0.000000   0.000000
    8       31.909688     31.910022   0.000000   0.000000
    9       34.356441     34.356950   0.000000   0.000000
   10       35.464303     35.464828   0.000000   0.000000
 
  0.1750000E+00  0.2500000E-01  0.2500000E-01  0.7500000E-03
    1       -1.102569     -1.102225   1.000000   1.000000
    2        4.628189      4.629112   1.000000   1.000000
    3        5.207879      5.208910   1.000000   1.000000
    4        5.210159      5.211209   1.000000   1.000000
    5        6.385754      6.387906   1.031768   1.031127
    6        6.530666      6.532815   0.783209   0.775852
    7       27.288066     27.288486   0.000000   0.000000
    8       31.101864     31.102089   0.000000   0.000000
    9       34.013296     34.013817   0.000000   0.000000
   10       35.282674     35.283225   0.000000   0.000000
 
  0.2250000E+00  0.2500000E-01  0.2500000E-01  0.7500000E-03
    1       -0.426451     -0.426095   1.000000   1.000000
    2        4.486878      4.487768   1.000000   1.000000
    3        5.258493      5.259674   1.000000   1.000000
    4        5.270853      5.272018   1.000000   1.000000
    5        6.430833      6.432843   1.003472   1.001357
    6        6.616686      6.618699   0.440013   0.431580
    7       24.983093     24.983590   0.000000   0.000000
    8       30.647547     30.647747   0.000000   0.000000
    9       33.688186     33.688718   0.000000   0.000000
   10       35.093343     35.093911   0.000000   0.000000
 
  0.2750000E+00  0.2500000E-01  0.2500000E-01  0.7500000E-03
    1        0.317713      0.318098   1.000000   1.000000
    2        4.447236      4.448072   1.000000   1.000000
    3        5.229839      5.231175   1.000000   1.000000
    4        5.245474      5.246818   1.000000   1.000000
    5        6.601404      6.603230   0.504508   0.496784
    6        6.800634      6.802484  -0.024148  -0.025135
    7       22.649318     22.649866   0.000000   0.000000
    8       30.175656     30.175844   0.000000   0.000000
    9       33.378917     33.379456   0.000000   0.000000
   10       34.914084     34.914658   0.000000   0.000000
 
  0.3250000E+00  0.2500000E-01  0.2500000E-01  0.7500000E-03
    1        0.998765      0.999214   1.000000   1.000000
    2        4.624537      4.625280   1.000000   1.000000
    3        5.141897      5.143351   1.000000   1.000000
    4        5.155998      5.157470   1.000000   1.000000
    5        6.853848      6.855543  -0.035305  -0.035217
    6        7.050315      7.052040  -0.003426  -0.003314
    7       20.402456     20.403052   0.000000   0.000000
    8       29.667920     29.668094   0.000000   0.000000
    9       33.101937     33.102477   0.000000   0.000000
   10       34.732593     34.733151   0.000000   0.000000
 
  0.3750000E+00  0.2500000E-01  0.2500000E-01  0.7500000E-03
    1        1.467563      1.468108   1.000000   1.000000
    2        5.035586      5.037106   1.000000   1.000000
    3        5.049961      5.051504   1.000000   1.000000
    4        5.123006      5.123626   1.000000   1.000000
    5        7.129086      7.130712  -0.000626  -0.000602
    6        7.313052      7.314697  -0.000003  -0.000003
    7       18.325305     18.325952   0.000000   0.000000
    8       29.190836     29.190997   0.000000   0.000000
    9       32.910802     32.911334   0.000000   0.000000
   10       34.485968     34.486482   0.000000   0.000000
 
  0.4250000E+00  0.2500000E-01  0.2500000E-01  0.7500000E-03
    1        1.695874      1.696499   1.000000   1.000000
    2        4.943300      4.944865   1.000000   1.000000
    3        4.960636      4.962212   1.000000   1.000000
    4        5.859890      5.860405   1.000001   1.000001
    5        7.371127      7.372724  -0.000000  -0.000000
    6        7.550502      7.552076  -0.000000  -0.000000
    7       16.549028     16.549732   0.000000   0.000000
    8       28.815055     28.815205   0.000000   0.000000
    9       32.845551     32.846069   0.000000   0.000000
   10       34.073711     34.074188   0.000000   0.000000
 
  0.4750000E+00  0.2500000E-01  0.2500000E-01  0.7500000E-03
    1        1.777250      1.777915   1.000000   1.000000
    2        4.880148      4.881733   1.000000   1.000000
    3        4.904933      4.906523   1.000000   1.000000
    4        6.509059      6.509567   0.851470   0.849990
    5        7.533090      7.534679  -0.000000  -0.000000
    6        7.735918      7.737382  -0.000000  -0.000000
    7       15.300531     15.301294   0.000000   0.000000
    8       28.585945     28.586088   0.000000   0.000000
    9       32.930143     32.930644   0.000000   0.000000
   10       33.578087     33.578564   0.000000   0.000000
 
 -0.4750000E+00  0.2500000E-01  0.2500000E-01  0.7500000E-03
    1        1.791861      1.792536   1.000000   1.000000
    2        4.860367      4.861960   1.000000   1.000000
    3        4.891808      4.893397   1.000000   1.000000
    4        6.696949      6.697494   0.145439   0.143872
    5        7.595720      7.597314  -0.000000  -0.000000
    6        7.785832      7.787219  -0.000000  -0.000000
    7       14.941799     14.942583   0.000000   0.000000
    8       28.529596     28.529737   0.000000   0.000000
    9       33.170229     33.170724   0.000000   0.000000
   10       33.192791     33.193276   0.000000   0.000000
 
 -0.4250000E+00  0.2500000E-01  0.2500000E-01  0.7500000E-03
    1        1.760085      1.760741   1.000000   1.000000
    2        4.888520      4.890109   1.000000   1.000000
    3        4.926717      4.928293   1.000000   1.000000
    4        6.323143      6.323647   1.031895   1.031985
    5        7.551660      7.553268  -0.000000  -0.000000
    6        7.625368      7.626851  -0.000000  -0.000000
    7       15.636264     15.637009   0.000000   0.000000
    8       28.653630     28.653773   0.000000   0.000000
    9       32.928606     32.929122   0.000000   0.000000
   10       33.618547     33.619022   0.000000   0.000000
 
 -0.3750000E+00  0.2500000E-01  0.2500000E-01  0.7500000E-03
    1        1.641227      1.641829   1.000000   1.000000
    2        4.959900      4.961471   1.000000   1.000000
    3        4.998374      4.999924   1.000000   1.000000
    4        5.600524      5.601066   1.000000   1.000000
    5        7.370343      7.371909  -0.000000  -0.000000
    6        7.406791      7.408427  -0.000000  -0.000000
    7       17.096627     17.097311   0.000000   0.000000
    8       28.945787     28.945936   0.000000   0.000000
    9       32.843579     32.844118   0.000000   0.000000
   10       34.125628     34.126111   0.000000   0.000000
 
 -0.3250000E+00  0.2500000E-01  0.2500000E-01  0.7500000E-03
    1        1.340112      1.340625   1.000000   1.000000
    2        4.915605      4.916281   1.000000   1.000000
    3        5.062675      5.064186   1.000000   1.000000
    4        5.097370      5.098870   1.000000   1.000000
    5        7.082067      7.083692  -0.001804  -0.001743
    6        7.188698      7.190384  -0.000137  -0.000130
    7       18.991724     18.992353   0.000000   0.000000
    8       29.374248     29.374405   0.000000   0.000000
    9       32.905472     32.906029   0.000000   0.000000
   10       34.565483     34.565999   0.000000   0.000000
 
 -0.2750000E+00  0.2500000E-01  0.2500000E-01  0.7500000E-03
    1        0.788626      0.789050   1.000000   1.000000
    2        4.531206      4.531986   1.000000   1.000000
    3        5.170423      5.171867   1.000000   1.000000
    4        5.194494      5.195907   1.000000   1.000000
    5        6.789658      6.791373  -0.017138  -0.018370
    6        6.939656      6.941432  -0.019165  -0.018774
    7       21.135898     21.136477   0.000000   0.000000
    8       29.886287     29.886454   0.000000   0.000000
    9       33.056041     33.056609   0.000000   0.000000
   10       34.870135     34.870683   0.000000   0.000000
 
 -0.2250000E+00  0.2500000E-01  0.2500000E-01  0.7500000E-03
    1        0.068771      0.069144   1.000000   1.000000
    2        4.441126      4.441983   1.000000   1.000000
    3        5.249111      5.250411   1.000000   1.000000
    4        5.261336      5.262612   1.000000   1.000000
    5        6.546769      6.548636   0.725862   0.718899
    6        6.715833      6.717750   0.095432   0.090856
    7       23.420525     23.421057   0.000000   0.000000
    8       30.401933     30.402109   0.000000   0.000000
    9       33.302136     33.302704   0.000000   0.000000
   10       35.082296     35.082855   0.000000   0.000000
 
 -0.1750000E+00  0.2500000E-01  0.2500000E-01  0.7500000E-03
    1       -0.664207     -0.663856   1.000000   1.000000
    2        4.524900      4.525803   1.000000   1.000000
    3        5.253467      5.254589   1.000000   1.000000
    4        5.258309      5.259429   1.000000   1.000000
    5        6.407403      6.409456   1.022374   1.021112
    6        6.571139      6.573217   0.630783   0.622321
    7       25.764074     25.764550   0.000000   0.000000
    8       30.862536     30.862724   0.000000   0.000000
    9       33.617556     33.618114   0.000000   0.000000
   10       35.249379     35.249928   0.000000   0.000000
 
 -0.1250000E+00  0.2500000E-01  0.2500000E-01  0.7500000E-03
    1       -1.298473     -1.298130   1.000000   1.000000
    2        4.675029      4.675961   1.000000   1.000000
    3        5.175225      5.176237   1.000000   1.000000
    4        5.181674      5.182691   1.000000   1.000000
    5        6.388372      6.390545   1.030981   1.030259
    6        6.522957      6.525144   0.808778   0.801657
    7       27.964866     27.965246   0.000000   0.000000
    8       31.353583     31.353818   0.000000   0.000000
    9       34.003649     34.004191   0.000000   0.000000
   10       35.348010     35.348537   0.000000   0.000000
 
 -0.7500000E-01  0.2500000E-01  0.2500000E-01  0.7500000E-03
    1       -1.772094     -1.771755   1.000000   1.000000
    2        4.819652      4.820603   1.000000   1.000000
    3        5.070283      5.071260   1.000000   1.000000
    4        5.077569      5.078547   1.000000   1.000000
    5        6.435875      6.438095   0.998009   0.995434
    6        6.525026      6.527257   0.802043   0.794674
    7       29.451201     29.451396   0.000000   0.000000
    8       32.438855     32.439232   0.000000   0.000000
    9       34.457336     34.457857   0.000000   0.000000
   10       35.368719     35.369222   0.000000   0.000000
 
 -0.2500000E-01  0.2500000E-01  0.2500000E-01  0.7500000E-03
    1       -2.052301     -2.051964   1.000000   1.000000
    2        4.918740      4.919702   1.000000   1.000000
    3        4.994561      4.995530   1.000000   1.000000
    4        4.996437      4.997405   1.000000   1.000000
    5        6.489776      6.492012   0.902947   0.897454
    6        6.535715      6.537958   0.765775   0.757867
    7       29.912412     29.912506   0.000000   0.000000
    8       34.338512     34.338971   0.000000   0.000000
    9       34.931420     34.931922   0.000000   0.000000
   10       35.261751     35.262237   0.000000   0.000000
 
  0.7500000E-01  0.7500000E-01  0.2500000E-01  0.7500000E-03
    1       -1.911249     -1.910910   1.000000   1.000000
    2        4.848702      4.849660   1.000000   1.000000
    3        5.046225      5.047195   1.000000   1.000000
    4        5.048041      5.049011   1.000000   1.000000
    5        6.424449      6.426674   1.009645   1.007586
    6        6.560523      6.562767   0.673237   0.664380
    7       29.800141     29.800263   0.000000   0.000000
    8       33.582995     33.583439   0.000000   0.000000
    9       34.276479     34.276994   0.000000   0.000000
   10       34.797781     34.798252   0.000000   0.000000
 
  0.1250000E+00  0.7500000E-01  0.2500000E-01  0.1500000E-02
    1       -1.633799     -1.633459   1.000000   1.000000
    2        4.736862      4.737809   1.000000   1.000000
    3        5.128945      5.129918   1.000000   1.000000
    4        5.139200      5.140182   1.000000   1.000000
    5        6.338482      6.340686   1.034235   1.034487
    6        6.586004      6.588240   0.569413   0.560042
    7       29.427223     29.427423   0.000000   0.000000
    8       32.001761     32.002185   0.000000   0.000000
    9       33.637254     33.637749   0.000000   0.000000
   10       34.906375     34.906846   0.000000   0.000000
 
  0.1750000E+00  0.7500000E-01  0.2500000E-01  0.1500000E-02
    1       -1.164855     -1.164510   1.000000   1.000000
    2        4.589068      4.589997   1.000000   1.000000
    3        5.235345      5.236367   1.000000   1.000000
    4        5.244855      5.245870   1.000000   1.000000
    5        6.264076      6.266227   1.018899   1.019373
    6        6.619847      6.622038   0.426777   0.417639
    7       28.057939     28.058318   0.000000   0.000000
    8       30.766955     30.767276   0.000000   0.000000
    9       33.159076     33.159570   0.000000   0.000000
   10       35.388081     35.388543   0.000000   0.000000
 
  0.2250000E+00  0.7500000E-01  0.2500000E-01  0.1500000E-02
    1       -0.536671     -0.536317   1.000000   1.000000
    2        4.437741      4.438645   1.000000   1.000000
    3        5.284979      5.286151   1.000000   1.000000
    4        5.330253      5.331364   1.000000   1.000000
    5        6.276050      6.278049   1.021588   1.022047
    6        6.705309      6.707386   0.122206   0.116701
    7       25.864980     25.865457   0.000000   0.000000
    8       30.219943     30.220233   0.000000   0.000000
    9       32.719208     32.719707   0.000000   0.000000
   10       35.939988     35.940458   0.000000   0.000000
 
  0.2750000E+00  0.7500000E-01  0.2500000E-01  0.1500000E-02
    1        0.189931      0.190309   1.000000   1.000000
    2        4.343874      4.344739   1.000000   1.000000
    3        5.237610      5.238972   1.000000   1.000000
    4        5.338116      5.339393   1.000000   1.000000
    5        6.443875      6.445657   0.988228   0.985858
    6        6.875195      6.877112  -0.033015  -0.032706
    7       23.511512     23.512045   0.000000   0.000000
    8       29.781025     29.781310   0.000000   0.000000
    9       32.301925     32.302433   0.000000   0.000000
   10       36.289332     36.289822   0.000000   0.000000
 
  0.3250000E+00  0.7500000E-01  0.2500000E-01  0.1500000E-02
    1        0.904548      0.904978   1.000000   1.000000
    2        4.407735      4.408540   1.000000   1.000000
    3        5.121414      5.122901   1.000000   1.000000
    4        5.272061      5.273478   1.000000   1.000000
    5        6.738265      6.739900   0.047681   0.044692
    6        7.115860      7.117629  -0.000854  -0.000820
    7       21.218535     21.219115   0.000000   0.000000
    8       29.339048     29.339320   0.000000   0.000000
    9       31.934173     31.934690   0.000000   0.000000
   10       35.580382     35.580891   0.000000   0.000000
 
  0.3750000E+00  0.7500000E-01  0.2500000E-01  0.1500000E-02
    1        1.451978      1.452498   1.000000   1.000000
    2        4.728804      4.729593   1.000000   1.000000
    3        4.998799      5.000276   1.000000   1.000000
    4        5.175031      5.176536   1.000000   1.000000
    5        7.082675      7.084252  -0.001781  -0.001723
    6        7.398643      7.400280  -0.000000  -0.000000
    7       19.066949     19.067577   0.000000   0.000000
    8       28.913548     28.913803   0.000000   0.000000
    9       31.686427     31.686954   0.000000   0.000000
   10       34.573535     34.574060   0.000000   0.000000
 
  0.4250000E+00  0.7500000E-01  0.2500000E-01  0.1500000E-02
    1        1.748548      1.749158   1.000000   1.000000
    2        4.856042      4.857636   1.000000   1.000000
    3        5.076471      5.078026   1.000000   1.000000
    4        5.335822      5.336467   1.000000   1.000000
    5        7.381234      7.382822  -0.000000  -0.000000
    6        7.743793      7.745261  -0.000000  -0.000000
    7       17.150684     17.151366   0.000000   0.000000
    8       28.547858     28.548098   0.000000   0.000000
    9       31.600250     31.600785   0.000000   0.000000
   10       33.634201     33.634723   0.000000   0.000000
 
  0.4750000E+00  0.7500000E-01  0.2500000E-01  0.1500000E-02
    1        1.864366      1.865027   1.000000   1.000000
    2        4.784014      4.785622   1.000000   1.000000
    3        5.006288      5.007875   1.000000   1.000000
    4        5.901589      5.902261   1.000004   1.000004
    5        7.547939      7.549533  -0.000000  -0.000000
    6        8.164758      8.166045  -0.000000  -0.000000
    7       15.665000     15.665740   0.000000   0.000000
    8       28.284511     28.284743   0.000000   0.000000
    9       31.698053     31.698595   0.000000   0.000000
   10       32.886812     32.887319   0.000000   0.000000
 
 -0.4750000E+00  0.7500000E-01  0.2500000E-01  0.1500000E-02
    1        1.895481      1.896161   1.000000   1.000000
    2        4.757591      4.759196   1.000000   1.000000
    3        4.971020      4.972622   1.000000   1.000000
    4        6.182634      6.183358   1.005727   1.005800
    5        7.586253      7.587837  -0.000000  -0.000000
    6        8.452309      8.453488  -0.000000  -0.000000
    7       14.950587     14.951366   0.000000   0.000000
    8       28.154755     28.154989   0.000000   0.000000
    9       31.837889     31.838428   0.000000   0.000000
   10       32.541847     32.542347   0.000000   0.000000
 
 -0.4250000E+00  0.7500000E-01  0.2500000E-01  0.1500000E-02
    1        1.882165      1.882835   1.000000   1.000000
    2        4.780585      4.782183   1.000000   1.000000
    3        4.981056      4.982660   1.000000   1.000000
    4        6.054511      6.055200   1.000371   1.000378
    5        7.510065      7.511638  -0.000000  -0.000000
    6        8.336795      8.338053  -0.000000  -0.000000
    7       15.322512     15.323270   0.000000   0.000000
    8       28.162871     28.163115   0.000000   0.000000
    9       31.750581     31.751083   0.000000   0.000000
   10       32.918994     32.919520   0.000000   0.000000
 
 -0.3750000E+00  0.7500000E-01  0.2500000E-01  0.1500000E-02
    1        1.804199      1.804829   1.000000   1.000000
    2        4.849279      4.850862   1.000000   1.000000
    3        5.035475      5.037064   1.000000   1.000000
    4        5.559483      5.560117   1.000000   1.000000
    5        7.324797      7.326364  -0.000002  -0.000002
    6        7.981680      7.983119  -0.000000  -0.000000
    7       16.598755     16.599456   0.000000   0.000000
    8       28.299381     28.299646   0.000000   0.000000
    9       31.738569     31.739043   0.000000   0.000000
   10       33.717557     33.718097   0.000000   0.000000
 
 -0.3250000E+00  0.7500000E-01  0.2500000E-01  0.1500000E-02
    1        1.580823      1.581374   1.000000   1.000000
    2        4.905829      4.906884   1.000000   1.000000
    3        4.987081      4.988254   1.000000   1.000000
    4        5.125041      5.126591   1.000000   1.000000
    5        7.051169      7.052749  -0.003370  -0.003268
    6        7.621020      7.622603  -0.000000  -0.000000
    7       18.395466     18.396112   0.000000   0.000000
    8       28.542278     28.542568   0.000000   0.000000
    9       31.932526     31.932979   0.000000   0.000000
   10       34.736737     34.737280   0.000000   0.000000
 
 -0.2750000E+00  0.7500000E-01  0.2500000E-01  0.1500000E-02
    1        1.116073      1.116528   1.000000   1.000000
    2        4.500829      4.501603   1.000000   1.000000
    3        5.086349      5.087829   1.000000   1.000000
    4        5.229668      5.231156   1.000000   1.000000
    5        6.742313      6.743949   0.040401   0.037571
    6        7.295085      7.296783  -0.000006  -0.000005
    7       20.484670     20.485266   0.000000   0.000000
    8       28.867052     28.867367   0.000000   0.000000
    9       32.322255     32.322691   0.000000   0.000000
   10       35.849863     35.850382   0.000000   0.000000
 
 -0.2250000E+00  0.7500000E-01  0.2500000E-01  0.1500000E-02
    1        0.438792      0.439181   1.000000   1.000000
    2        4.356586      4.357433   1.000000   1.000000
    3        5.201961      5.203340   1.000000   1.000000
    4        5.320851      5.322208   1.000000   1.000000
    5        6.462287      6.464057   0.960192   0.957072
    6        7.006043      7.007871  -0.007543  -0.007319
    7       22.739389     22.739938   0.000000   0.000000
    8       29.242281     29.242613   0.000000   0.000000
    9       32.827683     32.828110   0.000000   0.000000
   10       36.409589     36.410168   0.000000   0.000000
 
 -0.1750000E+00  0.7500000E-01  0.2500000E-01  0.1500000E-02
    1       -0.300255     -0.299896   1.000000   1.000000
    2        4.409587      4.410480   1.000000   1.000000
    3        5.266159      5.267384   1.000000   1.000000
    4        5.343891      5.345047   1.000000   1.000000
    5        6.284902      6.286889   1.023629   1.024088
    6        6.777749      6.779736  -0.007094  -0.008958
    7       25.079156     25.079654   0.000000   0.000000
    8       29.649926     29.650263   0.000000   0.000000
    9       33.312061     33.312485   0.000000   0.000000
   10       36.289321     36.289861   0.000000   0.000000
 
 -0.1250000E+00  0.7500000E-01  0.2500000E-01  0.1500000E-02
    1       -0.970712     -0.970366   1.000000   1.000000
    2        4.553847      4.554768   1.000000   1.000000
    3        5.248463      5.249543   1.000000   1.000000
    4        5.268313      5.269329   1.000000   1.000000
    5        6.261220      6.263366   1.018276   1.018743
    6        6.642174      6.644305   0.335612   0.327201
    7       27.367478     27.367898   0.000000   0.000000
    8       30.147656     30.148003   0.000000   0.000000
    9       33.641627     33.642052   0.000000   0.000000
   10       36.008356     36.008861   0.000000   0.000000
 
 -0.7500000E-01  0.7500000E-01  0.2500000E-01  0.1500000E-02
    1       -1.497725     -1.497384   1.000000   1.000000
    2        4.707675      4.708617   1.000000   1.000000
    3        5.147385      5.148361   1.000000   1.000000
    4        5.165095      5.166096   1.000000   1.000000
    5        6.333290      6.335493   1.033550   1.033856
    6        6.577210      6.579422   0.605945   0.596808
    7       29.045263     29.045522   0.000000   0.000000
    8       31.152717     31.153139   0.000000   0.000000
    9       33.838326     33.838768   0.000000   0.000000
   10       35.741407     35.741905   0.000000   0.000000
 
 -0.2500000E-01  0.7500000E-01  0.2500000E-01  0.1500000E-02
    1       -1.841423     -1.841084   1.000000   1.000000
    2        4.834287      4.835242   1.000000   1.000000
    3        5.053413      5.054385   1.000000   1.000000
    4        5.068151      5.069126   1.000000   1.000000
    5        6.425470      6.427693   1.008713   1.006610
    6        6.546389      6.548626   0.727272   0.718934
    7       29.657167     29.657319   0.000000   0.000000
    8       32.816305     32.816736   0.000000   0.000000
    9       34.263433     34.263930   0.000000   0.000000
   10       35.427867     35.428360   0.000000   0.000000
 
  0.1250000E+00  0.1250000E+00  0.2500000E-01  0.7500000E-03
    1       -1.429360     -1.429017   1.000000   1.000000
    2        4.615584      4.616524   1.000000   1.000000
    3        5.226335      5.227312   1.000000   1.000000
    4        5.227566      5.228543   1.000000   1.000000
    5        6.215561      6.217743   1.009820   1.010151
    6        6.644714      6.646966   0.325594   0.316791
    7       29.468130     29.468333   0.000000   0.000000
    8       31.960852     31.961284   0.000000   0.000000
    9       32.647340     32.647872   0.000000   0.000000
   10       33.292913     33.293371   0.000000   0.000000
 
  0.1750000E+00  0.1250000E+00  0.2500000E-01  0.1500000E-02
    1       -1.032548     -1.032199   1.000000   1.000000
    2        4.458789      4.459716   1.000000   1.000000
    3        5.338772      5.339798   1.000000   1.000000
    4        5.354614      5.355599   1.000000   1.000000
    5        6.104909      6.107033   1.001223   1.001281
    6        6.702029      6.704264   0.131114   0.125016
    7       28.803864     28.804181   0.000000   0.000000
    8       30.432045     30.432475   0.000000   0.000000
    9       32.166324     32.166803   0.000000   0.000000
   10       33.263372     33.263829   0.000000   0.000000
 
  0.2250000E+00  0.1250000E+00  0.2500000E-01  0.1500000E-02
    1       -0.468684     -0.468324   1.000000   1.000000
    2        4.294634      4.295542   1.000000   1.000000
    3        5.369769      5.370994   1.000000   1.000000
    4        5.472158      5.473218   1.000000   1.000000
    5        6.116537      6.118440   1.001576   1.001642
    6        6.791672      6.793824  -0.018579  -0.020040
    7       26.852665     26.853124   0.000000   0.000000
    8       29.631884     29.632266   0.000000   0.000000
    9       31.623754     31.624230   0.000000   0.000000
   10       33.818760     33.819200   0.000000   0.000000
 
  0.2750000E+00  0.1250000E+00  0.2500000E-01  0.1500000E-02
    1        0.214498      0.214882   1.000000   1.000000
    2        4.159193      4.160077   1.000000   1.000000
    3        5.258844      5.260298   1.000000   1.000000
    4        5.515007      5.516220   1.000000   1.000000
    5        6.341518      6.343157   1.034575   1.034738
    6        6.946264      6.948264  -0.017728  -0.017303
    7       24.499245     24.499765   0.000000   0.000000
    8       29.157716     29.158106   0.000000   0.000000
    9       31.082002     31.082488   0.000000   0.000000
   10       34.101850     34.102315   0.000000   0.000000
 
  0.3250000E+00  0.1250000E+00  0.2500000E-01  0.1500000E-02
    1        0.929541      0.929973   1.000000   1.000000
    2        4.123283      4.124139   1.000000   1.000000
    3        5.082887      5.084424   1.000000   1.000000
    4        5.480786      5.482153   1.000000   1.000000
    5        6.719605      6.721130   0.086518   0.083014
    6        7.178031      7.179851  -0.000182  -0.000173
    7       22.163390     22.163956   0.000000   0.000000
    8       28.731612     28.732005   0.000000   0.000000
    9       30.603346     30.603851   0.000000   0.000000
   10       33.815689     33.816196   0.000000   0.000000
 
  0.3750000E+00  0.1250000E+00  0.2500000E-01  0.1500000E-02
    1        1.534647      1.535163   1.000000   1.000000
    2        4.268004      4.268870   1.000000   1.000000
    3        4.920125      4.921617   1.000000   1.000000
    4        5.396878      5.398358   1.000000   1.000000
    5        7.149113      7.150670  -0.000384  -0.000369
    6        7.493828      7.495416  -0.000000  -0.000000
    7       19.937186     19.937795   0.000000   0.000000
    8       28.313205     28.313593   0.000000   0.000000
    9       30.238558     30.239091   0.000000   0.000000
   10       33.173308     33.173826   0.000000   0.000000
 
  0.4250000E+00  0.1250000E+00  0.2500000E-01  0.1500000E-02
    1        1.904007      1.904617   1.000000   1.000000
    2        4.521718      4.523010   1.000000   1.000000
    3        4.912151      4.913184   1.000000   1.000000
    4        5.300609      5.302158   1.000000   1.000000
    5        7.445947      7.447576  -0.000000  -0.000000
    6        8.013551      8.014898  -0.000000  -0.000000
    7       17.896085     17.896742   0.000000   0.000000
    8       27.910859     27.911246   0.000000   0.000000
    9       30.060354     30.060912   0.000000   0.000000
   10       32.473531     32.474027   0.000000   0.000000
 
  0.4750000E+00  0.1250000E+00  0.2500000E-01  0.1500000E-02
    1        2.063339      2.064007   1.000000   1.000000
    2        4.540070      4.541679   1.000000   1.000000