       N       E                     dE             d eps       ncg     rms          rms(c)
DAV:   1     0.706835988382E+01    0.70684E+01   -0.27508E+03 33924   0.580E+02
DAV:   2    -0.996306372097E+01   -0.17031E+02   -0.15846E+02 31296   0.983E+01
DAV:   3    -0.101657697930E+02   -0.20271E+00   -0.20173E+00 33874   0.130E+01
DAV:   4    -0.101664123526E+02   -0.64256E-03   -0.64251E-03 32602   0.694E-01
DAV:   5    -0.101664166847E+02   -0.43321E-05   -0.43323E-05 33032   0.552E-02    0.109E+01
DAV:   6    -0.932947599457E+01    0.83694E+00   -0.11712E+01 33598   0.479E+01    0.137E+00
DAV:   7    -0.927948705868E+01    0.49989E-01   -0.47809E-01 33952   0.923E+00    0.136E+00
DAV:   8    -0.927437155632E+01    0.51155E-02   -0.58118E-02 37590   0.213E+00    0.279E-01
DAV:   9    -0.927735970163E+01   -0.29881E-02   -0.50218E-03 38292   0.624E-01    0.440E-01
DAV:  10    -0.927707423707E+01    0.28546E-03   -0.45134E-04 34568   0.220E-01    0.505E-01
DAV:  11    -0.927881506095E+01   -0.17408E-02   -0.17351E-03 36428   0.448E-01    0.434E-01
DAV:  12    -0.928117729713E+01   -0.23622E-02   -0.31469E-03 34330   0.659E-01    0.244E-01
DAV:  13    -0.928176425994E+01   -0.58696E-03   -0.56955E-04 38228   0.211E-01    0.244E-01
DAV:  14    -0.928181011772E+01   -0.45858E-04   -0.47473E-05 36356   0.594E-02    0.257E-01
DAV:  15    -0.928059136362E+01    0.12188E-02   -0.55109E-04 34482   0.262E-01    0.323E-01
DAV:  16    -0.928002840114E+01    0.56296E-03   -0.21775E-04 38340   0.144E-01    0.345E-01
DAV:  17    -0.927643795129E+01    0.35904E-02   -0.28114E-03 34534   0.584E-01    0.487E-01
DAV:  18    -0.927667470280E+01   -0.23675E-03   -0.26324E-04 34664   0.145E-01    0.454E-01
DAV:  19    -0.927969260956E+01   -0.30179E-02   -0.20969E-03 34362   0.524E-01    0.304E-01
DAV:  20    -0.928010258149E+01   -0.40997E-03   -0.23039E-04 35564   0.128E-01    0.312E-01
DAV:  21    -0.928017270445E+01   -0.70123E-04   -0.24894E-05 31216   0.415E-02    0.319E-01
DAV:  22    -0.928036332196E+01   -0.19062E-03   -0.18288E-05 27198   0.444E-02    0.311E-01
DAV:  23    -0.928024914573E+01    0.11418E-03   -0.48895E-06 17956   0.261E-02    0.320E-01
DAV:  24    -0.928182340990E+01   -0.15743E-02   -0.12013E-03 34336   0.390E-01    0.214E-01
DAV:  25    -0.928290923571E+01   -0.10858E-02   -0.13396E-03 35442   0.383E-01    0.140E-01
DAV:  26    -0.928353887926E+01   -0.62964E-03   -0.91259E-04 36558   0.303E-01    0.939E-02
DAV:  27    -0.928363228380E+01   -0.93405E-04   -0.10988E-04 34876   0.916E-02    0.113E-01
DAV:  28    -0.928348062145E+01    0.15166E-03   -0.46559E-05 34036   0.801E-02    0.140E-01
DAV:  29    -0.928359117407E+01   -0.11055E-03   -0.22162E-05 31738   0.553E-02    0.122E-01
DAV:  30    -0.928356002354E+01    0.31151E-04   -0.23733E-06 15424   0.183E-02    0.129E-01
DAV:  31    -0.928356152884E+01   -0.15053E-05   -0.38086E-08 15420   0.226E-03    0.128E-01
DAV:  32    -0.928360092861E+01   -0.39400E-04   -0.33581E-06 15404   0.206E-02    0.122E-01
DAV:  33    -0.928358734678E+01    0.13582E-04   -0.49537E-07 15406   0.858E-03    0.126E-01
DAV:  34    -0.928365827490E+01   -0.70928E-04   -0.11625E-05 24054   0.387E-02    0.115E-01
DAV:  35    -0.928394136986E+01   -0.28309E-03   -0.37236E-04 35120   0.215E-01    0.597E-02
DAV:  36    -0.928405215712E+01   -0.11079E-03   -0.13750E-04 40050   0.111E-01    0.473E-02
DAV:  37    -0.928414325227E+01   -0.91095E-04   -0.25378E-04 34362   0.169E-01    0.161E-02
DAV:  38    -0.928417830816E+01   -0.35056E-04   -0.59785E-05 36520   0.661E-02    0.127E-02
DAV:  39    -0.928419085227E+01   -0.12544E-04   -0.31571E-05 29214   0.553E-02    0.583E-03
DAV:  40    -0.928419546216E+01   -0.46099E-05   -0.16992E-05 29596   0.399E-02    0.380E-03
DAV:  41    -0.928419722027E+01   -0.17581E-05   -0.20096E-06 15748   0.128E-02    0.221E-03
DAV:  42    -0.928419748240E+01   -0.26213E-06   -0.57443E-07 15408   0.732E-03
   1 F= -.92841975E+01 E0= -.92843407E+01  d E =0.429553E-03  mag=     0.0007
