<?xml version="1.0" encoding="ISO-8859-1"?>
<modeling>
 <generator>
  <i name="program" type="string">vasp </i>
  <i name="version" type="string">5.4.4.18Apr17-6-g9f103f2a35  </i>
  <i name="subversion" type="string">(build May 20 2018 16:52:39) complex            parallel </i>
  <i name="platform" type="string">LinuxIFC </i>
  <i name="date" type="string">2022 10 30 </i>
  <i name="time" type="string">22:58:36 </i>
 </generator>
 <incar>
  <i type="string" name="SYSTEM"> fcc Fe</i>
  <i type="string" name="PREC">normal</i>
  <i type="int" name="ISPIN">     2</i>
  <i name="EDIFF">      0.00000100</i>
  <v name="MAGMOM">      3.00000000</v>
  <i type="logical" name="LWAVE"> F  </i>
  <v type="int" name="KPOINT_BSE">    -1     0     0     0</v>
 </incar>
 <structure name="primitive_cell" >
  <crystal>
   <varray name="basis" >
    <v>       0.00000000       1.72500000       1.72500000 </v>
    <v>       1.72500000       0.00000000       1.72500000 </v>
    <v>       1.72500000       1.72500000       0.00000000 </v>
   </varray>
   <i name="volume">     10.26590625 </i>
   <varray name="rec_basis" >
    <v>      -0.28985507       0.28985507       0.28985507 </v>
    <v>       0.28985507      -0.28985507       0.28985507 </v>
    <v>       0.28985507       0.28985507      -0.28985507 </v>
   </varray>
  </crystal>
  <varray name="positions" >
   <v>       0.00000000       0.00000000       0.00000000 </v>
  </varray>
 </structure>
 <varray name="primitive_index" >
  <v type="int" >        1 </v>
 </varray>
 <kpoints>
  <generation param="Monkhorst-Pack">
   <v type="int" name="divisions">      20       20       20 </v>
   <v name="usershift">      0.00000000       0.00000000       0.00000000 </v>
   <v name="genvec1">      0.05000000       0.00000000       0.00000000 </v>
   <v name="genvec2">      0.00000000       0.05000000       0.00000000 </v>
   <v name="genvec3">      0.00000000       0.00000000       0.05000000 </v>
   <v name="shift">      0.50000000       0.50000000       0.50000000 </v>
  </generation>
  <varray name="kpointlist" >
   <v>       0.02500000       0.02500000       0.02500000 </v>
   <v>       0.07500000       0.02500000       0.02500000 </v>
   <v>       0.12500000       0.02500000       0.02500000 </v>
   <v>       0.17500000       0.02500000       0.02500000 </v>
   <v>       0.22500000       0.02500000       0.02500000 </v>
   <v>       0.27500000       0.02500000       0.02500000 </v>
   <v>       0.32500000       0.02500000       0.02500000 </v>
   <v>       0.37500000       0.02500000       0.02500000 </v>
   <v>       0.42500000       0.02500000       0.02500000 </v>
   <v>       0.47500000       0.02500000       0.02500000 </v>
   <v>      -0.47500000       0.02500000       0.02500000 </v>
   <v>      -0.42500000       0.02500000       0.02500000 </v>
   <v>      -0.37500000       0.02500000       0.02500000 </v>
   <v>      -0.32500000       0.02500000       0.02500000 </v>
   <v>      -0.27500000       0.02500000       0.02500000 </v>
   <v>      -0.22500000       0.02500000       0.02500000 </v>
   <v>      -0.17500000       0.02500000       0.02500000 </v>
   <v>      -0.12500000       0.02500000       0.02500000 </v>
   <v>      -0.07500000       0.02500000       0.02500000 </v>
   <v>      -0.02500000       0.02500000       0.02500000 </v>
   <v>       0.07500000       0.07500000       0.02500000 </v>
   <v>       0.12500000       0.07500000       0.02500000 </v>
   <v>       0.17500000       0.07500000       0.02500000 </v>
   <v>       0.22500000       0.07500000       0.02500000 </v>
   <v>       0.27500000       0.07500000       0.02500000 </v>
   <v>       0.32500000       0.07500000       0.02500000 </v>
   <v>       0.37500000       0.07500000       0.02500000 </v>
   <v>       0.42500000       0.07500000       0.02500000 </v>
   <v>       0.47500000       0.07500000       0.02500000 </v>
   <v>      -0.47500000       0.07500000       0.02500000 </v>
   <v>      -0.42500000       0.07500000       0.02500000 </v>
   <v>      -0.37500000       0.07500000       0.02500000 </v>
   <v>      -0.32500000       0.07500000       0.02500000 </v>
   <v>      -0.27500000       0.07500000       0.02500000 </v>
   <v>      -0.22500000       0.07500000       0.02500000 </v>
   <v>      -0.17500000       0.07500000       0.02500000 </v>
   <v>      -0.12500000       0.07500000       0.02500000 </v>
   <v>      -0.07500000       0.07500000       0.02500000 </v>
   <v>      -0.02500000       0.07500000       0.02500000 </v>
   <v>       0.12500000       0.12500000       0.02500000 </v>
   <v>       0.17500000       0.12500000       0.02500000 </v>
   <v>       0.22500000       0.12500000       0.02500000 </v>
   <v>       0.27500000       0.12500000       0.02500000 </v>
   <v>       0.32500000       0.12500000       0.02500000 </v>
   <v>       0.37500000       0.12500000       0.02500000 </v>
   <v>       0.42500000       0.12500000       0.02500000 </v>
   <v>       0.47500000       0.12500000       0.02500000 </v>
   <v>      -0.47500000       0.12500000       0.02500000 </v>
   <v>      -0.42500000       0.12500000       0.02500000 </v>
   <v>      -0.37500000       0.12500000       0.02500000 </v>
   <v>      -0.32500000       0.12500000       0.02500000 </v>
   <v>      -0.27500000       0.12500000       0.02500000 </v>
   <v>      -0.22500000       0.12500000       0.02500000 </v>
   <v>      -0.17500000       0.12500000       0.02500000 </v>
   <v>      -0.12500000       0.12500000       0.02500000 </v>
   <v>      -0.07500000       0.12500000       0.02500000 </v>
   <v>      -0.02500000       0.12500000       0.02500000 </v>
   <v>       0.17500000       0.17500000       0.02500000 </v>
   <v>       0.22500000       0.17500000       0.02500000 </v>
   <v>       0.27500000       0.17500000       0.02500000 </v>
   <v>       0.32500000       0.17500000       0.02500000 </v>
   <v>       0.37500000       0.17500000       0.02500000 </v>
   <v>       0.42500000       0.17500000       0.02500000 </v>
   <v>       0.47500000       0.17500000       0.02500000 </v>
   <v>      -0.47500000       0.17500000       0.02500000 </v>
   <v>      -0.42500000       0.17500000       0.02500000 </v>
   <v>      -0.37500000       0.17500000       0.02500000 </v>
   <v>      -0.32500000       0.17500000       0.02500000 </v>
   <v>      -0.27500000       0.17500000       0.02500000 </v>
   <v>      -0.22500000       0.17500000       0.02500000 </v>
   <v>      -0.17500000       0.17500000       0.02500000 </v>
   <v>      -0.12500000       0.17500000       0.02500000 </v>
   <v>      -0.07500000       0.17500000       0.02500000 </v>
   <v>      -0.02500000       0.17500000       0.02500000 </v>
   <v>       0.22500000       0.22500000       0.02500000 </v>
   <v>       0.27500000       0.22500000       0.02500000 </v>
   <v>       0.32500000       0.22500000       0.02500000 </v>
   <v>       0.37500000       0.22500000       0.02500000 </v>
   <v>       0.42500000       0.22500000       0.02500000 </v>
   <v>       0.47500000       0.22500000       0.02500000 </v>
   <v>      -0.47500000       0.22500000       0.02500000 </v>
   <v>      -0.42500000       0.22500000       0.02500000 </v>
   <v>      -0.37500000       0.22500000       0.02500000 </v>
   <v>      -0.32500000       0.22500000       0.02500000 </v>
   <v>      -0.27500000       0.22500000       0.02500000 </v>
   <v>      -0.22500000       0.22500000       0.02500000 </v>
   <v>      -0.17500000       0.22500000       0.02500000 </v>
   <v>      -0.12500000       0.22500000       0.02500000 </v>
   <v>      -0.07500000       0.22500000       0.02500000 </v>
   <v>      -0.02500000       0.22500000       0.02500000 </v>
   <v>       0.27500000       0.27500000       0.02500000 </v>
   <v>       0.32500000       0.27500000       0.02500000 </v>
   <v>       0.37500000       0.27500000       0.02500000 </v>
   <v>       0.42500000       0.27500000       0.02500000 </v>
   <v>       0.47500000       0.27500000       0.02500000 </v>
   <v>      -0.47500000       0.27500000       0.02500000 </v>
   <v>      -0.42500000       0.27500000       0.02500000 </v>
   <v>      -0.37500000       0.27500000       0.02500000 </v>
   <v>      -0.32500000       0.27500000       0.02500000 </v>
   <v>      -0.27500000       0.27500000       0.02500000 </v>
   <v>      -0.22500000       0.27500000       0.02500000 </v>
   <v>      -0.17500000       0.27500000       0.02500000 </v>
   <v>      -0.12500000       0.27500000       0.02500000 </v>
   <v>      -0.07500000       0.27500000       0.02500000 </v>
   <v>      -0.02500000       0.27500000       0.02500000 </v>
   <v>       0.32500000       0.32500000       0.02500000 </v>
   <v>       0.37500000       0.32500000       0.02500000 </v>
   <v>       0.42500000       0.32500000       0.02500000 </v>
   <v>       0.47500000       0.32500000       0.02500000 </v>
   <v>      -0.47500000       0.32500000       0.02500000 </v>
   <v>      -0.42500000       0.32500000       0.02500000 </v>
   <v>      -0.37500000       0.32500000       0.02500000 </v>
   <v>      -0.32500000       0.32500000       0.02500000 </v>
   <v>      -0.27500000       0.32500000       0.02500000 </v>
   <v>      -0.22500000       0.32500000       0.02500000 </v>
   <v>      -0.17500000       0.32500000       0.02500000 </v>
   <v>      -0.12500000       0.32500000       0.02500000 </v>
   <v>      -0.07500000       0.32500000       0.02500000 </v>
   <v>      -0.02500000       0.32500000       0.02500000 </v>
   <v>       0.37500000       0.37500000       0.02500000 </v>
   <v>       0.42500000       0.37500000       0.02500000 </v>
   <v>       0.47500000       0.37500000       0.02500000 </v>
   <v>      -0.47500000       0.37500000       0.02500000 </v>
   <v>      -0.42500000       0.37500000       0.02500000 </v>
   <v>      -0.37500000       0.37500000       0.02500000 </v>
   <v>      -0.32500000       0.37500000       0.02500000 </v>
   <v>      -0.27500000       0.37500000       0.02500000 </v>
   <v>      -0.22500000       0.37500000       0.02500000 </v>
   <v>      -0.17500000       0.37500000       0.02500000 </v>
   <v>      -0.12500000       0.37500000       0.02500000 </v>
   <v>      -0.07500000       0.37500000       0.02500000 </v>
   <v>      -0.02500000       0.37500000       0.02500000 </v>
   <v>       0.42500000       0.42500000       0.02500000 </v>
   <v>       0.47500000       0.42500000       0.02500000 </v>
   <v>      -0.47500000       0.42500000       0.02500000 </v>
   <v>      -0.42500000       0.42500000       0.02500000 </v>
   <v>      -0.37500000       0.42500000       0.02500000 </v>
   <v>      -0.32500000       0.42500000       0.02500000 </v>
   <v>      -0.27500000       0.42500000       0.02500000 </v>
   <v>      -0.22500000       0.42500000       0.02500000 </v>
   <v>      -0.17500000       0.42500000       0.02500000 </v>
   <v>      -0.12500000       0.42500000       0.02500000 </v>
   <v>      -0.07500000       0.42500000       0.02500000 </v>
   <v>      -0.02500000       0.42500000       0.02500000 </v>
   <v>       0.47500000       0.47500000       0.02500000 </v>
   <v>      -0.47500000       0.47500000       0.02500000 </v>
   <v>      -0.42500000       0.47500000       0.02500000 </v>
   <v>      -0.37500000       0.47500000       0.02500000 </v>
   <v>      -0.32500000       0.47500000       0.02500000 </v>
   <v>      -0.27500000       0.47500000       0.02500000 </v>
   <v>      -0.22500000       0.47500000       0.02500000 </v>
   <v>      -0.17500000       0.47500000       0.02500000 </v>
   <v>      -0.12500000       0.47500000       0.02500000 </v>
   <v>      -0.07500000       0.47500000       0.02500000 </v>
   <v>      -0.02500000       0.47500000       0.02500000 </v>
   <v>      -0.47500000      -0.47500000       0.02500000 </v>
   <v>      -0.42500000      -0.47500000       0.02500000 </v>
   <v>      -0.37500000      -0.47500000       0.02500000 </v>
   <v>      -0.32500000      -0.47500000       0.02500000 </v>
   <v>      -0.27500000      -0.47500000       0.02500000 </v>
   <v>      -0.22500000      -0.47500000       0.02500000 </v>
   <v>      -0.17500000      -0.47500000       0.02500000 </v>
   <v>      -0.12500000      -0.47500000       0.02500000 </v>
   <v>      -0.07500000      -0.47500000       0.02500000 </v>
   <v>      -0.42500000      -0.42500000       0.02500000 </v>
   <v>      -0.37500000      -0.42500000       0.02500000 </v>
   <v>      -0.32500000      -0.42500000       0.02500000 </v>
   <v>      -0.27500000      -0.42500000       0.02500000 </v>
   <v>      -0.22500000      -0.42500000       0.02500000 </v>
   <v>      -0.17500000      -0.42500000       0.02500000 </v>
   <v>      -0.12500000      -0.42500000       0.02500000 </v>
   <v>      -0.07500000      -0.42500000       0.02500000 </v>
   <v>      -0.37500000      -0.37500000       0.02500000 </v>
   <v>      -0.32500000      -0.37500000       0.02500000 </v>
   <v>      -0.27500000      -0.37500000       0.02500000 </v>
   <v>      -0.22500000      -0.37500000       0.02500000 </v>
   <v>      -0.17500000      -0.37500000       0.02500000 </v>
   <v>      -0.12500000      -0.37500000       0.02500000 </v>
   <v>      -0.07500000      -0.37500000       0.02500000 </v>
   <v>      -0.32500000      -0.32500000       0.02500000 </v>
   <v>      -0.27500000      -0.32500000       0.02500000 </v>
   <v>      -0.22500000      -0.32500000       0.02500000 </v>
   <v>      -0.17500000      -0.32500000       0.02500000 </v>
   <v>      -0.12500000      -0.32500000       0.02500000 </v>
   <v>      -0.07500000      -0.32500000       0.02500000 </v>
   <v>      -0.27500000      -0.27500000       0.02500000 </v>
   <v>      -0.22500000      -0.27500000       0.02500000 </v>
   <v>      -0.17500000      -0.27500000       0.02500000 </v>
   <v>      -0.12500000      -0.27500000       0.02500000 </v>
   <v>      -0.07500000      -0.27500000       0.02500000 </v>
   <v>      -0.22500000      -0.22500000       0.02500000 </v>
   <v>      -0.17500000      -0.22500000       0.02500000 </v>
   <v>      -0.12500000      -0.22500000       0.02500000 </v>
   <v>      -0.07500000      -0.22500000       0.02500000 </v>
   <v>      -0.17500000      -0.17500000       0.02500000 </v>
   <v>      -0.12500000      -0.17500000       0.02500000 </v>
   <v>      -0.07500000      -0.17500000       0.02500000 </v>
   <v>      -0.12500000      -0.12500000       0.02500000 </v>
   <v>      -0.07500000      -0.12500000       0.02500000 </v>
   <v>      -0.07500000      -0.07500000       0.02500000 </v>
   <v>       0.07500000       0.07500000       0.07500000 </v>
   <v>       0.12500000       0.07500000       0.07500000 </v>
   <v>       0.17500000       0.07500000       0.07500000 </v>
   <v>       0.22500000       0.07500000       0.07500000 </v>
   <v>       0.27500000       0.07500000       0.07500000 </v>
   <v>       0.32500000       0.07500000       0.07500000 </v>
   <v>       0.37500000       0.07500000       0.07500000 </v>
   <v>       0.42500000       0.07500000       0.07500000 </v>
   <v>       0.47500000       0.07500000       0.07500000 </v>
   <v>      -0.47500000       0.07500000       0.07500000 </v>
   <v>      -0.42500000       0.07500000       0.07500000 </v>
   <v>      -0.37500000       0.07500000       0.07500000 </v>
   <v>      -0.32500000       0.07500000       0.07500000 </v>
   <v>      -0.27500000       0.07500000       0.07500000 </v>
   <v>      -0.22500000       0.07500000       0.07500000 </v>
   <v>      -0.17500000       0.07500000       0.07500000 </v>
   <v>      -0.12500000       0.07500000       0.07500000 </v>
   <v>      -0.07500000       0.07500000       0.07500000 </v>
   <v>       0.12500000       0.12500000       0.07500000 </v>
   <v>       0.17500000       0.12500000       0.07500000 </v>
   <v>       0.22500000       0.12500000       0.07500000 </v>
   <v>       0.27500000       0.12500000       0.07500000 </v>
   <v>       0.32500000       0.12500000       0.07500000 </v>
   <v>       0.37500000       0.12500000       0.07500000 </v>
   <v>       0.42500000       0.12500000       0.07500000 </v>
   <v>       0.47500000       0.12500000       0.07500000 </v>
   <v>      -0.47500000       0.12500000       0.07500000 </v>
   <v>      -0.42500000       0.12500000       0.07500000 </v>
   <v>      -0.37500000       0.12500000       0.07500000 </v>
   <v>      -0.32500000       0.12500000       0.07500000 </v>
   <v>      -0.27500000       0.12500000       0.07500000 </v>
   <v>      -0.22500000       0.12500000       0.07500000 </v>
   <v>      -0.17500000       0.12500000       0.07500000 </v>
   <v>      -0.12500000       0.12500000       0.07500000 </v>
   <v>      -0.07500000       0.12500000       0.07500000 </v>
   <v>       0.17500000       0.17500000       0.07500000 </v>
   <v>       0.22500000       0.17500000       0.07500000 </v>
   <v>       0.27500000       0.17500000       0.07500000 </v>
   <v>       0.32500000       0.17500000       0.07500000 </v>
   <v>       0.37500000       0.17500000       0.07500000 </v>
   <v>       0.42500000       0.17500000       0.07500000 </v>
   <v>       0.47500000       0.17500000       0.07500000 </v>
   <v>      -0.47500000       0.17500000       0.07500000 </v>
   <v>      -0.42500000       0.17500000       0.07500000 </v>
   <v>      -0.37500000       0.17500000       0.07500000 </v>
   <v>      -0.32500000       0.17500000       0.07500000 </v>
   <v>      -0.27500000       0.17500000       0.07500000 </v>
   <v>      -0.22500000       0.17500000       0.07500000 </v>
   <v>      -0.17500000       0.17500000       0.07500000 </v>
   <v>      -0.12500000       0.17500000       0.07500000 </v>
   <v>      -0.07500000       0.17500000       0.07500000 </v>
   <v>       0.22500000       0.22500000       0.07500000 </v>
   <v>       0.27500000       0.22500000       0.07500000 </v>
   <v>       0.32500000       0.22500000       0.07500000 </v>
   <v>       0.37500000       0.22500000       0.07500000 </v>
   <v>       0.42500000       0.22500000       0.07500000 </v>
   <v>       0.47500000       0.22500000       0.07500000 </v>
   <v>      -0.47500000       0.22500000       0.07500000 </v>
   <v>      -0.42500000       0.22500000       0.07500000 </v>
   <v>      -0.37500000       0.22500000       0.07500000 </v>
   <v>      -0.32500000       0.22500000       0.07500000 </v>
   <v>      -0.27500000       0.22500000       0.07500000 </v>
   <v>      -0.22500000       0.22500000       0.07500000 </v>
   <v>      -0.17500000       0.22500000       0.07500000 </v>
   <v>      -0.12500000       0.22500000       0.07500000 </v>
   <v>      -0.07500000       0.22500000       0.07500000 </v>
   <v>       0.27500000       0.27500000       0.07500000 </v>
   <v>       0.32500000       0.27500000       0.07500000 </v>
   <v>       0.37500000       0.27500000       0.07500000 </v>
   <v>       0.42500000       0.27500000       0.07500000 </v>
   <v>       0.47500000       0.27500000       0.07500000 </v>
   <v>      -0.47500000       0.27500000       0.07500000 </v>
   <v>      -0.42500000       0.27500000       0.07500000 </v>
   <v>      -0.37500000       0.27500000       0.07500000 </v>
   <v>      -0.32500000       0.27500000       0.07500000 </v>
   <v>      -0.27500000       0.27500000       0.07500000 </v>
   <v>      -0.22500000       0.27500000       0.07500000 </v>
   <v>      -0.17500000       0.27500000       0.07500000 </v>
   <v>      -0.12500000       0.27500000       0.07500000 </v>
   <v>      -0.07500000       0.27500000       0.07500000 </v>
   <v>       0.32500000       0.32500000       0.07500000 </v>
   <v>       0.37500000       0.32500000       0.07500000 </v>
   <v>       0.42500000       0.32500000       0.07500000 </v>
   <v>       0.47500000       0.32500000       0.07500000 </v>
   <v>      -0.47500000       0.32500000       0.07500000 </v>
   <v>      -0.42500000       0.32500000       0.07500000 </v>
   <v>      -0.37500000       0.32500000       0.07500000 </v>
   <v>      -0.32500000       0.32500000       0.07500000 </v>
   <v>      -0.27500000       0.32500000       0.07500000 </v>
   <v>      -0.22500000       0.32500000       0.07500000 </v>
   <v>      -0.17500000       0.32500000       0.07500000 </v>
   <v>      -0.12500000       0.32500000       0.07500000 </v>
   <v>      -0.07500000       0.32500000       0.07500000 </v>
   <v>       0.37500000       0.37500000       0.07500000 </v>
   <v>       0.42500000       0.37500000       0.07500000 </v>
   <v>       0.47500000       0.37500000       0.07500000 </v>
   <v>      -0.47500000       0.37500000       0.07500000 </v>
   <v>      -0.42500000       0.37500000       0.07500000 </v>
   <v>      -0.37500000       0.37500000       0.07500000 </v>
   <v>      -0.32500000       0.37500000       0.07500000 </v>
   <v>      -0.27500000       0.37500000       0.07500000 </v>
   <v>      -0.22500000       0.37500000       0.07500000 </v>
   <v>      -0.17500000       0.37500000       0.07500000 </v>
   <v>      -0.12500000       0.37500000       0.07500000 </v>
   <v>      -0.07500000       0.37500000       0.07500000 </v>
   <v>       0.42500000       0.42500000       0.07500000 </v>
   <v>       0.47500000       0.42500000       0.07500000 </v>
   <v>      -0.47500000       0.42500000       0.07500000 </v>
   <v>      -0.42500000       0.42500000       0.07500000 </v>
   <v>      -0.37500000       0.42500000       0.07500000 </v>
   <v>      -0.32500000       0.42500000       0.07500000 </v>
   <v>      -0.27500000       0.42500000       0.07500000 </v>
   <v>      -0.22500000       0.42500000       0.07500000 </v>
   <v>      -0.17500000       0.42500000       0.07500000 </v>
   <v>      -0.12500000       0.42500000       0.07500000 </v>
   <v>      -0.07500000       0.42500000       0.07500000 </v>
   <v>       0.47500000       0.47500000       0.07500000 </v>
   <v>      -0.47500000       0.47500000       0.07500000 </v>
   <v>      -0.42500000       0.47500000       0.07500000 </v>
   <v>      -0.37500000       0.47500000       0.07500000 </v>
   <v>      -0.32500000       0.47500000       0.07500000 </v>
   <v>      -0.27500000       0.47500000       0.07500000 </v>
   <v>      -0.22500000       0.47500000       0.07500000 </v>
   <v>      -0.17500000       0.47500000       0.07500000 </v>
   <v>      -0.12500000       0.47500000       0.07500000 </v>
   <v>      -0.07500000       0.47500000       0.07500000 </v>
   <v>      -0.47500000      -0.47500000       0.07500000 </v>
   <v>      -0.42500000      -0.47500000       0.07500000 </v>
   <v>      -0.37500000      -0.47500000       0.07500000 </v>
   <v>      -0.32500000      -0.47500000       0.07500000 </v>
   <v>      -0.27500000      -0.47500000       0.07500000 </v>
   <v>      -0.22500000      -0.47500000       0.07500000 </v>
   <v>      -0.17500000      -0.47500000       0.07500000 </v>
   <v>      -0.12500000      -0.47500000       0.07500000 </v>
   <v>      -0.42500000      -0.42500000       0.07500000 </v>
   <v>      -0.37500000      -0.42500000       0.07500000 </v>
   <v>      -0.32500000      -0.42500000       0.07500000 </v>
   <v>      -0.27500000      -0.42500000       0.07500000 </v>
   <v>      -0.22500000      -0.42500000       0.07500000 </v>
   <v>      -0.17500000      -0.42500000       0.07500000 </v>
   <v>      -0.12500000      -0.42500000       0.07500000 </v>
   <v>      -0.37500000      -0.37500000       0.07500000 </v>
   <v>      -0.32500000      -0.37500000       0.07500000 </v>
   <v>      -0.27500000      -0.37500000       0.07500000 </v>
   <v>      -0.22500000      -0.37500000       0.07500000 </v>
   <v>      -0.17500000      -0.37500000       0.07500000 </v>
   <v>      -0.12500000      -0.37500000       0.07500000 </v>
   <v>      -0.32500000      -0.32500000       0.07500000 </v>
   <v>      -0.27500000      -0.32500000       0.07500000 </v>
   <v>      -0.22500000      -0.32500000       0.07500000 </v>
   <v>      -0.17500000      -0.32500000       0.07500000 </v>
   <v>      -0.12500000      -0.32500000       0.07500000 </v>
   <v>      -0.27500000      -0.27500000       0.07500000 </v>
   <v>      -0.22500000      -0.27500000       0.07500000 </v>
   <v>      -0.17500000      -0.27500000       0.07500000 </v>
   <v>      -0.12500000      -0.27500000       0.07500000 </v>
   <v>      -0.22500000      -0.22500000       0.07500000 </v>
   <v>      -0.17500000      -0.22500000       0.07500000 </v>
   <v>      -0.12500000      -0.22500000       0.07500000 </v>
   <v>      -0.17500000      -0.17500000       0.07500000 </v>
   <v>      -0.12500000      -0.17500000       0.07500000 </v>
   <v>      -0.12500000      -0.12500000       0.07500000 </v>
   <v>       0.12500000       0.12500000       0.12500000 </v>
   <v>       0.17500000       0.12500000       0.12500000 </v>
   <v>       0.22500000       0.12500000       0.12500000 </v>
   <v>       0.27500000       0.12500000       0.12500000 </v>
   <v>       0.32500000       0.12500000       0.12500000 </v>
   <v>       0.37500000       0.12500000       0.12500000 </v>
   <v>       0.42500000       0.12500000       0.12500000 </v>
   <v>       0.47500000       0.12500000       0.12500000 </v>
   <v>      -0.47500000       0.12500000       0.12500000 </v>
   <v>      -0.42500000       0.12500000       0.12500000 </v>
   <v>      -0.37500000       0.12500000       0.12500000 </v>
   <v>      -0.32500000       0.12500000       0.12500000 </v>
   <v>      -0.27500000       0.12500000       0.12500000 </v>
   <v>      -0.22500000       0.12500000       0.12500000 </v>
   <v>      -0.17500000       0.12500000       0.12500000 </v>
   <v>      -0.12500000       0.12500000       0.12500000 </v>
   <v>       0.17500000       0.17500000       0.12500000 </v>
   <v>       0.22500000       0.17500000       0.12500000 </v>
   <v>       0.27500000       0.17500000       0.12500000 </v>
   <v>       0.32500000       0.17500000       0.12500000 </v>
   <v>       0.37500000       0.17500000       0.12500000 </v>
   <v>       0.42500000       0.17500000       0.12500000 </v>
   <v>       0.47500000       0.17500000       0.12500000 </v>
   <v>      -0.47500000       0.17500000       0.12500000 </v>
   <v>      -0.42500000       0.17500000       0.12500000 </v>
   <v>      -0.37500000       0.17500000       0.12500000 </v>
   <v>      -0.32500000       0.17500000       0.12500000 </v>
   <v>      -0.27500000       0.17500000       0.12500000 </v>
   <v>      -0.22500000       0.17500000       0.12500000 </v>
   <v>      -0.17500000       0.17500000       0.12500000 </v>
   <v>      -0.12500000       0.17500000       0.12500000 </v>
   <v>       0.22500000       0.22500000       0.12500000 </v>
   <v>       0.27500000       0.22500000       0.12500000 </v>
   <v>       0.32500000       0.22500000       0.12500000 </v>
   <v>       0.37500000       0.22500000       0.12500000 </v>
   <v>       0.42500000       0.22500000       0.12500000 </v>
   <v>       0.47500000       0.22500000       0.12500000 </v>
   <v>      -0.47500000       0.22500000       0.12500000 </v>
   <v>      -0.42500000       0.22500000       0.12500000 </v>
   <v>      -0.37500000       0.22500000       0.12500000 </v>
   <v>      -0.32500000       0.22500000       0.12500000 </v>
   <v>      -0.27500000       0.22500000       0.12500000 </v>
   <v>      -0.22500000       0.22500000       0.12500000 </v>
   <v>      -0.17500000       0.22500000       0.12500000 </v>
   <v>      -0.12500000       0.22500000       0.12500000 </v>
   <v>       0.27500000       0.27500000       0.12500000 </v>
   <v>       0.32500000       0.27500000       0.12500000 </v>
   <v>       0.37500000       0.27500000       0.12500000 </v>
   <v>       0.42500000       0.27500000       0.12500000 </v>
   <v>       0.47500000       0.27500000       0.12500000 </v>
   <v>      -0.47500000       0.27500000       0.12500000 </v>
   <v>      -0.42500000       0.27500000       0.12500000 </v>
   <v>      -0.37500000       0.27500000       0.12500000 </v>
   <v>      -0.32500000       0.27500000       0.12500000 </v>
   <v>      -0.27500000       0.27500000       0.12500000 </v>
   <v>      -0.22500000       0.27500000       0.12500000 </v>
   <v>      -0.17500000       0.27500000       0.12500000 </v>
   <v>      -0.12500000       0.27500000       0.12500000 </v>
   <v>       0.32500000       0.32500000       0.12500000 </v>
   <v>       0.37500000       0.32500000       0.12500000 </v>
   <v>       0.42500000       0.32500000       0.12500000 </v>
   <v>       0.47500000       0.32500000       0.12500000 </v>
   <v>      -0.47500000       0.32500000       0.12500000 </v>
   <v>      -0.42500000       0.32500000       0.12500000 </v>
   <v>      -0.37500000       0.32500000       0.12500000 </v>
   <v>      -0.32500000       0.32500000       0.12500000 </v>
   <v>      -0.27500000       0.32500000       0.12500000 </v>
   <v>      -0.22500000       0.32500000       0.12500000 </v>
   <v>      -0.17500000       0.32500000       0.12500000 </v>
   <v>      -0.12500000       0.32500000       0.12500000 </v>
   <v>       0.37500000       0.37500000       0.12500000 </v>
   <v>       0.42500000       0.37500000       0.12500000 </v>
   <v>       0.47500000       0.37500000       0.12500000 </v>
   <v>      -0.47500000       0.37500000       0.12500000 </v>
   <v>      -0.42500000       0.37500000       0.12500000 </v>
   <v>      -0.37500000       0.37500000       0.12500000 </v>
   <v>      -0.32500000       0.37500000       0.12500000 </v>
   <v>      -0.27500000       0.37500000       0.12500000 </v>
   <v>      -0.22500000       0.37500000       0.12500000 </v>
   <v>      -0.17500000       0.37500000       0.12500000 </v>
   <v>      -0.12500000       0.37500000       0.12500000 </v>
   <v>       0.42500000       0.42500000       0.12500000 </v>
   <v>       0.47500000       0.42500000       0.12500000 </v>
   <v>      -0.47500000       0.42500000       0.12500000 </v>
   <v>      -0.42500000       0.42500000       0.12500000 </v>
   <v>      -0.37500000       0.42500000       0.12500000 </v>
   <v>      -0.32500000       0.42500000       0.12500000 </v>
   <v>      -0.27500000       0.42500000       0.12500000 </v>
   <v>      -0.22500000       0.42500000       0.12500000 </v>
   <v>      -0.17500000       0.42500000       0.12500000 </v>
   <v>      -0.12500000       0.42500000       0.12500000 </v>
   <v>       0.47500000       0.47500000       0.12500000 </v>
   <v>      -0.47500000       0.47500000       0.12500000 </v>
   <v>      -0.42500000       0.47500000       0.12500000 </v>
   <v>      -0.37500000       0.47500000       0.12500000 </v>
   <v>      -0.32500000       0.47500000       0.12500000 </v>
   <v>      -0.27500000       0.47500000       0.12500000 </v>
   <v>      -0.22500000       0.47500000       0.12500000 </v>
   <v>      -0.17500000       0.47500000       0.12500000 </v>
   <v>      -0.12500000       0.47500000       0.12500000 </v>
   <v>      -0.47500000      -0.47500000       0.12500000 </v>
   <v>      -0.42500000      -0.47500000       0.12500000 </v>
   <v>      -0.37500000      -0.47500000       0.12500000 </v>
   <v>      -0.32500000      -0.47500000       0.12500000 </v>
   <v>      -0.27500000      -0.47500000       0.12500000 </v>
   <v>      -0.22500000      -0.47500000       0.12500000 </v>
   <v>      -0.17500000      -0.47500000       0.12500000 </v>
   <v>      -0.42500000      -0.42500000       0.12500000 </v>
   <v>      -0.37500000      -0.42500000       0.12500000 </v>
   <v>      -0.32500000      -0.42500000       0.12500000 </v>
   <v>      -0.27500000      -0.42500000       0.12500000 </v>
   <v>      -0.22500000      -0.42500000       0.12500000 </v>
   <v>      -0.17500000      -0.42500000       0.12500000 </v>
   <v>      -0.37500000      -0.37500000       0.12500000 </v>
   <v>      -0.32500000      -0.37500000       0.12500000 </v>
   <v>      -0.27500000      -0.37500000       0.12500000 </v>
   <v>      -0.22500000      -0.37500000       0.12500000 </v>
   <v>      -0.17500000      -0.37500000       0.12500000 </v>
   <v>      -0.32500000      -0.32500000       0.12500000 </v>
   <v>      -0.27500000      -0.32500000       0.12500000 </v>
   <v>      -0.22500000      -0.32500000       0.12500000 </v>
   <v>      -0.17500000      -0.32500000       0.12500000 </v>
   <v>      -0.27500000      -0.27500000       0.12500000 </v>
   <v>      -0.22500000      -0.27500000       0.12500000 </v>
   <v>      -0.17500000      -0.27500000       0.12500000 </v>
   <v>      -0.22500000      -0.22500000       0.12500000 </v>
   <v>      -0.17500000      -0.22500000       0.12500000 </v>
   <v>      -0.17500000      -0.17500000       0.12500000 </v>
   <v>       0.17500000       0.17500000       0.17500000 </v>
   <v>       0.22500000       0.17500000       0.17500000 </v>
   <v>       0.27500000       0.17500000       0.17500000 </v>
   <v>       0.32500000       0.17500000       0.17500000 </v>
   <v>       0.37500000       0.17500000       0.17500000 </v>
   <v>       0.42500000       0.17500000       0.17500000 </v>
   <v>       0.47500000       0.17500000       0.17500000 </v>
   <v>      -0.47500000       0.17500000       0.17500000 </v>
   <v>      -0.42500000       0.17500000       0.17500000 </v>
   <v>      -0.37500000       0.17500000       0.17500000 </v>
   <v>      -0.32500000       0.17500000       0.17500000 </v>
   <v>      -0.27500000       0.17500000       0.17500000 </v>
   <v>      -0.22500000       0.17500000       0.17500000 </v>
   <v>      -0.17500000       0.17500000       0.17500000 </v>
   <v>       0.22500000       0.22500000       0.17500000 </v>
   <v>       0.27500000       0.22500000       0.17500000 </v>
   <v>       0.32500000       0.22500000       0.17500000 </v>
   <v>       0.37500000       0.22500000       0.17500000 </v>
   <v>       0.42500000       0.22500000       0.17500000 </v>
   <v>       0.47500000       0.22500000       0.17500000 </v>
   <v>      -0.47500000       0.22500000       0.17500000 </v>
   <v>      -0.42500000       0.22500000       0.17500000 </v>
   <v>      -0.37500000       0.22500000       0.17500000 </v>
   <v>      -0.32500000       0.22500000       0.17500000 </v>
   <v>      -0.27500000       0.22500000       0.17500000 </v>
   <v>      -0.22500000       0.22500000       0.17500000 </v>
   <v>      -0.17500000       0.22500000       0.17500000 </v>
   <v>       0.27500000       0.27500000       0.17500000 </v>
   <v>       0.32500000       0.27500000       0.17500000 </v>
   <v>       0.37500000       0.27500000       0.17500000 </v>
   <v>       0.42500000       0.27500000       0.17500000 </v>
   <v>       0.47500000       0.27500000       0.17500000 </v>
   <v>      -0.47500000       0.27500000       0.17500000 </v>
   <v>      -0.42500000       0.27500000       0.17500000 </v>
   <v>      -0.37500000       0.27500000       0.17500000 </v>
   <v>      -0.32500000       0.27500000       0.17500000 </v>
   <v>      -0.27500000       0.27500000       0.17500000 </v>
   <v>      -0.22500000       0.27500000       0.17500000 </v>
   <v>      -0.17500000       0.27500000       0.17500000 </v>
   <v>       0.32500000       0.32500000       0.17500000 </v>
   <v>       0.37500000       0.32500000       0.17500000 </v>
   <v>       0.42500000       0.32500000       0.17500000 </v>
   <v>       0.47500000       0.32500000       0.17500000 </v>
   <v>      -0.47500000       0.32500000       0.17500000 </v>
   <v>      -0.42500000       0.32500000       0.17500000 </v>
   <v>      -0.37500000       0.32500000       0.17500000 </v>
   <v>      -0.32500000       0.32500000       0.17500000 </v>
   <v>      -0.27500000       0.32500000       0.17500000 </v>
   <v>      -0.22500000       0.32500000       0.17500000 </v>
   <v>      -0.17500000       0.32500000       0.17500000 </v>
   <v>       0.37500000       0.37500000       0.17500000 </v>
   <v>       0.42500000       0.37500000       0.17500000 </v>
   <v>       0.47500000       0.37500000       0.17500000 </v>
   <v>      -0.47500000       0.37500000       0.17500000 </v>
   <v>      -0.42500000       0.37500000       0.17500000 </v>
   <v>      -0.37500000       0.37500000       0.17500000 </v>
   <v>      -0.32500000       0.37500000       0.17500000 </v>
   <v>      -0.27500000       0.37500000       0.17500000 </v>
   <v>      -0.22500000       0.37500000       0.17500000 </v>
   <v>      -0.17500000       0.37500000       0.17500000 </v>
   <v>       0.42500000       0.42500000       0.17500000 </v>
   <v>       0.47500000       0.42500000       0.17500000 </v>
   <v>      -0.47500000       0.42500000       0.17500000 </v>
   <v>      -0.42500000       0.42500000       0.17500000 </v>
   <v>      -0.37500000       0.42500000       0.17500000 </v>
   <v>      -0.32500000       0.42500000       0.17500000 </v>
   <v>      -0.27500000       0.42500000       0.17500000 </v>
   <v>      -0.22500000       0.42500000       0.17500000 </v>
   <v>      -0.17500000       0.42500000       0.17500000 </v>
   <v>       0.47500000       0.47500000       0.17500000 </v>
   <v>      -0.47500000       0.47500000       0.17500000 </v>
   <v>      -0.42500000       0.47500000       0.17500000 </v>
   <v>      -0.37500000       0.47500000       0.17500000 </v>
   <v>      -0.32500000       0.47500000       0.17500000 </v>
   <v>      -0.27500000       0.47500000       0.17500000 </v>
   <v>      -0.22500000       0.47500000       0.17500000 </v>
   <v>      -0.17500000       0.47500000       0.17500000 </v>
   <v>      -0.47500000      -0.47500000       0.17500000 </v>
   <v>      -0.42500000      -0.47500000       0.17500000 </v>
   <v>      -0.37500000      -0.47500000       0.17500000 </v>
   <v>      -0.32500000      -0.47500000       0.17500000 </v>
   <v>      -0.27500000      -0.47500000       0.17500000 </v>
   <v>      -0.22500000      -0.47500000       0.17500000 </v>
   <v>      -0.42500000      -0.42500000       0.17500000 </v>
   <v>      -0.37500000      -0.42500000       0.17500000 </v>
   <v>      -0.32500000      -0.42500000       0.17500000 </v>
   <v>      -0.27500000      -0.42500000       0.17500000 </v>
   <v>      -0.22500000      -0.42500000       0.17500000 </v>
   <v>      -0.37500000      -0.37500000       0.17500000 </v>
   <v>      -0.32500000      -0.37500000       0.17500000 </v>
   <v>      -0.27500000      -0.37500000       0.17500000 </v>
   <v>      -0.22500000      -0.37500000       0.17500000 </v>
   <v>      -0.32500000      -0.32500000       0.17500000 </v>
   <v>      -0.27500000      -0.32500000       0.17500000 </v>
   <v>      -0.22500000      -0.32500000       0.17500000 </v>
   <v>      -0.27500000      -0.27500000       0.17500000 </v>
   <v>      -0.22500000      -0.27500000       0.17500000 </v>
   <v>      -0.22500000      -0.22500000       0.17500000 </v>
   <v>       0.22500000       0.22500000       0.22500000 </v>
   <v>       0.27500000       0.22500000       0.22500000 </v>
   <v>       0.32500000       0.22500000       0.22500000 </v>
   <v>       0.37500000       0.22500000       0.22500000 </v>
   <v>       0.42500000       0.22500000       0.22500000 </v>
   <v>       0.47500000       0.22500000       0.22500000 </v>
   <v>      -0.47500000       0.22500000       0.22500000 </v>
   <v>      -0.42500000       0.22500000       0.22500000 </v>
   <v>      -0.37500000       0.22500000       0.22500000 </v>
   <v>      -0.32500000       0.22500000       0.22500000 </v>
   <v>      -0.27500000       0.22500000       0.22500000 </v>
   <v>      -0.22500000       0.22500000       0.22500000 </v>
   <v>       0.27500000       0.27500000       0.22500000 </v>
   <v>       0.32500000       0.27500000       0.22500000 </v>
   <v>       0.37500000       0.27500000       0.22500000 </v>
   <v>       0.42500000       0.27500000       0.22500000 </v>
   <v>       0.47500000       0.27500000       0.22500000 </v>
   <v>      -0.47500000       0.27500000       0.22500000 </v>
   <v>      -0.42500000       0.27500000       0.22500000 </v>
   <v>      -0.37500000       0.27500000       0.22500000 </v>
   <v>      -0.32500000       0.27500000       0.22500000 </v>
   <v>      -0.27500000       0.27500000       0.22500000 </v>
   <v>      -0.22500000       0.27500000       0.22500000 </v>
   <v>       0.32500000       0.32500000       0.22500000 </v>
   <v>       0.37500000       0.32500000       0.22500000 </v>
   <v>       0.42500000       0.32500000       0.22500000 </v>
   <v>       0.47500000       0.32500000       0.22500000 </v>
   <v>      -0.47500000       0.32500000       0.22500000 </v>
   <v>      -0.42500000       0.32500000       0.22500000 </v>
   <v>      -0.37500000       0.32500000       0.22500000 </v>
   <v>      -0.32500000       0.32500000       0.22500000 </v>
   <v>      -0.27500000       0.32500000       0.22500000 </v>
   <v>      -0.22500000       0.32500000       0.22500000 </v>
   <v>       0.37500000       0.37500000       0.22500000 </v>
   <v>       0.42500000       0.37500000       0.22500000 </v>
   <v>       0.47500000       0.37500000       0.22500000 </v>
   <v>      -0.47500000       0.37500000       0.22500000 </v>
   <v>      -0.42500000       0.37500000       0.22500000 </v>
   <v>      -0.37500000       0.37500000       0.22500000 </v>
   <v>      -0.32500000       0.37500000       0.22500000 </v>
   <v>      -0.27500000       0.37500000       0.22500000 </v>
   <v>      -0.22500000       0.37500000       0.22500000 </v>
   <v>       0.42500000       0.42500000       0.22500000 </v>
   <v>       0.47500000       0.42500000       0.22500000 </v>
   <v>      -0.47500000       0.42500000       0.22500000 </v>
   <v>      -0.42500000       0.42500000       0.22500000 </v>
   <v>      -0.37500000       0.42500000       0.22500000 </v>
   <v>      -0.32500000       0.42500000       0.22500000 </v>
   <v>      -0.27500000       0.42500000       0.22500000 </v>
   <v>      -0.22500000       0.42500000       0.22500000 </v>
   <v>       0.47500000       0.47500000       0.22500000 </v>
   <v>      -0.47500000       0.47500000       0.22500000 </v>
   <v>      -0.42500000       0.47500000       0.22500000 </v>
   <v>      -0.37500000       0.47500000       0.22500000 </v>
   <v>      -0.32500000       0.47500000       0.22500000 </v>
   <v>      -0.27500000       0.47500000       0.22500000 </v>
   <v>      -0.22500000       0.47500000       0.22500000 </v>
   <v>      -0.47500000      -0.47500000       0.22500000 </v>
   <v>      -0.42500000      -0.47500000       0.22500000 </v>
   <v>      -0.37500000      -0.47500000       0.22500000 </v>
   <v>      -0.32500000      -0.47500000       0.22500000 </v>
   <v>      -0.27500000      -0.47500000       0.22500000 </v>
   <v>      -0.42500000      -0.42500000       0.22500000 </v>
   <v>      -0.37500000      -0.42500000       0.22500000 </v>
   <v>      -0.32500000      -0.42500000       0.22500000 </v>
   <v>      -0.27500000      -0.42500000       0.22500000 </v>
   <v>      -0.37500000      -0.37500000       0.22500000 </v>
   <v>      -0.32500000      -0.37500000       0.22500000 </v>
   <v>      -0.27500000      -0.37500000       0.22500000 </v>
   <v>      -0.32500000      -0.32500000       0.22500000 </v>
   <v>      -0.27500000      -0.32500000       0.22500000 </v>
   <v>      -0.27500000      -0.27500000       0.22500000 </v>
   <v>       0.27500000       0.27500000       0.27500000 </v>
   <v>       0.32500000       0.27500000       0.27500000 </v>
   <v>       0.37500000       0.27500000       0.27500000 </v>
   <v>       0.42500000       0.27500000       0.27500000 </v>
   <v>       0.47500000       0.27500000       0.27500000 </v>
   <v>      -0.47500000       0.27500000       0.27500000 </v>
   <v>      -0.42500000       0.27500000       0.27500000 </v>
   <v>      -0.37500000       0.27500000       0.27500000 </v>
   <v>      -0.32500000       0.27500000       0.27500000 </v>
   <v>      -0.27500000       0.27500000       0.27500000 </v>
   <v>       0.32500000       0.32500000       0.27500000 </v>
   <v>       0.37500000       0.32500000       0.27500000 </v>
   <v>       0.42500000       0.32500000       0.27500000 </v>
   <v>       0.47500000       0.32500000       0.27500000 </v>
   <v>      -0.47500000       0.32500000       0.27500000 </v>
   <v>      -0.42500000       0.32500000       0.27500000 </v>
   <v>      -0.37500000       0.32500000       0.27500000 </v>
   <v>      -0.32500000       0.32500000       0.27500000 </v>
   <v>      -0.27500000       0.32500000       0.27500000 </v>
   <v>       0.37500000       0.37500000       0.27500000 </v>
   <v>       0.42500000       0.37500000       0.27500000 </v>
   <v>       0.47500000       0.37500000       0.27500000 </v>
   <v>      -0.47500000       0.37500000       0.27500000 </v>
   <v>      -0.42500000       0.37500000       0.27500000 </v>
   <v>      -0.37500000       0.37500000       0.27500000 </v>
   <v>      -0.32500000       0.37500000       0.27500000 </v>
   <v>      -0.27500000       0.37500000       0.27500000 </v>
   <v>       0.42500000       0.42500000       0.27500000 </v>
   <v>       0.47500000       0.42500000       0.27500000 </v>
   <v>      -0.47500000       0.42500000       0.27500000 </v>
   <v>      -0.42500000       0.42500000       0.27500000 </v>
   <v>      -0.37500000       0.42500000       0.27500000 </v>
   <v>      -0.32500000       0.42500000       0.27500000 </v>
   <v>      -0.27500000       0.42500000       0.27500000 </v>
   <v>       0.47500000       0.47500000       0.27500000 </v>
   <v>      -0.47500000       0.47500000       0.27500000 </v>
   <v>      -0.42500000       0.47500000       0.27500000 </v>
   <v>      -0.37500000       0.47500000       0.27500000 </v>
   <v>      -0.32500000       0.47500000       0.27500000 </v>
   <v>      -0.27500000       0.47500000       0.27500000 </v>
   <v>      -0.47500000      -0.47500000       0.27500000 </v>
   <v>      -0.42500000      -0.47500000       0.27500000 </v>
   <v>      -0.37500000      -0.47500000       0.27500000 </v>
   <v>      -0.32500000      -0.47500000       0.27500000 </v>
   <v>      -0.42500000      -0.42500000       0.27500000 </v>
   <v>      -0.37500000      -0.42500000       0.27500000 </v>
   <v>      -0.32500000      -0.42500000       0.27500000 </v>
   <v>      -0.37500000      -0.37500000       0.27500000 </v>
   <v>      -0.32500000      -0.37500000       0.27500000 </v>
   <v>      -0.32500000      -0.32500000       0.27500000 </v>
   <v>       0.32500000       0.32500000       0.32500000 </v>
   <v>       0.37500000       0.32500000       0.32500000 </v>
   <v>       0.42500000       0.32500000       0.32500000 </v>
   <v>       0.47500000       0.32500000       0.32500000 </v>
   <v>      -0.47500000       0.32500000       0.32500000 </v>
   <v>      -0.42500000       0.32500000       0.32500000 </v>
   <v>      -0.37500000       0.32500000       0.32500000 </v>
   <v>      -0.32500000       0.32500000       0.32500000 </v>
   <v>       0.37500000       0.37500000       0.32500000 </v>
   <v>       0.42500000       0.37500000       0.32500000 </v>
   <v>       0.47500000       0.37500000       0.32500000 </v>
   <v>      -0.47500000       0.37500000       0.32500000 </v>
   <v>      -0.42500000       0.37500000       0.32500000 </v>
   <v>      -0.37500000       0.37500000       0.32500000 </v>
   <v>      -0.32500000       0.37500000       0.32500000 </v>
   <v>       0.42500000       0.42500000       0.32500000 </v>
   <v>       0.47500000       0.42500000       0.32500000 </v>
   <v>      -0.47500000       0.42500000       0.32500000 </v>
   <v>      -0.42500000       0.42500000       0.32500000 </v>
   <v>      -0.37500000       0.42500000       0.32500000 </v>
   <v>      -0.32500000       0.42500000       0.32500000 </v>
   <v>       0.47500000       0.47500000       0.32500000 </v>
   <v>      -0.47500000       0.47500000       0.32500000 </v>
   <v>      -0.42500000       0.47500000       0.32500000 </v>
   <v>      -0.37500000       0.47500000       0.32500000 </v>
   <v>      -0.32500000       0.47500000       0.32500000 </v>
   <v>      -0.47500000      -0.47500000       0.32500000 </v>
   <v>      -0.42500000      -0.47500000       0.32500000 </v>
   <v>      -0.37500000      -0.47500000       0.32500000 </v>
   <v>      -0.42500000      -0.42500000       0.32500000 </v>
   <v>      -0.37500000      -0.42500000       0.32500000 </v>
   <v>      -0.37500000      -0.37500000       0.32500000 </v>
   <v>       0.37500000       0.37500000       0.37500000 </v>
   <v>       0.42500000       0.37500000       0.37500000 </v>
   <v>       0.47500000       0.37500000       0.37500000 </v>
   <v>      -0.47500000       0.37500000       0.37500000 </v>
   <v>      -0.42500000       0.37500000       0.37500000 </v>
   <v>      -0.37500000       0.37500000       0.37500000 </v>
   <v>       0.42500000       0.42500000       0.37500000 </v>
   <v>       0.47500000       0.42500000       0.37500000 </v>
   <v>      -0.47500000       0.42500000       0.37500000 </v>
   <v>      -0.42500000       0.42500000       0.37500000 </v>
   <v>      -0.37500000       0.42500000       0.37500000 </v>
   <v>       0.47500000       0.47500000       0.37500000 </v>
   <v>      -0.47500000       0.47500000       0.37500000 </v>
   <v>      -0.42500000       0.47500000       0.37500000 </v>
   <v>      -0.37500000       0.47500000       0.37500000 </v>
   <v>      -0.47500000      -0.47500000       0.37500000 </v>
   <v>      -0.42500000      -0.47500000       0.37500000 </v>
   <v>      -0.42500000      -0.42500000       0.37500000 </v>
   <v>       0.42500000       0.42500000       0.42500000 </v>
   <v>       0.47500000       0.42500000       0.42500000 </v>
   <v>      -0.47500000       0.42500000       0.42500000 </v>
   <v>      -0.42500000       0.42500000       0.42500000 </v>
   <v>       0.47500000       0.47500000       0.42500000 </v>
   <v>      -0.47500000       0.47500000       0.42500000 </v>
   <v>      -0.42500000       0.47500000       0.42500000 </v>
   <v>      -0.47500000      -0.47500000       0.42500000 </v>
   <v>       0.47500000       0.47500000       0.47500000 </v>
   <v>      -0.47500000       0.47500000       0.47500000 </v>
  </varray>
  <varray name="weights" >
   <v>       0.00025000 </v>
   <v>       0.00075000 </v>
   <v>       0.00075000 </v>
   <v>       0.00075000 </v>
   <v>       0.00075000 </v>
   <v>       0.00075000 </v>
   <v>       0.00075000 </v>
   <v>       0.00075000 </v>
   <v>       0.00075000 </v>
   <v>       0.00075000 </v>
   <v>       0.00075000 </v>
   <v>       0.00075000 </v>
   <v>       0.00075000 </v>
   <v>       0.00075000 </v>
   <v>       0.00075000 </v>
   <v>       0.00075000 </v>
   <v>       0.00075000 </v>
   <v>       0.00075000 </v>
   <v>       0.00075000 </v>
   <v>       0.00075000 </v>
   <v>       0.00075000 </v>
   <v>       0.00150000 </v>
   <v>       0.00150000 </v>
   <v>       0.00150000 </v>
   <v>       0.00150000 </v>
   <v>       0.00150000 </v>
   <v>       0.00150000 </v>
   <v>       0.00150000 </v>
   <v>       0.00150000 </v>
   <v>       0.00150000 </v>
   <v>       0.00150000 </v>
   <v>       0.00150000 </v>
   <v>       0.00150000 </v>
   <v>       0.00150000 </v>
   <v>       0.00150000 </v>
   <v>       0.00150000 </v>
   <v>       0.00150000 </v>
   <v>       0.00150000 </v>
   <v>       0.00150000 </v>
   <v>       0.00075000 </v>
   <v>       0.00150000 </v>
   <v>       0.00150000 </v>
   <v>       0.00150000 </v>
   <v>       0.00150000 </v>
   <v>       0.00150000 </v>
   <v>       0.00150000 </v>
   <v>       0.00150000 </v>
   <v>       0.00150000 </v>
   <v>       0.00150000 </v>
   <v>       0.00150000 </v>
   <v>       0.00150000 </v>
   <v>       0.00150000 </v>
   <v>       0.00150000 </v>
   <v>       0.00150000 </v>
   <v>       0.00150000 </v>
   <v>       0.00150000 </v>
   <v>       0.00150000 </v>
   <v>       0.00075000 </v>
   <v>       0.00150000 </v>
   <v>       0.00150000 </v>
   <v>       0.00150000 </v>
   <v>       0.00150000 </v>
   <v>       0.00150000 </v>
   <v>       0.00150000 </v>
   <v>       0.00150000 </v>
   <v>       0.00150000 </v>
   <v>       0.00150000 </v>
   <v>       0.00150000 </v>
   <v>       0.00150000 </v>
   <v>       0.00150000 </v>
   <v>       0.00150000 </v>
   <v>       0.00150000 </v>
   <v>       0.00150000 </v>
   <v>       0.00150000 </v>
   <v>       0.00075000 </v>
   <v>       0.00150000 </v>
   <v>       0.00150000 </v>
   <v>       0.00150000 </v>
   <v>       0.00150000 </v>
   <v>       0.00150000 </v>
   <v>       0.00150000 </v>
   <v>       0.00150000 </v>
   <v>       0.00150000 </v>
   <v>       0.00150000 </v>
   <v>       0.00150000 </v>
   <v>       0.00150000 </v>
   <v>       0.00150000 </v>
   <v>       0.00150000 </v>
   <v>       0.00150000 </v>
   <v>       0.00150000 </v>
   <v>       0.00075000 </v>
   <v>       0.00150000 </v>
   <v>       0.00150000 </v>
   <v>       0.00150000 </v>
   <v>       0.00150000 </v>
   <v>       0.00150000 </v>
   <v>       0.00150000 </v>
   <v>       0.00150000 </v>
   <v>       0.00150000 </v>
   <v>       0.00150000 </v>
   <v>       0.00150000 </v>
   <v>       0.00150000 </v>
   <v>       0.00150000 </v>
   <v>       0.00150000 </v>
   <v>       0.00150000 </v>
   <v>       0.00075000 </v>
   <v>       0.00150000 </v>
   <v>       0.00150000 </v>
   <v>       0.00150000 </v>
   <v>       0.00150000 </v>
   <v>       0.00150000 </v>
   <v>       0.00150000 </v>
   <v>       0.00150000 </v>
   <v>       0.00150000 </v>
   <v>       0.00150000 </v>
   <v>       0.00150000 </v>
   <v>       0.00150000 </v>
   <v>       0.00150000 </v>
   <v>       0.00150000 </v>
   <v>       0.00075000 </v>
   <v>       0.00150000 </v>
   <v>       0.00150000 </v>
   <v>       0.00150000 </v>
   <v>       0.00150000 </v>
   <v>       0.00150000 </v>
   <v>       0.00150000 </v>
   <v>       0.00150000 </v>
   <v>       0.00150000 </v>
   <v>       0.00150000 </v>
   <v>       0.00150000 </v>
   <v>       0.00150000 </v>
   <v>       0.00150000 </v>
   <v>       0.00075000 </v>
   <v>       0.00150000 </v>
   <v>       0.00150000 </v>
   <v>       0.00150000 </v>
   <v>       0.00150000 </v>
   <v>       0.00150000 </v>
   <v>       0.00150000 </v>
   <v>       0.00150000 </v>
   <v>       0.00150000 </v>
   <v>       0.00150000 </v>
   <v>       0.00150000 </v>
   <v>       0.00150000 </v>
   <v>       0.00075000 </v>
   <v>       0.00150000 </v>
   <v>       0.00150000 </v>
   <v>       0.00150000 </v>
   <v>       0.00150000 </v>
   <v>       0.00150000 </v>
   <v>       0.00150000 </v>
   <v>       0.00150000 </v>
   <v>       0.00150000 </v>
   <v>       0.00150000 </v>
   <v>       0.00150000 </v>
   <v>       0.00075000 </v>
   <v>       0.00150000 </v>
   <v>       0.00150000 </v>
   <v>       0.00150000 </v>
   <v>       0.00150000 </v>
   <v>       0.00150000 </v>
   <v>       0.00150000 </v>
   <v>       0.00150000 </v>
   <v>       0.00150000 </v>
   <v>       0.00075000 </v>
   <v>       0.00150000 </v>
   <v>       0.00150000 </v>
   <v>       0.00150000 </v>
   <v>       0.00150000 </v>
   <v>       0.00150000 </v>
   <v>       0.00150000 </v>
   <v>       0.00150000 </v>
   <v>       0.00075000 </v>
   <v>       0.00150000 </v>
   <v>       0.00150000 </v>
   <v>       0.00150000 </v>
   <v>       0.00150000 </v>
   <v>       0.00150000 </v>
   <v>       0.00150000 </v>
   <v>       0.00075000 </v>
   <v>       0.00150000 </v>
   <v>       0.00150000 </v>
   <v>       0.00150000 </v>
   <v>       0.00150000 </v>
   <v>       0.00150000 </v>
   <v>       0.00075000 </v>
   <v>       0.00150000 </v>
   <v>       0.00150000 </v>
   <v>       0.00150000 </v>
   <v>       0.00150000 </v>
   <v>       0.00075000 </v>
   <v>       0.00150000 </v>
   <v>       0.00150000 </v>
   <v>       0.00150000 </v>
   <v>       0.00075000 </v>
   <v>       0.00150000 </v>
   <v>       0.00150000 </v>
   <v>       0.00075000 </v>
   <v>       0.00150000 </v>
   <v>       0.00075000 </v>
   <v>       0.00025000 </v>
   <v>       0.00075000 </v>
   <v>       0.00075000 </v>
   <v>       0.00075000 </v>
   <v>       0.00075000 </v>
   <v>       0.00075000 </v>
   <v>       0.00075000 </v>
   <v>       0.00075000 </v>
   <v>       0.00075000 </v>
   <v>       0.00075000 </v>
   <v>       0.00075000 </v>
   <v>       0.00075000 </v>
   <v>       0.00075000 </v>
   <v>       0.00075000 </v>
   <v>       0.00075000 </v>
   <v>       0.00075000 </v>
   <v>       0.00075000 </v>
   <v>       0.00075000 </v>
   <v>       0.00075000 </v>
   <v>       0.00150000 </v>
   <v>       0.00150000 </v>
   <v>       0.00150000 </v>
   <v>       0.00150000 </v>
   <v>       0.00150000 </v>
   <v>       0.00150000 </v>
   <v>       0.00150000 </v>
   <v>       0.00150000 </v>
   <v>       0.00150000 </v>
   <v>       0.00150000 </v>
   <v>       0.00150000 </v>
   <v>       0.00150000 </v>
   <v>       0.00150000 </v>
   <v>       0.00150000 </v>
   <v>       0.00150000 </v>
   <v>       0.00150000 </v>
   <v>       0.00075000 </v>
   <v>       0.00150000 </v>
   <v>       0.00150000 </v>
   <v>       0.00150000 </v>
   <v>       0.00150000 </v>
   <v>       0.00150000 </v>
   <v>       0.00150000 </v>
   <v>       0.00150000 </v>
   <v>       0.00150000 </v>
   <v>       0.00150000 </v>
   <v>       0.00150000 </v>
   <v>       0.00150000 </v>
   <v>       0.00150000 </v>
   <v>       0.00150000 </v>
   <v>       0.00150000 </v>
   <v>       0.00150000 </v>
   <v>       0.00075000 </v>
   <v>       0.00150000 </v>
   <v>       0.00150000 </v>
   <v>       0.00150000 </v>
   <v>       0.00150000 </v>
   <v>       0.00150000 </v>
   <v>       0.00150000 </v>
   <v>       0.00150000 </v>
   <v>       0.00150000 </v>
   <v>       0.00150000 </v>
   <v>       0.00150000 </v>
   <v>       0.00150000 </v>
   <v>       0.00150000 </v>
   <v>       0.00150000 </v>
   <v>       0.00150000 </v>
   <v>       0.00075000 </v>
   <v>       0.00150000 </v>
   <v>       0.00150000 </v>
   <v>       0.00150000 </v>
   <v>       0.00150000 </v>
   <v>       0.00150000 </v>
   <v>       0.00150000 </v>
   <v>       0.00150000 </v>
   <v>       0.00150000 </v>
   <v>       0.00150000 </v>
   <v>       0.00150000 </v>
   <v>       0.00150000 </v>
   <v>       0.00150000 </v>
   <v>       0.00150000 </v>
   <v>       0.00075000 </v>
   <v>       0.00150000 </v>
   <v>       0.00150000 </v>
   <v>       0.00150000 </v>
   <v>       0.00150000 </v>
   <v>       0.00150000 </v>
   <v>       0.00150000 </v>
   <v>       0.00150000 </v>
   <v>       0.00150000 </v>
   <v>       0.00150000 </v>
   <v>       0.00150000 </v>
   <v>       0.00150000 </v>
   <v>       0.00150000 </v>
   <v>       0.00075000 </v>
   <v>       0.00150000 </v>
   <v>       0.00150000 </v>
   <v>       0.00150000 </v>
   <v>       0.00150000 </v>
   <v>       0.00150000 </v>
   <v>       0.00150000 </v>
   <v>       0.00150000 </v>
   <v>       0.00150000 </v>
   <v>       0.00150000 </v>
   <v>       0.00150000 </v>
   <v>       0.00150000 </v>
   <v>       0.00075000 </v>
   <v>       0.00150000 </v>
   <v>       0.00150000 </v>
   <v>       0.00150000 </v>
   <v>       0.00150000 </v>
   <v>       0.00150000 </v>
   <v>       0.00150000 </v>
   <v>       0.00150000 </v>
   <v>       0.00150000 </v>
   <v>       0.00150000 </v>
   <v>       0.00150000 </v>
   <v>       0.00075000 </v>
   <v>       0.00150000 </v>
   <v>       0.00150000 </v>
   <v>       0.00150000 </v>
   <v>       0.00150000 </v>
   <v>       0.00150000 </v>
   <v>       0.00150000 </v>
   <v>       0.00150000 </v>
   <v>       0.00150000 </v>
   <v>       0.00150000 </v>
   <v>       0.00075000 </v>
   <v>       0.00150000 </v>
   <v>       0.00150000 </v>
   <v>       0.00150000 </v>
   <v>       0.00150000 </v>
   <v>       0.00150000 </v>
   <v>       0.00150000 </v>
   <v>       0.00150000 </v>
   <v>       0.00075000 </v>
   <v>       0.00150000 </v>
   <v>       0.00150000 </v>
   <v>       0.00150000 </v>
   <v>       0.00150000 </v>
   <v>       0.00150000 </v>
   <v>       0.00150000 </v>
   <v>       0.00075000 </v>
   <v>       0.00150000 </v>
   <v>       0.00150000 </v>
   <v>       0.00150000 </v>
   <v>       0.00150000 </v>
   <v>       0.00150000 </v>
   <v>       0.00075000 </v>
   <v>       0.00150000 </v>
   <v>       0.00150000 </v>
   <v>       0.00150000 </v>
   <v>       0.00150000 </v>
   <v>       0.00075000 </v>
   <v>       0.00150000 </v>
   <v>       0.00150000 </v>
   <v>       0.00150000 </v>
   <v>       0.00075000 </v>
   <v>       0.00150000 </v>
   <v>       0.00150000 </v>
   <v>       0.00075000 </v>
   <v>       0.00150000 </v>
   <v>       0.00075000 </v>
   <v>       0.00025000 </v>
   <v>       0.00075000 </v>
   <v>       0.00075000 </v>
   <v>       0.00075000 </v>
   <v>       0.00075000 </v>
   <v>       0.00075000 </v>
   <v>       0.00075000 </v>
   <v>       0.00075000 </v>
   <v>       0.00075000 </v>
   <v>       0.00075000 </v>
   <v>       0.00075000 </v>
   <v>       0.00075000 </v>
   <v>       0.00075000 </v>
   <v>       0.00075000 </v>
   <v>       0.00075000 </v>
   <v>       0.00075000 </v>
   <v>       0.00075000 </v>
   <v>       0.00150000 </v>
   <v>       0.00150000 </v>
   <v>       0.00150000 </v>
   <v>       0.00150000 </v>
   <v>       0.00150000 </v>
   <v>       0.00150000 </v>
   <v>       0.00150000 </v>
   <v>       0.00150000 </v>
   <v>       0.00150000 </v>
   <v>       0.00150000 </v>
   <v>       0.00150000 </v>
   <v>       0.00150000 </v>
   <v>       0.00150000 </v>
   <v>       0.00150000 </v>
   <v>       0.00075000 </v>
   <v>       0.00150000 </v>
   <v>       0.00150000 </v>
   <v>       0.00150000 </v>
   <v>       0.00150000 </v>
   <v>       0.00150000 </v>
   <v>       0.00150000 </v>
   <v>       0.00150000 </v>
   <v>       0.00150000 </v>
   <v>       0.00150000 </v>
   <v>       0.00150000 </v>
   <v>       0.00150000 </v>
   <v>       0.00150000 </v>
   <v>       0.00150000 </v>
   <v>       0.00075000 </v>
   <v>       0.00150000 </v>
   <v>       0.00150000 </v>
   <v>       0.00150000 </v>
   <v>       0.00150000 </v>
   <v>       0.00150000 </v>
   <v>       0.00150000 </v>
   <v>       0.00150000 </v>
   <v>       0.00150000 </v>
   <v>       0.00150000 </v>
   <v>       0.00150000 </v>
   <v>       0.00150000 </v>
   <v>       0.00150000 </v>
   <v>       0.00075000 </v>
   <v>       0.00150000 </v>
   <v>       0.00150000 </v>
   <v>       0.00150000 </v>
   <v>       0.00150000 </v>
   <v>       0.00150000 </v>
   <v>       0.00150000 </v>
   <v>       0.00150000 </v>
   <v>       0.00150000 </v>
   <v>       0.00150000 </v>
   <v>       0.00150000 </v>
   <v>       0.00150000 </v>
   <v>       0.00075000 </v>
   <v>       0.00150000 </v>
   <v>       0.00150000 </v>
   <v>       0.00150000 </v>
   <v>       0.00150000 </v>
   <v>       0.00150000 </v>
   <v>       0.00150000 </v>
   <v>       0.00150000 </v>
   <v>       0.00150000 </v>
   <v>       0.00150000 </v>
   <v>       0.00150000 </v>
   <v>       0.00075000 </v>
   <v>       0.00150000 </v>
   <v>       0.00150000 </v>
   <v>       0.00150000 </v>
   <v>       0.00150000 </v>
   <v>       0.00150000 </v>
   <v>       0.00150000 </v>
   <v>       0.00150000 </v>
   <v>       0.00150000 </v>
   <v>       0.00150000 </v>
   <v>       0.00075000 </v>
   <v>       0.00150000 </v>
   <v>       0.00150000 </v>
   <v>       0.00150000 </v>
   <v>       0.00150000 </v>
   <v>       0.00150000 </v>
   <v>       0.00150000 </v>
   <v>       0.00150000 </v>
   <v>       0.00150000 </v>
   <v>       0.00075000 </v>
   <v>       0.00150000 </v>
   <v>       0.00150000 </v>
   <v>       0.00150000 </v>
   <v>       0.00150000 </v>
   <v>       0.00150000 </v>
   <v>       0.00150000 </v>
   <v>       0.00075000 </v>
   <v>       0.00150000 </v>
   <v>       0.00150000 </v>
   <v>       0.00150000 </v>
   <v>       0.00150000 </v>
   <v>       0.00150000 </v>
   <v>       0.00075000 </v>
   <v>       0.00150000 </v>
   <v>       0.00150000 </v>
   <v>       0.00150000 </v>
   <v>       0.00150000 </v>
   <v>       0.00075000 </v>
   <v>       0.00150000 </v>
   <v>       0.00150000 </v>
   <v>       0.00150000 </v>
   <v>       0.00075000 </v>
   <v>       0.00150000 </v>
   <v>       0.00150000 </v>
   <v>       0.00075000 </v>
   <v>       0.00150000 </v>
   <v>       0.00075000 </v>
   <v>       0.00025000 </v>
   <v>       0.00075000 </v>
   <v>       0.00075000 </v>
   <v>       0.00075000 </v>
   <v>       0.00075000 </v>
   <v>       0.00075000 </v>
   <v>       0.00075000 </v>
   <v>       0.00075000 </v>
   <v>       0.00075000 </v>
   <v>       0.00075000 </v>
   <v>       0.00075000 </v>
   <v>       0.00075000 </v>
   <v>       0.00075000 </v>
   <v>       0.00075000 </v>
   <v>       0.00075000 </v>
   <v>       0.00150000 </v>
   <v>       0.00150000 </v>
   <v>       0.00150000 </v>
   <v>       0.00150000 </v>
   <v>       0.00150000 </v>
   <v>       0.00150000 </v>
   <v>       0.00150000 </v>
   <v>       0.00150000 </v>
   <v>       0.00150000 </v>
   <v>       0.00150000 </v>
   <v>       0.00150000 </v>
   <v>       0.00150000 </v>
   <v>       0.00075000 </v>
   <v>       0.00150000 </v>
   <v>       0.00150000 </v>
   <v>       0.00150000 </v>
   <v>       0.00150000 </v>
   <v>       0.00150000 </v>
   <v>       0.00150000 </v>
   <v>       0.00150000 </v>
   <v>       0.00150000 </v>
   <v>       0.00150000 </v>
   <v>       0.00150000 </v>
   <v>       0.00150000 </v>
   <v>       0.00075000 </v>
   <v>       0.00150000 </v>
   <v>       0.00150000 </v>
   <v>       0.00150000 </v>
   <v>       0.00150000 </v>
   <v>       0.00150000 </v>
   <v>       0.00150000 </v>
   <v>       0.00150000 </v>
   <v>       0.00150000 </v>
   <v>       0.00150000 </v>
   <v>       0.00150000 </v>
   <v>       0.00075000 </v>
   <v>       0.00150000 </v>
   <v>       0.00150000 </v>
   <v>       0.00150000 </v>
   <v>       0.00150000 </v>
   <v>       0.00150000 </v>
   <v>       0.00150000 </v>
   <v>       0.00150000 </v>
   <v>       0.00150000 </v>
   <v>       0.00150000 </v>
   <v>       0.00075000 </v>
   <v>       0.00150000 </v>
   <v>       0.00150000 </v>
   <v>       0.00150000 </v>
   <v>       0.00150000 </v>
   <v>       0.00150000 </v>
   <v>       0.00150000 </v>
   <v>       0.00150000 </v>
   <v>       0.00150000 </v>
   <v>       0.00075000 </v>
   <v>       0.00150000 </v>
   <v>       0.00150000 </v>
   <v>       0.00150000 </v>
   <v>       0.00150000 </v>
   <v>       0.00150000 </v>
   <v>       0.00150000 </v>
   <v>       0.00150000 </v>
   <v>       0.00075000 </v>
   <v>       0.00150000 </v>
   <v>       0.00150000 </v>
   <v>       0.00150000 </v>
   <v>       0.00150000 </v>
   <v>       0.00150000 </v>
   <v>       0.00075000 </v>
   <v>       0.00150000 </v>
   <v>       0.00150000 </v>
   <v>       0.00150000 </v>
   <v>       0.00150000 </v>
   <v>       0.00075000 </v>
   <v>       0.00150000 </v>
   <v>       0.00150000 </v>
   <v>       0.00150000 </v>
   <v>       0.00075000 </v>
   <v>       0.00150000 </v>
   <v>       0.00150000 </v>
   <v>       0.00075000 </v>
   <v>       0.00150000 </v>
   <v>       0.00075000 </v>
   <v>       0.00025000 </v>
   <v>       0.00075000 </v>
   <v>       0.00075000 </v>
   <v>       0.00075000 </v>
   <v>       0.00075000 </v>
   <v>       0.00075000 </v>
   <v>       0.00075000 </v>
   <v>       0.00075000 </v>
   <v>       0.00075000 </v>
   <v>       0.00075000 </v>
   <v>       0.00075000 </v>
   <v>       0.00075000 </v>
   <v>       0.00075000 </v>
   <v>       0.00150000 </v>
   <v>       0.00150000 </v>
   <v>       0.00150000 </v>
   <v>       0.00150000 </v>
   <v>       0.00150000 </v>
   <v>       0.00150000 </v>
   <v>       0.00150000 </v>
   <v>       0.00150000 </v>
   <v>       0.00150000 </v>
   <v>       0.00150000 </v>
   <v>       0.00075000 </v>
   <v>       0.00150000 </v>
   <v>       0.00150000 </v>
   <v>       0.00150000 </v>
   <v>       0.00150000 </v>
   <v>       0.00150000 </v>
   <v>       0.00150000 </v>
   <v>       0.00150000 </v>
   <v>       0.00150000 </v>
   <v>       0.00150000 </v>
   <v>       0.00075000 </v>
   <v>       0.00150000 </v>
   <v>       0.00150000 </v>
   <v>       0.00150000 </v>
   <v>       0.00150000 </v>
   <v>       0.00150000 </v>
   <v>       0.00150000 </v>
   <v>       0.00150000 </v>
   <v>       0.00150000 </v>
   <v>       0.00075000 </v>
   <v>       0.00150000 </v>
   <v>       0.00150000 </v>
   <v>       0.00150000 </v>
   <v>       0.00150000 </v>
   <v>       0.00150000 </v>
   <v>       0.00150000 </v>
   <v>       0.00150000 </v>
   <v>       0.00075000 </v>
   <v>       0.00150000 </v>
   <v>       0.00150000 </v>
   <v>       0.00150000 </v>
   <v>       0.00150000 </v>
   <v>       0.00150000 </v>
   <v>       0.00150000 </v>
   <v>       0.00075000 </v>
   <v>       0.00150000 </v>
   <v>       0.00150000 </v>
   <v>       0.00150000 </v>
   <v>       0.00150000 </v>
   <v>       0.00075000 </v>
   <v>       0.00150000 </v>
   <v>       0.00150000 </v>
   <v>       0.00150000 </v>
   <v>       0.00075000 </v>
   <v>       0.00150000 </v>
   <v>       0.00150000 </v>
   <v>       0.00075000 </v>
   <v>       0.00150000 </v>
   <v>       0.00075000 </v>
   <v>       0.00025000 </v>
   <v>       0.00075000 </v>
   <v>       0.00075000 </v>
   <v>       0.00075000 </v>
   <v>       0.00075000 </v>
   <v>       0.00075000 </v>
   <v>       0.00075000 </v>
   <v>       0.00075000 </v>
   <v>       0.00075000 </v>
   <v>       0.00075000 </v>
   <v>       0.00075000 </v>
   <v>       0.00150000 </v>
   <v>       0.00150000 </v>
   <v>       0.00150000 </v>
   <v>       0.00150000 </v>
   <v>       0.00150000 </v>
   <v>       0.00150000 </v>
   <v>       0.00150000 </v>
   <v>       0.00150000 </v>
   <v>       0.00075000 </v>
   <v>       0.00150000 </v>
   <v>       0.00150000 </v>
   <v>       0.00150000 </v>
   <v>       0.00150000 </v>
   <v>       0.00150000 </v>
   <v>       0.00150000 </v>
   <v>       0.00150000 </v>
   <v>       0.00075000 </v>
   <v>       0.00150000 </v>
   <v>       0.00150000 </v>
   <v>       0.00150000 </v>
   <v>       0.00150000 </v>
   <v>       0.00150000 </v>
   <v>       0.00150000 </v>
   <v>       0.00075000 </v>
   <v>       0.00150000 </v>
   <v>       0.00150000 </v>
   <v>       0.00150000 </v>
   <v>       0.00150000 </v>
   <v>       0.00150000 </v>
   <v>       0.00075000 </v>
   <v>       0.00150000 </v>
   <v>       0.00150000 </v>
   <v>       0.00150000 </v>
   <v>       0.00075000 </v>
   <v>       0.00150000 </v>
   <v>       0.00150000 </v>
   <v>       0.00075000 </v>
   <v>       0.00150000 </v>
   <v>       0.00075000 </v>
   <v>       0.00025000 </v>
   <v>       0.00075000 </v>
   <v>       0.00075000 </v>
   <v>       0.00075000 </v>
   <v>       0.00075000 </v>
   <v>       0.00075000 </v>
   <v>       0.00075000 </v>
   <v>       0.00075000 </v>
   <v>       0.00075000 </v>
   <v>       0.00150000 </v>
   <v>       0.00150000 </v>
   <v>       0.00150000 </v>
   <v>       0.00150000 </v>
   <v>       0.00150000 </v>
   <v>       0.00150000 </v>
   <v>       0.00075000 </v>
   <v>       0.00150000 </v>
   <v>       0.00150000 </v>
   <v>       0.00150000 </v>
   <v>       0.00150000 </v>
   <v>       0.00150000 </v>
   <v>       0.00075000 </v>
   <v>       0.00150000 </v>
   <v>       0.00150000 </v>
   <v>       0.00150000 </v>
   <v>       0.00150000 </v>
   <v>       0.00075000 </v>
   <v>       0.00150000 </v>
   <v>       0.00150000 </v>
   <v>       0.00075000 </v>
   <v>       0.00150000 </v>
   <v>       0.00075000 </v>
   <v>       0.00025000 </v>
   <v>       0.00075000 </v>
   <v>       0.00075000 </v>
   <v>       0.00075000 </v>
   <v>       0.00075000 </v>
   <v>       0.00075000 </v>
   <v>       0.00075000 </v>
   <v>       0.00150000 </v>
   <v>       0.00150000 </v>
   <v>       0.00150000 </v>
   <v>       0.00150000 </v>
   <v>       0.00075000 </v>
   <v>       0.00150000 </v>
   <v>       0.00150000 </v>
   <v>       0.00150000 </v>
   <v>       0.00075000 </v>
   <v>       0.00150000 </v>
   <v>       0.00075000 </v>
   <v>       0.00025000 </v>
   <v>       0.00075000 </v>
   <v>       0.00075000 </v>
   <v>       0.00075000 </v>
   <v>       0.00075000 </v>
   <v>       0.00150000 </v>
   <v>       0.00150000 </v>
   <v>       0.00075000 </v>
   <v>       0.00025000 </v>
   <v>       0.00075000 </v>
  </varray>
 </kpoints>
 <parameters>
  <separator name="general" >
   <i type="string" name="SYSTEM">fcc Fe</i>
   <i type="logical" name="LCOMPAT"> F  </i>
  </separator>
  <separator name="electronic" >
   <i type="string" name="PREC">normal</i>
   <i name="ENMAX">    267.96900000</i>
   <i name="ENAUG">    511.36800000</i>
   <i name="EDIFF">      0.00000100</i>
   <i type="int" name="IALGO">    38</i>
   <i type="int" name="IWAVPR">    10</i>
   <i type="int" name="NBANDS">    10</i>
   <i name="NELECT">      8.00000000</i>
   <i type="int" name="TURBO">     0</i>
   <i type="int" name="IRESTART">     0</i>
   <i type="int" name="NREBOOT">     0</i>
   <i type="int" name="NMIN">     0</i>
   <i name="EREF">      0.00000000</i>
   <separator name="electronic smearing" >
    <i type="int" name="ISMEAR">     1</i>
    <i name="SIGMA">      0.20000000</i>
    <i name="KSPACING">      0.50000000</i>
    <i type="logical" name="KGAMMA"> T  </i>
   </separator>
   <separator name="electronic projectors" >
    <i type="logical" name="LREAL"> F  </i>
    <v name="ROPT">      0.00000000</v>
    <i type="int" name="LMAXPAW">  -100</i>
    <i type="int" name="LMAXMIX">     2</i>
    <i type="logical" name="NLSPLINE"> F  </i>
   </separator>
   <separator name="electronic startup" >
    <i type="int" name="ISTART">     0</i>
    <i type="int" name="ICHARG">     2</i>
    <i type="int" name="INIWAV">     1</i>
   </separator>
   <separator name="electronic spin" >
    <i type="int" name="ISPIN">     2</i>
    <i type="logical" name="LNONCOLLINEAR"> F  </i>
    <v name="MAGMOM">      3.00000000</v>
    <i name="NUPDOWN">     -1.00000000</i>
    <i type="logical" name="LSORBIT"> F  </i>
    <v name="SAXIS">      0.00000000      0.00000000      1.00000000</v>
    <i type="logical" name="LSPIRAL"> F  </i>
    <v name="QSPIRAL">      0.00000000      0.00000000      0.00000000</v>
    <i type="logical" name="LZEROZ"> F  </i>
   </separator>
   <separator name="electronic exchange-correlation" >
    <i type="logical" name="LASPH"> F  </i>
    <i type="logical" name="LMETAGGA"> F  </i>
   </separator>
   <separator name="electronic convergence" >
    <i type="int" name="NELM">    60</i>
    <i type="int" name="NELMDL">    -5</i>
    <i type="int" name="NELMIN">     2</i>
    <i name="ENINI">    267.96900000</i>
    <separator name="electronic convergence detail" >
     <i type="logical" name="LDIAG"> T  </i>
     <i type="logical" name="LSUBROT"> F  </i>
     <i name="WEIMIN">      0.00000000</i>
     <i name="EBREAK">      0.00000002</i>
     <i name="DEPER">      0.30000000</i>
     <i type="int" name="NRMM">     4</i>
     <i name="TIME">      0.40000000</i>
    </separator>
   </separator>
   <separator name="electronic mixer" >
    <i name="AMIX">      0.40000000</i>
    <i name="BMIX">      1.00000000</i>
    <i name="AMIN">      0.10000000</i>
    <i name="AMIX_MAG">      1.60000000</i>
    <i name="BMIX_MAG">      1.00000000</i>
    <separator name="electronic mixer details" >
     <i type="int" name="IMIX">     4</i>
     <i type="logical" name="MIXFIRST"> F  </i>
     <i type="int" name="MAXMIX">   -45</i>
     <i name="WC">    100.00000000</i>
     <i type="int" name="INIMIX">     1</i>
     <i type="int" name="MIXPRE">     1</i>
     <i type="int" name="MREMOVE">     5</i>
    </separator>
   </separator>
   <separator name="electronic dipolcorrection" >
    <i type="logical" name="LDIPOL"> F  </i>
    <i type="logical" name="LMONO"> F  </i>
    <i type="int" name="IDIPOL">     0</i>
    <i name="EPSILON">      1.00000000</i>
    <v name="DIPOL">   -100.00000000   -100.00000000   -100.00000000</v>
    <i name="EFIELD">      0.00000000</i>
   </separator>
  </separator>
  <separator name="grids" >
   <i type="int" name="NGX">    10</i>
   <i type="int" name="NGY">    10</i>
   <i type="int" name="NGZ">    10</i>
   <i type="int" name="NGXF">    20</i>
   <i type="int" name="NGYF">    20</i>
   <i type="int" name="NGZF">    20</i>
   <i type="logical" name="ADDGRID"> F  </i>
  </separator>
  <separator name="ionic" >
   <i type="int" name="NSW">     0</i>
   <i type="int" name="IBRION">    -1</i>
   <i type="int" name="MDALGO">     0</i>
   <i type="int" name="ISIF">     2</i>
   <i name="PSTRESS">      0.00000000</i>
   <i name="EDIFFG">      0.00001000</i>
   <i type="int" name="NFREE">     0</i>
   <i name="POTIM">      0.50000000</i>
   <i name="SMASS">     -3.00000000</i>
   <i name="SCALEE">      1.00000000</i>
  </separator>
  <separator name="ionic md" >
   <i name="TEBEG">      0.00010000</i>
   <i name="TEEND">      0.00010000</i>
   <i type="int" name="NBLOCK">     1</i>
   <i type="int" name="KBLOCK">     1</i>
   <i type="int" name="NPACO">   256</i>
   <i name="APACO">     16.00000000</i>
  </separator>
  <separator name="symmetry" >
   <i type="int" name="ISYM">     2</i>
   <i name="SYMPREC">      0.00001000</i>
  </separator>
  <separator name="dos" >
   <i type="int" name="LORBIT">     0</i>
   <v name="RWIGS">     -1.00000000</v>
   <i type="int" name="NEDOS">   301</i>
   <i name="EMIN">     10.00000000</i>
   <i name="EMAX">    -10.00000000</i>
   <i name="EFERMI">      0.00000000</i>
  </separator>
  <separator name="writing" >
   <i type="int" name="NWRITE">     2</i>
   <i type="logical" name="LWAVE"> F  </i>
   <i type="logical" name="LDOWNSAMPLE"> F  </i>
   <i type="logical" name="LCHARG"> T  </i>
   <i type="logical" name="LPARD"> F  </i>
   <i type="logical" name="LVTOT"> F  </i>
   <i type="logical" name="LVHAR"> F  </i>
   <i type="logical" name="LELF"> F  </i>
   <i type="logical" name="LOPTICS"> F  </i>
   <v name="STM">      0.00000000      0.00000000      0.00000000      0.00000000      0.00000000      0.00000000      0.00000000</v>
  </separator>
  <separator name="performance" >
   <i type="int" name="NPAR">     1</i>
   <i type="int" name="NSIM">     4</i>
   <i type="int" name="NBLK">    -1</i>
   <i type="logical" name="LPLANE"> T  </i>
   <i type="logical" name="LSCALAPACK"> T  </i>
   <i type="logical" name="LSCAAWARE"> F  </i>
   <i type="logical" name="LSCALU"> F  </i>
   <i type="logical" name="LASYNC"> F  </i>
   <i type="logical" name="LORBITALREAL"> F  </i>
  </separator>
  <separator name="miscellaneous" >
   <i type="int" name="IDIOT">     3</i>
   <i type="int" name="ISPECIAL">     0</i>
   <i type="logical" name="LMUSIC"> F  </i>
   <v name="POMASS">     55.84700000</v>
   <v name="DARWINR">      0.00000000</v>
   <v name="DARWINV">      1.00000000</v>
   <i type="logical" name="LCORR"> T  </i>
  </separator>
  <i type="logical" name="GGA_COMPAT"> T  </i>
  <i type="logical" name="LBERRY"> F  </i>
  <i type="int" name="ICORELEVEL">     0</i>
  <i type="logical" name="LDAU"> F  </i>
  <i type="int" name="I_CONSTRAINED_M">     0</i>
  <separator name="electronic exchange-correlation" >
   <i type="string" name="GGA">--</i>
   <i type="int" name="VOSKOWN">     0</i>
   <i type="logical" name="LHFCALC"> F  </i>
   <i type="string" name="PRECFOCK"></i>
[...]
       <r>    26.5036     0.1813     8.0916 </r>
       <r>    26.6487     0.1728     8.1167 </r>
       <r>    26.7939     0.1993     8.1456 </r>
       <r>    26.9390     0.1969     8.1742 </r>
       <r>    27.0842     0.1661     8.1983 </r>
       <r>    27.2293     0.1631     8.2220 </r>
       <r>    27.3745     0.1912     8.2497 </r>
       <r>    27.5196     0.1970     8.2783 </r>
       <r>    27.6648     0.1866     8.3054 </r>
       <r>    27.8099     0.1780     8.3313 </r>
       <r>    27.9551     0.1630     8.3549 </r>
       <r>    28.1002     0.1651     8.3789 </r>
       <r>    28.2454     0.1721     8.4039 </r>
       <r>    28.3905     0.1875     8.4311 </r>
       <r>    28.5357     0.2078     8.4613 </r>
       <r>    28.6808     0.1921     8.4891 </r>
       <r>    28.8260     0.1758     8.5146 </r>
       <r>    28.9711     0.1812     8.5409 </r>
       <r>    29.1163     0.1827     8.5675 </r>
       <r>    29.2614     0.1729     8.5926 </r>
       <r>    29.4066     0.1684     8.6170 </r>
       <r>    29.5517     0.1950     8.6453 </r>
       <r>    29.6969     0.2150     8.6765 </r>
       <r>    29.8420     0.2087     8.7068 </r>
       <r>    29.9872     0.1808     8.7331 </r>
       <r>    30.1323     0.2218     8.7653 </r>
       <r>    30.2775     0.2742     8.8050 </r>
       <r>    30.4226     0.2494     8.8412 </r>
       <r>    30.5678     0.2364     8.8755 </r>
       <r>    30.7129     0.2548     8.9125 </r>
       <r>    30.8581     0.2370     8.9469 </r>
       <r>    31.0033     0.2322     8.9806 </r>
       <r>    31.1484     0.2573     9.0180 </r>
       <r>    31.2936     0.2453     9.0536 </r>
       <r>    31.4387     0.2339     9.0875 </r>
       <r>    31.5839     0.2283     9.1207 </r>
       <r>    31.7290     0.2583     9.1582 </r>
       <r>    31.8742     0.2384     9.1928 </r>
       <r>    32.0193     0.2042     9.2224 </r>
       <r>    32.1645     0.2205     9.2544 </r>
       <r>    32.3096     0.2546     9.2914 </r>
       <r>    32.4548     0.2891     9.3333 </r>
       <r>    32.5999     0.2832     9.3744 </r>
       <r>    32.7451     0.2210     9.4065 </r>
       <r>    32.8902     0.2394     9.4413 </r>
       <r>    33.0354     0.2446     9.4768 </r>
       <r>    33.1805     0.2430     9.5121 </r>
       <r>    33.3257     0.2221     9.5443 </r>
       <r>    33.4708     0.1676     9.5686 </r>
       <r>    33.6160     0.2292     9.6019 </r>
       <r>    33.7611     0.2744     9.6417 </r>
       <r>    33.9063     0.2085     9.6720 </r>
       <r>    34.0514     0.1882     9.6993 </r>
       <r>    34.1966     0.1597     9.7225 </r>
       <r>    34.3417     0.1483     9.7440 </r>
       <r>    34.4869     0.1615     9.7675 </r>
       <r>    34.6320     0.1467     9.7887 </r>
       <r>    34.7772     0.1480     9.8102 </r>
       <r>    34.9223     0.1674     9.8345 </r>
       <r>    35.0675     0.1470     9.8559 </r>
       <r>    35.2126     0.1230     9.8737 </r>
       <r>    35.3578     0.1085     9.8895 </r>
       <r>    35.5029     0.1059     9.9048 </r>
       <r>    35.6481     0.1256     9.9231 </r>
       <r>    35.7932     0.1310     9.9421 </r>
       <r>    35.9384     0.0986     9.9564 </r>
       <r>    36.0836     0.0655     9.9659 </r>
       <r>    36.2287     0.0600     9.9746 </r>
       <r>    36.3739     0.0561     9.9827 </r>
       <r>    36.5190     0.0370     9.9881 </r>
       <r>    36.6642     0.0187     9.9908 </r>
       <r>    36.8093     0.0144     9.9929 </r>
       <r>    36.9545     0.0134     9.9949 </r>
       <r>    37.0996     0.0044     9.9955 </r>
       <r>    37.2448     0.0036     9.9960 </r>
       <r>    37.3899     0.0138     9.9980 </r>
       <r>    37.5351     0.0123     9.9998 </r>
       <r>    37.6802     0.0020    10.0001 </r>
       <r>    37.8254    -0.0006    10.0000 </r>
       <r>    37.9705    -0.0001    10.0000 </r>
       <r>    38.1157    -0.0000    10.0000 </r>
       <r>    38.2608    -0.0000    10.0000 </r>
       <r>    38.4060    -0.0000    10.0000 </r>
       <r>    38.5511    -0.0000    10.0000 </r>
       <r>    38.6963    -0.0000    10.0000 </r>
       <r>    38.8414     0.0000    10.0000 </r>
       <r>    38.9866     0.0000    10.0000 </r>
       <r>    39.1317     0.0000    10.0000 </r>
       <r>    39.2769     0.0000    10.0000 </r>
       <r>    39.4220     0.0000    10.0000 </r>
      </set>
      <set comment="spin 2">
       <r>    -4.1234     0.0000     0.0000 </r>
       <r>    -3.9782     0.0000     0.0000 </r>
       <r>    -3.8331    -0.0000    -0.0000 </r>
       <r>    -3.6879    -0.0000    -0.0000 </r>
       <r>    -3.5428    -0.0000    -0.0000 </r>
       <r>    -3.3976    -0.0000    -0.0000 </r>
       <r>    -3.2525    -0.0000    -0.0000 </r>
       <r>    -3.1073    -0.0000    -0.0000 </r>
       <r>    -2.9622    -0.0000    -0.0000 </r>
       <r>    -2.8170    -0.0000    -0.0000 </r>
       <r>    -2.6719    -0.0000    -0.0000 </r>
       <r>    -2.5267    -0.0000    -0.0000 </r>
       <r>    -2.3816    -0.0002    -0.0000 </r>
       <r>    -2.2364    -0.0001    -0.0001 </r>
       <r>    -2.0913     0.0030     0.0004 </r>
       <r>    -1.9461     0.0097     0.0018 </r>
       <r>    -1.8010     0.0156     0.0041 </r>
       <r>    -1.6558     0.0198     0.0069 </r>
       <r>    -1.5107     0.0230     0.0103 </r>
       <r>    -1.3655     0.0266     0.0141 </r>
       <r>    -1.2204     0.0294     0.0184 </r>
       <r>    -1.0752     0.0321     0.0231 </r>
       <r>    -0.9301     0.0364     0.0284 </r>
       <r>    -0.7849     0.0369     0.0337 </r>
       <r>    -0.6398     0.0421     0.0398 </r>
       <r>    -0.4946     0.0449     0.0463 </r>
       <r>    -0.3495     0.0461     0.0530 </r>
       <r>    -0.2043     0.0509     0.0604 </r>
       <r>    -0.0592     0.0562     0.0686 </r>
       <r>     0.0860     0.0550     0.0766 </r>
       <r>     0.2311     0.0625     0.0856 </r>
       <r>     0.3763     0.0683     0.0955 </r>
       <r>     0.5214     0.0677     0.1054 </r>
       <r>     0.6666     0.0779     0.1167 </r>
       <r>     0.8118     0.0825     0.1287 </r>
       <r>     0.9569     0.0893     0.1416 </r>
       <r>     1.1021     0.0983     0.1559 </r>
       <r>     1.2472     0.1091     0.1717 </r>
       <r>     1.3924     0.1229     0.1896 </r>
       <r>     1.5375     0.1376     0.2095 </r>
       <r>     1.6827     0.1979     0.2383 </r>
       <r>     1.8278     0.3343     0.2868 </r>
       <r>     1.9730     0.4609     0.3537 </r>
       <r>     2.1181     0.4900     0.4248 </r>
       <r>     2.2633     0.4959     0.4968 </r>
       <r>     2.4084     0.5231     0.5727 </r>
       <r>     2.5536     0.5985     0.6596 </r>
       <r>     2.6987     0.6853     0.7590 </r>
       <r>     2.8439     0.7520     0.8682 </r>
       <r>     2.9890     0.7810     0.9816 </r>
       <r>     3.1342     0.7507     1.0905 </r>
       <r>     3.2793     0.6991     1.1920 </r>
       <r>     3.4245     0.6805     1.2908 </r>
       <r>     3.5696     0.6748     1.3887 </r>
       <r>     3.7148     0.6286     1.4800 </r>
       <r>     3.8599     0.5825     1.5645 </r>
       <r>     4.0051     0.6039     1.6522 </r>
       <r>     4.1502     0.6981     1.7535 </r>
       <r>     4.2954     0.7848     1.8674 </r>
       <r>     4.4405     0.8346     1.9886 </r>
       <r>     4.5857     0.8614     2.1136 </r>
       <r>     4.7308     0.9109     2.2458 </r>
       <r>     4.8760     1.0315     2.3956 </r>
       <r>     5.0211     1.0644     2.5501 </r>
       <r>     5.1663     1.1345     2.7147 </r>
       <r>     5.3114     1.2282     2.8930 </r>
       <r>     5.4566     1.0398     3.0439 </r>
       <r>     5.6017     0.8087     3.1613 </r>
       <r>     5.7469     0.7131     3.2648 </r>
       <r>     5.8921     0.6778     3.3632 </r>
       <r>     6.0372     0.7450     3.4714 </r>
       <r>     6.1824     0.8769     3.5986 </r>
       <r>     6.3275     0.9730     3.7399 </r>
       <r>     6.4727     0.9806     3.8822 </r>
       <r>     6.6178     0.8970     4.0124 </r>
       <r>     6.7630     0.8279     4.1326 </r>
       <r>     6.9081     0.8010     4.2488 </r>
       <r>     7.0533     0.8113     4.3666 </r>
       <r>     7.1984     0.8538     4.4905 </r>
       <r>     7.3436     1.0041     4.6363 </r>
       <r>     7.4887     1.3421     4.8311 </r>
       <r>     7.6339     1.4968     5.0483 </r>
       <r>     7.7790     1.0467     5.2003 </r>
       <r>     7.9242     0.4709     5.2686 </r>
       <r>     8.0693     0.1906     5.2963 </r>
       <r>     8.2145     0.1264     5.3146 </r>
       <r>     8.3596     0.1596     5.3378 </r>
       <r>     8.5048     0.1477     5.3592 </r>
       <r>     8.6499     0.1428     5.3800 </r>
       <r>     8.7951     0.1589     5.4031 </r>
       <r>     8.9402     0.1399     5.4234 </r>
       <r>     9.0854     0.1368     5.4432 </r>
       <r>     9.2305     0.1379     5.4632 </r>
       <r>     9.3757     0.1461     5.4845 </r>
       <r>     9.5208     0.1452     5.5055 </r>
       <r>     9.6660     0.1251     5.5237 </r>
       <r>     9.8111     0.1257     5.5419 </r>
       <r>     9.9563     0.1435     5.5628 </r>
       <r>    10.1014     0.1466     5.5840 </r>
       <r>    10.2466     0.1228     5.6019 </r>
       <r>    10.3917     0.1225     5.6196 </r>
       <r>    10.5369     0.1322     5.6388 </r>
       <r>    10.6820     0.1250     5.6570 </r>
       <r>    10.8272     0.1291     5.6757 </r>
       <r>    10.9724     0.1210     5.6933 </r>
       <r>    11.1175     0.1174     5.7103 </r>
       <r>    11.2627     0.1113     5.7265 </r>
       <r>    11.4078     0.1061     5.7419 </r>
       <r>    11.5530     0.1236     5.7598 </r>
       <r>    11.6981     0.1190     5.7771 </r>
       <r>    11.8433     0.0889     5.7900 </r>
       <r>    11.9884     0.0970     5.8041 </r>
       <r>    12.1336     0.1055     5.8194 </r>
       <r>    12.2787     0.0975     5.8335 </r>
       <r>    12.4239     0.0982     5.8478 </r>
       <r>    12.5690     0.0899     5.8608 </r>
       <r>    12.7142     0.0749     5.8717 </r>
       <r>    12.8593     0.0817     5.8835 </r>
       <r>    13.0045     0.0888     5.8964 </r>
       <r>    13.1496     0.0801     5.9081 </r>
       <r>    13.2948     0.0648     5.9175 </r>
       <r>    13.4399     0.0623     5.9265 </r>
       <r>    13.5851     0.0684     5.9364 </r>
       <r>    13.7302     0.0678     5.9463 </r>
       <r>    13.8754     0.0535     5.9540 </r>
       <r>    14.0205     0.0440     5.9604 </r>
       <r>    14.1657     0.0481     5.9674 </r>
       <r>    14.3108     0.0479     5.9744 </r>
       <r>    14.4560     0.0392     5.9801 </r>
       <r>    14.6011     0.0322     5.9847 </r>
       <r>    14.7463     0.0132     5.9867 </r>
       <r>    14.8914     0.0332     5.9915 </r>
       <r>    15.0366     0.1307     6.0104 </r>
       <r>    15.1817     0.2140     6.0415 </r>
       <r>    15.3269     0.2161     6.0729 </r>
       <r>    15.4720     0.1920     6.1008 </r>
       <r>    15.6172     0.1745     6.1261 </r>
       <r>    15.7623     0.1724     6.1511 </r>
       <r>    15.9075     0.1593     6.1742 </r>
       <r>    16.0527     0.1440     6.1951 </r>
       <r>    16.1978     0.1321     6.2143 </r>
       <r>    16.3430     0.1308     6.2333 </r>
       <r>    16.4881     0.1339     6.2527 </r>
       <r>    16.6333     0.1317     6.2719 </r>
       <r>    16.7784     0.1255     6.2901 </r>
       <r>    16.9236     0.1124     6.3064 </r>
       <r>    17.0687     0.1156     6.3232 </r>
       <r>    17.2139     0.1209     6.3407 </r>
       <r>    17.3590     0.1185     6.3579 </r>
       <r>    17.5042     0.1138     6.3744 </r>
       <r>    17.6493     0.1055     6.3898 </r>
       <r>    17.7945     0.1107     6.4058 </r>
       <r>    17.9396     0.1130     6.4222 </r>
       <r>    18.0848     0.1066     6.4377 </r>
       <r>    18.2299     0.1174     6.4547 </r>
       <r>    18.3751     0.1367     6.4746 </r>
       <r>    18.5202     0.1582     6.4975 </r>
       <r>    18.6654     0.1355     6.5172 </r>
       <r>    18.8105     0.1379     6.5372 </r>
       <r>    18.9557     0.1775     6.5630 </r>
       <r>    19.1008     0.1902     6.5906 </r>
       <r>    19.2460     0.1665     6.6148 </r>
       <r>    19.3911     0.1756     6.6403 </r>
       <r>    19.5363     0.2268     6.6732 </r>
       <r>    19.6814     0.2203     6.7051 </r>
       <r>    19.8266     0.1680     6.7295 </r>
       <r>    19.9717     0.1446     6.7505 </r>
       <r>    20.1169     0.1757     6.7760 </r>
       <r>    20.2620     0.2031     6.8055 </r>
       <r>    20.4072     0.1991     6.8344 </r>
       <r>    20.5523     0.2002     6.8635 </r>
       <r>    20.6975     0.1891     6.8909 </r>
       <r>    20.8426     0.1652     6.9149 </r>
       <r>    20.9878     0.1903     6.9425 </r>
       <r>    21.1330     0.2085     6.9728 </r>
       <r>    21.2781     0.1995     7.0017 </r>
       <r>    21.4233     0.2241     7.0342 </r>
       <r>    21.5684     0.1963     7.0627 </r>
       <r>    21.7136     0.1757     7.0882 </r>
       <r>    21.8587     0.1888     7.1157 </r>
       <r>    22.0039     0.2110     7.1463 </r>
       <r>    22.1490     0.2267     7.1792 </r>
       <r>    22.2942     0.2194     7.2110 </r>
       <r>    22.4393     0.2095     7.2415 </r>
       <r>    22.5845     0.1786     7.2674 </r>
       <r>    22.7296     0.2170     7.2989 </r>
       <r>    22.8748     0.2571     7.3362 </r>
       <r>    23.0199     0.2140     7.3673 </r>
       <r>    23.1651     0.2172     7.3988 </r>
       <r>    23.3102     0.2478     7.4348 </r>
       <r>    23.4554     0.2234     7.4672 </r>
       <r>    23.6005     0.2083     7.4974 </r>
       <r>    23.7457     0.2175     7.5290 </r>
       <r>    23.8908     0.2248     7.5616 </r>
       <r>    24.0360     0.2026     7.5910 </r>
       <r>    24.1811     0.2152     7.6223 </r>
       <r>    24.3263     0.2341     7.6563 </r>
       <r>    24.4714     0.2186     7.6880 </r>
       <r>    24.6166     0.2076     7.7181 </r>
       <r>    24.7617     0.1884     7.7455 </r>
       <r>    24.9069     0.2030     7.7749 </r>
       <r>    25.0520     0.1993     7.8039 </r>
       <r>    25.1972     0.2011     7.8331 </r>
       <r>    25.3423     0.2416     7.8681 </r>
       <r>    25.4875     0.2147     7.8993 </r>
       <r>    25.6326     0.1659     7.9234 </r>
       <r>    25.7778     0.1690     7.9479 </r>
       <r>    25.9230     0.2020     7.9772 </r>
       <r>    26.0681     0.2144     8.0083 </r>
       <r>    26.2133     0.1971     8.0369 </r>
       <r>    26.3584     0.1946     8.0652 </r>
       <r>    26.5036     0.1814     8.0915 </r>
       <r>    26.6487     0.1728     8.1166 </r>
       <r>    26.7939     0.1992     8.1455 </r>
       <r>    26.9390     0.1969     8.1741 </r>
       <r>    27.0842     0.1661     8.1982 </r>
       <r>    27.2293     0.1630     8.2219 </r>
       <r>    27.3745     0.1911     8.2496 </r>
       <r>    27.5196     0.1971     8.2782 </r>
       <r>    27.6648     0.1866     8.3053 </r>
       <r>    27.8099     0.1781     8.3312 </r>
       <r>    27.9551     0.1630     8.3548 </r>
       <r>    28.1002     0.1650     8.3788 </r>
       <r>    28.2454     0.1721     8.4038 </r>
       <r>    28.3905     0.1874     8.4310 </r>
       <r>    28.5357     0.2079     8.4612 </r>
       <r>    28.6808     0.1922     8.4891 </r>
       <r>    28.8260     0.1758     8.5146 </r>
       <r>    28.9711     0.1812     8.5409 </r>
       <r>    29.1163     0.1827     8.5674 </r>
       <r>    29.2614     0.1730     8.5925 </r>
       <r>    29.4066     0.1684     8.6169 </r>
       <r>    29.5517     0.1949     8.6452 </r>
       <r>    29.6969     0.2150     8.6764 </r>
       <r>    29.8420     0.2088     8.7067 </r>
       <r>    29.9872     0.1808     8.7330 </r>
       <r>    30.1323     0.2215     8.7651 </r>
       <r>    30.2775     0.2742     8.8049 </r>
       <r>    30.4226     0.2495     8.8411 </r>
       <r>    30.5678     0.2363     8.8754 </r>
       <r>    30.7129     0.2548     8.9124 </r>
       <r>    30.8581     0.2370     8.9468 </r>
       <r>    31.0033     0.2322     8.9805 </r>
       <r>    31.1484     0.2573     9.0179 </r>
       <r>    31.2936     0.2453     9.0535 </r>
       <r>    31.4387     0.2340     9.0874 </r>
       <r>    31.5839     0.2283     9.1206 </r>
       <r>    31.7290     0.2582     9.1581 </r>
       <r>    31.8742     0.2386     9.1927 </r>
       <r>    32.0193     0.2043     9.2223 </r>
       <r>    32.1645     0.2204     9.2543 </r>
       <r>    32.3096     0.2545     9.2913 </r>
       <r>    32.4548     0.2890     9.3332 </r>
       <r>    32.5999     0.2834     9.3743 </r>
       <r>    32.7451     0.2211     9.4064 </r>
       <r>    32.8902     0.2393     9.4412 </r>
       <r>    33.0354     0.2446     9.4767 </r>
       <r>    33.1805     0.2430     9.5120 </r>
       <r>    33.3257     0.2223     9.5442 </r>
       <r>    33.4708     0.1676     9.5685 </r>
       <r>    33.6160     0.2289     9.6018 </r>
       <r>    33.7611     0.2745     9.6416 </r>
       <r>    33.9063     0.2087     9.6719 </r>
       <r>    34.0514     0.1882     9.6992 </r>
       <r>    34.1966     0.1598     9.7224 </r>
       <r>    34.3417     0.1483     9.7439 </r>
       <r>    34.4869     0.1615     9.7674 </r>
       <r>    34.6320     0.1467     9.7887 </r>
       <r>    34.7772     0.1479     9.8101 </r>
       <r>    34.9223     0.1674     9.8344 </r>
       <r>    35.0675     0.1472     9.8558 </r>
       <r>    35.2126     0.1230     9.8737 </r>
       <r>    35.3578     0.1086     9.8894 </r>
       <r>    35.5029     0.1059     9.9048 </r>
       <r>    35.6481     0.1255     9.9230 </r>
       <r>    35.7932     0.1310     9.9420 </r>
       <r>    35.9384     0.0987     9.9564 </r>
       <r>    36.0836     0.0655     9.9659 </r>
       <r>    36.2287     0.0600     9.9746 </r>
       <r>    36.3739     0.0561     9.9827 </r>
       <r>    36.5190     0.0371     9.9881 </r>
       <r>    36.6642     0.0187     9.9908 </r>
       <r>    36.8093     0.0144     9.9929 </r>
       <r>    36.9545     0.0134     9.9949 </r>
       <r>    37.0996     0.0044     9.9955 </r>
       <r>    37.2448     0.0036     9.9960 </r>
       <r>    37.3899     0.0137     9.9980 </r>
       <r>    37.5351     0.0124     9.9998 </r>
       <r>    37.6802     0.0020    10.0001 </r>
       <r>    37.8254    -0.0006    10.0000 </r>
       <r>    37.9705    -0.0001    10.0000 </r>
       <r>    38.1157    -0.0000    10.0000 </r>
       <r>    38.2608    -0.0000    10.0000 </r>
       <r>    38.4060    -0.0000    10.0000 </r>
       <r>    38.5511    -0.0000    10.0000 </r>
       <r>    38.6963    -0.0000    10.0000 </r>
       <r>    38.8414     0.0000    10.0000 </r>
       <r>    38.9866     0.0000    10.0000 </r>
       <r>    39.1317     0.0000    10.0000 </r>
       <r>    39.2769     0.0000    10.0000 </r>
       <r>    39.4220     0.0000    10.0000 </r>
      </set>
     </set>
    </array>
   </total>
  </dos>
 </calculation>
 <structure name="finalpos" >
  <crystal>
   <varray name="basis" >
    <v>       0.00000000       1.72500000       1.72500000 </v>
    <v>       1.72500000       0.00000000       1.72500000 </v>
    <v>       1.72500000       1.72500000       0.00000000 </v>
   </varray>
   <i name="volume">     10.26590625 </i>
   <varray name="rec_basis" >
    <v>      -0.28985507       0.28985507       0.28985507 </v>
    <v>       0.28985507      -0.28985507       0.28985507 </v>
    <v>       0.28985507       0.28985507      -0.28985507 </v>
   </varray>
  </crystal>
  <varray name="positions" >
   <v>       0.00000000       0.00000000       0.00000000 </v>
  </varray>
 </structure>
</modeling>
