a= 3.25
 running on    1 total cores
 distrk:  each k-point on    1 cores,    1 groups
 distr:  one band on    1 cores,    1 groups
 using from now: INCAR     
 vasp.5.4.4.18Apr17-6-g9f103f2a35 (build May 20 2018 16:52:39) complex          
  
 POSCAR found type information on POSCAR  Fe
 POSCAR found :  1 types and       1 ions
 scaLAPACK will be used
 LDA part: xc-table for Ceperly-Alder, standard interpolation
 POSCAR, INCAR and KPOINTS ok, starting setup
 FFT: planning ...
 WAVECAR not read
 entering main loop
       N       E                     dE             d eps       ncg     rms          rms(c)
DAV:   1     0.645636948701E+01    0.64564E+01   -0.27707E+03 34488   0.609E+02
DAV:   2    -0.949614094733E+01   -0.15953E+02   -0.14876E+02 31444   0.984E+01
DAV:   3    -0.966800185672E+01   -0.17186E+00   -0.17136E+00 33416   0.121E+01
DAV:   4    -0.966848151466E+01   -0.47966E-03   -0.47963E-03 32632   0.603E-01
DAV:   5    -0.966848422250E+01   -0.27078E-05   -0.27085E-05 33068   0.438E-02    0.119E+01
DAV:   6    -0.920956356659E+01    0.45892E+00   -0.72190E+00 33280   0.396E+01    0.160E+00
DAV:   7    -0.920463407334E+01    0.49295E-02   -0.15748E-01 34844   0.454E+00    0.130E+00
DAV:   8    -0.919735229258E+01    0.72818E-02   -0.81187E-03 37840   0.822E-01    0.301E-01
DAV:   9    -0.919546741795E+01    0.18849E-02   -0.36478E-03 36752   0.591E-01    0.184E-01
DAV:  10    -0.919503067273E+01    0.43675E-03   -0.16830E-03 37616   0.442E-01    0.107E-01
DAV:  11    -0.919513209100E+01   -0.10142E-03   -0.94071E-05 33462   0.110E-01    0.275E-02
DAV:  12    -0.919514124737E+01   -0.91564E-05   -0.10942E-05 27188   0.358E-02    0.138E-02
DAV:  13    -0.919514021512E+01    0.10322E-05   -0.12274E-06 17014   0.161E-02    0.102E-02
DAV:  14    -0.919514049277E+01   -0.27765E-06   -0.39562E-07 15540   0.789E-03
   1 F= -.91951405E+01 E0= -.91952121E+01  d E =0.214737E-03  mag=     0.0005
a= 3.27
 running on    1 total cores
 distrk:  each k-point on    1 cores,    1 groups
 distr:  one band on    1 cores,    1 groups
 using from now: INCAR     
 vasp.5.4.4.18Apr17-6-g9f103f2a35 (build May 20 2018 16:52:39) complex          
  
 POSCAR found type information on POSCAR  Fe
 POSCAR found :  1 types and       1 ions
 scaLAPACK will be used
 LDA part: xc-table for Ceperly-Alder, standard interpolation
 POSCAR, INCAR and KPOINTS ok, starting setup
 FFT: planning ...
 WAVECAR not read
 entering main loop
       N       E                     dE             d eps       ncg     rms          rms(c)
DAV:   1     0.647587508234E+01    0.64759E+01   -0.27737E+03 34390   0.606E+02
DAV:   2    -0.958176542055E+01   -0.16058E+02   -0.14969E+02 31432   0.987E+01
DAV:   3    -0.975647128878E+01   -0.17471E+00   -0.17420E+00 33474   0.122E+01
DAV:   4    -0.975697191881E+01   -0.50063E-03   -0.50060E-03 32690   0.613E-01
DAV:   5    -0.975697475259E+01   -0.28338E-05   -0.28332E-05 32990   0.448E-02    0.118E+01
DAV:   6    -0.925140486236E+01    0.50557E+00   -0.76525E+00 33314   0.406E+01    0.155E+00
DAV:   7    -0.924611138236E+01    0.52935E-02   -0.16759E-01 33788   0.462E+00    0.135E+00
DAV:   8    -0.923993850096E+01    0.61729E-02   -0.10267E-02 39476   0.933E-01    0.292E-01
DAV:   9    -0.923859921272E+01    0.13393E-02   -0.45869E-03 37676   0.672E-01    0.185E-01
DAV:  10    -0.923854423205E+01    0.54981E-04   -0.18400E-03 38446   0.464E-01    0.740E-02
DAV:  11    -0.923862175567E+01   -0.77524E-04   -0.91429E-05 33544   0.105E-01    0.172E-02
DAV:  12    -0.923862746309E+01   -0.57074E-05   -0.63889E-06 20558   0.229E-02    0.195E-02
DAV:  13    -0.923862664185E+01    0.82123E-06   -0.15148E-06 16262   0.172E-02
   1 F= -.92386266E+01 E0= -.92387077E+01  d E =0.243061E-03  mag=     0.0013
a= 3.29
 running on    1 total cores
 distrk:  each k-point on    1 cores,    1 groups
 distr:  one band on    1 cores,    1 groups
 using from now: INCAR     
 vasp.5.4.4.18Apr17-6-g9f103f2a35 (build May 20 2018 16:52:39) complex          
  
 POSCAR found type information on POSCAR  Fe
 POSCAR found :  1 types and       1 ions
 scaLAPACK will be used
 LDA part: xc-table for Ceperly-Alder, standard interpolation
 POSCAR, INCAR and KPOINTS ok, starting setup
 FFT: planning ...
 WAVECAR not read
 entering main loop
       N       E                     dE             d eps       ncg     rms          rms(c)
DAV:   1     0.642832897148E+01    0.64283E+01   -0.27824E+03 34314   0.606E+02
DAV:   2    -0.965374700106E+01   -0.16082E+02   -0.15038E+02 31398   0.981E+01
DAV:   3    -0.983517169843E+01   -0.18142E+00   -0.18111E+00 33316   0.124E+01
DAV:   4    -0.983567892178E+01   -0.50722E-03   -0.50719E-03 32684   0.619E-01
DAV:   5    -0.983568179517E+01   -0.28734E-05   -0.28735E-05 33018   0.456E-02    0.117E+01
DAV:   6    -0.928522061655E+01    0.55046E+00   -0.80912E+00 33334   0.415E+01    0.149E+00
DAV:   7    -0.927865121181E+01    0.65694E-02   -0.18036E-01 32826   0.481E+00    0.138E+00
DAV:   8    -0.927329014415E+01    0.53611E-02   -0.14183E-02 38456   0.111E+00    0.283E-01
DAV:   9    -0.927283388562E+01    0.45626E-03   -0.50271E-03 38254   0.695E-01    0.208E-01
DAV:  10    -0.927313360509E+01   -0.29972E-03   -0.19835E-03 39156   0.480E-01    0.466E-02
DAV:  11    -0.927323463080E+01   -0.10103E-03   -0.12773E-04 33262   0.119E-01    0.424E-02
DAV:  12    -0.927324209110E+01   -0.74603E-05   -0.12353E-05 21496   0.289E-02    0.286E-02
DAV:  13    -0.927324338695E+01   -0.12958E-05   -0.48867E-06 22050   0.239E-02    0.945E-03
DAV:  14    -0.927324406980E+01   -0.68284E-06   -0.90044E-07 15668   0.102E-02
   1 F= -.92732441E+01 E0= -.92733334E+01  d E =0.268115E-03  mag=     0.0006
a= 3.31
 running on    1 total cores
 distrk:  each k-point on    1 cores,    1 groups
 distr:  one band on    1 cores,    1 groups
 using from now: INCAR     
 vasp.5.4.4.18Apr17-6-g9f103f2a35 (build May 20 2018 16:52:39) complex          
  
 POSCAR found type information on POSCAR  Fe
 POSCAR found :  1 types and       1 ions
 scaLAPACK will be used
 LDA part: xc-table for Ceperly-Alder, standard interpolation
 POSCAR, INCAR and KPOINTS ok, starting setup
 FFT: planning ...
 WAVECAR not read
 entering main loop
       N       E                     dE             d eps       ncg     rms          rms(c)
DAV:   1     0.660734535278E+01    0.66073E+01   -0.27826E+03 34254   0.605E+02
DAV:   2    -0.971858449750E+01   -0.16326E+02   -0.15212E+02 31390   0.984E+01
DAV:   3    -0.990446643909E+01   -0.18588E+00   -0.18539E+00 33526   0.125E+01
DAV:   4    -0.990499283679E+01   -0.52640E-03   -0.52636E-03 32662   0.632E-01
DAV:   5    -0.990499587587E+01   -0.30391E-05   -0.30399E-05 33108   0.466E-02    0.116E+01
DAV:   6    -0.931135981868E+01    0.59364E+00   -0.85364E+00 33356   0.424E+01    0.143E+00
DAV:   7    -0.930253469920E+01    0.88251E-02   -0.19789E-01 32864   0.517E+00    0.140E+00
DAV:   8    -0.929800368431E+01    0.45310E-02   -0.19200E-02 36218   0.131E+00    0.279E-01
DAV:   9    -0.929836666045E+01   -0.36298E-03   -0.53685E-03 38300   0.707E-01    0.235E-01
DAV:  10    -0.929902438166E+01   -0.65772E-03   -0.20633E-03 39410   0.484E-01    0.504E-02
DAV:  11    -0.929917972994E+01   -0.15535E-03   -0.20841E-04 33894   0.150E-01    0.736E-02
DAV:  12    -0.929919480609E+01   -0.15076E-04   -0.41206E-05 34828   0.615E-02    0.265E-02
DAV:  13    -0.929920129115E+01   -0.64851E-05   -0.81678E-06 22840   0.314E-02    0.107E-02
DAV:  14    -0.929920292008E+01   -0.16289E-05   -0.23671E-06 16356   0.166E-02    0.497E-03
DAV:  15    -0.929920331183E+01   -0.39175E-06   -0.83835E-07 15624   0.855E-03
   1 F= -.92992033E+01 E0= -.92993014E+01  d E =0.294265E-03  mag=     0.0005
a= 3.33
 running on    1 total cores
 distrk:  each k-point on    1 cores,    1 groups
 distr:  one band on    1 cores,    1 groups
 using from now: INCAR     
 vasp.5.4.4.18Apr17-6-g9f103f2a35 (build May 20 2018 16:52:39) complex          
  
 POSCAR found type information on POSCAR  Fe
 POSCAR found :  1 types and       1 ions
 scaLAPACK will be used
 LDA part: xc-table for Ceperly-Alder, standard interpolation
 POSCAR, INCAR and KPOINTS ok, starting setup
 FFT: planning ...
 WAVECAR not read
 entering main loop
       N       E                     dE             d eps       ncg     rms          rms(c)
DAV:   1     0.661014042639E+01    0.66101E+01   -0.27541E+03 34126   0.598E+02
DAV:   2    -0.977986769537E+01   -0.16390E+02   -0.15313E+02 31396   0.984E+01
DAV:   3    -0.996484583661E+01   -0.18498E+00   -0.18431E+00 33712   0.125E+01
DAV:   4    -0.996538994518E+01   -0.54411E-03   -0.54408E-03 32582   0.638E-01
DAV:   5    -0.996539322797E+01   -0.32828E-05   -0.32829E-05 33070   0.483E-02    0.115E+01
DAV:   6    -0.933046141880E+01    0.63493E+00   -0.89870E+00 33412   0.433E+01    0.138E+00
DAV:   7    -0.931845278176E+01    0.12009E-01   -0.22042E-01 33130   0.565E+00    0.142E+00
DAV:   8    -0.931473933194E+01    0.37134E-02   -0.25330E-02 35348   0.150E+00    0.280E-01
DAV:   9    -0.931581690879E+01   -0.10776E-02   -0.56171E-03 38200   0.708E-01    0.267E-01
DAV:  10    -0.931680406099E+01   -0.98715E-03   -0.20030E-03 39378   0.468E-01    0.103E-01
DAV:  11    -0.931708925682E+01   -0.28520E-03   -0.41833E-04 36276   0.205E-01    0.105E-01
DAV:  12    -0.931712494107E+01   -0.35684E-04   -0.11026E-04 38198   0.109E-01    0.174E-02
DAV:  13    -0.931713806224E+01   -0.13121E-04   -0.13445E-05 25618   0.352E-02    0.168E-02
DAV:  14    -0.931713909662E+01   -0.10344E-05   -0.10555E-06 16174   0.932E-03    0.182E-02
DAV:  15    -0.931713858926E+01    0.50736E-06   -0.16341E-07 15496   0.444E-03
   1 F= -.93171386E+01 E0= -.93172472E+01  d E =0.325972E-03  mag=     0.0087
a= 3.35
 running on    1 total cores
 distrk:  each k-point on    1 cores,    1 groups
 distr:  one band on    1 cores,    1 groups
 using from now: INCAR     
 vasp.5.4.4.18Apr17-6-g9f103f2a35 (build May 20 2018 16:52:39) complex          
  
 POSCAR found type information on POSCAR  Fe
 POSCAR found :  1 types and       1 ions
 scaLAPACK will be used
 LDA part: xc-table for Ceperly-Alder, standard interpolation
 POSCAR, INCAR and KPOINTS ok, starting setup
 FFT: planning ...
 WAVECAR not read
 entering main loop
       N       E                     dE             d eps       ncg     rms          rms(c)
DAV:   1     0.663452612719E+01    0.66345E+01   -0.27733E+03 34296   0.597E+02
DAV:   2    -0.982262208464E+01   -0.16457E+02   -0.15310E+02 31342   0.981E+01
DAV:   3    -0.100168354658E+02   -0.19421E+00   -0.19361E+00 33630   0.128E+01
DAV:   4    -0.100174162777E+02   -0.58081E-03   -0.58077E-03 32646   0.658E-01
DAV:   5    -0.100174198639E+02   -0.35862E-05   -0.35864E-05 33026   0.503E-02    0.114E+01
DAV:   6    -0.934335119842E+01    0.67407E+00   -0.94399E+00 33472   0.442E+01    0.134E+00
DAV:   7    -0.932714467141E+01    0.16207E-01   -0.24821E-01 33660   0.620E+00    0.143E+00
DAV:   8    -0.932412838370E+01    0.30163E-02   -0.32437E-02 35296   0.168E+00    0.285E-01
DAV:   9    -0.932578817887E+01   -0.16598E-02   -0.57668E-03 38104   0.701E-01    0.302E-01
DAV:  10    -0.932701470133E+01   -0.12265E-02   -0.17437E-03 39230   0.423E-01    0.178E-01
DAV:  11    -0.932759419323E+01   -0.57949E-03   -0.10140E-03 38630   0.335E-01    0.133E-01
DAV:  12    -0.932767048590E+01   -0.76293E-04   -0.20312E-04 37266   0.152E-01    0.162E-02
DAV:  13    -0.932769057777E+01   -0.20092E-04   -0.25194E-05 31526   0.443E-02    0.214E-02
DAV:  14    -0.932768795598E+01    0.26218E-05   -0.16604E-06 16482   0.148E-02    0.289E-02
DAV:  15    -0.932769876228E+01   -0.10806E-04   -0.10890E-05 23194   0.393E-02    0.128E-02
DAV:  16    -0.932770221154E+01   -0.34493E-05   -0.42367E-06 16134   0.209E-02    0.585E-03
DAV:  17    -0.932770319424E+01   -0.98270E-06   -0.11860E-06 15648   0.897E-03
   1 F= -.93277032E+01 E0= -.93278163E+01  d E =0.339392E-03  mag=     0.0011
a= 3.37
 running on    1 total cores
 distrk:  each k-point on    1 cores,    1 groups
 distr:  one band on    1 cores,    1 groups
 using from now: INCAR     
 vasp.5.4.4.18Apr17-6-g9f103f2a35 (build May 20 2018 16:52:39) complex          
  
 POSCAR found type information on POSCAR  Fe
 POSCAR found :  1 types and       1 ions
 scaLAPACK will be used
 LDA part: xc-table for Ceperly-Alder, standard interpolation
 POSCAR, INCAR and KPOINTS ok, starting setup
 FFT: planning ...
 WAVECAR not read
 entering main loop
       N       E                     dE             d eps       ncg     rms          rms(c)
DAV:   1     0.680255017644E+01    0.68026E+01   -0.27591E+03 33958   0.593E+02
DAV:   2    -0.986718299870E+01   -0.16670E+02   -0.15545E+02 31364   0.990E+01
DAV:   3    -0.100608826796E+02   -0.19370E+00   -0.19301E+00 33690   0.128E+01
DAV:   4    -0.100614665128E+02   -0.58383E-03   -0.58380E-03 32678   0.665E-01
DAV:   5    -0.100614701260E+02   -0.36131E-05   -0.36138E-05 33018   0.507E-02    0.113E+01
DAV:   6    -0.935033221352E+01    0.71114E+00   -0.98952E+00 33502   0.450E+01    0.131E+00
DAV:   7    -0.932905835732E+01    0.21274E-01   -0.28190E-01 33918   0.679E+00    0.143E+00
DAV:   8    -0.932652156338E+01    0.25368E-02   -0.39920E-02 35852   0.185E+00    0.291E-01
DAV:   9    -0.932864708868E+01   -0.21255E-02   -0.58626E-03 38090   0.693E-01    0.338E-01
DAV:  10    -0.932993004687E+01   -0.12830E-02   -0.13195E-03 37876   0.349E-01    0.265E-01
DAV:  11    -0.933105438881E+01   -0.11243E-02   -0.29149E-03 35440   0.598E-01    0.156E-01
DAV:  12    -0.933121105647E+01   -0.15667E-03   -0.15654E-04 34254   0.127E-01    0.734E-02
DAV:  13    -0.933125677216E+01   -0.45716E-04   -0.78689E-05 34798   0.102E-01    0.164E-02
DAV:  14    -0.933126698723E+01   -0.10215E-04   -0.10107E-05 20646   0.271E-02    0.154E-02
DAV:  15    -0.933127321272E+01   -0.62255E-05   -0.85187E-06 18438   0.300E-02    0.576E-03
DAV:  16    -0.933127514051E+01   -0.19278E-05   -0.85666E-06 20570   0.305E-02    0.279E-03
DAV:  17    -0.933127572060E+01   -0.58009E-06   -0.83214E-07 15668   0.109E-02
   1 F= -.93312757E+01 E0= -.93313944E+01  d E =0.356002E-03  mag=     0.0009
a= 3.39
 running on    1 total cores
 distrk:  each k-point on    1 cores,    1 groups
 distr:  one band on    1 cores,    1 groups
 using from now: INCAR     
 vasp.5.4.4.18Apr17-6-g9f103f2a35 (build May 20 2018 16:52:39) complex          
  
 POSCAR found type information on POSCAR  Fe
 POSCAR found :  1 types and       1 ions
 scaLAPACK will be used
 LDA part: xc-table for Ceperly-Alder, standard interpolation
 POSCAR, INCAR and KPOINTS ok, starting setup
 FFT: planning ...
 WAVECAR not read
 entering main loop
       N       E                     dE             d eps       ncg     rms          rms(c)
DAV:   1     0.688905890542E+01    0.68891E+01   -0.27651E+03 33802   0.592E+02
DAV:   2    -0.990252430639E+01   -0.16792E+02   -0.15668E+02 31346   0.990E+01
DAV:   3    -0.100973388351E+02   -0.19481E+00   -0.19409E+00 33830   0.128E+01
DAV:   4    -0.100979322802E+02   -0.59345E-03   -0.59340E-03 32570   0.665E-01
DAV:   5    -0.100979360845E+02   -0.38043E-05   -0.38049E-05 33110   0.512E-02    0.112E+01
DAV:   6    -0.935177254301E+01    0.74616E+00   -0.10352E+01 33544   0.458E+01    0.129E+00
DAV:   7    -0.932453850943E+01    0.27234E-01   -0.32140E-01 33916   0.739E+00    0.142E+00
DAV:   8    -0.932211051455E+01    0.24280E-02   -0.46919E-02 36782   0.198E+00    0.294E-01
DAV:   9    -0.932461705868E+01   -0.25065E-02   -0.58888E-03 38016   0.686E-01    0.374E-01
DAV:  10    -0.932569158782E+01   -0.10745E-02   -0.86156E-04 37750   0.256E-01    0.354E-01
DAV:  11    -0.932639785952E+01   -0.70627E-03   -0.12781E-02 34262   0.123E+00    0.317E-01
DAV:  12    -0.932793958101E+01   -0.15417E-02   -0.79100E-04 33892   0.306E-01    0.187E-01
DAV:  13    -0.932808677114E+01   -0.14719E-03   -0.17117E-04 33902   0.139E-01    0.347E-02
DAV:  14    -0.932810191471E+01   -0.15144E-04   -0.10944E-05 28274   0.328E-02    0.240E-02
DAV:  15    -0.932811230320E+01   -0.10388E-04   -0.78322E-06 16982   0.282E-02    0.175E-02
DAV:  16    -0.932812142249E+01   -0.91193E-05   -0.37241E-05 37556   0.660E-02    0.492E-03
DAV:  17    -0.932812421244E+01   -0.27899E-05   -0.32067E-06 16234   0.186E-02    0.359E-03
DAV:  18    -0.932812456563E+01   -0.35318E-06   -0.74558E-07 15448   0.890E-03
   1 F= -.93281246E+01 E0= -.93282523E+01  d E =0.383292E-03  mag=    -0.0007
a= 3.41
 running on    1 total cores
 distrk:  each k-point on    1 cores,    1 groups
 distr:  one band on    1 cores,    1 groups
 using from now: INCAR     
 vasp.5.4.4.18Apr17-6-g9f103f2a35 (build May 20 2018 16:52:39) complex          
  
 POSCAR found type information on POSCAR  Fe
 POSCAR found :  1 types and       1 ions
 scaLAPACK will be used
 LDA part: xc-table for Ceperly-Alder, standard interpolation
 POSCAR, INCAR and KPOINTS ok, starting setup
 FFT: planning ...
 WAVECAR not read
 entering main loop
       N       E                     dE             d eps       ncg     rms          rms(c)
DAV:   1     0.668025191788E+01    0.66803E+01   -0.27731E+03 34174   0.588E+02
DAV:   2    -0.993099161784E+01   -0.16611E+02   -0.15500E+02 31336   0.982E+01
DAV:   3    -0.101267229727E+02   -0.19573E+00   -0.19473E+00 33722   0.127E+01
DAV:   4    -0.101273370282E+02   -0.61406E-03   -0.61402E-03 32560   0.672E-01
DAV:   5    -0.101273410295E+02   -0.40012E-05   -0.40012E-05 33124   0.526E-02    0.111E+01
DAV:   6    -0.934856735468E+01    0.77877E+00   -0.10807E+01 33584   0.465E+01    0.129E+00
DAV:   7    -0.931450792258E+01    0.34059E-01   -0.36716E-01 33932   0.800E+00    0.141E+00
DAV:   8    -0.931170303977E+01    0.28049E-02   -0.52696E-02 37270   0.207E+00    0.293E-01
DAV:   9    -0.931450486400E+01   -0.28018E-02   -0.57778E-03 38118   0.675E-01    0.405E-01
DAV:  10    -0.931511233408E+01   -0.60747E-03   -0.55092E-04 36312   0.203E-01    0.432E-01
DAV:  11    -0.931405947451E+01    0.10529E-02   -0.71576E-04 34134   0.346E-01    0.476E-01
DAV:  12    -0.931006654055E+01    0.39929E-02   -0.17124E-03 38144   0.373E-01    0.564E-01
DAV:  13    -0.930328256628E+01    0.67840E-02   -0.46764E-03 34712   0.767E-01    0.748E-01
DAV:  14    -0.929842401808E+01    0.48585E-02   -0.21374E-03 38268   0.460E-01    0.852E-01
DAV:  15    -0.931526546758E+01   -0.16841E-01   -0.48027E-02 34588   0.246E+00    0.109E-01
DAV:  16    -0.931794063769E+01   -0.26752E-02   -0.10487E-02 40906   0.929E-01    0.158E-01
DAV:  17    -0.931869427417E+01   -0.75364E-03   -0.15939E-03 34152   0.326E-01    0.126E-01
DAV:  18    -0.931858620081E+01    0.10807E-03   -0.32405E-03 34034   0.669E-01    0.148E-01
DAV:  19    -0.931884030550E+01   -0.25410E-03   -0.23563E-04 33872   0.150E-01    0.106E-01
DAV:  20    -0.931886227402E+01   -0.21969E-04   -0.21926E-05 32642   0.579E-02    0.878E-02
DAV:  21    -0.931899055709E+01   -0.12828E-03   -0.80219E-04 34698   0.317E-01    0.322E-02
DAV:  22    -0.931903708764E+01   -0.46531E-04   -0.11942E-04 36050   0.972E-02    0.250E-02
DAV:  23    -0.931905293549E+01   -0.15848E-04   -0.14134E-05 30870   0.446E-02    0.465E-03
DAV:  24    -0.931905255857E+01    0.37692E-06   -0.57686E-07 15546   0.837E-03
   1 F= -.93190526E+01 E0= -.93191901E+01  d E =0.412499E-03  mag=    -0.0021
a= 3.43
 running on    1 total cores
 distrk:  each k-point on    1 cores,    1 groups
 distr:  one band on    1 cores,    1 groups
 using from now: INCAR     
 vasp.5.4.4.18Apr17-6-g9f103f2a35 (build May 20 2018 16:52:39) complex          
  
 POSCAR found type information on POSCAR  Fe
 POSCAR found :  1 types and       1 ions
 scaLAPACK will be used
 LDA part: xc-table for Ceperly-Alder, standard interpolation
 POSCAR, INCAR and KPOINTS ok, starting setup
 FFT: planning ...
 WAVECAR not read
 entering main loop
       N       E                     dE             d eps       ncg     rms          rms(c)
DAV:   1     0.681543100088E+01    0.68154E+01   -0.27615E+03 33986   0.585E+02
DAV:   2    -0.994483675314E+01   -0.16760E+02   -0.15645E+02 31340   0.982E+01
DAV:   3    -0.101494151921E+02   -0.20458E+00   -0.20390E+00 33944   0.131E+01
DAV:   4    -0.101500425749E+02   -0.62738E-03   -0.62734E-03 32614   0.684E-01
DAV:   5    -0.101500466286E+02   -0.40537E-05   -0.40539E-05 33042   0.536E-02    0.110E+01
DAV:   6    -0.934099848573E+01    0.80905E+00   -0.11261E+01 33580   0.472E+01    0.132E+00
DAV:   7    -0.929933412488E+01    0.41664E-01   -0.41930E-01 33934   0.861E+00    0.139E+00
DAV:   8    -0.929560924897E+01    0.37249E-02   -0.56513E-02 37424   0.212E+00    0.288E-01
DAV:   9    -0.929859125450E+01   -0.29820E-02   -0.54838E-03 38088   0.656E-01    0.429E-01
DAV:  10    -0.929866101672E+01   -0.69762E-04   -0.45453E-04 35622   0.209E-01    0.485E-01
DAV:  11    -0.929981605316E+01   -0.11550E-02   -0.13986E-03 36970   0.382E-01    0.430E-01
DAV:  12    -0.930122500487E+01   -0.14090E-02   -0.10640E-03 34190   0.395E-01    0.286E-01
DAV:  13    -0.930178794771E+01   -0.56294E-03   -0.32731E-04 37756   0.170E-01    0.267E-01
DAV:  14    -0.930194864918E+01   -0.16070E-03   -0.48155E-05 36546   0.578E-02    0.269E-01
DAV:  15    -0.930147930853E+01    0.46934E-03   -0.83445E-05 34064   0.107E-01    0.306E-01
DAV:  16    -0.930350162202E+01   -0.20223E-02   -0.42075E-03 34384   0.742E-01    0.754E-02
DAV:  17    -0.930393501130E+01   -0.43339E-03   -0.56048E-04 36086   0.195E-01    0.800E-02
DAV:  18    -0.930395505336E+01   -0.20042E-04   -0.49553E-05 33796   0.677E-02    0.993E-02
DAV:  19    -0.930396994999E+01   -0.14897E-04   -0.34001E-06 16022   0.154E-02    0.992E-02
DAV:  20    -0.930399766263E+01   -0.27713E-04   -0.43255E-06 16024   0.214E-02    0.944E-02
DAV:  21    -0.930396091489E+01    0.36748E-04   -0.42713E-06 16690   0.253E-02    0.103E-01
DAV:  22    -0.930396626732E+01   -0.53524E-05   -0.21970E-07 15428   0.531E-03    0.101E-01
DAV:  23    -0.930400988209E+01   -0.43615E-04   -0.65458E-06 16816   0.293E-02    0.912E-02
DAV:  24    -0.930410519062E+01   -0.95309E-04   -0.48752E-05 38764   0.762E-02    0.698E-02
DAV:  25    -0.930418649567E+01   -0.81305E-04   -0.69414E-05 34602   0.879E-02    0.488E-02
DAV:  26    -0.930424254921E+01   -0.56054E-04   -0.67466E-05 34984   0.844E-02    0.310E-02
DAV:  27    -0.930427134147E+01   -0.28792E-04   -0.38668E-05 34440   0.612E-02    0.203E-02
DAV:  28    -0.930428514179E+01   -0.13800E-04   -0.19078E-05 26758   0.423E-02    0.136E-02
DAV:  29    -0.930429253070E+01   -0.73889E-05   -0.13891E-05 26930   0.373E-02    0.661E-03
DAV:  30    -0.930429517680E+01   -0.26461E-05   -0.39668E-06 16432   0.177E-02    0.483E-03
DAV:  31    -0.930429636382E+01   -0.11870E-05   -0.51239E-06 15996   0.229E-02    0.181E-03
DAV:  32    -0.930429685406E+01   -0.49024E-06   -0.62190E-07 15512   0.709E-03
   1 F= -.93042969E+01 E0= -.93044404E+01  d E =0.430558E-03  mag=     0.0011
a= 3.45
 running on    1 total cores
 distrk:  each k-point on    1 cores,    1 groups
 distr:  one band on    1 cores,    1 groups
 using from now: INCAR     
 vasp.5.4.4.18Apr17-6-g9f103f2a35 (build May 20 2018 16:52:39) complex          
  
 POSCAR found type information on POSCAR  Fe
 POSCAR found :  1 types and       1 ions
 scaLAPACK will be used
 LDA part: xc-table for Ceperly-Alder, standard interpolation
 POSCAR, INCAR and KPOINTS ok, starting setup
 FFT: planning ...
 WAVECAR not read
 entering main loop
       N       E                     dE             d eps       ncg     rms          rms(c)
DAV:   1     0.706835988382E+01    0.70684E+01   -0.27508E+03 33924   0.580E+02
DAV:   2    -0.996306372097E+01   -0.17031E+02   -0.15846E+02 31296   0.983E+01
DAV:   3    -0.101657697930E+02   -0.20271E+00   -0.20173E+00 33874   0.130E+01
DAV:   4    -0.101664123526E+02   -0.64256E-03   -0.64251E-03 32602   0.694E-01
DAV:   5    -0.101664166847E+02   -0.43321E-05   -0.43323E-05 33032   0.552E-02    0.109E+01
DAV:   6    -0.932947599457E+01    0.83694E+00   -0.11712E+01 33598   0.479E+01    0.137E+00
DAV:   7    -0.927948705868E+01    0.49989E-01   -0.47809E-01 33952   0.923E+00    0.136E+00
DAV:   8    -0.927437155632E+01    0.51155E-02   -0.58118E-02 37590   0.213E+00    0.279E-01
DAV:   9    -0.927735970163E+01   -0.29881E-02   -0.50218E-03 38292   0.624E-01    0.440E-01
DAV:  10    -0.927707423707E+01    0.28546E-03   -0.45134E-04 34568   0.220E-01    0.505E-01
DAV:  11    -0.927881506095E+01   -0.17408E-02   -0.17351E-03 36428   0.448E-01    0.434E-01
DAV:  12    -0.928117729713E+01   -0.23622E-02   -0.31469E-03 34330   0.659E-01    0.244E-01
DAV:  13    -0.928176425994E+01   -0.58696E-03   -0.56955E-04 38228   0.211E-01    0.244E-01
DAV:  14    -0.928181011772E+01   -0.45858E-04   -0.47473E-05 36356   0.594E-02    0.257E-01
DAV:  15    -0.928059136362E+01    0.12188E-02   -0.55109E-04 34482   0.262E-01    0.323E-01
DAV:  16    -0.928002840114E+01    0.56296E-03   -0.21775E-04 38340   0.144E-01    0.345E-01
DAV:  17    -0.927643795129E+01    0.35904E-02   -0.28114E-03 34534   0.584E-01    0.487E-01
DAV:  18    -0.927667470280E+01   -0.23675E-03   -0.26324E-04 34664   0.145E-01    0.454E-01
DAV:  19    -0.927969260956E+01   -0.30179E-02   -0.20969E-03 34362   0.524E-01    0.304E-01
DAV:  20    -0.928010258149E+01   -0.40997E-03   -0.23039E-04 35564   0.128E-01    0.312E-01
DAV:  21    -0.928017270445E+01   -0.70123E-04   -0.24894E-05 31216   0.415E-02    0.319E-01
DAV:  22    -0.928036332196E+01   -0.19062E-03   -0.18288E-05 27198   0.444E-02    0.311E-01
DAV:  23    -0.928024914573E+01    0.11418E-03   -0.48895E-06 17956   0.261E-02    0.320E-01
DAV:  24    -0.928182340990E+01   -0.15743E-02   -0.12013E-03 34336   0.390E-01    0.214E-01
DAV:  25    -0.928290923571E+01   -0.10858E-02   -0.13396E-03 35442   0.383E-01    0.140E-01
DAV:  26    -0.928353887926E+01   -0.62964E-03   -0.91259E-04 36558   0.303E-01    0.939E-02
DAV:  27    -0.928363228380E+01   -0.93405E-04   -0.10988E-04 34876   0.916E-02    0.113E-01
DAV:  28    -0.928348062145E+01    0.15166E-03   -0.46559E-05 34036   0.801E-02    0.140E-01
DAV:  29    -0.928359117407E+01   -0.11055E-03   -0.22162E-05 31738   0.553E-02    0.122E-01
DAV:  30    -0.928356002354E+01    0.31151E-04   -0.23733E-06 15424   0.183E-02    0.129E-01
DAV:  31    -0.928356152884E+01   -0.15053E-05   -0.38086E-08 15420   0.226E-03    0.128E-01
DAV:  32    -0.928360092861E+01   -0.39400E-04   -0.33581E-06 15404   0.206E-02    0.122E-01
DAV:  33    -0.928358734678E+01    0.13582E-04   -0.49537E-07 15406   0.858E-03    0.126E-01
DAV:  34    -0.928365827490E+01   -0.70928E-04   -0.11625E-05 24054   0.387E-02    0.115E-01
DAV:  35    -0.928394136986E+01   -0.28309E-03   -0.37236E-04 35120   0.215E-01    0.597E-02
DAV:  36    -0.928405215712E+01   -0.11079E-03   -0.13750E-04 40050   0.111E-01    0.473E-02
DAV:  37    -0.928414325227E+01   -0.91095E-04   -0.25378E-04 34362   0.169E-01    0.161E-02
DAV:  38    -0.928417830816E+01   -0.35056E-04   -0.59785E-05 36520   0.661E-02    0.127E-02
DAV:  39    -0.928419085227E+01   -0.12544E-04   -0.31571E-05 29214   0.553E-02    0.583E-03
DAV:  40    -0.928419546216E+01   -0.46099E-05   -0.16992E-05 29596   0.399E-02    0.380E-03
DAV:  41    -0.928419722027E+01   -0.17581E-05   -0.20096E-06 15748   0.128E-02    0.221E-03
DAV:  42    -0.928419748240E+01   -0.26213E-06   -0.57443E-07 15408   0.732E-03
   1 F= -.92841975E+01 E0= -.92843407E+01  d E =0.429553E-03  mag=     0.0007
