a= 3.15
 running on    1 total cores
 distrk:  each k-point on    1 cores,    1 groups
 distr:  one band on    1 cores,    1 groups
 using from now: INCAR     
 vasp.5.4.4.18Apr17-6-g9f103f2a35 (build May 20 2018 16:52:39) complex          
  
 POSCAR found type information on POSCAR  Fe
 POSCAR found :  1 types and       1 ions
 scaLAPACK will be used
 LDA part: xc-table for Ceperly-Alder, standard interpolation
 POSCAR, INCAR and KPOINTS ok, starting setup
 FFT: planning ...
 WAVECAR not read
 entering main loop
       N       E                     dE             d eps       ncg     rms          rms(c)
DAV:   1     0.669262079069E+01    0.66926E+01   -0.27818E+03111354   0.624E+02
DAV:   2    -0.889679653939E+01   -0.15589E+02   -0.14624E+02101298   0.991E+01
DAV:   3    -0.905935821911E+01   -0.16256E+00   -0.16212E+00106760   0.118E+01
DAV:   4    -0.905977529559E+01   -0.41708E-03   -0.41705E-03105390   0.560E-01
DAV:   5    -0.905977731656E+01   -0.20210E-05   -0.20214E-05106262   0.380E-02    0.122E+01
DAV:   6    -0.885565119576E+01    0.20413E+00   -0.51737E+00106732   0.344E+01    0.192E+00
DAV:   7    -0.883721450120E+01    0.18437E-01   -0.16530E-01116940   0.495E+00    0.111E+00
DAV:   8    -0.882806495461E+01    0.91495E-02   -0.39482E-03104198   0.635E-01    0.328E-01
DAV:   9    -0.882274518836E+01    0.53198E-02   -0.14923E-03114272   0.375E-01    0.170E-01
DAV:  10    -0.882052923379E+01    0.22160E-02   -0.15318E-03112308   0.397E-01    0.155E-01
DAV:  11    -0.882055874136E+01   -0.29508E-04   -0.11210E-04109760   0.144E-01    0.557E-02
DAV:  12    -0.882056459822E+01   -0.58569E-05   -0.40445E-06104368   0.220E-02    0.940E-03
DAV:  13    -0.882056391925E+01    0.67897E-06   -0.86248E-07 52006   0.111E-02
   1 F= -.88205639E+01 E0= -.88205723E+01  d E =0.252903E-04  mag=    -0.0004
a= 3.16
 running on    1 total cores
 distrk:  each k-point on    1 cores,    1 groups
 distr:  one band on    1 cores,    1 groups
 using from now: INCAR     
 vasp.5.4.4.18Apr17-6-g9f103f2a35 (build May 20 2018 16:52:39) complex          
  
 POSCAR found type information on POSCAR  Fe
 POSCAR found :  1 types and       1 ions
 scaLAPACK will be used
 LDA part: xc-table for Ceperly-Alder, standard interpolation
 POSCAR, INCAR and KPOINTS ok, starting setup
 FFT: planning ...
 WAVECAR not read
 entering main loop
       N       E                     dE             d eps       ncg     rms          rms(c)
DAV:   1     0.662819817775E+01    0.66282E+01   -0.27785E+03111440   0.622E+02
DAV:   2    -0.897091978495E+01   -0.15599E+02   -0.14590E+02101238   0.988E+01
DAV:   3    -0.913383348494E+01   -0.16291E+00   -0.16242E+00107036   0.118E+01
DAV:   4    -0.913425084473E+01   -0.41736E-03   -0.41733E-03105182   0.561E-01
DAV:   5    -0.913425289029E+01   -0.20456E-05   -0.20462E-05106460   0.383E-02    0.122E+01
DAV:   6    -0.890336453116E+01    0.23089E+00   -0.53678E+00106754   0.350E+01    0.189E+00
DAV:   7    -0.888728358580E+01    0.16081E-01   -0.16152E-01116298   0.489E+00    0.112E+00
DAV:   8    -0.887821102589E+01    0.90726E-02   -0.38122E-03103946   0.601E-01    0.326E-01
DAV:   9    -0.887311366108E+01    0.50974E-02   -0.16503E-03115266   0.395E-01    0.168E-01
DAV:  10    -0.887107338272E+01    0.20403E-02   -0.14974E-03113374   0.395E-01    0.154E-01
DAV:  11    -0.887110805964E+01   -0.34677E-04   -0.10617E-04109536   0.139E-01    0.471E-02
DAV:  12    -0.887111431904E+01   -0.62594E-05   -0.37714E-06103278   0.199E-02    0.912E-03
DAV:  13    -0.887111373474E+01    0.58431E-06   -0.80020E-07 51658   0.111E-02
   1 F= -.88711137E+01 E0= -.88711282E+01  d E =0.433908E-04  mag=    -0.0003
a= 3.17
 running on    1 total cores
 distrk:  each k-point on    1 cores,    1 groups
 distr:  one band on    1 cores,    1 groups
 using from now: INCAR     
 vasp.5.4.4.18Apr17-6-g9f103f2a35 (build May 20 2018 16:52:39) complex          
  
 POSCAR found type information on POSCAR  Fe
 POSCAR found :  1 types and       1 ions
 scaLAPACK will be used
 LDA part: xc-table for Ceperly-Alder, standard interpolation
 POSCAR, INCAR and KPOINTS ok, starting setup
 FFT: planning ...
 WAVECAR not read
 entering main loop
       N       E                     dE             d eps       ncg     rms          rms(c)
DAV:   1     0.643042519378E+01    0.64304E+01   -0.27880E+03111728   0.621E+02
DAV:   2    -0.904013743799E+01   -0.15471E+02   -0.14529E+02101100   0.984E+01
DAV:   3    -0.920504020852E+01   -0.16490E+00   -0.16446E+00107030   0.118E+01
DAV:   4    -0.920548041493E+01   -0.44021E-03   -0.44017E-03105246   0.573E-01
DAV:   5    -0.920548263317E+01   -0.22182E-05   -0.22160E-05106384   0.395E-02    0.122E+01
DAV:   6    -0.894807851222E+01    0.25740E+00   -0.55645E+00106806   0.355E+01    0.186E+00
DAV:   7    -0.893413892534E+01    0.13940E-01   -0.15820E-01115988   0.483E+00    0.114E+00
DAV:   8    -0.892516219617E+01    0.89767E-02   -0.37664E-03103862   0.575E-01    0.324E-01
DAV:   9    -0.892031872607E+01    0.48435E-02   -0.18247E-03115410   0.416E-01    0.166E-01
DAV:  10    -0.891845676573E+01    0.18620E-02   -0.14747E-03113656   0.394E-01    0.152E-01
DAV:  11    -0.891849663328E+01   -0.39868E-04   -0.97269E-05109082   0.132E-01    0.361E-02
DAV:  12    -0.891850335086E+01   -0.67176E-05   -0.38452E-06 88094   0.189E-02    0.887E-03
DAV:  13    -0.891850283481E+01    0.51604E-06   -0.72373E-07 51366   0.107E-02
   1 F= -.89185028E+01 E0= -.89185230E+01  d E =0.605997E-04  mag=    -0.0003
a= 3.18
 running on    1 total cores
 distrk:  each k-point on    1 cores,    1 groups
 distr:  one band on    1 cores,    1 groups
 using from now: INCAR     
 vasp.5.4.4.18Apr17-6-g9f103f2a35 (build May 20 2018 16:52:39) complex          
  
 POSCAR found type information on POSCAR  Fe
 POSCAR found :  1 types and       1 ions
 scaLAPACK will be used
 LDA part: xc-table for Ceperly-Alder, standard interpolation
 POSCAR, INCAR and KPOINTS ok, starting setup
 FFT: planning ...
 WAVECAR not read
 entering main loop
       N       E                     dE             d eps       ncg     rms          rms(c)
DAV:   1     0.645688189147E+01    0.64569E+01   -0.27766E+03111792   0.620E+02
DAV:   2    -0.910677355810E+01   -0.15564E+02   -0.14596E+02101284   0.984E+01
DAV:   3    -0.927315094915E+01   -0.16638E+00   -0.16578E+00106870   0.118E+01
DAV:   4    -0.927359499295E+01   -0.44404E-03   -0.44401E-03105194   0.574E-01
DAV:   5    -0.927359722706E+01   -0.22341E-05   -0.22343E-05106352   0.398E-02    0.121E+01
DAV:   6    -0.898991486563E+01    0.28368E+00   -0.57637E+00106822   0.360E+01    0.182E+00
DAV:   7    -0.897790746969E+01    0.12007E-01   -0.15552E-01116018   0.477E+00    0.116E+00
DAV:   8    -0.896905306232E+01    0.88544E-02   -0.38208E-03104038   0.559E-01    0.321E-01
DAV:   9    -0.896449420466E+01    0.45589E-02   -0.20183E-03116902   0.439E-01    0.164E-01
DAV:  10    -0.896281216658E+01    0.16820E-02   -0.14626E-03113612   0.396E-01    0.150E-01
DAV:  11    -0.896285754446E+01   -0.45378E-04   -0.86840E-05108026   0.123E-01    0.249E-02
DAV:  12    -0.896286488350E+01   -0.73390E-05   -0.49136E-06 80536   0.211E-02    0.862E-03
DAV:  13    -0.896286437532E+01    0.50818E-06   -0.69431E-07 51256   0.116E-02
   1 F= -.89628644E+01 E0= -.89628901E+01  d E =0.771248E-04  mag=    -0.0002
a= 3.19
 running on    1 total cores
 distrk:  each k-point on    1 cores,    1 groups
 distr:  one band on    1 cores,    1 groups
 using from now: INCAR     
 vasp.5.4.4.18Apr17-6-g9f103f2a35 (build May 20 2018 16:52:39) complex          
  
 POSCAR found type information on POSCAR  Fe
 POSCAR found :  1 types and       1 ions
 scaLAPACK will be used
 LDA part: xc-table for Ceperly-Alder, standard interpolation
 POSCAR, INCAR and KPOINTS ok, starting setup
 FFT: planning ...
 WAVECAR not read
 entering main loop
       N       E                     dE             d eps       ncg     rms          rms(c)
DAV:   1     0.655973998996E+01    0.65597E+01   -0.27802E+03111146   0.617E+02
DAV:   2    -0.917137889382E+01   -0.15731E+02   -0.14728E+02101104   0.988E+01
DAV:   3    -0.933817656887E+01   -0.16680E+00   -0.16635E+00106900   0.119E+01
DAV:   4    -0.933862139083E+01   -0.44482E-03   -0.44479E-03105332   0.579E-01
DAV:   5    -0.933862367783E+01   -0.22870E-05   -0.22881E-05106318   0.405E-02    0.121E+01
DAV:   6    -0.902897108203E+01    0.30965E+00   -0.59650E+00106836   0.366E+01    0.179E+00
DAV:   7    -0.901866923328E+01    0.10302E-01   -0.15341E-01116396   0.472E+00    0.118E+00
DAV:   8    -0.900995843075E+01    0.87108E-02   -0.39851E-03104336   0.557E-01    0.319E-01
DAV:   9    -0.900571448778E+01    0.42439E-02   -0.22306E-03117786   0.462E-01    0.164E-01
DAV:  10    -0.900421280516E+01    0.15017E-02   -0.14623E-03114270   0.399E-01    0.146E-01
DAV:  11    -0.900426388327E+01   -0.51078E-04   -0.76825E-05107144   0.114E-01    0.199E-02
DAV:  12    -0.900427197317E+01   -0.80899E-05   -0.72140E-06 84514   0.290E-02    0.836E-03
DAV:  13    -0.900427143997E+01    0.53320E-06   -0.59141E-07 51998   0.117E-02
   1 F= -.90042714E+01 E0= -.90043020E+01  d E =0.917696E-04  mag=    -0.0001
a= 3.20
 running on    1 total cores
 distrk:  each k-point on    1 cores,    1 groups
 distr:  one band on    1 cores,    1 groups
 using from now: INCAR     
 vasp.5.4.4.18Apr17-6-g9f103f2a35 (build May 20 2018 16:52:39) complex          
  
 POSCAR found type information on POSCAR  Fe
 POSCAR found :  1 types and       1 ions
 scaLAPACK will be used
 LDA part: xc-table for Ceperly-Alder, standard interpolation
 POSCAR, INCAR and KPOINTS ok, starting setup
 FFT: planning ...
 WAVECAR not read
 entering main loop
       N       E                     dE             d eps       ncg     rms          rms(c)
DAV:   1     0.644984956389E+01    0.64498E+01   -0.27708E+03111220   0.615E+02
DAV:   2    -0.923413500200E+01   -0.15684E+02   -0.14704E+02101118   0.986E+01
DAV:   3    -0.940018139478E+01   -0.16605E+00   -0.16547E+00107106   0.119E+01
DAV:   4    -0.940064084893E+01   -0.45945E-03   -0.45942E-03105146   0.585E-01
DAV:   5    -0.940064323001E+01   -0.23811E-05   -0.23828E-05106366   0.411E-02    0.121E+01
DAV:   6    -0.906523302388E+01    0.33541E+00   -0.61688E+00106966   0.371E+01    0.176E+00
DAV:   7    -0.905643874542E+01    0.87943E-02   -0.15204E-01116594   0.466E+00    0.120E+00
DAV:   8    -0.904789851034E+01    0.85402E-02   -0.42737E-03109102   0.568E-01    0.316E-01
DAV:   9    -0.904399864622E+01    0.38999E-02   -0.24525E-03117546   0.485E-01    0.165E-01
DAV:  10    -0.904267638089E+01    0.13223E-02   -0.14747E-03115894   0.404E-01    0.142E-01
DAV:  11    -0.904273362648E+01   -0.57246E-04   -0.69650E-05107112   0.107E-01    0.258E-02
DAV:  12    -0.904274247857E+01   -0.88521E-05   -0.10297E-05 92282   0.377E-02    0.806E-03
DAV:  13    -0.904274186217E+01    0.61640E-06   -0.59687E-07 55426   0.120E-02
   1 F= -.90427419E+01 E0= -.90427774E+01  d E =0.106480E-03  mag=     0.0002
a= 3.21
 running on    1 total cores
 distrk:  each k-point on    1 cores,    1 groups
 distr:  one band on    1 cores,    1 groups
 using from now: INCAR     
 vasp.5.4.4.18Apr17-6-g9f103f2a35 (build May 20 2018 16:52:39) complex          
  
 POSCAR found type information on POSCAR  Fe
 POSCAR found :  1 types and       1 ions
 scaLAPACK will be used
 LDA part: xc-table for Ceperly-Alder, standard interpolation
 POSCAR, INCAR and KPOINTS ok, starting setup
 FFT: planning ...
 WAVECAR not read
 entering main loop
       N       E                     dE             d eps       ncg     rms          rms(c)
DAV:   1     0.640006352287E+01    0.64001E+01   -0.27773E+03111676   0.615E+02
DAV:   2    -0.928596582501E+01   -0.15686E+02   -0.14672E+02101248   0.981E+01
DAV:   3    -0.945928332869E+01   -0.17332E+00   -0.17281E+00107200   0.121E+01
DAV:   4    -0.945975848862E+01   -0.47516E-03   -0.47513E-03105264   0.593E-01
DAV:   5    -0.945976097437E+01   -0.24857E-05   -0.24866E-05106434   0.420E-02    0.120E+01
DAV:   6    -0.909897996953E+01    0.36078E+00   -0.63752E+00106988   0.376E+01    0.173E+00
DAV:   7    -0.909141235898E+01    0.75676E-02   -0.15143E-01116724   0.462E+00    0.122E+00
DAV:   8    -0.908306748977E+01    0.83449E-02   -0.47054E-03117136   0.595E-01    0.313E-01
DAV:   9    -0.907953812101E+01    0.35294E-02   -0.26738E-03117128   0.509E-01    0.166E-01
DAV:  10    -0.907839385423E+01    0.11443E-02   -0.14994E-03116994   0.410E-01    0.137E-01
DAV:  11    -0.907845816472E+01   -0.64310E-04   -0.67134E-05108740   0.102E-01    0.348E-02
DAV:  12    -0.907846757145E+01   -0.94067E-05   -0.13013E-05 94154   0.439E-02    0.784E-03
DAV:  13    -0.907846683885E+01    0.73260E-06   -0.76578E-07 56184   0.128E-02
   1 F= -.90784668E+01 E0= -.90785074E+01  d E =0.121743E-03  mag=     0.0004
a= 3.22
 running on    1 total cores
 distrk:  each k-point on    1 cores,    1 groups
 distr:  one band on    1 cores,    1 groups
 using from now: INCAR     
 vasp.5.4.4.18Apr17-6-g9f103f2a35 (build May 20 2018 16:52:39) complex          
  
 POSCAR found type information on POSCAR  Fe
 POSCAR found :  1 types and       1 ions
 scaLAPACK will be used
 LDA part: xc-table for Ceperly-Alder, standard interpolation
 POSCAR, INCAR and KPOINTS ok, starting setup
 FFT: planning ...
 WAVECAR not read
 entering main loop
       N       E                     dE             d eps       ncg     rms          rms(c)
DAV:   1     0.655622217064E+01    0.65562E+01   -0.27865E+03111230   0.617E+02
DAV:   2    -0.934181260407E+01   -0.15898E+02   -0.14873E+02101278   0.988E+01
DAV:   3    -0.951554646633E+01   -0.17373E+00   -0.17322E+00107320   0.121E+01
DAV:   4    -0.951602369081E+01   -0.47722E-03   -0.47719E-03105240   0.598E-01
DAV:   5    -0.951602624195E+01   -0.25511E-05   -0.25508E-05106438   0.427E-02    0.120E+01
DAV:   6    -0.913017295045E+01    0.38585E+00   -0.65832E+00107052   0.381E+01    0.170E+00
DAV:   7    -0.912367201793E+01    0.65009E-02   -0.15164E-01116160   0.458E+00    0.124E+00
DAV:   8    -0.911555013710E+01    0.81219E-02   -0.52905E-03117944   0.637E-01    0.309E-01
DAV:   9    -0.911241270929E+01    0.31374E-02   -0.29076E-03116886   0.531E-01    0.169E-01
DAV:  10    -0.911144415850E+01    0.96855E-03   -0.15322E-03117546   0.417E-01    0.131E-01
DAV:  11    -0.911151634521E+01   -0.72187E-04   -0.69263E-05109212   0.101E-01    0.398E-02
DAV:  12    -0.911152592262E+01   -0.95774E-05   -0.14190E-05 94118   0.460E-02    0.804E-03
DAV:  13    -0.911152508777E+01    0.83485E-06   -0.10063E-06 56102   0.136E-02
   1 F= -.91115251E+01 E0= -.91115710E+01  d E =0.137669E-03  mag=     0.0008
a= 3.23
 running on    1 total cores
 distrk:  each k-point on    1 cores,    1 groups
 distr:  one band on    1 cores,    1 groups
 using from now: INCAR     
 vasp.5.4.4.18Apr17-6-g9f103f2a35 (build May 20 2018 16:52:39) complex          
  
 POSCAR found type information on POSCAR  Fe
 POSCAR found :  1 types and       1 ions
 scaLAPACK will be used
 LDA part: xc-table for Ceperly-Alder, standard interpolation
 POSCAR, INCAR and KPOINTS ok, starting setup
 FFT: planning ...
 WAVECAR not read
 entering main loop
       N       E                     dE             d eps       ncg     rms          rms(c)
DAV:   1     0.641443239532E+01    0.64144E+01   -0.27850E+03111258   0.615E+02
DAV:   2    -0.939649462516E+01   -0.15811E+02   -0.14772E+02101026   0.983E+01
DAV:   3    -0.956902312892E+01   -0.17253E+00   -0.17196E+00107378   0.121E+01
DAV:   4    -0.956950099655E+01   -0.47787E-03   -0.47784E-03105200   0.599E-01
DAV:   5    -0.956950354383E+01   -0.25473E-05   -0.25476E-05106566   0.427E-02    0.119E+01
DAV:   6    -0.915890651990E+01    0.41060E+00   -0.67940E+00107154   0.386E+01    0.167E+00
DAV:   7    -0.915319919829E+01    0.57073E-02   -0.15262E-01115226   0.455E+00    0.126E+00
DAV:   8    -0.914532691032E+01    0.78723E-02   -0.60521E-03119564   0.690E-01    0.306E-01
DAV:   9    -0.914260007540E+01    0.27268E-02   -0.31410E-03117332   0.552E-01    0.172E-01
DAV:  10    -0.914180611068E+01    0.79396E-03   -0.15752E-03118694   0.425E-01    0.125E-01
DAV:  11    -0.914188727684E+01   -0.81166E-04   -0.75009E-05108920   0.102E-01    0.396E-02
DAV:  12    -0.914189670537E+01   -0.94285E-05   -0.13685E-05 91410   0.445E-02    0.897E-03
DAV:  13    -0.914189578159E+01    0.92378E-06   -0.11916E-06 56542   0.144E-02
   1 F= -.91418958E+01 E0= -.91419461E+01  d E =0.151065E-03  mag=     0.0010
a= 3.24
 running on    1 total cores
 distrk:  each k-point on    1 cores,    1 groups
 distr:  one band on    1 cores,    1 groups
 using from now: INCAR     
 vasp.5.4.4.18Apr17-6-g9f103f2a35 (build May 20 2018 16:52:39) complex          
  
 POSCAR found type information on POSCAR  Fe
 POSCAR found :  1 types and       1 ions
 scaLAPACK will be used
 LDA part: xc-table for Ceperly-Alder, standard interpolation
 POSCAR, INCAR and KPOINTS ok, starting setup
 FFT: planning ...
 WAVECAR not read
 entering main loop
       N       E                     dE             d eps       ncg     rms          rms(c)
DAV:   1     0.640811502353E+01    0.64081E+01   -0.27848E+03111218   0.613E+02
DAV:   2    -0.944795989693E+01   -0.15856E+02   -0.14838E+02101186   0.984E+01
DAV:   3    -0.961977871930E+01   -0.17182E+00   -0.17127E+00107672   0.121E+01
DAV:   4    -0.962025272001E+01   -0.47400E-03   -0.47397E-03105152   0.595E-01
DAV:   5    -0.962025530901E+01   -0.25890E-05   -0.25903E-05106494   0.429E-02    0.119E+01
DAV:   6    -0.918526459296E+01    0.43499E+00   -0.70068E+00107166   0.391E+01    0.164E+00
DAV:   7    -0.918011888655E+01    0.51457E-02   -0.15460E-01113732   0.454E+00    0.128E+00
DAV:   8    -0.917252863269E+01    0.75903E-02   -0.69994E-03120764   0.752E-01    0.303E-01
DAV:   9    -0.917022507973E+01    0.23036E-02   -0.33724E-03118052   0.570E-01    0.177E-01
DAV:  10    -0.916960541309E+01    0.61967E-03   -0.16247E-03120224   0.433E-01    0.117E-01
DAV:  11    -0.916969642789E+01   -0.91015E-04   -0.83304E-05108274   0.106E-01    0.347E-02
DAV:  12    -0.916970566129E+01   -0.92334E-05   -0.12225E-05 89026   0.404E-02    0.109E-02
DAV:  13    -0.916970466515E+01    0.99614E-06   -0.11965E-06 55874   0.149E-02
   1 F= -.91697047E+01 E0= -.91697604E+01  d E =0.167064E-03  mag=     0.0012
a= 3.25
 running on    1 total cores
 distrk:  each k-point on    1 cores,    1 groups
 distr:  one band on    1 cores,    1 groups
 using from now: INCAR     
 vasp.5.4.4.18Apr17-6-g9f103f2a35 (build May 20 2018 16:52:39) complex          
  
 POSCAR found type information on POSCAR  Fe
 POSCAR found :  1 types and       1 ions
 scaLAPACK will be used
 LDA part: xc-table for Ceperly-Alder, standard interpolation
 POSCAR, INCAR and KPOINTS ok, starting setup
 FFT: planning ...
 WAVECAR not read
 entering main loop
       N       E                     dE             d eps       ncg     rms          rms(c)
DAV:   1     0.656481995272E+01    0.65648E+01   -0.27736E+03110814   0.610E+02
DAV:   2    -0.948962467052E+01   -0.16054E+02   -0.15011E+02101146   0.987E+01
DAV:   3    -0.966789126902E+01   -0.17827E+00   -0.17784E+00107434   0.123E+01
DAV:   4    -0.966839331555E+01   -0.50205E-03   -0.50201E-03105212   0.613E-01
DAV:   5    -0.966839608749E+01   -0.27719E-05   -0.27718E-05106464   0.444E-02    0.119E+01
DAV:   6    -0.920945895398E+01    0.45894E+00   -0.72211E+00107232   0.396E+01    0.161E+00
DAV:   7    -0.920462855900E+01    0.48304E-02   -0.15750E-01112122   0.454E+00    0.130E+00
DAV:   8    -0.919734583882E+01    0.72827E-02   -0.81840E-03122360   0.827E-01    0.300E-01
DAV:   9    -0.919547362900E+01    0.18722E-02   -0.35937E-03118260   0.586E-01    0.183E-01
DAV:  10    -0.919502775561E+01    0.44587E-03   -0.16806E-03121370   0.442E-01    0.108E-01
DAV:  11    -0.919512938285E+01   -0.10163E-03   -0.93380E-05107682   0.110E-01    0.279E-02
DAV:  12    -0.919513855324E+01   -0.91704E-05   -0.10794E-05 87542   0.356E-02    0.138E-02
DAV:  13    -0.919513756656E+01    0.98668E-06   -0.11372E-06 54664   0.154E-02
   1 F= -.91951376E+01 E0= -.91951995E+01  d E =0.185847E-03  mag=     0.0014
