fcc Fe                                  
   3.35000000000000     
     0.000000    0.500848    0.500848
     0.500848   -0.000000    0.500848
     0.500848    0.500848    0.000000
   Fe
     1
Direct
 -0.000000  0.000000 -0.000000
 
   20   20   20
 0.78936932431E+02 0.74647194097E+02 0.63141353876E+02 0.47781035790E+02 0.32327662471E+02
 0.19597930854E+02 0.10942822344E+02 0.63231775436E+01 0.46088009873E+01 0.41037677206E+01
 0.39362567507E+01 0.41037677206E+01 0.46088009873E+01 0.63231775436E+01 0.10942822344E+02
 0.19597930854E+02 0.32327662471E+02 0.47781035790E+02 0.63141353876E+02 0.74647194097E+02
 0.74647194097E+02 0.66766475499E+02 0.53419155150E+02 0.38218255342E+02 0.24447969645E+02
 0.14143601944E+02 0.79087140575E+01 0.51117819090E+01 0.42657664714E+01 0.39449198838E+01
 0.39450372535E+01 0.42659129141E+01 0.51120072395E+01 0.79098770541E+01 0.14145990275E+02
 0.24449407455E+02 0.38215078572E+02 0.53410313692E+02 0.66756291336E+02 0.74642658404E+02
 0.63141353876E+02 0.53419155150E+02 0.40407970474E+02 0.27314332841E+02 0.16590710789E+02
 0.94231967947E+01 0.57286477219E+01 0.44170703975E+01 0.39691984952E+01 0.38142997048E+01
 0.39692872622E+01 0.44169469639E+01 0.57289490450E+01 0.94252175773E+01 0.16593912964E+02
 0.27315107871E+02 0.40402709147E+02 0.53409084758E+02 0.63133102931E+02 0.66756291336E+02
 0.47781035790E+02 0.38218255342E+02 0.27314332841E+02 0.17507376042E+02 0.10349588181E+02
 0.62496879949E+01 0.45683471244E+01 0.40020755995E+01 0.37258827466E+01 0.37259515978E+01
 0.40019406691E+01 0.45677143442E+01 0.62492674837E+01 0.10350469298E+02 0.17509347856E+02
 0.27315573571E+02 0.38217287487E+02 0.47778697456E+02 0.53409084758E+02 0.53410313692E+02
 0.32327662471E+02 0.24447969645E+02 0.16590710789E+02 0.10349588181E+02 0.64541433361E+01
 0.46720234202E+01 0.40309631550E+01 0.36785012810E+01 0.35603256607E+01 0.36787803623E+01
 0.40309466174E+01 0.46711365185E+01 0.64524973907E+01 0.10348161109E+02 0.16590737254E+02
 0.24449917472E+02 0.32330639759E+02 0.38217287487E+02 0.40402709147E+02 0.38215078572E+02
 0.19597930854E+02 0.14143601944E+02 0.94231967947E+01 0.62496879949E+01 0.46720234202E+01
 0.40425890845E+01 0.36603172608E+01 0.34699036791E+01 0.34701375849E+01 0.36610397718E+01
 0.40434943097E+01 0.46721313772E+01 0.62480559175E+01 0.94201578321E+01 0.14140845967E+02
 0.19596934743E+02 0.24449917472E+02 0.27315573571E+02 0.27315107871E+02 0.24449407455E+02
 0.10942822344E+02 0.79087140575E+01 0.57286477219E+01 0.45683471244E+01 0.40309631550E+01
 0.36603172608E+01 0.34419335318E+01 0.33720632055E+01 0.34420085032E+01 0.36612992516E+01
 0.40331738367E+01 0.45706114647E+01 0.57289723672E+01 0.79059945457E+01 0.10937835569E+02
 0.14140845967E+02 0.16590737254E+02 0.17509347856E+02 0.16593912964E+02 0.14145990275E+02
 0.63231775436E+01 0.51117819090E+01 0.44170703975E+01 0.40020755995E+01 0.36785012810E+01
 0.34699036791E+01 0.33720632055E+01 0.33715560895E+01 0.34689765612E+01 0.36785616959E+01
 0.40042579992E+01 0.44209371500E+01 0.51150128737E+01 0.63231127867E+01 0.79059945457E+01
 0.94201578321E+01 0.10348161109E+02 0.10350469298E+02 0.94252175773E+01 0.79098770541E+01
 0.46088009873E+01 0.42657664714E+01 0.39691984952E+01 0.37258827466E+01 0.35603256607E+01
 0.34701375849E+01 0.34420085032E+01 0.34689765612E+01 0.35580780698E+01 0.37237093797E+01
 0.39692118377E+01 0.42689713287E+01 0.46134691725E+01 0.51150128737E+01 0.57289723672E+01
 0.62480559175E+01 0.64524973907E+01 0.62492674837E+01 0.57289490450E+01 0.51120072395E+01
 0.41037677206E+01 0.39449198838E+01 0.38142997048E+01 0.37259515978E+01 0.36787803623E+01
 0.36610397718E+01 0.36612992516E+01 0.36785616959E+01 0.37237093797E+01 0.38103896643E+01
 0.39418434293E+01 0.41038077249E+01 0.42689713287E+01 0.44209371500E+01 0.45706114647E+01
 0.46721313772E+01 0.46711365185E+01 0.45677143442E+01 0.44169469639E+01 0.42659129141E+01
 0.39362567507E+01 0.39450372535E+01 0.39692872622E+01 0.40019406691E+01 0.40309466174E+01
 0.40434943097E+01 0.40331738367E+01 0.40042579992E+01 0.39692118377E+01 0.39418434293E+01
 0.39316514630E+01 0.39418434293E+01 0.39692118377E+01 0.40042579992E+01 0.40331738367E+01
 0.40434943097E+01 0.40309466174E+01 0.40019406691E+01 0.39692872622E+01 0.39450372535E+01
 0.41037677206E+01 0.42659129141E+01 0.44169469639E+01 0.45677143442E+01 0.46711365185E+01
 0.46721313772E+01 0.45706114647E+01 0.44209371500E+01 0.42689713287E+01 0.41038077249E+01
 0.39418434293E+01 0.38103896643E+01 0.37237093797E+01 0.36785616959E+01 0.36612992516E+01
 0.36610397718E+01 0.36787803623E+01 0.37259515978E+01 0.38142997048E+01 0.39449198838E+01
 0.46088009873E+01 0.51120072395E+01 0.57289490450E+01 0.62492674837E+01 0.64524973907E+01
 0.62480559175E+01 0.57289723672E+01 0.51150128737E+01 0.46134691725E+01 0.42689713287E+01
 0.39692118377E+01 0.37237093797E+01 0.35580780698E+01 0.34689765612E+01 0.34420085032E+01
 0.34701375849E+01 0.35603256607E+01 0.37258827466E+01 0.39691984952E+01 0.42657664714E+01
 0.63231775436E+01 0.79098770541E+01 0.94252175773E+01 0.10350469298E+02 0.10348161109E+02
 0.94201578321E+01 0.79059945457E+01 0.63231127867E+01 0.51150128737E+01 0.44209371500E+01
 0.40042579992E+01 0.36785616959E+01 0.34689765612E+01 0.33715560895E+01 0.33720632055E+01
 0.34699036791E+01 0.36785012810E+01 0.40020755995E+01 0.44170703975E+01 0.51117819090E+01
 0.10942822344E+02 0.14145990275E+02 0.16593912964E+02 0.17509347856E+02 0.16590737254E+02
 0.14140845967E+02 0.10937835569E+02 0.79059945457E+01 0.57289723672E+01 0.45706114647E+01
 0.40331738367E+01 0.36612992516E+01 0.34420085032E+01 0.33720632055E+01 0.34419335318E+01
 0.36603172608E+01 0.40309631550E+01 0.45683471244E+01 0.57286477219E+01 0.79087140575E+01
 0.19597930854E+02 0.24449407455E+02 0.27315107871E+02 0.27315573571E+02 0.24449917472E+02
 0.19596934743E+02 0.14140845967E+02 0.94201578321E+01 0.62480559175E+01 0.46721313772E+01
 0.40434943097E+01 0.36610397718E+01 0.34701375849E+01 0.34699036791E+01 0.36603172608E+01
 0.40425890845E+01 0.46720234202E+01 0.62496879949E+01 0.94231967947E+01 0.14143601944E+02
 0.32327662471E+02 0.38215078572E+02 0.40402709147E+02 0.38217287487E+02 0.32330639759E+02
 0.24449917472E+02 0.16590737254E+02 0.10348161109E+02 0.64524973907E+01 0.46711365185E+01
 0.40309466174E+01 0.36787803623E+01 0.35603256607E+01 0.36785012810E+01 0.40309631550E+01
 0.46720234202E+01 0.64541433361E+01 0.10349588181E+02 0.16590710789E+02 0.24447969645E+02
 0.47781035790E+02 0.53410313692E+02 0.53409084758E+02 0.47778697456E+02 0.38217287487E+02
 0.27315573571E+02 0.17509347856E+02 0.10350469298E+02 0.62492674837E+01 0.45677143442E+01
 0.40019406691E+01 0.37259515978E+01 0.37258827466E+01 0.40020755995E+01 0.45683471244E+01
 0.62496879949E+01 0.10349588181E+02 0.17507376042E+02 0.27314332841E+02 0.38218255342E+02
 0.63141353876E+02 0.66756291336E+02 0.63133102931E+02 0.53409084758E+02 0.40402709147E+02
 0.27315107871E+02 0.16593912964E+02 0.94252175773E+01 0.57289490450E+01 0.44169469639E+01
 0.39692872622E+01 0.38142997048E+01 0.39691984952E+01 0.44170703975E+01 0.57286477219E+01
 0.94231967947E+01 0.16590710789E+02 0.27314332841E+02 0.40407970474E+02 0.53419155150E+02
 0.74647194097E+02 0.74642658404E+02 0.66756291336E+02 0.53410313692E+02 0.38215078572E+02
 0.24449407455E+02 0.14145990275E+02 0.79098770541E+01 0.51120072395E+01 0.42659129141E+01
 0.39450372535E+01 0.39449198838E+01 0.42657664714E+01 0.51117819090E+01 0.79087140575E+01
 0.14143601944E+02 0.24447969645E+02 0.38218255342E+02 0.53419155150E+02 0.66766475499E+02
 0.74647194097E+02 0.66766475499E+02 0.53419155150E+02 0.38218255342E+02 0.24447969645E+02
 0.14143601944E+02 0.79087140575E+01 0.51117819090E+01 0.42657664714E+01 0.39449198838E+01
 0.39450372535E+01 0.42659129141E+01 0.51120072395E+01 0.79098770541E+01 0.14145990275E+02
 0.24449407455E+02 0.38215078572E+02 0.53410313692E+02 0.66756291336E+02 0.74642658404E+02
 0.66766475499E+02 0.56449251062E+02 0.42669738974E+02 0.28828383617E+02 0.17491077038E+02
 0.98803423835E+01 0.59136074191E+01 0.44860932320E+01 0.40237645364E+01 0.38650684888E+01
 0.40237909732E+01 0.44859619656E+01 0.59143123767E+01 0.98834119853E+01 0.17495305683E+02
 0.28828550010E+02 0.42661080556E+02 0.56433989068E+02 0.66754266956E+02 0.70606191729E+02
 0.53419155150E+02 0.42669738974E+02 0.30452656306E+02 0.19472911797E+02 0.11412229457E+02
 0.67146804375E+01 0.47323632229E+01 0.41029426848E+01 0.38134317993E+01 0.38134355521E+01
 0.41026276553E+01 0.47318058213E+01 0.67154152993E+01 0.11415489229E+02 0.19476699688E+02
 0.30452329163E+02 0.42662979585E+02 0.53409867099E+02 0.59760220442E+02 0.59764577848E+02
 0.38218255342E+02 0.28828383617E+02 0.19472911797E+02 0.11989574540E+02 0.72172068537E+01
 0.49479989866E+01 0.41679380549E+01 0.37902230324E+01 0.36613226701E+01 0.37903555274E+01
 0.41674381151E+01 0.49467664461E+01 0.72165045156E+01 0.11990757621E+02 0.19475722379E+02
 0.28831093051E+02 0.38219544086E+02 0.45257561803E+02 0.47878473307E+02 0.45257400487E+02
 0.24447969645E+02 0.17491077038E+02 0.11412229457E+02 0.72172068537E+01 0.50351732040E+01
 0.42053936703E+01 0.37856648233E+01 0.35708516687E+01 0.35711183774E+01 0.37860962179E+01
 0.42051569149E+01 0.50337117989E+01 0.72150327307E+01 0.11410981874E+02 0.17492391837E+02
 0.24451865451E+02 0.30634802630E+02 0.34291519997E+02 0.34289625765E+02 0.30630460815E+02
 0.14143601944E+02 0.98803423835E+01 0.67146804375E+01 0.49479989866E+01 0.42053936703E+01
 0.37863527569E+01 0.35312252745E+01 0.34488304351E+01 0.35315847777E+01 0.37873197437E+01
 0.42065338814E+01 0.49480219989E+01 0.67127727975E+01 0.98774269234E+01 0.14141640587E+02
 0.18577668455E+02 0.21951385954E+02 0.23212828361E+02 0.21950658963E+02 0.18577759840E+02
 0.79087140575E+01 0.59136074191E+01 0.47323632229E+01 0.41679380549E+01 0.37856648233E+01
 0.35312252745E+01 0.34105769496E+01 0.34103584599E+01 0.35312287237E+01 0.37870060075E+01
 0.41706125636E+01 0.47347881547E+01 0.59138401963E+01 0.79061004065E+01 0.10409878330E+02
 0.12746730248E+02 0.14161286052E+02 0.14162794745E+02 0.12750555570E+02 0.10414171719E+02
 0.51117819090E+01 0.44860932320E+01 0.41029426848E+01 0.37902230324E+01 0.35708516687E+01
 0.34488304351E+01 0.34103584599E+01 0.34478131162E+01 0.35696586915E+01 0.37902836220E+01
 0.41052942647E+01 0.44900819101E+01 0.51149768575E+01 0.61023828050E+01 0.72612794275E+01
 0.82059358270E+01 0.85713975609E+01 0.82087330383E+01 0.72640407007E+01 0.61022692468E+01
 0.42657664714E+01 0.40237645364E+01 0.38134317993E+01 0.36613226701E+01 0.35711183774E+01
 0.35315847777E+01 0.35312287237E+01 0.35696586915E+01 0.36586037064E+01 0.38109225864E+01
 0.40237778511E+01 0.42689744692E+01 0.45315963955E+01 0.48768125558E+01 0.52491827761E+01
 0.54964969910E+01 0.54965610191E+01 0.52484265998E+01 0.48738899059E+01 0.45271931480E+01
 0.39449198838E+01 0.38650684888E+01 0.38134355521E+01 0.37903555274E+01 0.37860962179E+01
 0.37873197437E+01 0.37870060075E+01 0.37902836220E+01 0.38109225864E+01 0.38610115072E+01
 0.39419229552E+01 0.40427177428E+01 0.41454125335E+01 0.42330204888E+01 0.43004165793E+01
 0.43272833449E+01 0.42981639226E+01 0.42295696108E+01 0.41427340502E+01 0.40427318997E+01
 0.39450372535E+01 0.40237909732E+01 0.41026276553E+01 0.41674381151E+01 0.42051569149E+01
 0.42065338814E+01 0.41706125636E+01 0.41052942647E+01 0.40237778511E+01 0.39419229552E+01
 0.38746394996E+01 0.38321385745E+01 0.38159124313E+01 0.38173814327E+01 0.38225963738E+01
 0.38216293001E+01 0.38157107833E+01 0.38159659916E+01 0.38350492246E+01 0.38790250625E+01
 0.42659129141E+01 0.44859619656E+01 0.47318058213E+01 0.49467664461E+01 0.50337117989E+01
 0.49480219989E+01 0.47347881547E+01 0.44900819101E+01 0.42689744692E+01 0.40427177428E+01
 0.38321385745E+01 0.36694784033E+01 0.35658693468E+01 0.35132349215E+01 0.34977374277E+01
 0.35135709917E+01 0.35675907207E+01 0.36726930220E+01 0.38349254567E+01 0.40427318997E+01
 0.51120072395E+01 0.59143123767E+01 0.67154152993E+01 0.72165045156E+01 0.72150327307E+01
 0.67127727975E+01 0.59138401963E+01 0.51149768575E+01 0.45315963955E+01 0.41454125335E+01
 0.38159124313E+01 0.35658693468E+01 0.34107157296E+01 0.33399981153E+01 0.33406179181E+01
 0.34123508563E+01 0.35675426289E+01 0.38158936118E+01 0.41426035899E+01 0.45271931480E+01
 0.79098770541E+01 0.98834119853E+01 0.11415489229E+02 0.11990757621E+02 0.11410981874E+02
 0.98774269234E+01 0.79061004065E+01 0.61023828050E+01 0.48768125558E+01 0.42330204888E+01
 0.38173814327E+01 0.35132349215E+01 0.33399981153E+01 0.32856317331E+01 0.33405410872E+01
 0.35132612159E+01 0.38157626368E+01 0.42298540252E+01 0.48739200808E+01 0.61022692468E+01
 0.14145990275E+02 0.17495305683E+02 0.19476699688E+02 0.19475722379E+02 0.17492391837E+02
 0.14141640587E+02 0.10409878330E+02 0.72612794275E+01 0.52491827761E+01 0.43004165793E+01
 0.38225963738E+01 0.34977374277E+01 0.33406179181E+01 0.33405410872E+01 0.34971357953E+01
 0.38210892851E+01 0.42987489834E+01 0.52490278532E+01 0.72636900514E+01 0.10414171719E+02
 0.24449407455E+02 0.28828550010E+02 0.30452329163E+02 0.28831093051E+02 0.24451865451E+02
 0.18577668455E+02 0.12746730248E+02 0.82059358270E+01 0.54964969910E+01 0.43272833449E+01
 0.38216293001E+01 0.35135709917E+01 0.34123508563E+01 0.35132612159E+01 0.38210892851E+01
 0.43271969373E+01 0.54978856234E+01 0.82087936214E+01 0.12749276649E+02 0.18577759840E+02
 0.38215078572E+02 0.42661080556E+02 0.42662979585E+02 0.38219544086E+02 0.30634802630E+02
 0.21951385954E+02 0.14161286052E+02 0.85713975609E+01 0.54965610191E+01 0.42981639226E+01
 0.38157107833E+01 0.35675907207E+01 0.35675426289E+01 0.38157626368E+01 0.42987489834E+01
 0.54978856234E+01 0.85728939560E+01 0.14161588408E+02 0.21949256073E+02 0.30630460815E+02
 0.53410313692E+02 0.56433989068E+02 0.53409867099E+02 0.45257561803E+02 0.34291519997E+02
 0.23212828361E+02 0.14162794745E+02 0.82087330383E+01 0.52484265998E+01 0.42295696108E+01
 0.38159659916E+01 0.36726930220E+01 0.38158936118E+01 0.42298540252E+01 0.52490278532E+01
 0.82087936214E+01 0.14161588408E+02 0.23210837023E+02 0.34290086620E+02 0.45257400487E+02
 0.66756291336E+02 0.66754266956E+02 0.59760220442E+02 0.47878473307E+02 0.34289625765E+02
 0.21950658963E+02 0.12750555570E+02 0.72640407007E+01 0.48738899059E+01 0.41427340502E+01
 0.38350492246E+01 0.38349254567E+01 0.41426035899E+01 0.48739200808E+01 0.72636900514E+01
 0.12749276649E+02 0.21949256073E+02 0.34290086620E+02 0.47881778673E+02 0.59764577848E+02
 0.74642658404E+02 0.70606191729E+02 0.59764577848E+02 0.45257400487E+02 0.30630460815E+02
 0.18577759840E+02 0.10414171719E+02 0.61022692468E+01 0.45271931480E+01 0.40427318997E+01
 0.38790250625E+01 0.40427318997E+01 0.45271931480E+01 0.61022692468E+01 0.10414171719E+02
 0.18577759840E+02 0.30630460815E+02 0.45257400487E+02 0.59764577848E+02 0.70606191729E+02
 0.63141353876E+02 0.53419155150E+02 0.40407970474E+02 0.27314332841E+02 0.16590710789E+02
 0.94231967947E+01 0.57286477219E+01 0.44170703975E+01 0.39691984952E+01 0.38142997048E+01
 0.39692872622E+01 0.44169469639E+01 0.57289490450E+01 0.94252175773E+01 0.16593912964E+02
 0.27315107871E+02 0.40402709147E+02 0.53409084758E+02 0.63133102931E+02 0.66756291336E+02
 0.53419155150E+02 0.42669738974E+02 0.30452656306E+02 0.19472911797E+02 0.11412229457E+02
 0.67146804375E+01 0.47323632229E+01 0.41029426848E+01 0.38134317993E+01 0.38134355521E+01
 0.41026276553E+01 0.47318058213E+01 0.67154152993E+01 0.11415489229E+02 0.19476699688E+02
 0.30452329163E+02 0.42662979585E+02 0.53409867099E+02 0.59760220442E+02 0.59764577848E+02
 0.40407970474E+02 0.30452656306E+02 0.20542183724E+02 0.12602711247E+02 0.75078523132E+01
 0.50546940689E+01 0.42153009908E+01 0.38297773463E+01 0.36972840182E+01 0.38297628894E+01
 0.42145396771E+01 0.50534276285E+01 0.75078622538E+01 0.12605344205E+02 0.20546260124E+02
 0.30455345821E+02 0.40407922026E+02 0.47880583246E+02 0.50666880254E+02 0.47881778673E+02
 0.27314332841E+02 0.19472911797E+02 0.12602711247E+02 0.78114142891E+01 0.52642699894E+01
 0.42926857581E+01 0.38537002159E+01 0.36265362631E+01 0.36267382428E+01 0.38537598234E+01
 0.42916366844E+01 0.52620746149E+01 0.78096096958E+01 0.12603558620E+02 0.19477596924E+02
 0.27321663661E+02 0.34296824679E+02 0.38428981462E+02 0.38426252390E+02 0.34290086620E+02
 0.16590710789E+02 0.11412229457E+02 0.75078523132E+01 0.52642699894E+01 0.43221159715E+01
 0.38712595823E+01 0.35931171689E+01 0.35025215252E+01 0.35934846880E+01 0.38716548905E+01
 0.43216273312E+01 0.52620930817E+01 0.75048136664E+01 0.11411094354E+02 0.16593878024E+02
 0.21955742555E+02 0.26029848311E+02 0.27552267167E+02 0.26024498590E+02 0.21949256073E+02
 0.94231967947E+01 0.67146804375E+01 0.50546940689E+01 0.42926857581E+01 0.38712595823E+01
 0.35840790840E+01 0.34464537401E+01 0.34464347124E+01 0.35844739534E+01 0.38724999357E+01
 0.42938872127E+01 0.50542354232E+01 0.67122469010E+01 0.94205319804E+01 0.12748346156E+02
 0.15820546829E+02 0.17671042232E+02 0.17670428025E+02 0.15819798194E+02 0.12749276649E+02
 0.57286477219E+01 0.47323632229E+01 0.42153009908E+01 0.38537002159E+01 0.35931171689E+01
 0.34464537401E+01 0.34002160659E+01 0.34459016640E+01 0.35931251831E+01 0.38552172915E+01
 0.42179158480E+01 0.47344313930E+01 0.57286126608E+01 0.72613518629E+01 0.90024294227E+01
 0.10393876894E+02 0.10926693494E+02 0.10396214101E+02 0.90057422045E+01 0.72636900514E+01
 0.44170703975E+01 0.41029426848E+01 0.38297773463E+01 0.36265362631E+01 0.35025215252E+01
 0.34464347124E+01 0.34459016640E+01 0.35011258265E+01 0.36251035852E+01 0.38297206772E+01
 0.41051768783E+01 0.44207242591E+01 0.48766627613E+01 0.55283814445E+01 0.62076434408E+01
 0.66456543398E+01 0.66466025002E+01 0.62092085266E+01 0.55281887163E+01 0.48739200808E+01
 0.39691984952E+01 0.38134317993E+01 0.36972840182E+01 0.36267382428E+01 0.35934846880E+01
 0.35844739534E+01 0.35931251831E+01 0.36251035852E+01 0.36943309802E+01 0.38109353737E+01
 0.39692547706E+01 0.41454010123E+01 0.43136129739E+01 0.44944230553E+01 0.46578065640E+01
 0.47251137982E+01 0.46568153477E+01 0.44919006367E+01 0.43099719493E+01 0.41426035899E+01
 0.38142997048E+01 0.38134355521E+01 0.38297628894E+01 0.38537598234E+01 0.38716548905E+01
 0.38724999357E+01 0.38552172915E+01 0.38297206772E+01 0.38109353737E+01 0.38105605573E+01
 0.38322836452E+01 0.38717954510E+01 0.39191151930E+01 0.39612479048E+01 0.39856034271E+01
 0.39845161768E+01 0.39587287702E+01 0.39169899822E+01 0.38718503320E+01 0.38349254567E+01
 0.39692872622E+01 0.41026276553E+01 0.42145396771E+01 0.42916366844E+01 0.43216273312E+01
 0.42938872127E+01 0.42179158480E+01 0.41051768783E+01 0.39692547706E+01 0.38322836452E+01
 0.37164260577E+01 0.36359493618E+01 0.35918836950E+01 0.35738652791E+01 0.35691878409E+01
 0.35730023016E+01 0.35918730841E+01 0.36381506584E+01 0.37200870115E+01 0.38350492246E+01
 0.44169469639E+01 0.47318058213E+01 0.50534276285E+01 0.52620746149E+01 0.52620930817E+01
 0.50542354232E+01 0.47344313930E+01 0.44207242591E+01 0.41454010123E+01 0.38717954510E+01
 0.36359493618E+01 0.34661897056E+01 0.33651256021E+01 0.33202980075E+01 0.33205464800E+01
 0.33662441156E+01 0.34684000854E+01 0.36380704924E+01 0.38718503320E+01 0.41427340502E+01
 0.57289490450E+01 0.67154152993E+01 0.75078622538E+01 0.78096096958E+01 0.75048136664E+01
 0.67122469010E+01 0.57286126608E+01 0.48766627613E+01 0.43136129739E+01 0.39191151930E+01
 0.35918836950E+01 0.33651256021E+01 0.32399166214E+01 0.32012115304E+01 0.32408164237E+01
 0.33662086552E+01 0.35918546758E+01 0.39169764768E+01 0.43099719493E+01 0.48738899059E+01
 0.94252175773E+01 0.11415489229E+02 0.12605344205E+02 0.12603558620E+02 0.11411094354E+02
 0.94205319804E+01 0.72613518629E+01 0.55283814445E+01 0.44944230553E+01 0.39612479048E+01
 0.35738652791E+01 0.33202980075E+01 0.32012115304E+01 0.32014075186E+01 0.33203504642E+01
 0.35728217550E+01 0.39590092475E+01 0.44922791325E+01 0.55281887163E+01 0.72640407007E+01
 0.16593912964E+02 0.19476699688E+02 0.20546260124E+02 0.19477596924E+02 0.16593878024E+02
 0.12748346156E+02 0.90024294227E+01 0.62076434408E+01 0.46578065640E+01 0.39856034271E+01
 0.35691878409E+01 0.33205464800E+01 0.32408164237E+01 0.33203504642E+01 0.35683476527E+01
 0.39844535534E+01 0.46578011122E+01 0.62097962331E+01 0.90057422045E+01 0.12750555570E+02
 0.27315107871E+02 0.30452329163E+02 0.30455345821E+02 0.27321663661E+02 0.21955742555E+02
 0.15820546829E+02 0.10393876894E+02 0.66456543398E+01 0.47251137982E+01 0.39845161768E+01
 0.35730023016E+01 0.33662441156E+01 0.33662086552E+01 0.35728217550E+01 0.39844535534E+01
 0.47261140180E+01 0.66481622177E+01 0.10396262840E+02 0.15819798194E+02 0.21950658963E+02
 0.40402709147E+02 0.42662979585E+02 0.40407922026E+02 0.34296824679E+02 0.26029848311E+02
 0.17671042232E+02 0.10926693494E+02 0.66466025002E+01 0.46568153477E+01 0.39587287702E+01
 0.35918730841E+01 0.34684000854E+01 0.35918546758E+01 0.39590092475E+01 0.46578011122E+01
 0.66481622177E+01 0.10927560825E+02 0.17669258356E+02 0.26024498590E+02 0.34289625765E+02
 0.53409084758E+02 0.53409867099E+02 0.47880583246E+02 0.38428981462E+02 0.27552267167E+02
 0.17670428025E+02 0.10396214101E+02 0.62092085266E+01 0.44919006367E+01 0.39169899822E+01
 0.36381506584E+01 0.36380704924E+01 0.39169764768E+01 0.44922791325E+01 0.62097962331E+01
 0.10396262840E+02 0.17669258356E+02 0.27549923156E+02 0.38426252390E+02 0.47878473307E+02
 0.63133102931E+02 0.59760220442E+02 0.50666880254E+02 0.38426252390E+02 0.26024498590E+02
 0.15819798194E+02 0.90057422045E+01 0.55281887163E+01 0.43099719493E+01 0.38718503320E+01
 0.37200870115E+01 0.38718503320E+01 0.43099719493E+01 0.55281887163E+01 0.90057422045E+01
 0.15819798194E+02 0.26024498590E+02 0.38426252390E+02 0.50666880254E+02 0.59760220442E+02
 0.66756291336E+02 0.59764577848E+02 0.47881778673E+02 0.34290086620E+02 0.21949256073E+02
 0.12749276649E+02 0.72636900514E+01 0.48739200808E+01 0.41426035899E+01 0.38349254567E+01
 0.38350492246E+01 0.41427340502E+01 0.48738899059E+01 0.72640407007E+01 0.12750555570E+02
 0.21950658963E+02 0.34289625765E+02 0.47878473307E+02 0.59760220442E+02 0.66754266956E+02
 0.47781035790E+02 0.38218255342E+02 0.27314332841E+02 0.17507376042E+02 0.10349588181E+02
 0.62496879949E+01 0.45683471244E+01 0.40020755995E+01 0.37258827466E+01 0.37259515978E+01
 0.40019406691E+01 0.45677143442E+01 0.62492674837E+01 0.10350469298E+02 0.17509347856E+02
 0.27315573571E+02 0.38217287487E+02 0.47778697456E+02 0.53409084758E+02 0.53410313692E+02
 0.38218255342E+02 0.28828383617E+02 0.19472911797E+02 0.11989574540E+02 0.72172068537E+01
 0.49479989866E+01 0.41679380549E+01 0.37902230324E+01 0.36613226701E+01 0.37903555274E+01
 0.41674381151E+01 0.49467664461E+01 0.72165045156E+01 0.11990757621E+02 0.19475722379E+02
 0.28831093051E+02 0.38219544086E+02 0.45257561803E+02 0.47878473307E+02 0.45257400487E+02
 0.27314332841E+02 0.19472911797E+02 0.12602711247E+02 0.78114142891E+01 0.52642699894E+01
 0.42926857581E+01 0.38537002159E+01 0.36265362631E+01 0.36267382428E+01 0.38537598234E+01
 0.42916366844E+01 0.52620746149E+01 0.78096096958E+01 0.12603558620E+02 0.19477596924E+02
 0.27321663661E+02 0.34296824679E+02 0.38428981462E+02 0.38426252390E+02 0.34290086620E+02
 0.17507376042E+02 0.11989574540E+02 0.78114142891E+01 0.53880860344E+01 0.43648902007E+01
 0.39011522103E+01 0.36153571341E+01 0.35219437407E+01 0.36156827839E+01 0.39012591939E+01
 0.43637111054E+01 0.53850430889E+01 0.78080389361E+01 0.11989430654E+02 0.17513045304E+02
 0.23220459279E+02 0.27557463026E+02 0.29178010532E+02 0.27549923156E+02 0.23210837023E+02
 0.10349588181E+02 0.72172068537E+01 0.52642699894E+01 0.43648902007E+01 0.39188137656E+01
 0.36149099497E+01 0.34683175723E+01 0.34684258450E+01 0.36154503494E+01 0.39195898418E+01
 0.43644476384E+01 0.52613210907E+01 0.72130731961E+01 0.10347945399E+02 0.14164683969E+02
 0.17674751981E+02 0.19785579861E+02 0.19782853309E+02 0.17669258356E+02 0.14161588408E+02
 0.62496879949E+01 0.49479989866E+01 0.42926857581E+01 0.39011522103E+01 0.36149099497E+01
 0.34524833332E+01 0.34013952386E+01 0.34524010517E+01 0.36156270681E+01 0.39027793432E+01
 0.42937481759E+01 0.49468946212E+01 0.62466627051E+01 0.82058035568E+01 0.10394831006E+02
 0.12128735909E+02 0.12789152153E+02 0.12128912194E+02 0.10396262840E+02 0.82087936214E+01
 0.45683471244E+01 0.41679380549E+01 0.38537002159E+01 0.36153571341E+01 0.34683175723E+01
 0.34013952386E+01 0.34009659249E+01 0.34675994819E+01 0.36155072938E+01 0.38553022000E+01
 0.41702840573E+01 0.45698417993E+01 0.52484284289E+01 0.62072800943E+01 0.71804483279E+01
 0.77977387307E+01 0.77989645798E+01 0.71832791714E+01 0.62097962331E+01 0.52490278532E+01
 0.40020755995E+01 0.37902230324E+01 0.36265362631E+01 0.35219437407E+01 0.34684258450E+01
 0.34524010517E+01 0.34675994819E+01 0.35204262608E+01 0.36251283756E+01 0.37902313340E+01
 0.40040652583E+01 0.42327243795E+01 0.44941182818E+01 0.48194212830E+01 0.51100108386E+01
 0.52280795243E+01 0.51107428724E+01 0.48194022732E+01 0.44922791325E+01 0.42298540252E+01
 0.37258827466E+01 0.36613226701E+01 0.36267382428E+01 0.36156827839E+01 0.36154503494E+01
 0.36156270681E+01 0.36155072938E+01 0.36251283756E+01 0.36585583601E+01 0.37237432978E+01
 0.38159429868E+01 0.39190593925E+01 0.40132015692E+01 0.40855428129E+01 0.41304608797E+01
 0.41298617160E+01 0.40837291382E+01 0.40105863146E+01 0.39169764768E+01 0.38158936118E+01
 0.37259515978E+01 0.37903555274E+01 0.38537598234E+01 0.39012591939E+01 0.39195898418E+01
 0.39027793432E+01 0.38553022000E+01 0.37902313340E+01 0.37237432978E+01 0.36696179798E+01
 0.36359866899E+01 0.36240005707E+01 0.36277922101E+01 0.36366848215E+01 0.36404451739E+01
 0.36353135739E+01 0.36263540620E+01 0.36240600226E+01 0.36380704924E+01 0.36726930220E+01
 0.40019406691E+01 0.41674381151E+01 0.42916366844E+01 0.43637111054E+01 0.43644476384E+01
 0.42937481759E+01 0.41702840573E+01 0.40040652583E+01 0.38159429868E+01 0.36359866899E+01
 0.34901163275E+01 0.33906781021E+01 0.33347177530E+01 0.33110062469E+01 0.33107660308E+01
 0.33347279594E+01 0.33920993694E+01 0.34927745306E+01 0.36381506584E+01 0.38159659916E+01
 0.45677143442E+01 0.49467664461E+01 0.52620746149E+01 0.53850430889E+01 0.52613210907E+01
 0.49468946212E+01 0.45698417993E+01 0.42327243795E+01 0.39190593925E+01 0.36240005707E+01
 0.33906781021E+01 0.32355451819E+01 0.31518834372E+01 0.31261879352E+01 0.31524390805E+01
 0.32368028793E+01 0.33920453144E+01 0.36240600226E+01 0.39169899822E+01 0.42295696108E+01
 0.62492674837E+01 0.72165045156E+01 0.78096096958E+01 0.78080389361E+01 0.72130731961E+01
 0.62466627051E+01 0.52484284289E+01 0.44941182818E+01 0.40132015692E+01 0.36277922101E+01
 0.33347177530E+01 0.31518834372E+01 0.30678897386E+01 0.30682084471E+01 0.31524640649E+01
 0.33346533244E+01 0.36263222049E+01 0.40105863146E+01 0.44919006367E+01 0.52484265998E+01
 0.10350469298E+02 0.11990757621E+02 0.12603558620E+02 0.11989430654E+02 0.10347945399E+02
 0.82058035568E+01 0.62072800943E+01 0.48194212830E+01 0.40855428129E+01 0.36366848215E+01
 0.33110062469E+01 0.31261879352E+01 0.30682084471E+01 0.31263437660E+01 0.33105170677E+01
 0.36352191282E+01 0.40840638294E+01 0.48194022732E+01 0.62092085266E+01 0.82087330383E+01
 0.17509347856E+02 0.19475722379E+02 0.19477596924E+02 0.17513045304E+02 0.14164683969E+02
 0.10394831006E+02 0.71804483279E+01 0.51100108386E+01 0.41304608797E+01 0.36404451739E+01
 0.33107660308E+01 0.31524390805E+01 0.31524640649E+01 0.33105170677E+01 0.36397694136E+01
 0.41303589152E+01 0.51116921138E+01 0.71832791714E+01 0.10396214101E+02 0.14162794745E+02
 0.27315573571E+02 0.28831093051E+02 0.27321663661E+02 0.23220459279E+02 0.17674751981E+02
 0.12128735909E+02 0.77977387307E+01 0.52280795243E+01 0.41298617160E+01 0.36353135739E+01
 0.33347279594E+01 0.32368028793E+01 0.33346533244E+01 0.36352191282E+01 0.41303589152E+01
 0.52298777880E+01 0.78000766987E+01 0.12128912194E+02 0.17670428025E+02 0.23212828361E+02
 0.38217287487E+02 0.38219544086E+02 0.34296824679E+02 0.27557463026E+02 0.19785579861E+02
 0.12789152153E+02 0.77989645798E+01 0.51107428724E+01 0.40837291382E+01 0.36263540620E+01
 0.33920993694E+01 0.33920453144E+01 0.36263222049E+01 0.40840638294E+01 0.51116921138E+01
 0.78000766987E+01 0.12789048747E+02 0.19782853309E+02 0.27552267167E+02 0.34291519997E+02
 0.47778697456E+02 0.45257561803E+02 0.38428981462E+02 0.29178010532E+02 0.19782853309E+02
 0.12128912194E+02 0.71832791714E+01 0.48194022732E+01 0.40105863146E+01 0.36240600226E+01
 0.34927745306E+01 0.36240600226E+01 0.40105863146E+01 0.48194022732E+01 0.71832791714E+01
 0.12128912194E+02 0.19782853309E+02 0.29178010532E+02 0.38428981462E+02 0.45257561803E+02
 0.53409084758E+02 0.47878473307E+02 0.38426252390E+02 0.27549923156E+02 0.17669258356E+02
 0.10396262840E+02 0.62097962331E+01 0.44922791325E+01 0.39169764768E+01 0.36380704924E+01
 0.36381506584E+01 0.39169899822E+01 0.44919006367E+01 0.62092085266E+01 0.10396214101E+02
 0.17670428025E+02 0.27552267167E+02 0.38428981462E+02 0.47880583246E+02 0.53409867099E+02
 0.53410313692E+02 0.45257400487E+02 0.34290086620E+02 0.23210837023E+02 0.14161588408E+02
 0.82087936214E+01 0.52490278532E+01 0.42298540252E+01 0.38158936118E+01 0.36726930220E+01
 0.38159659916E+01 0.42295696108E+01 0.52484265998E+01 0.82087330383E+01 0.14162794745E+02
 0.23212828361E+02 0.34291519997E+02 0.45257561803E+02 0.53409867099E+02 0.56433989068E+02
 0.32327662471E+02 0.24447969645E+02 0.16590710789E+02 0.10349588181E+02 0.64541433361E+01
 0.46720234202E+01 0.40309631550E+01 0.36785012810E+01 0.35603256607E+01 0.36787803623E+01
 0.40309466174E+01 0.46711365185E+01 0.64524973907E+01 0.10348161109E+02 0.16590737254E+02
 0.24449917472E+02 0.32330639759E+02 0.38217287487E+02 0.40402709147E+02 0.38215078572E+02
 0.24447969645E+02 0.17491077038E+02 0.11412229457E+02 0.72172068537E+01 0.50351732040E+01
 0.42053936703E+01 0.37856648233E+01 0.35708516687E+01 0.35711183774E+01 0.37860962179E+01