    1    1   50    1
  0.9398844E+01  0.2368808E-09  0.2368808E-09  0.2368808E-09  0.5000000E-15
  1.000000000000000E-004
  CAR 
 fcc Fe                                  
      8    770      8
 
  0.2500000E-01  0.2500000E-01  0.2500000E-01  0.2500000E-03
    1       -1.601206   1.000000
    2        5.737288   1.000000
    3        5.757884   1.000000
    4        5.757884   1.000000
    5        7.520635   0.799138
    6        7.520635   0.799138
    7       31.657667   0.000000
    8       37.260964   0.000000
 
  0.7500000E-01  0.2500000E-01  0.2500000E-01  0.7500000E-03
    1       -1.449445   1.000000
    2        5.672319   1.000000
    3        5.799871   1.000000
    4        5.812530   1.000000
    5        7.468411   0.938751
    6        7.522660   0.792416
    7       31.557195   0.000000
    8       35.882858   0.000000
 
  0.1250000E+00  0.2500000E-01  0.2500000E-01  0.7500000E-03
    1       -1.078737   1.000000
    2        5.537193   1.000000
    3        5.901777   1.000000
    4        5.917087   1.000000
    5        7.397310   1.025068
    6        7.508032   0.838904
    7       31.002589   0.000000
    8       33.990951   0.000000
 
  0.1750000E+00  0.2500000E-01  0.2500000E-01  0.7500000E-03
    1       -0.513948   1.000000
    2        5.362845   1.000000
    3        6.022908   1.000000
    4        6.025521   1.000000
    5        7.351793   1.035457
    6        7.517707   0.808698
    7       29.344056   0.000000
    8       32.993721   0.000000
 
  0.2250000E+00  0.2500000E-01  0.2500000E-01  0.7500000E-03
    1        0.195657   1.000000
    2        5.214342   1.000000
    3        6.078105   1.000000
    4        6.090371   1.000000
    5        7.401609   1.022683
    6        7.612645   0.434841
    7       27.059355   0.000000
    8       32.486559   0.000000
 
  0.2750000E+00  0.2500000E-01  0.2500000E-01  0.7500000E-03
    1        0.958253   1.000000
    2        5.188635   1.000000
    3        6.043583   1.000000
    4        6.059863   1.000000
    5        7.590843   0.526862
    6        7.820821  -0.033442
    7       24.691713   0.000000
    8       31.982983   0.000000
 
  0.3250000E+00  0.2500000E-01  0.2500000E-01  0.7500000E-03
    1        1.622526   1.000000
    2        5.414897   1.000000
    3        5.942606   1.000000
    4        5.957135   1.000000
    5        7.876245  -0.031945
    6        8.102700  -0.001023
    7       22.382230   0.000000
    8       31.424504   0.000000
 
  0.3750000E+00  0.2500000E-01  0.2500000E-01  0.7500000E-03
    1        2.043040   1.000000
    2        5.823143   1.000000
    3        5.836754   1.000000
    4        5.999719   1.000000
    5        8.190184  -0.000113
    6        8.403009  -0.000000
    7       20.262619   0.000000
    8       30.902507   0.000000
 
  0.4250000E+00  0.2500000E-01  0.2500000E-01  0.7500000E-03
    1        2.226527   1.000000
    2        5.716891   1.000000
    3        5.737004   1.000000
    4        6.811492   1.000000
    5        8.467251  -0.000000
    6        8.672466  -0.000000
    7       18.449277   0.000000
    8       30.489501   0.000000
 
  0.4750000E+00  0.2500000E-01  0.2500000E-01  0.7500000E-03
    1        2.282581   1.000000
    2        5.648189   1.000000
    3        5.675640   1.000000
    4        7.499604   0.863412
    5        8.659679  -0.000000
    6        8.879371  -0.000000
    7       17.177034   0.000000
    8       30.237291   0.000000
 
 -0.4750000E+00  0.2500000E-01  0.2500000E-01  0.7500000E-03
    1        2.291363   1.000000
    2        5.626493   1.000000
    3        5.662456   1.000000
    4        7.697354   0.129466
    5        8.733437  -0.000000
    6        8.930893  -0.000000
    7       16.816322   0.000000
    8       30.174544   0.000000
 
 -0.4250000E+00  0.2500000E-01  0.2500000E-01  0.7500000E-03
    1        2.271462   1.000000
    2        5.656985   1.000000
    3        5.699000   1.000000
    4        7.303412   1.029013
    5        8.677824  -0.000000
    6        8.754881  -0.000000
    7       17.516271   0.000000
    8       30.308508   0.000000
 
 -0.3750000E+00  0.2500000E-01  0.2500000E-01  0.7500000E-03
    1        2.184591   1.000000
    2        5.734052   1.000000
    3        5.779723   1.000000
    4        6.530076   1.000000
    5        8.463988  -0.000000
    6        8.509577  -0.000000
    7       19.005979   0.000000
    8       30.626277   0.000000
 
 -0.3250000E+00  0.2500000E-01  0.2500000E-01  0.7500000E-03
    1        1.932998   1.000000
    2        5.760999   1.000000
    3        5.852583   1.000000
    4        5.890831   1.000000
    5        8.136204  -0.000464
    6        8.259143  -0.000015
    7       20.943744   0.000000
    8       31.092957   0.000000
 
 -0.2750000E+00  0.2500000E-01  0.2500000E-01  0.7500000E-03
    1        1.422580   1.000000
    2        5.298501   1.000000
    3        5.971987   1.000000
    4        6.004855   1.000000
    5        7.805280  -0.028830
    6        7.975079  -0.011239
    7       23.132913   0.000000
    8       31.642925   0.000000
 
 -0.2250000E+00  0.2500000E-01  0.2500000E-01  0.7500000E-03
    1        0.706102   1.000000
    2        5.173435   1.000000
    3        6.064351   1.000000
    4        6.079649   1.000000
    5        7.530284   0.766323
    6        7.724124   0.065046
    7       25.474211   0.000000
    8       32.201831   0.000000
 
 -0.1750000E+00  0.2500000E-01  0.2500000E-01  0.7500000E-03
    1       -0.052541   1.000000
    2        5.253911   1.000000
    3        6.072113   1.000000
    4        6.078189   1.000000
    5        7.374762   1.033193
    6        7.563591   0.639991
    7       27.845198   0.000000
    8       32.696994   0.000000
 
 -0.1250000E+00  0.2500000E-01  0.2500000E-01  0.7500000E-03
    1       -0.721396   1.000000
    2        5.419386   1.000000
    3        5.986876   1.000000
    4        5.994223   1.000000
    5        7.356758   1.035377
    6        7.510758   0.830612
    7       30.013109   0.000000
    8       33.273461   0.000000
 
 -0.7500000E-01  0.2500000E-01  0.2500000E-01  0.7500000E-03
    1       -1.225460   1.000000
    2        5.586589   1.000000
    3        5.869756   1.000000
    4        5.878897   1.000000
    5        7.414234   1.013879
    6        7.520599   0.799257
    7       31.295801   0.000000
    8       34.597567   0.000000
 
 -0.2500000E-01  0.2500000E-01  0.2500000E-01  0.7500000E-03
    1       -1.525050   1.000000
    2        5.698600   1.000000
    3        5.784363   1.000000
    4        5.786509   1.000000
    5        7.480449   0.912581
    6        7.534184   0.752521
    7       31.618877   0.000000
    8       36.625744   0.000000
 
  0.7500000E-01  0.7500000E-01  0.2500000E-01  0.7500000E-03
    1       -1.374116   1.000000
    2        5.618415   1.000000
    3        5.841998   1.000000
    4        5.844030   1.000000
    5        7.403888   1.021297
    6        7.561264   0.649352
    7       31.545793   0.000000
    8       35.836793   0.000000
 
  0.1250000E+00  0.7500000E-01  0.2500000E-01  0.1500000E-02
    1       -1.077856   1.000000
    2        5.491023   1.000000
    3        5.935949   1.000000
    4        5.947560   1.000000
    5        7.300494   1.028380
    6        7.587972   0.538982
    7       31.281492   0.000000
    8       34.194802   0.000000
 
  0.1750000E+00  0.7500000E-01  0.2500000E-01  0.1500000E-02
    1       -0.579338   1.000000
    2        5.321225   1.000000
    3        6.051991   1.000000
    4        6.065537   1.000000
    5        7.212294   1.010125
    6        7.621225   0.399132
    7       30.107882   0.000000
    8       32.768936   0.000000
 
  0.2250000E+00  0.7500000E-01  0.2500000E-01  0.1500000E-02
    1        0.082614   1.000000
    2        5.152767   1.000000
    3        6.106676   1.000000
    4        6.161768   1.000000
    5        7.227017   1.012553
    6        7.715758   0.083237
    7       27.950750   0.000000
    8       32.154638   0.000000
 
  0.2750000E+00  0.7500000E-01  0.2500000E-01  0.1500000E-02
    1        0.834595   1.000000
    2        5.060140   1.000000
    3        6.051752   1.000000
    4        6.169698   1.000000
    5        7.416455   1.012033
    6        7.907015  -0.025420
    7       25.572161   0.000000
    8       31.687963   0.000000
 
  0.3250000E+00  0.7500000E-01  0.2500000E-01  0.1500000E-02
    1        1.546331   1.000000
    2        5.153989   1.000000
    3        5.917610   1.000000
    4        6.093234   1.000000
    5        7.748672   0.021673
    6        8.179718  -0.000151
    7       23.219448   0.000000
    8       31.189616   0.000000
 
  0.3750000E+00  0.7500000E-01  0.2500000E-01  0.1500000E-02
    1        2.053003   1.000000
    2        5.539619   1.000000
    3        5.781826   1.000000
    4        5.981457   1.000000
    5        8.138842  -0.000435
    6        8.501554  -0.000000
    7       21.014963   0.000000
    8       30.706540   0.000000
 
  0.4250000E+00  0.7500000E-01  0.2500000E-01  0.1500000E-02
    1        2.300585   1.000000
    2        5.618679   1.000000
    3        5.869314   1.000000
    4        6.227766   1.000000
    5        8.479929  -0.000000
    6        8.887672  -0.000000
    7       19.058857   0.000000
    8       30.297131   0.000000
 
  0.4750000E+00  0.7500000E-01  0.2500000E-01  0.1500000E-02
    1        2.384660   1.000000
    2        5.536575   1.000000
    3        5.787962   1.000000
    4        6.839697   1.000001
    5        8.674772  -0.000000
    6        9.340668  -0.000000
    7       17.539349   0.000000
    8       30.003488   0.000000
 
 -0.4750000E+00  0.7500000E-01  0.2500000E-01  0.1500000E-02
    1        2.404033   1.000000
    2        5.506186   1.000000
    3        5.747963   1.000000
    4        7.139202   1.002810
    5        8.720322  -0.000000
    6        9.640417  -0.000000
    7       16.817020   0.000000
    8       29.864346   0.000000
 
 -0.4250000E+00  0.7500000E-01  0.2500000E-01  0.1500000E-02
    1        2.396764   1.000000
    2        5.531856   1.000000
    3        5.760152   1.000000
    4        7.003750   1.000112
    5        8.631745  -0.000000
    6        9.526182  -0.000000
    7       17.192290   0.000000
    8       29.889006   0.000000
 
 -0.3750000E+00  0.7500000E-01  0.2500000E-01  0.1500000E-02
    1        2.343919   1.000000
    2        5.609302   1.000000
    3        5.819348   1.000000
    4        6.473797   1.000000
    5        8.414053  -0.000000
    6        9.150241  -0.000000
    7       18.493651   0.000000
    8       30.066196   0.000000
 
 -0.3250000E+00  0.7500000E-01  0.2500000E-01  0.1500000E-02
    1        2.165444   1.000000
    2        5.709381   1.000000
    3        5.806165   1.000000
    4        5.923754   1.000000
    5        8.101439  -0.001053
    6        8.754107  -0.000000
    7       20.331826   0.000000
    8       30.370169   0.000000
 
 -0.2750000E+00  0.7500000E-01  0.2500000E-01  0.1500000E-02
    1        1.748865   1.000000
    2        5.270449   1.000000
    3        5.880325   1.000000
    4        6.043218   1.000000
    5        7.750691   0.018747
    6        8.386085  -0.000000
    7       22.469732   0.000000
    8       30.766102   0.000000
 
 -0.2250000E+00  0.7500000E-01  0.2500000E-01  0.1500000E-02
    1        1.087428   1.000000
    2        5.080959   1.000000
    3        6.011739   1.000000
    4        6.146560   1.000000
    5        7.433233   0.994944
    6        8.056534  -0.002735
    7       24.781477   0.000000
    8       31.198152   0.000000
 
 -0.1750000E+00  0.7500000E-01  0.2500000E-01  0.1500000E-02
    1        0.329679   1.000000
    2        5.126525   1.000000
    3        6.087248   1.000000
    4        6.175187   1.000000
    5        7.235548   1.014117
    6        7.799396  -0.026232
    7       27.166738   0.000000
    8       31.650708   0.000000
 
 -0.1250000E+00  0.7500000E-01  0.2500000E-01  0.1500000E-02
    1       -0.373796   1.000000
    2        5.281285   1.000000
    3        6.068043   1.000000
    4        6.090811   1.000000
    5        7.209473   1.009699
    6        7.642547   0.313464
    7       29.444308   0.000000
    8       32.179517   0.000000
 
 -0.7500000E-01  0.7500000E-01  0.2500000E-01  0.1500000E-02
    1       -0.932865   1.000000
    2        5.459813   1.000000
    3        5.956139   1.000000
    4        5.976636   1.000000
    5        7.294772   1.027108
    6        7.576339   0.587722
    7       30.987120   0.000000
    8       33.322722   0.000000
 
 -0.2500000E-01  0.7500000E-01  0.2500000E-01  0.1500000E-02
    1       -1.299485   1.000000
    2        5.602644   1.000000
    3        5.850602   1.000000
    4        5.868058   1.000000
    5        7.403708   1.021409
    6        7.544967   0.712862
    7       31.445243   0.000000
    8       35.051257   0.000000
 
  0.1250000E+00  0.1250000E+00  0.2500000E-01  0.7500000E-03
    1       -0.860110   1.000000
    2        5.352845   1.000000
    3        6.047704   1.000000
    4        6.049134   1.000000
    5        7.159715   1.004167
    6        7.656518   0.260807
    7       31.333474   0.000000
    8       34.139529   0.000000
 
  0.1750000E+00  0.1250000E+00  0.2500000E-01  0.1500000E-02
    1       -0.439061   1.000000
    2        5.174355   1.000000
    3        6.171526   1.000000
    4        6.190026   1.000000
    5        7.032769   1.000244
    6        7.715902   0.082908
    7       30.815999   0.000000
    8       32.561792   0.000000
 
  0.2250000E+00  0.1250000E+00  0.2500000E-01  0.1500000E-02
    1        0.155174   1.000000
    2        4.988426   1.000000
    3        6.205033   1.000000
    4        6.320531   1.000000
    5        7.046485   1.000346
    6        7.812891  -0.031471
    7       28.966049   0.000000
    8       31.676504   0.000000
 
  0.2750000E+00  0.1250000E+00  0.2500000E-01  0.1500000E-02
    1        0.865741   1.000000
    2        4.842220   1.000000
    3        6.076389   1.000000
    4        6.372237   1.000000
    5        7.306375   1.029641
    6        7.989346  -0.009057
    7       26.587696   0.000000
    8       31.172264   0.000000
 
  0.3250000E+00  0.1250000E+00  0.2500000E-01  0.1500000E-02
    1        1.588874   1.000000
    2        4.817481   1.000000
    3        5.875200   1.000000
    4        6.332597   1.000000
    5        7.735889   0.042427
    6        8.252802  -0.000018
    7       24.201347   0.000000
    8       30.696139   0.000000
 
  0.3750000E+00  0.1250000E+00  0.2500000E-01  0.1500000E-02
    1        2.166025   1.000000
    2        5.002126   1.000000
    3        5.695453   1.000000
    4        6.238678   1.000000
    5        8.219968  -0.000049
    6        8.613148  -0.000000
    7       21.910044   0.000000
    8       30.228262   0.000000
 
  0.4250000E+00  0.1250000E+00  0.2500000E-01  0.1500000E-02
    1        2.486164   1.000000
    2        5.271265   1.000000
    3        5.718067   1.000000
    4        6.126028   1.000000
    5        8.555236  -0.000000
    6        9.191412  -0.000000
    7       19.816436   0.000000
    8       29.773504   0.000000
 
  0.4750000E+00  0.1250000E+00  0.2500000E-01  0.1500000E-02
    1        2.609219   1.000000
    2        5.265007   1.000000
    3        6.015653   1.000000
    4        6.145719   1.000000
    5        8.709513  -0.000000
    6        9.923769  -0.000000
    7       18.060795   0.000000
    8       29.375953   0.000000
 
 -0.4750000E+00  0.1250000E+00  0.2500000E-01  0.1500000E-02
    1        2.646772   1.000000
    2        5.233281   1.000000
    3        5.958857   1.000000
    4        6.470934   1.000000
    5        8.723476  -0.000000
    6       10.524481  -0.000000
    7       16.965504   0.000000
    8       29.062464   0.000000
 
 -0.4250000E+00  0.1250000E+00  0.2500000E-01  0.1500000E-02
    1        2.654967   1.000000
    2        5.259747   1.000000
    3        5.941723   1.000000
    4        6.499335   1.000000
    5        8.606268  -0.000000
    6       10.590633  -0.000000
    7       16.974537   0.000000
    8       28.859890   0.000000
 
 -0.3750000E+00  0.1250000E+00  0.2500000E-01  0.1500000E-02
    1        2.632968   1.000000
    2        5.347116   1.000000
    3        5.971493   1.000000
    4        6.190806   1.000000
    5        8.369484  -0.000000
    6       10.135761  -0.000000
    7       18.081682   0.000000
    8       28.768307   0.000000
 
 -0.3250000E+00  0.1250000E+00  0.2500000E-01  0.1500000E-02
    1        2.522499   1.000000
    2        5.470101   1.000000
    3        5.668297   1.000000
    4        6.061178   1.000000
    5        8.041299  -0.003680
    6        9.558225  -0.000000
    7       19.842301   0.000000
    8       28.802205   0.000000
 
 -0.2750000E+00  0.1250000E+00  0.2500000E-01  0.1500000E-02
    1        2.205363   1.000000
    2        5.143851   1.000000
    3        5.685605   1.000000
    4        6.177795   1.000000
    5        7.665620   0.228400
    6        9.030468  -0.000000
    7       21.933903   0.000000
    8       28.949630   0.000000
 
 -0.2250000E+00  0.1250000E+00  0.2500000E-01  0.1500000E-02
    1        1.618344   1.000000
    2        4.923857   1.000000
    3        5.864910   1.000000
    4        6.304000   1.000000
    5        7.303394   1.029009
    6        8.563442  -0.000000
    7       24.212817   0.000000
    8       29.193143   0.000000
 
 -0.1750000E+00  0.1250000E+00  0.2500000E-01  0.1500000E-02
    1        0.881148   1.000000
    2        4.946663   1.000000
    3        6.017211   1.000000
    4        6.369248   1.000000
    5        7.055580   1.000435
    6        8.168014  -0.000206
    7       26.591735   0.000000
    8       29.548685   0.000000
 
 -0.1250000E+00  0.1250000E+00  0.2500000E-01  0.1500000E-02
    1        0.160181   1.000000
    2        5.094782   1.000000
    3        6.092973   1.000000
    4        6.271073   1.000000
    5        7.036993   1.000272
    6        7.863855  -0.033898
    7       28.884447   0.000000
    8       30.085829   0.000000
 
 -0.7500000E-01  0.1250000E+00  0.2500000E-01  0.1500000E-02
    1       -0.439450   1.000000
    2        5.281726   1.000000
    3        6.068999   1.000000
    4        6.096532   1.000000
    5        7.165626   1.004646
    6        7.666760   0.224457
    7       30.098210   0.000000
    8       31.649256   0.000000
 
 -0.2500000E-01  0.1250000E+00  0.2500000E-01  0.1500000E-02
    1       -0.861947   1.000000
    2        5.447497   1.000000
    3        5.965435   1.000000
    4        5.979446   1.000000
    5        7.318563   1.032019
    6        7.550434   0.691992
    7       30.597102   0.000000
    8       33.367007   0.000000
 
  0.1750000E+00  0.1750000E+00  0.2500000E-01  0.7500000E-03
    1       -0.103748   1.000000
    2        4.980946   1.000000
    3        6.345011   1.000000
    4        6.354738   1.000000
    5        6.853400   1.000001
    6        7.795594  -0.024276
    7       31.054667   0.000000
    8       32.471858   0.000000
 
  0.2250000E+00  0.1750000E+00  0.2500000E-01  0.1500000E-02
    1        0.402042   1.000000
    2        4.773066   1.000000
    3        6.366828   1.000000
    4        6.540628   1.000000
    5        6.866878   1.000002
    6        7.888857  -0.029464
    7       30.050512   0.000000
    8       31.099714   0.000000
 
  0.2750000E+00  0.1750000E+00  0.2500000E-01  0.1500000E-02
    1        1.033891   1.000000
    2        4.589433   1.000000
    3        6.150585   1.000000
    4        6.649996   1.000000
    5        7.223904   1.012011
    6        8.049017  -0.003172
    7       27.704624   0.000000
    8       30.510653   0.000000
 
  0.3250000E+00  0.1750000E+00  0.2500000E-01  0.1500000E-02
    1        1.713886   1.000000
    2        4.480228   1.000000
    3        5.891658   1.000000
    4        6.655055   1.000000
    5        7.748265   0.022274
    6        8.300338  -0.000004
    7       25.282777   0.000000
    8       29.983054   0.000000
 
  0.3750000E+00  0.1750000E+00  0.2500000E-01  0.1500000E-02
    1        2.314558   1.000000
    2        4.508659   1.000000
    3        5.666932   1.000000
    4        6.583800   1.000000
    5        8.300211  -0.000004
    6        8.705010  -0.000000
    7       22.925532   0.000000
    8       29.455361   0.000000
 
  0.4250000E+00  0.1750000E+00  0.2500000E-01  0.1500000E-02
    1        2.703346   1.000000
    2        4.681868   1.000000
    3        5.562654   1.000000
    4        6.476880   1.000000
    5        8.609891  -0.000000
    6        9.467543  -0.000000
    7       20.720112   0.000000
    8       28.883405   0.000000
 
  0.4750000E+00  0.1750000E+00  0.2500000E-01  0.1500000E-02
    1        2.884465   1.000000
    2        4.808169   1.000000
    3        5.693897   1.000000
    4        6.369040   1.000000
    5        8.742031  -0.000000
    6       10.435163  -0.000000
    7       18.765983   0.000000
    8       28.293354   0.000000
 
 -0.4750000E+00  0.1750000E+00  0.2500000E-01  0.1500000E-02
    1        2.961324   1.000000
    2        4.830164   1.000000
    3        5.934201   1.000000
    4        6.281959   1.000000
    5        8.738327  -0.000000
    6       11.355190  -0.000000
    7       17.299843   0.000000
    8       27.742135   0.000000
 
 -0.4250000E+00  0.1750000E+00  0.2500000E-01  0.1500000E-02
    1        3.001912   1.000000
    2        4.869434   1.000000
    3        6.026808   1.000000
    4        6.232379   1.000000
    5        8.603781  -0.000000
    6       11.736359  -0.000000
    7       16.865400   0.000000
    8       27.291888   0.000000
 
 -0.3750000E+00  0.1750000E+00  0.2500000E-01  0.1500000E-02
    1        3.017694   1.000000
    2        4.971815   1.000000
    3        5.852433   1.000000
    4        6.235679   1.000000
    5        8.350798  -0.000001
    6       11.294332  -0.000000
    7       17.759208   0.000000
    8       26.967650   0.000000
 
 -0.3250000E+00  0.1750000E+00  0.2500000E-01  0.1500000E-02
    1        2.971565   1.000000
    2        5.129142   1.000000
    3        5.461516   1.000000
    4        6.288330   1.000000
    5        8.008200  -0.006665
    6       10.540592  -0.000000
    7       19.455086   0.000000
    8       26.793967   0.000000
 
 -0.2750000E+00  0.1750000E+00  0.2500000E-01  0.1500000E-02
    1        2.755131   1.000000
    2        4.980631   1.000000
    3        5.389555   1.000000
    4        6.386380   1.000000
    5        7.612006   0.437521
    6        9.821422  -0.000000
    7       21.511434   0.000000
    8       26.772749   0.000000
 
 -0.2250000E+00  0.1750000E+00  0.2500000E-01  0.1500000E-02
    1        2.256549   1.000000
    2        4.760307   1.000000
    3        5.622947   1.000000
    4        6.521979   1.000000
    5        7.209813   1.009750
    6        9.195035  -0.000000
    7       23.764811   0.000000
    8       26.912567   0.000000
 
 -0.1750000E+00  0.1750000E+00  0.2500000E-01  0.1500000E-02
    1        1.557269   1.000000
    2        4.775908   1.000000
    3        5.848500   1.000000
    4        6.651197   1.000000
    5        6.874904   1.000002
    6        8.653117  -0.000000
    7       26.105375   0.000000
    8       27.224152   0.000000
 
 -0.1250000E+00  0.1750000E+00  0.2500000E-01  0.1500000E-02
    1        0.838061   1.000000
    2        4.919729   1.000000
    3        6.016963   1.000000
    4        6.467440   1.000000
    5        6.926767   1.000011
    6        8.194099  -0.000102
    7       27.514349   0.000000
    8       28.617575   0.000000
 
 -0.7500000E-01  0.1750000E+00  0.2500000E-01  0.1500000E-02
    1        0.217203   1.000000
    2        5.105650   1.000000
    3        6.090658   1.000000
    4        6.230524   1.000000
    5        7.110541   1.001552
    6        7.839931  -0.035439
    7       28.044145   0.000000
    8       30.893039   0.000000
 
 -0.2500000E-01  0.1750000E+00  0.2500000E-01  0.1500000E-02
    1       -0.243870   1.000000
    2        5.273908   1.000000
    3        6.067160   1.000000
    4        6.084007   1.000000
    5        7.286929   1.025317
    6        7.601346   0.482443
    7       28.652108   0.000000
    8       32.603512   0.000000
 
  0.2250000E+00  0.2250000E+00  0.2500000E-01  0.7500000E-03
    1        0.799924   1.000000
    2        4.547019   1.000000
    3        6.491877   1.000000
    4        6.756911   1.000000
    5        6.834290   1.000000
    6        7.965839  -0.012826
    7       30.367644   0.000000
    8       31.096685   0.000000
 
  0.2750000E+00  0.2250000E+00  0.2500000E-01  0.1500000E-02
    1        1.310445   1.000000
    2        4.333439   1.000000
    3        6.312467   1.000000
    4        6.971947   1.000045
    5        7.169064   1.004944
    6        8.091525  -0.001313
    7       28.841390   0.000000
    8       29.727294   0.000000
 
  0.3250000E+00  0.2250000E+00  0.2500000E-01  0.1500000E-02
    1        1.874888   1.000000
    2        4.173649   1.000000
    3        6.067820   1.000000
    4        7.043336   1.000320
    5        7.736566   0.041229
    6        8.319100  -0.000002
    7       26.424638   0.000000
    8       29.099007   0.000000
 
  0.3750000E+00  0.2250000E+00  0.2500000E-01  0.1500000E-02
    1        2.407951   1.000000
    2        4.107294   1.000000
    3        5.839213   1.000000
    4        7.004773   1.000115
    5        8.343808  -0.000001
    6        8.753015  -0.000000
    7       24.056084   0.000000
    8       28.451271   0.000000
 
  0.4250000E+00  0.2250000E+00  0.2500000E-01  0.1500000E-02
    1        2.811551   1.000000
    2        4.157414   1.000000
    3        5.675616   1.000000
    4        6.908961   1.000006
    5        8.644405  -0.000000
    6        9.653395  -0.000000
    7       21.769079   0.000000
    8       27.685272   0.000000
 
  0.4750000E+00  0.2250000E+00  0.2500000E-01  0.1500000E-02
    1        3.056140   1.000000
    2        4.276349   1.000000
    3        5.626819   1.000000
    4        6.796562   1.000000
    5        8.773182  -0.000000
    6       10.801820  -0.000000
    7       19.664909   0.000000
    8       26.884904   0.000000
 
 -0.4750000E+00  0.2250000E+00  0.2500000E-01  0.1500000E-02
    1        3.209526   1.000000
    2        4.363634   1.000000
    3        5.675961   1.000000
    4        6.691476   1.000000
    5        8.763814  -0.000000
    6       12.019134  -0.000000
    7       17.885777   0.000000
    8       26.148100   0.000000
 
 -0.4250000E+00  0.2250000E+00  0.2500000E-01  0.1500000E-02
    1        3.329148   1.000000
    2        4.431286   1.000000
    3        5.699666   1.000000
    4        6.610477   1.000000
    5        8.620363  -0.000000
    6       12.857176  -0.000000
    7       16.909126   0.000000
    8       25.523806   0.000000
 
 -0.3750000E+00  0.2250000E+00  0.2500000E-01  0.1500000E-02
    1        3.419487   1.000000
    2        4.543257   1.000000
    3        5.569030   1.000000
    4        6.571933   1.000000
    5        8.361134  -0.000000
    6       12.569778  -0.000000
    7       17.494558   0.000000
    8       25.039427   0.000000
 
 -0.3250000E+00  0.2250000E+00  0.2500000E-01  0.1500000E-02
    1        3.450181   1.000000
    2        4.734334   1.000000
    3        5.255735   1.000000
    4        6.579240   1.000000
    5        8.016465  -0.005784
    6       11.660809  -0.000000
    7       19.141706   0.000000
    8       24.735742   0.000000
 
 -0.2750000E+00  0.2250000E+00  0.2500000E-01  0.1500000E-02
    1        3.331021   1.000000
    2        4.837416   1.000000
    3        5.034287   1.000000
    4        6.629971   1.000000
    5        7.626828   0.376128
    6       10.741828  -0.000000
    7       21.171527   0.000000
    8       24.616309   0.000000
 
 -0.2250000E+00  0.2250000E+00  0.2500000E-01  0.1500000E-02
    1        2.919764   1.000000
    2        4.651873   1.000000
    3        5.316228   1.000000
    4        6.706038   1.000000
    5        7.244764   1.015928
    6        9.933896  -0.000000
    7       23.346005   0.000000
    8       24.726943   0.000000
 
 -0.1750000E+00  0.2250000E+00  0.2500000E-01  0.1500000E-02
    1        2.270314   1.000000
    2        4.680220   1.000000
    3        5.608408   1.000000
    4        6.701130   1.000000
    5        7.007852   1.000125
    6        9.229505  -0.000000
    7       24.708516   0.000000
    8       25.912708   0.000000
 
 -0.1250000E+00  0.2250000E+00  0.2500000E-01  0.1500000E-02
    1        1.578052   1.000000
    2        4.824517   1.000000
    3        5.854584   1.000000
    4        6.471289   1.000000
    5        7.082374   1.000826
    6        8.621950  -0.000000
    7       25.151681   0.000000
    8       28.208608   0.000000
 
 -0.7500000E-01  0.2250000E+00  0.2500000E-01  0.1500000E-02
    1        0.965474   1.000000
    2        5.001518   1.000000
    3        6.017037   1.000000
    4        6.251171   1.000000
    5        7.235933   1.014190
    6        8.120459  -0.000678
    7       25.670784   0.000000
    8       30.457893   0.000000
 
 -0.2500000E-01  0.2250000E+00  0.2500000E-01  0.1500000E-02
    1        0.494287   1.000000
    2        5.150671   1.000000
    3        6.079009   1.000000
    4        6.119887   1.000000
    5        7.386946   1.029661
    6        7.747003   0.024163
    7       26.304204   0.000000
    8       32.124227   0.000000
 
  0.2750000E+00  0.2750000E+00  0.2500000E-01  0.7500000E-03
    1        1.658372   1.000000
    2        4.098593   1.000000
    3        6.484313   1.000000
    4        7.230998   1.013269
    5        7.299188   1.028094
    6        8.153641  -0.000300
    7       28.829653   0.000000
    8       29.571765   0.000000
 