 running on    1 total cores
 distrk:  each k-point on    1 cores,    1 groups
 distr:  one band on    1 cores,    1 groups
 using from now: INCAR     
 vasp.5.4.4.18Apr17-6-g9f103f2a35 (build May 20 2018 16:52:39) complex          
  
 POSCAR found type information on POSCAR  Fe
 POSCAR found :  1 types and       1 ions
 scaLAPACK will be used
 LDA part: xc-table for Ceperly-Alder, standard interpolation
 POSCAR, INCAR and KPOINTS ok, starting setup
 FFT: planning ...
 WAVECAR not read
 entering main loop
       N       E                     dE             d eps       ncg     rms          rms(c)
DAV:   1     0.353352828899E+01    0.35335E+01   -0.31006E+03  1824   0.871E+02
DAV:   2    -0.653151645659E+01   -0.10065E+02   -0.98370E+01  1832   0.102E+02
DAV:   3    -0.656711772091E+01   -0.35601E-01   -0.35596E-01  2144   0.681E+00
DAV:   4    -0.656726681169E+01   -0.14909E-03   -0.14909E-03  1952   0.349E-01
DAV:   5    -0.656726746970E+01   -0.65801E-06   -0.65816E-06  2192   0.184E-02    0.651E+00
DAV:   6    -0.587269184015E+01    0.69458E+00   -0.14915E+00  1768   0.230E+01    0.207E+00
DAV:   7    -0.571261799517E+01    0.16007E+00   -0.56573E-02  1880   0.259E+00    0.676E-01
DAV:   8    -0.567840182348E+01    0.34216E-01   -0.21162E-02  1760   0.221E+00    0.451E-02
DAV:   9    -0.567829983874E+01    0.10198E-03   -0.23916E-04  1912   0.295E-01    0.461E-02
DAV:  10    -0.567821406091E+01    0.85778E-04   -0.17052E-05  1888   0.467E-02    0.624E-04
DAV:  11    -0.567821413791E+01   -0.76999E-07   -0.18938E-07  1080   0.627E-03
   1 F= -.56782141E+01 E0= -.56774435E+01  d E =-.567821E+01
 curvature:   0.00 expect dE= 0.000E+00 dE for cont linesearch  0.000E+00
 trial: gam= 0.00000 g(F)=  0.104E-63 g(S)=  0.469E+02 ort = 0.000E+00 (trialstep = 0.100E+01)
 search vector abs. value=  0.469E+02
 bond charge predicted
       N       E                     dE             d eps       ncg     rms          rms(c)
DAV:   1     0.141182192582E+03    0.14686E+03   -0.66307E+02  2112   0.111E+02    0.953E+00
DAV:   2     0.152806855667E+03    0.11625E+02   -0.13982E+01  2248   0.156E+01    0.567E+00
DAV:   3     0.156883188159E+03    0.40763E+01   -0.19263E+01  2552   0.943E+00    0.384E+00
DAV:   4     0.157093076816E+03    0.20989E+00   -0.10082E-01  2496   0.143E+00    0.239E+00
DAV:   5     0.156911690033E+03   -0.18139E+00   -0.11974E-01  1840   0.151E+00    0.384E-01
DAV:   6     0.156918082246E+03    0.63922E-02   -0.17960E-02  2920   0.398E-01    0.183E-01
DAV:   7     0.156919466688E+03    0.13844E-02   -0.47809E-03  1760   0.319E-01    0.197E-02
DAV:   8     0.156919508602E+03    0.41914E-04   -0.15193E-04  3168   0.504E-02    0.155E-02
DAV:   9     0.156919508383E+03   -0.21903E-06   -0.45038E-05  2544   0.221E-02    0.289E-03
DAV:  10     0.156919490957E+03   -0.17426E-04   -0.25231E-07  1152   0.227E-03    0.126E-03
DAV:  11     0.156919491330E+03    0.37345E-06   -0.42488E-07   888   0.317E-03
   2 F= 0.15691949E+03 E0= 0.15691681E+03  d E =0.162598E+03
 trial-energy change:  162.597705  1 .order  153.289571  -46.859893  353.439036
 step:   0.1041(harm=  0.1171)  dis= 0.00000  next Energy=    -8.105738 (dE=-0.243E+01)
 bond charge predicted
       N       E                     dE             d eps       ncg     rms          rms(c)
DAV:   1    -0.236380247395E+02   -0.18056E+03   -0.12380E+03  1920   0.250E+02    0.199E+01
DAV:   2    -0.106334442270E+02    0.13005E+02   -0.50613E+01  2152   0.942E+01    0.111E+01
DAV:   3    -0.930533259150E+01    0.13281E+01   -0.85071E-01  2424   0.786E+00    0.795E+00
DAV:   4    -0.855950108216E+01    0.74583E+00   -0.56189E+00  2280   0.195E+01    0.176E+00
DAV:   5    -0.851630288422E+01    0.43198E-01   -0.23876E-01  1880   0.701E+00    0.355E-01
DAV:   6    -0.851320620100E+01    0.30967E-02   -0.15879E-03  2152   0.401E-01    0.114E-01
DAV:   7    -0.851263594861E+01    0.57025E-03   -0.20946E-03  1792   0.738E-01    0.946E-03
DAV:   8    -0.851263321562E+01    0.27330E-05   -0.31757E-05  2048   0.890E-02    0.440E-03
DAV:   9    -0.851263297399E+01    0.24163E-06   -0.13427E-06   880   0.102E-02
   3 F= -.85126330E+01 E0= -.85115636E+01  d E =-.283442E+01
 curvature:  -0.06 expect dE=-0.151E+00 dE for cont linesearch -0.151E+00
 ZBRENT: interpolating
 opt :   0.1311  next Energy=    -8.661033 (dE=-0.298E+01)
 bond charge predicted
       N       E                     dE             d eps       ncg     rms          rms(c)
DAV:   1    -0.887537633816E+01   -0.36274E+00   -0.67903E+00  1760   0.418E+01    0.322E+00
DAV:   2    -0.869528491958E+01    0.18009E+00   -0.10974E+00  1760   0.138E+01    0.435E-01
DAV:   3    -0.868255941814E+01    0.12726E-01   -0.11463E-02  1888   0.167E+00    0.321E-01
DAV:   4    -0.867730417952E+01    0.52552E-02   -0.58865E-03  2096   0.674E-01    0.300E-02
DAV:   5    -0.867730834562E+01   -0.41661E-05   -0.79944E-06  1832   0.294E-02    0.126E-02
DAV:   6    -0.867731056713E+01   -0.22215E-05   -0.85748E-07  1656   0.108E-02    0.304E-04
DAV:   7    -0.867731057843E+01   -0.11293E-07   -0.10158E-08   888   0.130E-03
   4 F= -.86773106E+01 E0= -.86763445E+01  d E =-.299910E+01
 curvature:  -0.06 expect dE=-0.709E-02 dE for cont linesearch -0.709E-02
 ZBRENT: interpolating
 opt :   0.1386  next Energy=    -8.686388 (dE=-0.301E+01)
 bond charge predicted
       N       E                     dE             d eps       ncg     rms          rms(c)
DAV:   1    -0.870070088333E+01   -0.23390E-01   -0.51272E-01  1760   0.110E+01    0.903E-01
DAV:   2    -0.868675856974E+01    0.13942E-01   -0.89010E-02  1760   0.391E+00    0.119E-01
DAV:   3    -0.868575784134E+01    0.10007E-02   -0.12209E-03  1856   0.534E-01    0.905E-02
DAV:   4    -0.868533393888E+01    0.42390E-03   -0.44972E-04  2128   0.183E-01    0.795E-03
DAV:   5    -0.868533437052E+01   -0.43164E-06   -0.48572E-07  1616   0.658E-03
   5 F= -.86853344E+01 E0= -.86843909E+01  d E =-.300712E+01
 curvature:  -0.07 expect dE=-0.329E-06 dE for cont linesearch -0.329E-06
 trial: gam=-0.00031 g(F)=  0.463E-72 g(S)=  0.447E-05 ort = 0.145E-01 (trialstep = 0.828E+00)
 search vector abs. value=  0.100E-09
 reached required accuracy - stopping structural energy minimisation
