   1   1   1   0
  0.1697933E+02  0.2884996E-09  0.2884996E-09  0.2884996E-09  0.5000000E-15
  1.000000000000000E-004
  CAR 
 fcc Au                                  
     27.84273158     -6.35015653  301      5.62578345      1.00000000
     -6.350  0.0000E+00  0.0000E+00
     -6.236  0.0000E+00  0.0000E+00
     -6.122  0.0000E+00  0.0000E+00
     -6.008  0.0000E+00  0.0000E+00
     -5.894  0.0000E+00  0.0000E+00
     -5.780  0.0000E+00  0.0000E+00
     -5.666  0.0000E+00  0.0000E+00
     -5.552  0.0000E+00  0.0000E+00
     -5.438  0.0000E+00  0.0000E+00
     -5.324  0.0000E+00  0.0000E+00
     -5.210  0.0000E+00  0.0000E+00
     -5.096  0.0000E+00  0.0000E+00
     -4.982  0.0000E+00  0.0000E+00
     -4.868  0.0000E+00  0.0000E+00
     -4.754  0.0000E+00  0.0000E+00
     -4.641  0.0000E+00  0.0000E+00
     -4.527  0.0000E+00  0.0000E+00
     -4.413  0.0000E+00  0.0000E+00
     -4.299  0.2091E-01  0.7380E-03
     -4.185  0.3406E-01  0.3765E-02
     -4.071  0.4278E-01  0.8128E-02
     -3.957  0.5191E-01  0.1359E-01
     -3.843  0.5959E-01  0.1993E-01
     -3.729  0.6749E-01  0.2721E-01
     -3.615  0.7428E-01  0.3528E-01
     -3.501  0.8239E-01  0.4420E-01
     -3.387  0.8888E-01  0.5394E-01
     -3.273  0.9626E-01  0.6448E-01
     -3.159  0.1043E+00  0.7591E-01
     -3.045  0.1119E+00  0.8823E-01
     -2.931  0.1203E+00  0.1014E+00
     -2.817  0.1298E+00  0.1157E+00
     -2.703  0.1395E+00  0.1310E+00
     -2.589  0.1508E+00  0.1476E+00
     -2.475  0.1631E+00  0.1654E+00
     -2.361  0.1787E+00  0.1849E+00
     -2.247  0.1966E+00  0.2063E+00
     -2.133  0.2195E+00  0.2299E+00
     -2.019  0.2518E+00  0.2566E+00
     -1.905  0.3043E+00  0.2879E+00
     -1.791  0.4955E+00  0.3287E+00
     -1.677  0.6428E+00  0.4001E+00
     -1.563  0.6596E+00  0.4745E+00
     -1.449  0.8660E+00  0.5604E+00
     -1.335  0.1097E+01  0.6715E+00
     -1.221  0.1265E+01  0.8096E+00
     -1.107  0.1589E+01  0.9733E+00
     -0.993  0.1848E+01  0.1169E+01
     -0.879  0.1854E+01  0.1382E+01
     -0.765  0.1754E+01  0.1588E+01
     -0.651  0.1667E+01  0.1783E+01
     -0.537  0.1598E+01  0.1969E+01
     -0.423  0.1599E+01  0.2151E+01
     -0.309  0.1374E+01  0.2324E+01
     -0.195  0.1080E+01  0.2467E+01
     -0.081  0.1058E+01  0.2587E+01
      0.033  0.1693E+01  0.2756E+01
      0.146  0.1764E+01  0.2955E+01
      0.260  0.1914E+01  0.3163E+01
      0.374  0.1936E+01  0.3379E+01
      0.488  0.1814E+01  0.3592E+01
      0.602  0.2081E+01  0.3817E+01
      0.716  0.1993E+01  0.4045E+01
      0.830  0.2128E+01  0.4282E+01
      0.944  0.2444E+01  0.4542E+01
      1.058  0.2786E+01  0.4835E+01
      1.172  0.3700E+01  0.5203E+01
      1.286  0.2491E+01  0.5582E+01
      1.400  0.1963E+01  0.5832E+01
      1.514  0.1425E+01  0.6019E+01
      1.628  0.1912E+01  0.6201E+01
      1.742  0.1642E+01  0.6401E+01
      1.856  0.1505E+01  0.6579E+01
      1.970  0.1793E+01  0.6763E+01
      2.084  0.1987E+01  0.6986E+01
      2.198  0.2022E+01  0.7215E+01
      2.312  0.2395E+01  0.7468E+01
      2.426  0.2069E+01  0.7693E+01
      2.540  0.1765E+01  0.7906E+01
      2.654  0.1657E+01  0.8100E+01
      2.768  0.1598E+01  0.8285E+01
      2.882  0.1571E+01  0.8466E+01
      2.996  0.1585E+01  0.8645E+01
      3.110  0.1625E+01  0.8827E+01
      3.224  0.1728E+01  0.9019E+01
      3.338  0.1927E+01  0.9227E+01
      3.452  0.2359E+01  0.9465E+01
      3.566  0.3078E+01  0.9790E+01
      3.680  0.2272E+01  0.1012E+02
      3.794  0.1464E+01  0.1032E+02
      3.908  0.1236E+01  0.1046E+02
      4.022  0.2850E+00  0.1054E+02
      4.136  0.2855E+00  0.1058E+02
      4.250  0.2855E+00  0.1061E+02
      4.364  0.2826E+00  0.1064E+02
      4.478  0.2840E+00  0.1067E+02
      4.592  0.2861E+00  0.1071E+02
      4.706  0.2863E+00  0.1074E+02
      4.820  0.2867E+00  0.1077E+02
      4.933  0.2865E+00  0.1080E+02
      5.047  0.2850E+00  0.1084E+02
      5.161  0.2849E+00  0.1087E+02
      5.275  0.2850E+00  0.1090E+02
      5.389  0.2837E+00  0.1093E+02
      5.503  0.2833E+00  0.1097E+02
      5.617  0.2827E+00  0.1100E+02
      5.731  0.2819E+00  0.1103E+02
      5.845  0.2815E+00  0.1106E+02
      5.959  0.2813E+00  0.1109E+02
      6.073  0.2800E+00  0.1113E+02
      6.187  0.2796E+00  0.1116E+02
      6.301  0.2793E+00  0.1119E+02
      6.415  0.2789E+00  0.1122E+02
      6.529  0.2790E+00  0.1125E+02
      6.643  0.2811E+00  0.1129E+02
      6.757  0.2801E+00  0.1132E+02
      6.871  0.2762E+00  0.1135E+02
      6.985  0.2733E+00  0.1138E+02
      7.099  0.2703E+00  0.1141E+02
      7.213  0.2691E+00  0.1144E+02
      7.327  0.2653E+00  0.1147E+02
      7.441  0.2631E+00  0.1150E+02
      7.555  0.2582E+00  0.1153E+02
      7.669  0.2541E+00  0.1156E+02
      7.783  0.2514E+00  0.1159E+02
      7.897  0.2492E+00  0.1162E+02
      8.011  0.2471E+00  0.1165E+02
      8.125  0.2470E+00  0.1168E+02
      8.239  0.2414E+00  0.1170E+02
      8.353  0.2418E+00  0.1173E+02
      8.467  0.2417E+00  0.1176E+02
      8.581  0.2451E+00  0.1179E+02
      8.695  0.4811E+00  0.1182E+02
      8.809  0.4578E+00  0.1188E+02
      8.923  0.3946E+00  0.1192E+02
      9.037  0.3646E+00  0.1197E+02
      9.151  0.3400E+00  0.1201E+02
      9.265  0.3201E+00  0.1205E+02
      9.379  0.3015E+00  0.1208E+02
      9.493  0.2883E+00  0.1211E+02
      9.607  0.2609E+00  0.1215E+02
      9.721  0.2587E+00  0.1218E+02
      9.834  0.2467E+00  0.1220E+02
      9.948  0.2424E+00  0.1223E+02
     10.062  0.2548E+00  0.1226E+02
     10.176  0.2927E+00  0.1229E+02
     10.290  0.2892E+00  0.1233E+02
     10.404  0.3085E+00  0.1236E+02
     10.518  0.3144E+00  0.1240E+02
     10.632  0.3450E+00  0.1243E+02
     10.746  0.3594E+00  0.1247E+02
     10.860  0.3608E+00  0.1252E+02
     10.974  0.3654E+00  0.1256E+02
     11.088  0.3737E+00  0.1260E+02
     11.202  0.3745E+00  0.1264E+02
     11.316  0.3734E+00  0.1268E+02
     11.430  0.3531E+00  0.1273E+02
     11.544  0.3423E+00  0.1277E+02
     11.658  0.3436E+00  0.1281E+02
     11.772  0.3120E+00  0.1284E+02
     11.886  0.2973E+00  0.1288E+02
     12.000  0.2852E+00  0.1291E+02
     12.114  0.2760E+00  0.1294E+02
     12.228  0.2673E+00  0.1297E+02
     12.342  0.2708E+00  0.1301E+02
     12.456  0.2704E+00  0.1304E+02
     12.570  0.2673E+00  0.1307E+02
     12.684  0.2673E+00  0.1310E+02
     12.798  0.2785E+00  0.1313E+02
     12.912  0.3019E+00  0.1316E+02
     13.026  0.3557E+00  0.1320E+02
     13.140  0.3473E+00  0.1324E+02
     13.254  0.3448E+00  0.1328E+02
     13.368  0.3470E+00  0.1332E+02
     13.482  0.3511E+00  0.1336E+02
     13.596  0.3533E+00  0.1340E+02
     13.710  0.3551E+00  0.1344E+02
     13.824  0.3513E+00  0.1348E+02
     13.938  0.3505E+00  0.1352E+02
     14.052  0.3512E+00  0.1356E+02
     14.166  0.3519E+00  0.1360E+02
     14.280  0.3537E+00  0.1364E+02
     14.394  0.3553E+00  0.1368E+02
     14.508  0.3565E+00  0.1372E+02
     14.621  0.3552E+00  0.1376E+02
     14.735  0.3546E+00  0.1380E+02
     14.849  0.3541E+00  0.1384E+02
     14.963  0.3537E+00  0.1388E+02
     15.077  0.3542E+00  0.1392E+02
     15.191  0.4009E+00  0.1397E+02
     15.305  0.4048E+00  0.1401E+02
     15.419  0.4281E+00  0.1406E+02
     15.533  0.4409E+00  0.1411E+02
     15.647  0.4541E+00  0.1416E+02
     15.761  0.4746E+00  0.1421E+02
     15.875  0.5081E+00  0.1427E+02
     15.989  0.4990E+00  0.1433E+02
     16.103  0.5005E+00  0.1438E+02
     16.217  0.4955E+00  0.1444E+02
     16.331  0.4980E+00  0.1450E+02
     16.445  0.4984E+00  0.1455E+02
     16.559  0.4941E+00  0.1461E+02
     16.673  0.4918E+00  0.1467E+02
     16.787  0.4922E+00  0.1472E+02
     16.901  0.4950E+00  0.1478E+02
     17.015  0.4934E+00  0.1484E+02
     17.129  0.4893E+00  0.1489E+02
     17.243  0.4893E+00  0.1495E+02
     17.357  0.4920E+00  0.1500E+02
     17.471  0.4901E+00  0.1506E+02
     17.585  0.4873E+00  0.1511E+02
     17.699  0.4861E+00  0.1517E+02
     17.813  0.4866E+00  0.1523E+02
     17.927  0.4850E+00  0.1528E+02
     18.041  0.4829E+00  0.1534E+02
     18.155  0.4828E+00  0.1539E+02
     18.269  0.4848E+00  0.1545E+02
     18.383  0.4845E+00  0.1550E+02
     18.497  0.4816E+00  0.1556E+02
     18.611  0.4785E+00  0.1561E+02
     18.725  0.4793E+00  0.1567E+02
     18.839  0.4788E+00  0.1572E+02
     18.953  0.4773E+00  0.1578E+02
     19.067  0.4769E+00  0.1583E+02
     19.181  0.4785E+00  0.1588E+02
     19.295  0.4808E+00  0.1594E+02
     19.408  0.4811E+00  0.1599E+02
     19.522  0.4820E+00  0.1605E+02
     19.636  0.4857E+00  0.1610E+02
     19.750  0.4891E+00  0.1616E+02
     19.864  0.4930E+00  0.1621E+02
     19.978  0.5016E+00  0.1627E+02
     20.092  0.5151E+00  0.1633E+02
     20.206  0.5407E+00  0.1639E+02
     20.320  0.1091E+01  0.1647E+02
     20.434  0.6168E+00  0.1655E+02
     20.548  0.5655E+00  0.1661E+02
     20.662  0.5379E+00  0.1668E+02
     20.776  0.5133E+00  0.1674E+02
     20.890  0.4999E+00  0.1679E+02
     21.004  0.5103E+00  0.1685E+02
     21.118  0.5284E+00  0.1691E+02
     21.232  0.5744E+00  0.1697E+02
     21.346  0.5591E+00  0.1704E+02
     21.460  0.5282E+00  0.1710E+02
     21.574  0.5289E+00  0.1716E+02
     21.688  0.5186E+00  0.1722E+02
     21.802  0.5111E+00  0.1728E+02
     21.916  0.5497E+00  0.1734E+02
     22.030  0.5723E+00  0.1741E+02
     22.144  0.3678E+00  0.1746E+02
     22.258  0.3151E+00  0.1750E+02
     22.372  0.2994E+00  0.1753E+02
     22.486  0.2949E+00  0.1756E+02
     22.600  0.2685E+00  0.1760E+02
     22.714  0.2546E+00  0.1763E+02
     22.828  0.2384E+00  0.1765E+02
     22.942  0.2250E+00  0.1768E+02
     23.056  0.2135E+00  0.1771E+02
     23.170  0.1962E+00  0.1773E+02
     23.284  0.1829E+00  0.1775E+02
     23.398  0.1779E+00  0.1777E+02
     23.512  0.1675E+00  0.1779E+02
     23.626  0.1623E+00  0.1781E+02
     23.740  0.1620E+00  0.1783E+02
     23.854  0.1684E+00  0.1785E+02
     23.968  0.1773E+00  0.1787E+02
     24.082  0.2195E+00  0.1789E+02
     24.195  0.2122E+00  0.1791E+02
     24.309  0.1527E+00  0.1793E+02
     24.423  0.1202E+00  0.1795E+02
     24.537  0.9389E-01  0.1796E+02
     24.651  0.8783E-01  0.1797E+02
     24.765  0.8616E-01  0.1798E+02
     24.879  0.4511E-01  0.1799E+02
     24.993  0.2906E-01  0.1799E+02
     25.107  0.2192E-01  0.1800E+02
     25.221  0.1524E-01  0.1800E+02
     25.335  0.7022E-02  0.1800E+02
     25.449  0.3755E-02  0.1800E+02
     25.563  0.1620E-02  0.1800E+02
     25.677  0.5120E-03  0.1800E+02
     25.791  0.4969E-04  0.1800E+02
     25.905  0.0000E+00  0.1800E+02
     26.019  0.0000E+00  0.1800E+02
     26.133  0.0000E+00  0.1800E+02
     26.247  0.0000E+00  0.1800E+02
     26.361  0.0000E+00  0.1800E+02
     26.475  0.0000E+00  0.1800E+02
     26.589  0.0000E+00  0.1800E+02
     26.703  0.0000E+00  0.1800E+02
     26.817  0.0000E+00  0.1800E+02
     26.931  0.0000E+00  0.1800E+02
     27.045  0.0000E+00  0.1800E+02
     27.159  0.0000E+00  0.1800E+02
     27.273  0.0000E+00  0.1800E+02
     27.387  0.0000E+00  0.1800E+02
     27.501  0.0000E+00  0.1800E+02
     27.615  0.0000E+00  0.1800E+02
     27.729  0.0000E+00  0.1800E+02
     27.843  0.0000E+00  0.1800E+02
     27.84273158     -6.35015653  301      5.62578345      1.00000000
     -6.350  0.0000E+00  0.0000E+00  0.0000E+00
     -6.236  0.0000E+00  0.0000E+00  0.0000E+00
     -6.122  0.0000E+00  0.0000E+00  0.0000E+00
     -6.008  0.0000E+00  0.0000E+00  0.0000E+00
     -5.894  0.0000E+00  0.0000E+00  0.0000E+00
     -5.780  0.0000E+00  0.0000E+00  0.0000E+00
     -5.666  0.0000E+00  0.0000E+00  0.0000E+00
     -5.552  0.0000E+00  0.0000E+00  0.0000E+00
     -5.438  0.0000E+00  0.0000E+00  0.0000E+00
     -5.324  0.0000E+00  0.0000E+00  0.0000E+00
     -5.210  0.0000E+00  0.0000E+00  0.0000E+00
     -5.096  0.0000E+00  0.0000E+00  0.0000E+00
     -4.982  0.0000E+00  0.0000E+00  0.0000E+00
     -4.868  0.0000E+00  0.0000E+00  0.0000E+00
     -4.754  0.0000E+00  0.0000E+00  0.0000E+00
     -4.641  0.0000E+00  0.0000E+00  0.0000E+00
     -4.527  0.0000E+00  0.0000E+00  0.0000E+00
     -4.413  0.0000E+00  0.0000E+00  0.0000E+00
     -4.299  0.1282E-01  0.6357E-04  0.1338E-05
     -4.185  0.2069E-01  0.2739E-03  0.1390E-04
     -4.071  0.2575E-01  0.5614E-03  0.4653E-04
     -3.957  0.3097E-01  0.9183E-03  0.1056E-03
     -3.843  0.3523E-01  0.1318E-02  0.1971E-03
     -3.729  0.3949E-01  0.1807E-02  0.3431E-03
     -3.615  0.4299E-01  0.2328E-02  0.5436E-03
     -3.501  0.4721E-01  0.2900E-02  0.8068E-03
     -3.387  0.5028E-01  0.3544E-02  0.1185E-02
     -3.273  0.5379E-01  0.4218E-02  0.1656E-02
     -3.159  0.5753E-01  0.4975E-02  0.2278E-02
     -3.045  0.6076E-01  0.5776E-02  0.3094E-02
     -2.931  0.6436E-01  0.6644E-02  0.4126E-02
     -2.817  0.6828E-01  0.7575E-02  0.5436E-02
     -2.703  0.7194E-01  0.8601E-02  0.7194E-02
     -2.589  0.7611E-01  0.9716E-02  0.9469E-02
     -2.475  0.8053E-01  0.1084E-01  0.1226E-01
     -2.361  0.8568E-01  0.1226E-01  0.1644E-01
     -2.247  0.9128E-01  0.1369E-01  0.2191E-01
     -2.133  0.9813E-01  0.1536E-01  0.2972E-01
     -2.019  0.1071E+00  0.1731E-01  0.4224E-01
     -1.905  0.1206E+00  0.1974E-01  0.6531E-01
     -1.791  0.1622E+00  0.2314E-01  0.1684E+00
     -1.677  0.1849E+00  0.2589E-01  0.2606E+00
     -1.563  0.1809E+00  0.2844E-01  0.2770E+00
     -1.449  0.1910E+00  0.3216E-01  0.4273E+00
     -1.335  0.2080E+00  0.3933E-01  0.5849E+00
     -1.221  0.2141E+00  0.4509E-01  0.7103E+00
     -1.107  0.2055E+00  0.4777E-01  0.9979E+00
     -0.993  0.1953E+00  0.5028E-01  0.1234E+01
     -0.879  0.1608E+00  0.4796E-01  0.1297E+01
     -0.765  0.1292E+00  0.4682E-01  0.1260E+01
     -0.651  0.1049E+00  0.4685E-01  0.1222E+01
     -0.537  0.8409E-01  0.4875E-01  0.1190E+01
     -0.423  0.6529E-01  0.5327E-01  0.1209E+01
     -0.309  0.3602E-01  0.4866E-01  0.1062E+01
     -0.195  0.1680E-01  0.4189E-01  0.8491E+00
     -0.081  0.8087E-02  0.4482E-01  0.8395E+00
      0.033  0.1726E-01  0.7758E-01  0.1327E+01
      0.146  0.1867E-01  0.7942E-01  0.1388E+01
      0.260  0.1631E-01  0.7143E-01  0.1546E+01
      0.374  0.2035E-01  0.6415E-01  0.1584E+01
      0.488  0.2414E-01  0.5511E-01  0.1497E+01
      0.602  0.3170E-01  0.7216E-01  0.1707E+01
      0.716  0.3417E-01  0.7430E-01  0.1628E+01
      0.830  0.4155E-01  0.8302E-01  0.1734E+01
      0.944  0.4735E-01  0.9529E-01  0.2001E+01
      1.058  0.4771E-01  0.1060E+00  0.2304E+01
      1.172  0.4645E-01  0.1132E+00  0.3152E+01
      1.286  0.3861E-01  0.9519E-01  0.2083E+01
      1.400  0.3374E-01  0.8012E-01  0.1632E+01
      1.514  0.3080E-01  0.5682E-01  0.1182E+01
      1.628  0.2855E-01  0.8860E-01  0.1582E+01
      1.742  0.2318E-01  0.6851E-01  0.1378E+01
      1.856  0.2085E-01  0.6204E-01  0.1268E+01
      1.970  0.2098E-01  0.5989E-01  0.1546E+01
      2.084  0.2037E-01  0.5782E-01  0.1739E+01
      2.198  0.1919E-01  0.5514E-01  0.1784E+01
      2.312  0.3045E-01  0.5489E-01  0.2122E+01
      2.426  0.1990E-01  0.4702E-01  0.1857E+01
      2.540  0.1696E-01  0.4237E-01  0.1584E+01
      2.654  0.1538E-01  0.3850E-01  0.1494E+01
      2.768  0.1420E-01  0.3517E-01  0.1450E+01
      2.882  0.1355E-01  0.3213E-01  0.1434E+01
      2.996  0.1293E-01  0.2921E-01  0.1459E+01
      3.110  0.1296E-01  0.2688E-01  0.1506E+01
      3.224  0.1324E-01  0.2483E-01  0.1613E+01
      3.338  0.1409E-01  0.2376E-01  0.1813E+01
      3.452  0.1572E-01  0.2244E-01  0.2240E+01
      3.566  0.1744E-01  0.2012E-01  0.2950E+01
      3.680  0.1747E-01  0.1822E-01  0.2172E+01
      3.794  0.1871E-01  0.1760E-01  0.1383E+01
      3.908  0.2041E-01  0.1813E-01  0.1159E+01
      4.022  0.2251E-01  0.1940E-01  0.2154E+00
      4.136  0.2436E-01  0.2184E-01  0.2094E+00
      4.250  0.2611E-01  0.2415E-01  0.2031E+00
      4.364  0.2805E-01  0.2665E-01  0.1935E+00
      4.478  0.2961E-01  0.2929E-01  0.1884E+00
      4.592  0.3111E-01  0.3218E-01  0.1833E+00
      4.706  0.3271E-01  0.3511E-01  0.1763E+00
      4.820  0.3394E-01  0.3716E-01  0.1717E+00
      4.933  0.3517E-01  0.3885E-01  0.1671E+00
      5.047  0.3653E-01  0.4040E-01  0.1614E+00
      5.161  0.3765E-01  0.4201E-01  0.1571E+00
      5.275  0.3870E-01  0.4365E-01  0.1532E+00
      5.389  0.3991E-01  0.4505E-01  0.1481E+00
      5.503  0.4091E-01  0.4641E-01  0.1441E+00
      5.617  0.4180E-01  0.4769E-01  0.1403E+00
      5.731  0.4287E-01  0.4900E-01  0.1360E+00
      5.845  0.4383E-01  0.5036E-01  0.1322E+00
      5.959  0.4463E-01  0.5171E-01  0.1287E+00
      6.073  0.4530E-01  0.5266E-01  0.1251E+00
      6.187  0.4627E-01  0.5408E-01  0.1211E+00
      6.301  0.4703E-01  0.5544E-01  0.1176E+00
      6.415  0.4767E-01  0.5675E-01  0.1143E+00
      6.529  0.4838E-01  0.5819E-01  0.1111E+00
      6.643  0.4914E-01  0.6065E-01  0.1080E+00
      6.757  0.4974E-01  0.6154E-01  0.1048E+00
      6.871  0.5020E-01  0.6094E-01  0.1016E+00
      6.985  0.5090E-01  0.6071E-01  0.9840E-01
      7.099  0.5162E-01  0.6038E-01  0.9524E-01
      7.213  0.5241E-01  0.6064E-01  0.9268E-01
      7.327  0.5308E-01  0.5982E-01  0.8957E-01
      7.441  0.5406E-01  0.5946E-01  0.8682E-01
      7.555  0.5487E-01  0.5815E-01  0.8331E-01
      7.669  0.5584E-01  0.5699E-01  0.8020E-01
      7.783  0.5726E-01  0.5597E-01  0.7751E-01
      7.897  0.5914E-01  0.5478E-01  0.7506E-01
      8.011  0.6151E-01  0.5326E-01  0.7259E-01
      8.125  0.6467E-01  0.5196E-01  0.7071E-01
      8.239  0.6757E-01  0.4875E-01  0.6718E-01
      8.353  0.7182E-01  0.4690E-01  0.6537E-01
      8.467  0.7628E-01  0.4470E-01  0.6339E-01
      8.581  0.8240E-01  0.4279E-01  0.6214E-01
      8.695  0.1986E+00  0.4723E-01  0.1425E+00
      8.809  0.1862E+00  0.5018E-01  0.1291E+00
      8.923  0.1549E+00  0.5062E-01  0.1047E+00
      9.037  0.1389E+00  0.5157E-01  0.9343E-01
      9.151  0.1257E+00  0.5230E-01  0.8438E-01
      9.265  0.1150E+00  0.5282E-01  0.7739E-01
      9.379  0.1046E+00  0.5300E-01  0.7173E-01
      9.493  0.9735E-01  0.5322E-01  0.6742E-01
      9.607  0.8437E-01  0.5063E-01  0.6126E-01
      9.721  0.8078E-01  0.5276E-01  0.5979E-01
      9.834  0.7299E-01  0.5319E-01  0.5697E-01
      9.948  0.6857E-01  0.5477E-01  0.5541E-01
     10.062  0.6921E-01  0.6055E-01  0.5659E-01
     10.176  0.7316E-01  0.7588E-01  0.6223E-01
     10.290  0.6669E-01  0.7926E-01  0.6128E-01
     10.404  0.7281E-01  0.8454E-01  0.6345E-01
     10.518  0.7734E-01  0.8485E-01  0.6299E-01
     10.632  0.9029E-01  0.9085E-01  0.6653E-01
     10.746  0.9884E-01  0.9235E-01  0.6757E-01
     10.860  0.1012E+00  0.9184E-01  0.6697E-01
     10.974  0.1036E+00  0.9281E-01  0.6715E-01
     11.088  0.1066E+00  0.9489E-01  0.6817E-01
     11.202  0.1082E+00  0.9452E-01  0.6796E-01
     11.316  0.1098E+00  0.9326E-01  0.6733E-01
     11.430  0.9874E-01  0.9212E-01  0.6278E-01
     11.544  0.9464E-01  0.9032E-01  0.6020E-01
     11.658  0.9177E-01  0.9326E-01  0.5993E-01
     11.772  0.8716E-01  0.8210E-01  0.5303E-01
     11.886  0.8300E-01  0.7852E-01  0.4961E-01
     12.000  0.8000E-01  0.7525E-01  0.4658E-01
     12.114  0.7769E-01  0.7280E-01  0.4443E-01
     12.228  0.7548E-01  0.7048E-01  0.4234E-01
     12.342  0.7360E-01  0.7364E-01  0.4265E-01
     12.456  0.7198E-01  0.7478E-01  0.4216E-01
     12.570  0.7008E-01  0.7480E-01  0.4131E-01
     12.684  0.6821E-01  0.7623E-01  0.4109E-01
     12.798  0.6787E-01  0.8147E-01  0.4336E-01
     12.912  0.6958E-01  0.8983E-01  0.4936E-01
     13.026  0.7542E-01  0.1067E+00  0.6443E-01
     13.140  0.7138E-01  0.1061E+00  0.6235E-01
     13.254  0.6823E-01  0.1071E+00  0.6220E-01
     13.368  0.6593E-01  0.1095E+00  0.6291E-01
     13.482  0.6393E-01  0.1124E+00  0.6419E-01
     13.596  0.6179E-01  0.1146E+00  0.6497E-01
     13.710  0.5956E-01  0.1167E+00  0.6566E-01
     13.824  0.5692E-01  0.1171E+00  0.6445E-01
     13.938  0.5482E-01  0.1183E+00  0.6403E-01
     14.052  0.5305E-01  0.1198E+00  0.6415E-01
     14.166  0.5132E-01  0.1212E+00  0.6432E-01
     14.280  0.4988E-01  0.1229E+00  0.6460E-01
     14.394  0.4843E-01  0.1245E+00  0.6473E-01
     14.508  0.4705E-01  0.1259E+00  0.6483E-01
     14.621  0.4539E-01  0.1266E+00  0.6414E-01
     14.735  0.4404E-01  0.1274E+00  0.6348E-01
     14.849  0.4274E-01  0.1280E+00  0.6307E-01
     14.963  0.4145E-01  0.1287E+00  0.6268E-01
     15.077  0.4021E-01  0.1298E+00  0.6234E-01
     15.191  0.3909E-01  0.1438E+00  0.7847E-01
     15.305  0.3812E-01  0.1465E+00  0.7808E-01
     15.419  0.3718E-01  0.1554E+00  0.8355E-01
     15.533  0.3615E-01  0.1614E+00  0.8496E-01
     15.647  0.3507E-01  0.1678E+00  0.8620E-01
     15.761  0.3402E-01  0.1779E+00  0.8750E-01
     15.875  0.3319E-01  0.1944E+00  0.8917E-01
     15.989  0.3240E-01  0.1899E+00  0.8953E-01
     16.103  0.3160E-01  0.1908E+00  0.8978E-01
     16.217  0.3077E-01  0.1887E+00  0.8968E-01
     16.331  0.2996E-01  0.1895E+00  0.9086E-01
     16.445  0.2912E-01  0.1895E+00  0.9147E-01
     16.559  0.2841E-01  0.1876E+00  0.9132E-01
     16.673  0.2771E-01  0.1866E+00  0.9114E-01
     16.787  0.2704E-01  0.1864E+00  0.9191E-01
     16.901  0.2637E-01  0.1873E+00  0.9279E-01
     17.015  0.2569E-01  0.1862E+00  0.9316E-01
     17.129  0.2497E-01  0.1842E+00  0.9295E-01
     17.243  0.2439E-01  0.1837E+00  0.9347E-01
     17.357  0.2378E-01  0.1845E+00  0.9415E-01
     17.471  0.2314E-01  0.1833E+00  0.9411E-01
     17.585  0.2255E-01  0.1818E+00  0.9391E-01
     17.699  0.2199E-01  0.1806E+00  0.9426E-01
     17.813  0.2141E-01  0.1799E+00  0.9491E-01
     17.927  0.2084E-01  0.1786E+00  0.9501E-01
     18.041  0.2030E-01  0.1772E+00  0.9481E-01
     18.155  0.1982E-01  0.1763E+00  0.9502E-01
     18.269  0.1934E-01  0.1762E+00  0.9569E-01
     18.383  0.1881E-01  0.1753E+00  0.9578E-01
     18.497  0.1823E-01  0.1734E+00  0.9538E-01
     18.611  0.1766E-01  0.1711E+00  0.9497E-01
     18.725  0.1718E-01  0.1700E+00  0.9538E-01
     18.839  0.1670E-01  0.1684E+00  0.9544E-01
     18.953  0.1620E-01  0.1665E+00  0.9515E-01
     19.067  0.1574E-01  0.1648E+00  0.9505E-01
     19.181  0.1527E-01  0.1635E+00  0.9532E-01
     19.295  0.1479E-01  0.1623E+00  0.9568E-01
     19.408  0.1437E-01  0.1603E+00  0.9554E-01
     19.522  0.1397E-01  0.1580E+00  0.9552E-01
     19.636  0.1356E-01  0.1562E+00  0.9588E-01
     19.750  0.1315E-01  0.1541E+00  0.9597E-01
     19.864  0.1271E-01  0.1516E+00  0.9584E-01
     19.978  0.1230E-01  0.1496E+00  0.9628E-01
     20.092  0.1194E-01  0.1478E+00  0.9698E-01
     20.206  0.1156E-01  0.1467E+00  0.9840E-01
     20.320  0.1130E-01  0.1636E+00  0.1241E+00
     20.434  0.1041E-01  0.1367E+00  0.9544E-01
     20.548  0.9953E-02  0.1302E+00  0.9149E-01
     20.662  0.9586E-02  0.1253E+00  0.8896E-01
     20.776  0.9332E-02  0.1202E+00  0.8575E-01
     20.890  0.9127E-02  0.1166E+00  0.8356E-01
     21.004  0.8974E-02  0.1133E+00  0.8204E-01
     21.118  0.8886E-02  0.1123E+00  0.8216E-01
     21.232  0.8979E-02  0.1152E+00  0.8594E-01
     21.346  0.8773E-02  0.1081E+00  0.8303E-01
     21.460  0.8591E-02  0.1072E+00  0.7857E-01
     21.574  0.8566E-02  0.1065E+00  0.7640E-01
     21.688  0.8109E-02  0.1004E+00  0.7347E-01
     21.802  0.7966E-02  0.9448E-01  0.6993E-01
     21.916  0.8374E-02  0.9074E-01  0.6924E-01
     22.030  0.8556E-02  0.8720E-01  0.6853E-01
     22.144  0.6890E-02  0.7661E-01  0.4447E-01
     22.258  0.6005E-02  0.7082E-01  0.3645E-01
     22.372  0.5493E-02  0.6842E-01  0.3422E-01
     22.486  0.5114E-02  0.6571E-01  0.3405E-01
     22.600  0.4262E-02  0.6378E-01  0.2942E-01
     22.714  0.3794E-02  0.6279E-01  0.2693E-01
     22.828  0.3272E-02  0.6169E-01  0.2469E-01
     22.942  0.2835E-02  0.6075E-01  0.2277E-01
     23.056  0.2486E-02  0.5908E-01  0.2130E-01
     23.170  0.2199E-02  0.5353E-01  0.2004E-01
     23.284  0.1935E-02  0.4981E-01  0.1898E-01
     23.398  0.1729E-02  0.4884E-01  0.1837E-01
     23.512  0.1496E-02  0.4652E-01  0.1709E-01
     23.626  0.1301E-02  0.4543E-01  0.1645E-01
     23.740  0.1148E-02  0.4567E-01  0.1610E-01
     23.854  0.1030E-02  0.4743E-01  0.1605E-01
     23.968  0.9010E-03  0.4989E-01  0.1604E-01
     24.082  0.7954E-03  0.6035E-01  0.1722E-01
     24.195  0.7002E-03  0.5753E-01  0.1606E-01
     24.309  0.4352E-03  0.4380E-01  0.1304E-01
     24.423  0.2867E-03  0.3532E-01  0.1081E-01
     24.537  0.1130E-03  0.2932E-01  0.9287E-02
     24.651  0.7818E-04  0.2659E-01  0.8154E-02
     24.765  0.4875E-04  0.2414E-01  0.6454E-02
     24.879  0.3340E-04  0.1413E-01  0.4897E-02
     24.993  0.2291E-04  0.9739E-02  0.3768E-02
     25.107  0.1541E-04  0.7582E-02  0.3053E-02
     25.221  0.8015E-05  0.5308E-02  0.2258E-02
     25.335  0.3891E-05  0.2489E-02  0.1062E-02
     25.449  0.1993E-05  0.1339E-02  0.5799E-03
     25.563  0.8557E-06  0.5886E-03  0.2596E-03
     25.677  0.2859E-06  0.1902E-03  0.8478E-04
     25.791  0.2774E-07  0.1846E-04  0.8227E-05
     25.905  0.0000E+00  0.0000E+00  0.0000E+00
     26.019  0.0000E+00  0.0000E+00  0.0000E+00
     26.133  0.0000E+00  0.0000E+00  0.0000E+00
     26.247  0.0000E+00  0.0000E+00  0.0000E+00
     26.361  0.0000E+00  0.0000E+00  0.0000E+00
     26.475  0.0000E+00  0.0000E+00  0.0000E+00
     26.589  0.0000E+00  0.0000E+00  0.0000E+00
     26.703  0.0000E+00  0.0000E+00  0.0000E+00
     26.817  0.0000E+00  0.0000E+00  0.0000E+00
     26.931  0.0000E+00  0.0000E+00  0.0000E+00
     27.045  0.0000E+00  0.0000E+00  0.0000E+00
     27.159  0.0000E+00  0.0000E+00  0.0000E+00
     27.273  0.0000E+00  0.0000E+00  0.0000E+00
     27.387  0.0000E+00  0.0000E+00  0.0000E+00
     27.501  0.0000E+00  0.0000E+00  0.0000E+00
     27.615  0.0000E+00  0.0000E+00  0.0000E+00
     27.729  0.0000E+00  0.0000E+00  0.0000E+00
     27.843  0.0000E+00  0.0000E+00  0.0000E+00
