    1    1    1    1
  0.1697933E+02  0.2884996E-09  0.2884996E-09  0.2884996E-09  0.5000000E-15
  1.000000000000000E-004
  CAR 
 fcc Au                                  
     11    770      9
 
  0.2500000E-01  0.2500000E-01  0.2500000E-01  0.2500000E-03
    1       -4.350157   1.000000
    2        0.868928   1.000000
    3        0.884294   1.000000
    4        0.884294   1.000000
    5        2.412456   1.000000
    6        2.412456   1.000000
    7       20.949868   0.000000
    8       24.597324   0.000000
    9       24.808676   0.000000
 
  0.7500000E-01  0.2500000E-01  0.2500000E-01  0.7500000E-03
    1       -4.233141   1.000000
    2        0.826075   1.000000
    3        0.920905   1.000000
    4        0.934991   1.000000
    5        2.371454   1.000000
    6        2.418250   1.000000
    7       21.075682   0.000000
    8       23.850923   0.000000
    9       24.726106   0.000000
 
  0.1250000E+00  0.2500000E-01  0.2500000E-01  0.7500000E-03
    1       -3.947968   1.000000
    2        0.742529   1.000000
    3        1.010311   1.000000
    4        1.028377   1.000000
    5        2.315431   1.000000
    6        2.412547   1.000000
    7       21.277875   0.000000
    8       22.462379   0.000000
    9       24.851503   0.000000
 
  0.1750000E+00  0.2500000E-01  0.2500000E-01  0.7500000E-03
    1       -3.517066   1.000000
    2        0.650984   1.000000
    3        1.117362   1.000000
    4        1.128189   1.000000
    5        2.282058   1.000000
    6        2.431452   1.000000
    7       20.383139   0.000000
    8       21.938522   0.000000
    9       25.074064   0.000000
 
  0.2250000E+00  0.2500000E-01  0.2500000E-01  0.7500000E-03
    1       -2.989093   1.000000
    2        0.618455   1.000000
    3        1.181191   1.000000
    4        1.182932   1.000000
    5        2.341994   1.000000
    6        2.531540   1.000000
    7       18.541163   0.000000
    8       22.023199   0.000000
    9       25.221422   0.000000
 
  0.2750000E+00  0.2500000E-01  0.2500000E-01  0.7500000E-03
    1       -2.458969   1.000000
    2        0.751472   1.000000
    3        1.158829   1.000000
    4        1.163626   1.000000
    5        2.526419   1.000000
    6        2.736483   1.000000
    7       16.549850   0.000000
    8       21.809339   0.000000
    9       25.025208   0.000000
 
  0.3250000E+00  0.2500000E-01  0.2500000E-01  0.7500000E-03
    1       -2.059842   1.000000
    2        1.061841   1.000000
    3        1.083384   1.000000
    4        1.208267   1.000000
    5        2.802096   1.000000
    6        3.015639   1.000000
    7       14.518041   0.000000
    8       21.364009   0.000000
    9       24.485305   0.000000
 
  0.3750000E+00  0.2500000E-01  0.2500000E-01  0.7500000E-03
    1       -1.856505   1.000000
    2        0.979476   1.000000
    3        0.987832   1.000000
    4        1.977989   1.000000
    5        3.104433   1.000000
    6        3.322403   1.000000
    7       12.527969   0.000000
    8       20.894599   0.000000
    9       23.853812   0.000000
 
  0.4250000E+00  0.2500000E-01  0.2500000E-01  0.7500000E-03
    1       -1.789234   1.000000
    2        0.896918   1.000000
    3        0.907953   1.000000
    4        2.915645   1.000000
    5        3.376035   1.000000
    6        3.682586   1.000000
    7       10.683277   0.000000
    8       20.522480   0.000000
    9       23.333355   0.000000
 
  0.4750000E+00  0.2500000E-01  0.2500000E-01  0.7500000E-03
    1       -1.777511   1.000000
    2        0.841405   1.000000
    3        0.858974   1.000000
    4        3.427239   1.000000
    5        3.566735   1.000000
    6        4.363360   1.000000
    7        9.199913   0.000000
    8       20.297761   0.000000
    9       23.063101   0.000000
 
 -0.4750000E+00  0.2500000E-01  0.2500000E-01  0.7500000E-03
    1       -1.777632   1.000000
    2        0.824394   1.000000
    3        0.848890   1.000000
    4        3.485020   1.000000
    5        3.640171   1.000000
    6        4.715613   1.000000
    7        8.694335   0.000000
    8       20.241137   0.000000
    9       23.071640   0.000000
 
 -0.4250000E+00  0.2500000E-01  0.2500000E-01  0.7500000E-03
    1       -1.778630   1.000000
    2        0.848360   1.000000
    3        0.878883   1.000000
    4        3.283034   1.000000
    5        3.587350   1.000000
    6        4.082073   1.000000
    7        9.631177   0.000000
    8       20.355824   0.000000
    9       23.186611   0.000000
 
 -0.3750000E+00  0.2500000E-01  0.2500000E-01  0.7500000E-03
    1       -1.802443   1.000000
    2        0.910269   1.000000
    3        0.943507   1.000000
    4        2.592981   1.000000
    5        3.416351   1.000000
    6        3.439735   1.000000
    7       11.271978   0.000000
    8       20.633784   0.000000
    9       23.561267   0.000000
 
 -0.3250000E+00  0.2500000E-01  0.2500000E-01  0.7500000E-03
    1       -1.904798   1.000000
    2        0.998728   1.000000
    3        1.032573   1.000000
    4        1.678968   1.000000
    5        3.062892   1.000000
    6        3.167419   1.000000
    7       13.181278   0.000000
    8       21.050476   0.000000
    9       24.132445   0.000000
 
 -0.2750000E+00  0.2500000E-01  0.2500000E-01  0.7500000E-03
    1       -2.171563   1.000000
    2        0.990500   1.000000
    3        1.111809   1.000000
    4        1.121907   1.000000
    5        2.734349   1.000000
    6        2.889969   1.000000
    7       15.194146   0.000000
    8       21.533399   0.000000
    9       24.738640   0.000000
 
 -0.2250000E+00  0.2500000E-01  0.2500000E-01  0.7500000E-03
    1       -2.627857   1.000000
    2        0.678553   1.000000
    3        1.170836   1.000000
    4        1.182042   1.000000
    5        2.466951   1.000000
    6        2.643685   1.000000
    7       17.222449   0.000000
    8       21.928228   0.000000
    9       25.147636   0.000000
 
 -0.1750000E+00  0.2500000E-01  0.2500000E-01  0.7500000E-03
    1       -3.171153   1.000000
    2        0.614996   1.000000
    3        1.168452   1.000000
    4        1.175235   1.000000
    5        2.312756   1.000000
    6        2.483107   1.000000
    7       19.181676   0.000000
    8       22.031091   0.000000
    9       25.215720   0.000000
 
 -0.1250000E+00  0.2500000E-01  0.2500000E-01  0.7500000E-03
    1       -3.674569   1.000000
    2        0.676216   1.000000
    3        1.087714   1.000000
    4        1.097138   1.000000
    5        2.284017   1.000000
    6        2.421442   1.000000
    7       20.896184   0.000000
    8       21.939082   0.000000
    9       25.051619   0.000000
 
 -0.7500000E-01  0.2500000E-01  0.2500000E-01  0.7500000E-03
    1       -4.060659   1.000000
    2        0.769242   1.000000
    3        0.983136   1.000000
    4        0.991411   1.000000
    5        2.328913   1.000000
    6        2.419810   1.000000
    7       21.226924   0.000000
    8       22.952864   0.000000
    9       24.878921   0.000000
 
 -0.2500000E-01  0.2500000E-01  0.2500000E-01  0.7500000E-03
    1       -4.291410   1.000000
    2        0.840792   1.000000
    3        0.908670   1.000000
    4        0.910795   1.000000
    5        2.380136   1.000000
    6        2.426093   1.000000
    7       21.015572   0.000000
    8       24.274870   0.000000
    9       24.755768   0.000000
 
  0.7500000E-01  0.7500000E-01  0.2500000E-01  0.7500000E-03
    1       -4.174703   1.000000
    2        0.781263   1.000000
    3        0.961727   1.000000
    4        0.963652   1.000000
    5        2.317123   1.000000
    6        2.453106   1.000000
    7       21.144331   0.000000
    8       23.855067   0.000000
    9       24.731527   0.000000
 
  0.1250000E+00  0.7500000E-01  0.2500000E-01  0.1500000E-02
    1       -3.945650   1.000000
    2        0.692873   1.000000
    3        1.042332   1.000000
    4        1.057424   1.000000
    5        2.228470   1.000000
    6        2.481874   1.000000
    7       21.357212   0.000000
    8       22.868573   0.000000
    9       24.391579   0.000000
 
  0.1750000E+00  0.7500000E-01  0.2500000E-01  0.1500000E-02
    1       -3.562182   1.000000
    2        0.590059   1.000000
    3        1.152270   1.000000
    4        1.163459   1.000000
    5        2.157937   1.000000
    6        2.522964   1.000000
    7       21.001137   0.000000
    8       21.934415   0.000000
    9       24.356014   0.000000
 
  0.2250000E+00  0.7500000E-01  0.2500000E-01  0.1500000E-02
    1       -3.061128   1.000000
    2        0.515605   1.000000
    3        1.216351   1.000000
    4        1.246238   1.000000
    5        2.181004   1.000000
    6        2.620875   1.000000
    7       19.258004   0.000000
    8       22.032499   0.000000
    9       24.329219   0.000000
 
  0.2750000E+00  0.7500000E-01  0.2500000E-01  0.1500000E-02
    1       -2.518430   1.000000
    2        0.552792   1.000000
    3        1.182864   1.000000
    4        1.258376   1.000000
    5        2.365891   1.000000
    6        2.811326   1.000000
    7       17.291177   0.000000
    8       21.919964   0.000000
    9       24.103198   0.000000
 
  0.3250000E+00  0.7500000E-01  0.2500000E-01  0.1500000E-02
    1       -2.062033   1.000000
    2        0.815122   1.000000
    3        1.091830   1.000000
    4        1.201549   1.000000
    5        2.690199   1.000000
    6        3.083458   1.000000
    7       15.255710   0.000000
    8       21.548758   0.000000
    9       23.653375   0.000000
 
  0.3750000E+00  0.7500000E-01  0.2500000E-01  0.1500000E-02
    1       -1.798470   1.000000
    2        0.945951   1.000000
    3        1.110002   1.000000
    4        1.422249   1.000000
    5        3.079364   1.000000
    6        3.419583   1.000000
    7       13.236697   0.000000
    8       21.095887   0.000000
    9       23.154258   0.000000
 
  0.4250000E+00  0.7500000E-01  0.2500000E-01  0.1500000E-02
    1       -1.700675   1.000000
    2        0.852649   1.000000
    3        1.022484   1.000000
    4        2.143950   1.000000
    5        3.413061   1.000000
    6        3.919651   1.000000
    7       11.321626   0.000000
    8       20.702198   0.000000
    9       22.751568   0.000000
 
  0.4750000E+00  0.7500000E-01  0.2500000E-01  0.1500000E-02
    1       -1.679871   1.000000
    2        0.786977   1.000000
    3        0.956594   1.000000
    4        2.722610   1.000000
    5        3.591209   1.000000
    6        4.688346   1.000646
    7        9.658384   0.000000
    8       20.434201   0.000000
    9       22.535546   0.000000
 
 -0.4750000E+00  0.7500000E-01  0.2500000E-01  0.1500000E-02
    1       -1.679403   1.000000
    2        0.762634   1.000000
    3        0.925251   1.000000
    4        2.980415   1.000000
    5        3.628607   1.000000
    6        5.326923   0.995472
    7        8.684770   0.000000
    8       20.319631   0.000000
    9       22.434439   0.000000
 
 -0.4250000E+00  0.7500000E-01  0.2500000E-01  0.1500000E-02
    1       -1.678013   1.000000
    2        0.781616   1.000000
    3        0.933892   1.000000
    4        2.894241   1.000000
    5        3.547670   1.000000
    6        4.980761   1.020783
    7        9.222035   0.000000
    8       20.364596   0.000000
    9       22.346554   0.000000
 
 -0.3750000E+00  0.7500000E-01  0.2500000E-01  0.1500000E-02
    1       -1.686600   1.000000
    2        0.839792   1.000000
    3        0.981482   1.000000
    4        2.431688   1.000000
    5        3.340019   1.000000
    6        4.229157   1.000000
    7       10.736020   0.000000
    8       20.563120   0.000000
    9       22.479190   0.000000
 
 -0.3250000E+00  0.7500000E-01  0.2500000E-01  0.1500000E-02
    1       -1.749034   1.000000
    2        0.926242   1.000000
    3        1.061115   1.000000
    4        1.704945   1.000000
    5        3.031020   1.000000
    6        3.683164   1.000000
    7       12.588309   0.000000
    8       20.891289   0.000000
    9       22.851203   0.000000
 
 -0.2750000E+00  0.7500000E-01  0.2500000E-01  0.1500000E-02
    1       -1.948507   1.000000
    2        0.939917   1.000000
    3        1.119491   1.000000
    4        1.166826   1.000000
    5        2.689056   1.000000
    6        3.284915   1.000000
    7       14.580341   0.000000
    8       21.299381   0.000000
    9       23.401022   0.000000
 
 -0.2250000E+00  0.7500000E-01  0.2500000E-01  0.1500000E-02
    1       -2.348113   1.000000
    2        0.624456   1.000000
    3        1.162890   1.000000
    4        1.238671   1.000000
    5        2.385368   1.000000
    6        2.954241   1.000000
    7       16.614083   0.000000
    8       21.681237   0.000000
    9       24.008977   0.000000
 
 -0.1750000E+00  0.7500000E-01  0.2500000E-01  0.1500000E-02
    1       -2.879449   1.000000
    2        0.526019   1.000000
    3        1.208347   1.000000
    4        1.253365   1.000000
    5        2.193004   1.000000
    6        2.699638   1.000000
    7       18.604965   0.000000
    8       21.886230   0.000000
    9       24.377055   0.000000
 
 -0.1250000E+00  0.7500000E-01  0.2500000E-01  0.1500000E-02
    1       -3.406175   1.000000
    2        0.576612   1.000000
    3        1.173041   1.000000
    4        1.180869   1.000000
    5        2.158201   1.000000
    6        2.546160   1.000000
    7       20.448976   0.000000
    8       21.840923   0.000000
    9       24.343614   0.000000
 
 -0.7500000E-01  0.7500000E-01  0.2500000E-01  0.1500000E-02
    1       -3.834551   1.000000
    2        0.679458   1.000000
    3        1.056369   1.000000
    4        1.087985   1.000000
    5        2.226458   1.000000
    6        2.475926   1.000000
    7       21.397532   0.000000
    8       22.270017   0.000000
    9       24.317528   0.000000
 
 -0.2500000E-01  0.7500000E-01  0.2500000E-01  0.1500000E-02
    1       -4.117375   1.000000
    2        0.775519   1.000000
    3        0.966143   1.000000
    4        0.984393   1.000000
    5        2.318232   1.000000
    6        2.439920   1.000000
    7       21.192105   0.000000
    8       23.360819   0.000000
    9       24.601363   0.000000
 
  0.1250000E+00  0.1250000E+00  0.2500000E-01  0.7500000E-03
    1       -3.774738   1.000000
    2        0.583881   1.000000
    3        1.145370   1.000000
    4        1.147017   1.000000
    5        2.106857   1.000000
    6        2.544957   1.000000
    7       21.567503   0.000000
    8       22.977057   0.000000
    9       24.099296   0.000000
 
  0.1750000E+00  0.1250000E+00  0.2500000E-01  0.1500000E-02
    1       -3.446376   1.000000
    2        0.459040   1.000000
    3        1.263641   1.000000
    4        1.273533   1.000000
    5        2.001724   1.000000
    6        2.608280   1.000000
    7       21.673358   0.000000
    8       22.050106   0.000000
    9       23.694252   0.000000
 
  0.2250000E+00  0.1250000E+00  0.2500000E-01  0.1500000E-02
    1       -2.987543   1.000000
    2        0.346230   1.000000
    3        1.308014   1.000000
    4        1.392041   1.000000
    5        2.021603   1.000000
    6        2.707602   1.000000
    7       20.077680   0.000000
    8       22.073184   0.000000
    9       23.466037   0.000000
 
  0.2750000E+00  0.1250000E+00  0.2500000E-01  0.1500000E-02
    1       -2.454985   1.000000
    2        0.299700   1.000000
    3        1.214894   1.000000
    4        1.438949   1.000000
    5        2.267767   1.000000
    6        2.885191   1.000000
    7       18.124442   0.000000
    8       21.982641   0.000000
    9       23.169040   0.000000
 
  0.3250000E+00  0.1250000E+00  0.2500000E-01  0.1500000E-02
    1       -1.958735   1.000000
    2        0.416536   1.000000
    3        1.055527   1.000000
    4        1.410258   1.000000
    5        2.681157   1.000000
    6        3.146213   1.000000
    7       16.075654   0.000000
    8       21.686442   0.000000
    9       22.694514   0.000000
 
  0.3750000E+00  0.1250000E+00  0.2500000E-01  0.1500000E-02
    1       -1.634688   1.000000
    2        0.791316   1.000000
    3        0.894552   1.000000
    4        1.334342   1.000000
    5        3.155126   1.000000
    6        3.514622   1.000000
    7       14.023226   0.000000
    8       21.287624   0.000000
    9       22.199740   0.000000
 
  0.4250000E+00  0.1250000E+00  0.2500000E-01  0.1500000E-02
    1       -1.502296   1.000000
    2        0.761014   1.000000
    3        1.229606   1.000000
    4        1.378384   1.000000
    5        3.476411   1.000000
    6        4.162392   1.000000
    7       12.047996   0.000000
    8       20.882523   0.000000
    9       21.838080   0.000000
 
  0.4750000E+00  0.1250000E+00  0.2500000E-01  0.1500000E-02
    1       -1.469804   1.000000
    2        0.669922   1.000000
    3        1.159366   1.000000
    4        1.929718   1.000000
    5        3.624987   1.000000
    6        5.072679   1.042427
    7       10.246923   0.000000
    8       20.532027   0.000000
    9       21.655104   0.000000
 
 -0.4750000E+00  0.1250000E+00  0.2500000E-01  0.1500000E-02
    1       -1.465246   1.000000
    2        0.628749   1.000000
    3        1.108482   1.000000
    4        2.296903   1.000000
    5        3.634596   1.000000
    6        6.013651  -0.003493
    7        8.872569   0.000000
    8       20.265564   0.000000
    9       21.553950   0.000000
 
 -0.4250000E+00  0.1250000E+00  0.2500000E-01  0.1500000E-02
    1       -1.458856   1.000000
    2        0.639187   1.000000
    3        1.093439   1.000000
    4        2.368675   1.000000
    5        3.520682   1.000000
    6        6.025367  -0.025226
    7        8.913044   0.000000
    8       20.098727   0.000000
    9       21.468947   0.000000
 
 -0.3750000E+00  0.1250000E+00  0.2500000E-01  0.1500000E-02
    1       -1.451828   1.000000
    2        0.696653   1.000000
    3        1.118679   1.000000
    4        2.095401   1.000000
    5        3.290610   1.000000
    6        5.187499   1.037973
    7       10.312323   0.000000
    8       20.053407   0.000000
    9       21.570248   0.000000
 
 -0.3250000E+00  0.1250000E+00  0.2500000E-01  0.1500000E-02
    1       -1.475731   1.000000
    2        0.786181   1.000000
    3        1.179415   1.000000
    4        1.554230   1.000000
    5        2.971760   1.000000
    6        4.445826   1.000000
    7       12.107747   0.000000
    8       20.140873   0.000000
    9       21.918854   0.000000
 
 -0.2750000E+00  0.1250000E+00  0.2500000E-01  0.1500000E-02
    1       -1.607499   1.000000
    2        0.794389   1.000000
    3        1.057893   1.000000
    4        1.285502   1.000000
    5        2.613060   1.000000
    6        3.886471   1.000000
    7       14.059588   0.000000
    8       20.345939   0.000000
    9       22.507140   0.000000
 
 -0.2250000E+00  0.1250000E+00  0.2500000E-01  0.1500000E-02
    1       -1.941926   1.000000
    2        0.497527   1.000000
    3        1.099040   1.000000
    4        1.379981   1.000000
    5        2.273444   1.000000
    6        3.427567   1.000000
    7       16.070185   0.000000
    8       20.616251   0.000000
    9       23.300648   0.000000
 
 -0.1750000E+00  0.1250000E+00  0.2500000E-01  0.1500000E-02
    1       -2.451699   1.000000
    2        0.392463   1.000000
    3        1.192696   1.000000
    4        1.422485   1.000000
    5        2.040341   1.000000
    6        3.044413   1.000000
    7       18.041149   0.000000
    8       20.909372   0.000000
    9       24.112880   0.000000
 
 -0.1250000E+00  0.1250000E+00  0.2500000E-01  0.1500000E-02
    1       -2.992695   1.000000
    2        0.447689   1.000000
    3        1.229831   1.000000
    4        1.330177   1.000000
    5        2.014123   1.000000
    6        2.754303   1.000000
    7       19.815932   0.000000
    8       21.203620   0.000000
    9       24.149626   0.000000
 
 -0.7500000E-01  0.1250000E+00  0.2500000E-01  0.1500000E-02
    1       -3.454147   1.000000
    2        0.564836   1.000000
    3        1.178323   1.000000
    4        1.184447   1.000000
    5        2.118390   1.000000
    6        2.565813   1.000000
    7       20.992116   0.000000
    8       21.577576   0.000000
    9       24.075416   0.000000
 
 -0.2500000E-01  0.1250000E+00  0.2500000E-01  0.1500000E-02
    1       -3.780957   1.000000
    2        0.681626   1.000000
    3        1.067237   1.000000
    4        1.087867   1.000000
    5        2.248027   1.000000
    6        2.454632   1.000000
    7       21.259786   0.000000
    8       22.061304   0.000000
    9       24.664497   0.000000
 
  0.1750000E+00  0.1750000E+00  0.2500000E-01  0.7500000E-03
    1       -3.178429   1.000000
    2        0.308534   1.000000
    3        1.419108   1.000000
    4        1.425766   1.000000
    5        1.848325   1.000000
    6        2.682353   1.000000
    7       22.023941   0.000000
    8       22.314963   0.000000
    9       23.056653   0.000000
 
  0.2250000E+00  0.1750000E+00  0.2500000E-01  0.1500000E-02
    1       -2.778590   1.000000
    2        0.163846   1.000000
    3        1.449247   1.000000
    4        1.594394   1.000000
    5        1.869437   1.000000
    6        2.778288   1.000000
    7       20.962801   0.000000
    8       21.937451   0.000000
    9       22.989052   0.000000
 
  0.2750000E+00  0.1750000E+00  0.2500000E-01  0.1500000E-02
    1       -2.288007   1.000000
    2        0.056935   1.000000
    3        1.277043   1.000000
    4        1.693088   1.000000
    5        2.198893   1.000000
    6        2.937538   1.000000
    7       19.032270   0.000000
    8       21.568509   0.000000
    9       22.781387   0.000000
 
  0.3250000E+00  0.1750000E+00  0.2500000E-01  0.1500000E-02
    1       -1.789367   1.000000
    2        0.052236   1.000000
    3        1.069478   1.000000
    4        1.699776   1.000000
    5        2.690242   1.000000
    6        3.187221   1.000000
    7       16.960079   0.000000
    8       21.185537   0.000000
    9       22.219585   0.000000
 
  0.3750000E+00  0.1750000E+00  0.2500000E-01  0.1500000E-02
    1       -1.419587   1.000000
    2        0.244184   1.000000
    3        0.884621   1.000000
    4        1.641085   1.000000
    5        3.220215   1.000000
    6        3.586318   1.000000
    7       14.870895   0.000000
    8       20.868463   0.000000
    9       21.468489   0.000000
 
  0.4250000E+00  0.1750000E+00  0.2500000E-01  0.1500000E-02
    1       -1.251529   1.000000
    2        0.540244   1.000000
    3        0.852800   1.000000
    4        1.554461   1.000000
    5        3.523677   1.000000
    6        4.346599   1.000000
    7       12.847394   0.000000
    8       20.647474   0.000000
    9       20.747209   0.000000
 
  0.4750000E+00  0.1750000E+00  0.2500000E-01  0.1500000E-02
    1       -1.201146   1.000000
    2        0.517128   1.000000
    3        1.249333   1.000000
    4        1.472748   1.000000
    5        3.656316   1.000000
    6        5.369311   0.870589
    7       10.960232   0.000000
    8       19.998346   0.000000
    9       20.696548   0.000000
 
 -0.4750000E+00  0.1750000E+00  0.2500000E-01  0.1500000E-02
    1       -1.182772   1.000000
    2        0.462276   1.000000
    3        1.384421   1.000000
    4        1.656074   1.000000
    5        3.651978   1.000000
    6        6.537162  -0.014419
    7        9.316554   0.000000
    8       19.385159   0.000000
    9       20.906080   0.000000
 
 -0.4250000E+00  0.1750000E+00  0.2500000E-01  0.1500000E-02
    1       -1.160210   1.000000
    2        0.457402   1.000000
    3        1.349385   1.000000
    4        1.830210   1.000000
    5        3.518425   1.000000
    6        7.099558   0.000000
    7        8.710772   0.000000
    8       18.905750   0.000000
    9       21.238932   0.000000
 
 -0.3750000E+00  0.1750000E+00  0.2500000E-01  0.1500000E-02
    1       -1.130111   1.000000
    2        0.506874   1.000000
    3        1.346997   1.000000
    4        1.715854   1.000000
    5        3.269999   1.000000
    6        6.178946  -0.026852
    7       10.036467   0.000000
    8       18.605380   0.000000
    9       21.532912   0.000000
 
 -0.3250000E+00  0.1750000E+00  0.2500000E-01  0.1500000E-02
    1       -1.113358   1.000000
    2        0.596254   1.000000
    3        1.292393   1.000000
    4        1.423447   1.000000
    5        2.938219   1.000000
    6        5.282827   1.010079
    7       11.775680   0.000000
    8       18.507247   0.000000
    9       21.865530   0.000000
 
 -0.2750000E+00  0.1750000E+00  0.2500000E-01  0.1500000E-02
    1       -1.176055   1.000000
    2        0.615820   1.000000
    3        0.918746   1.000000
    4        1.477685   1.000000
    5        2.562898   1.000000
    6        4.580091   1.000000
    7       13.651736   0.000000
    8       18.608213   0.000000
    9       22.351337   0.000000
 
 -0.2250000E+00  0.1750000E+00  0.2500000E-01  0.1500000E-02
    1       -1.440322   1.000000
    2        0.356178   1.000000
    3        0.966725   1.000000
    4        1.584094   1.000000
    5        2.187894   1.000000
    6        3.998852   1.000000
    7       15.566683   0.000000
    8       18.895148   0.000000
    9       23.035832   0.000000
 
 -0.1750000E+00  0.1750000E+00  0.2500000E-01  0.1500000E-02
    1       -1.925425   1.000000
    2        0.271490   1.000000
    3        1.100958   1.000000
    4        1.675065   1.000000
    5        1.889732   1.000000
    6        3.494714   1.000000
    7       17.342474   0.000000
    8       19.425198   0.000000
    9       23.934467   0.000000
 
 -0.1250000E+00  0.1750000E+00  0.2500000E-01  0.1500000E-02
    1       -2.472940   1.000000
    2        0.344835   1.000000
    3        1.199001   1.000000
    4        1.503694   1.000000
    5        1.927233   1.000000
    6        3.065939   1.000000
    7       18.584091   0.000000
    8       20.430143   0.000000
    9       24.493082   0.000000
 
 -0.7500000E-01  0.1750000E+00  0.2500000E-01  0.1500000E-02
    1       -2.954591   1.000000
    2        0.474637   1.000000
    3        1.222385   1.000000
    4        1.298776   1.000000
    5        2.079963   1.000000
    6        2.734165   1.000000
    7       19.277673   0.000000
    8       21.586187   0.000000
    9       24.190489   0.000000
 
 -0.2500000E-01  0.1750000E+00  0.2500000E-01  0.1500000E-02
    1       -3.311197   1.000000
    2        0.596997   1.000000
    3        1.167866   1.000000
    4        1.176263   1.000000
    5        2.230428   1.000000
    6        2.510885   1.000000
    7       19.825025   0.000000
    8       21.983628   0.000000
    9       24.786071   0.000000
 
  0.2250000E+00  0.2250000E+00  0.2500000E-01  0.7500000E-03
    1       -2.453943   1.000000
    2       -0.009328   1.000000
    3        1.551725   1.000000
    4        1.793364   1.000000
    5        1.858151   1.000000
    6        2.851922   1.000000
    7       21.214434   0.000000
    8       21.687747   0.000000
    9       22.465336   0.000000
 
  0.2750000E+00  0.2250000E+00  0.2500000E-01  0.1500000E-02
    1       -2.046219   1.000000
    2       -0.155767   1.000000
    3        1.410218   1.000000
    4        1.990151   1.000000
    5        2.159724   1.000000
    6        2.979843   1.000000
    7       19.905604   0.000000
    8       20.782738   0.000000
    9       22.422120   0.000000
 
  0.3250000E+00  0.2250000E+00  0.2500000E-01  0.1500000E-02
    1       -1.612169   1.000000
    2       -0.241176   1.000000
    3        1.221374   1.000000
    4        2.054279   1.000000
    5        2.680800   1.000000
    6        3.204312   1.000000
    7       17.858143   0.000000
    8       20.245762   0.000000
    9       21.591165   0.000000
 
  0.3750000E+00  0.2250000E+00  0.2500000E-01  0.1500000E-02
    1       -1.252441   1.000000
    2       -0.197213   1.000000
    3        1.050295   1.000000
    4        2.022046   1.000000
    5        3.255778   1.000000
    6        3.616752   1.000000
    7       15.743398   0.000000
    8       19.853737   0.000000
    9       20.622768   0.000000
 
  0.4250000E+00  0.2250000E+00  0.2500000E-01  0.1500000E-02
    1       -1.064954   1.000000
    2        0.011382   1.000000
    3        0.946391   1.000000
    4        1.941009   1.000000
    5        3.556294   1.000000
    6        4.459453   1.000000
    7       13.687888   0.000000
    8       19.559431   0.000000
    9       19.788887   0.000000
 
  0.4750000E+00  0.2250000E+00  0.2500000E-01  0.1500000E-02
    1       -0.992977   1.000000
    2        0.213755   1.000000
    3        0.999431   1.000000
    4        1.845882   1.000000
    5        3.686793   1.000000
    6        5.564809   0.582910
    7       11.759921   0.000000
    8       18.801611   0.000000
    9       19.718636   0.000000
 
 -0.4750000E+00  0.2250000E+00  0.2500000E-01  0.1500000E-02
    1       -0.943709   1.000000
    2        0.274632   1.000000
    3        1.207586   1.000000
    4        1.756785   1.000000
    5        3.679501   1.000000
    6        6.851602  -0.000610
    7       10.010177   0.000000
    8       18.035221   0.000000
    9       20.002784   0.000000
 
 -0.4250000E+00  0.2250000E+00  0.2500000E-01  0.1500000E-02
    1       -0.881276   1.000000
    2        0.289705   1.000000
    3        1.374944   1.000000
    4        1.686666   1.000000
    5        3.535652   1.000000
    6        8.116729   0.000000
    7        8.660734   0.000000
    8       17.394166   0.000000
    9       20.542261   0.000000
 
 -0.3750000E+00  0.2250000E+00  0.2500000E-01  0.1500000E-02
    1       -0.803593   1.000000
    2        0.329895   1.000000
    3        1.344074   1.000000
    4        1.652901   1.000000
    5        3.280040   1.000000
    6        7.136077   0.000000