       N       E                     dE             d eps       ncg     rms          rms(c)
DAV:   1     0.246188311174E+02    0.24619E+02   -0.37769E+03 17682   0.571E+02
DAV:   2    -0.415216972682E+01   -0.28771E+02   -0.26801E+02 14163   0.165E+02
DAV:   3    -0.438885299789E+01   -0.23668E+00   -0.23659E+00 16714   0.164E+01
DAV:   4    -0.438939534328E+01   -0.54235E-03   -0.54232E-03 15415   0.723E-01
DAV:   5    -0.438939908863E+01   -0.37454E-05   -0.37449E-05 14433   0.582E-02
DAV:   6    -0.438939918956E+01   -0.10092E-06   -0.10069E-06  9904   0.803E-03
   1 F= -.43893992E+01 E0= -.43893992E+01  d E =0.000000E+00
