 vasp.5.4.4.18Apr17-6-g9f103f2a35 (build May 20 2018 16:52:39) complex          
  
 executed on             LinuxIFC date 2022.09.19  17:06:27
 running on    1 total cores
 distrk:  each k-point on    1 cores,    1 groups
 distr:  one band on NCORES_PER_BAND=   1 cores,    1 groups


--------------------------------------------------------------------------------------------------------


 INCAR:
 POTCAR:   PAW Au 04Feb1998                       
 POTCAR:   PAW Au 04Feb1998                       
   VRHFIN =Au: s1d10                                                            
   LEXCH  = CA                                                                  
   EATOM  =   929.4667 eV,   68.3139 Ry                                         
                                                                                
   TITEL  = PAW Au 04Feb1998                                                    
   LULTRA =        F    use ultrasoft PP ?                                      
   IUNSCR =        1    unscreen: 0-lin 1-nonlin 2-no                           
   RPACOR =    2.330    partial core radius                                     
   POMASS =  196.966; ZVAL   =   11.000    mass and valenz                      
   RCORE  =    2.500    outmost cutoff radius                                   
   RWIGS  =    2.840; RWIGS  =    1.503    wigner-seitz radius (au A)           
   ENMAX  =  229.869; ENMIN  =  172.402 eV                                      
   RCLOC  =    1.964    cutoff for local pot                                    
   LCOR   =        T    correct aug charges                                     
   LPAW   =        T    paw PP                                                  
   EAUG   =  356.670                                                            
   DEXC   =    -.020                                                            
   RMAX   =    3.041    core radius for proj-oper                               
   RDEP   =    2.598    core radius for depl-charge                             
   QCUT   =   -4.110; QGAM   =    8.221    optimization parameters              
                                                                                
   Description                                                                  
     l     E      TYP  RCUT    TYP  RCUT                                        
     2   .000     23  2.500                                                     
     2   .000     23  2.500                                                     
     0   .000     23  2.500                                                     
     0   .000     23  2.500                                                     
     1  -.200     23  2.500                                                     
     1   .000     23  2.500                                                     
     3   .000      7   .000                                                     
  local pseudopotential read in
  partial core-charges read in
  atomic valenz-charges read in
  non local Contribution for L=           2  read in
    real space projection operators read in
  non local Contribution for L=           2  read in
    real space projection operators read in
  non local Contribution for L=           0  read in
    real space projection operators read in
  non local Contribution for L=           0  read in
    real space projection operators read in
  non local Contribution for L=           1  read in
    real space projection operators read in
  non local Contribution for L=           1  read in
    real space projection operators read in
    PAW grid and wavefunctions read in
 
   number of l-projection  operators is LMAX  =           6
   number of lm-projection operators is LMMAX =          18
 
 PAW Au 04Feb1998                       :
 energy of atom  1       EATOM= -929.4667
 kinetic energy error for atom=    0.0706 (will be added to EATOM!!)
 
 
 POSCAR: Au bulk FCC                             
  positions in direct lattice
  No initial velocities read in
 exchange correlation table for  LEXCH =        2
   RHO(1)=    0.500       N(1)  =     2000
   RHO(2)=  100.500       N(2)  =     4000
 


--------------------------------------------------------------------------------------------------------


 ion  position               nearest neighbor table
   1  0.000  0.000  0.000-
 
  LATTYP: Found a face centered cubic cell.
 ALAT       =     4.0800000000
  
  Lattice vectors:
  
 A1 = (   0.0000000000,   2.0400000000,   2.0400000000)
 A2 = (   2.0400000000,   0.0000000000,   2.0400000000)
 A3 = (   2.0400000000,   2.0400000000,   0.0000000000)


Analysis of symmetry for initial positions (statically):
=====================================================================
 Subroutine PRICEL returns:
 Original cell was already a primitive cell.
 

 Routine SETGRP: Setting up the symmetry group for a 
 face centered cubic supercell.


 Subroutine GETGRP returns: Found 48 space group operations
 (whereof 48 operations were pure point group operations)
 out of a pool of 48 trial point group operations.


The static configuration has the point symmetry O_h .


Analysis of symmetry for dynamics (positions and initial velocities):
=====================================================================
 Subroutine PRICEL returns:
 Original cell was already a primitive cell.
 

 Routine SETGRP: Setting up the symmetry group for a 
 face centered cubic supercell.


 Subroutine GETGRP returns: Found 48 space group operations
 (whereof 48 operations were pure point group operations)
 out of a pool of 48 trial point group operations.


The dynamic configuration has the point symmetry O_h .


 Subroutine INISYM returns: Found 48 space group operations
 (whereof 48 operations are pure point group operations),
 and found     1 'primitive' translations

 
 
 KPOINTS: 20x20x20                                

Automatic generation of k-mesh.
Space group operators:
 irot       det(A)        alpha          n_x          n_y          n_z        tau_x        tau_y        tau_z
    1     1.000000     0.000001     1.000000     0.000000     0.000000     0.000000     0.000000     0.000000
    2    -1.000000     0.000001     1.000000     0.000000     0.000000     0.000000     0.000000     0.000000
    3     1.000000   120.000000    -0.577350    -0.577350    -0.577350     0.000000     0.000000     0.000000
    4    -1.000000   120.000000    -0.577350    -0.577350    -0.577350     0.000000     0.000000     0.000000
    5     1.000000   120.000000     0.577350     0.577350     0.577350     0.000000     0.000000     0.000000
    6    -1.000000   120.000000     0.577350     0.577350     0.577350     0.000000     0.000000     0.000000
    7     1.000000    90.000000     0.000000     0.000000    -1.000000     0.000000     0.000000     0.000000
    8    -1.000000    90.000000     0.000000     0.000000    -1.000000     0.000000     0.000000     0.000000
    9     1.000000   180.000000     0.000000     0.707107     0.707107     0.000000     0.000000     0.000000
   10    -1.000000   180.000000     0.000000     0.707107     0.707107     0.000000     0.000000     0.000000
   11     1.000000    90.000000     0.000000     1.000000     0.000000     0.000000     0.000000     0.000000
   12    -1.000000    90.000000     0.000000     1.000000     0.000000     0.000000     0.000000     0.000000
   13     1.000000   180.000000     0.000000     0.000000     1.000000     0.000000     0.000000     0.000000
   14    -1.000000   180.000000     0.000000     0.000000     1.000000     0.000000     0.000000     0.000000
   15     1.000000   120.000000    -0.577350     0.577350     0.577350     0.000000     0.000000     0.000000
   16    -1.000000   120.000000    -0.577350     0.577350     0.577350     0.000000     0.000000     0.000000
   17     1.000000   120.000000    -0.577350     0.577350    -0.577350     0.000000     0.000000     0.000000
   18    -1.000000   120.000000    -0.577350     0.577350    -0.577350     0.000000     0.000000     0.000000
   19     1.000000    90.000000     0.000000     0.000000     1.000000     0.000000     0.000000     0.000000
   20    -1.000000    90.000000     0.000000     0.000000     1.000000     0.000000     0.000000     0.000000
   21     1.000000    90.000000    -1.000000     0.000000     0.000000     0.000000     0.000000     0.000000
   22    -1.000000    90.000000    -1.000000     0.000000     0.000000     0.000000     0.000000     0.000000
   23     1.000000   180.000000     0.707107     0.000000     0.707107     0.000000     0.000000     0.000000
   24    -1.000000   180.000000     0.707107     0.000000     0.707107     0.000000     0.000000     0.000000
   25     1.000000   120.000000     0.577350    -0.577350     0.577350     0.000000     0.000000     0.000000
   26    -1.000000   120.000000     0.577350    -0.577350     0.577350     0.000000     0.000000     0.000000
   27     1.000000   120.000000    -0.577350    -0.577350     0.577350     0.000000     0.000000     0.000000
   28    -1.000000   120.000000    -0.577350    -0.577350     0.577350     0.000000     0.000000     0.000000
   29     1.000000   180.000000     1.000000     0.000000     0.000000     0.000000     0.000000     0.000000
   30    -1.000000   180.000000     1.000000     0.000000     0.000000     0.000000     0.000000     0.000000
   31     1.000000    90.000000     0.000000    -1.000000     0.000000     0.000000     0.000000     0.000000
   32    -1.000000    90.000000     0.000000    -1.000000     0.000000     0.000000     0.000000     0.000000
   33     1.000000   180.000000     0.707107     0.707107     0.000000     0.000000     0.000000     0.000000
   34    -1.000000   180.000000     0.707107     0.707107     0.000000     0.000000     0.000000     0.000000
   35     1.000000    90.000000     1.000000     0.000000     0.000000     0.000000     0.000000     0.000000
   36    -1.000000    90.000000     1.000000     0.000000     0.000000     0.000000     0.000000     0.000000
   37     1.000000   120.000000     0.577350    -0.577350    -0.577350     0.000000     0.000000     0.000000
   38    -1.000000   120.000000     0.577350    -0.577350    -0.577350     0.000000     0.000000     0.000000
   39     1.000000   180.000000     0.000000     1.000000     0.000000     0.000000     0.000000     0.000000
   40    -1.000000   180.000000     0.000000     1.000000     0.000000     0.000000     0.000000     0.000000
   41     1.000000   120.000000     0.577350     0.577350    -0.577350     0.000000     0.000000     0.000000
   42    -1.000000   120.000000     0.577350     0.577350    -0.577350     0.000000     0.000000     0.000000
   43     1.000000   180.000000     0.000000    -0.707107     0.707107     0.000000     0.000000     0.000000
   44    -1.000000   180.000000     0.000000    -0.707107     0.707107     0.000000     0.000000     0.000000
   45     1.000000   180.000000     0.707107    -0.707107     0.000000     0.000000     0.000000     0.000000
   46    -1.000000   180.000000     0.707107    -0.707107     0.000000     0.000000     0.000000     0.000000
   47     1.000000   180.000000     0.707107     0.000000    -0.707107     0.000000     0.000000     0.000000
   48    -1.000000   180.000000     0.707107     0.000000    -0.707107     0.000000     0.000000     0.000000
 
 Subroutine IBZKPT returns following result:
 ===========================================
 
 Found    770 irreducible k-points:
 
 Following reciprocal coordinates:
            Coordinates               Weight
  0.025000  0.025000  0.025000     96.000000
  0.075000  0.025000  0.025000    288.000000
  0.125000  0.025000  0.025000    288.000000
  0.175000  0.025000  0.025000    288.000000
  0.225000  0.025000  0.025000    288.000000
  0.275000  0.025000  0.025000    288.000000
  0.325000  0.025000  0.025000    288.000000
  0.375000  0.025000  0.025000    288.000000
  0.425000  0.025000  0.025000    288.000000
  0.475000  0.025000  0.025000    288.000000
 -0.475000  0.025000  0.025000    288.000000
 -0.425000  0.025000  0.025000    288.000000
 -0.375000  0.025000  0.025000    288.000000
 -0.325000  0.025000  0.025000    288.000000
 -0.275000  0.025000  0.025000    288.000000
 -0.225000  0.025000  0.025000    288.000000
 -0.175000  0.025000  0.025000    288.000000
 -0.125000  0.025000  0.025000    288.000000
 -0.075000  0.025000  0.025000    288.000000
 -0.025000  0.025000  0.025000    288.000000
  0.075000  0.075000  0.025000    288.000000
  0.125000  0.075000  0.025000    576.000000
  0.175000  0.075000  0.025000    576.000000
  0.225000  0.075000  0.025000    576.000000
  0.275000  0.075000  0.025000    576.000000
  0.325000  0.075000  0.025000    576.000000
  0.375000  0.075000  0.025000    576.000000
  0.425000  0.075000  0.025000    576.000000
  0.475000  0.075000  0.025000    576.000000
 -0.475000  0.075000  0.025000    576.000000
 -0.425000  0.075000  0.025000    576.000000
 -0.375000  0.075000  0.025000    576.000000
 -0.325000  0.075000  0.025000    576.000000
 -0.275000  0.075000  0.025000    576.000000
 -0.225000  0.075000  0.025000    576.000000
 -0.175000  0.075000  0.025000    576.000000
 -0.125000  0.075000  0.025000    576.000000
 -0.075000  0.075000  0.025000    576.000000
 -0.025000  0.075000  0.025000    576.000000
  0.125000  0.125000  0.025000    288.000000
  0.175000  0.125000  0.025000    576.000000
  0.225000  0.125000  0.025000    576.000000
  0.275000  0.125000  0.025000    576.000000
  0.325000  0.125000  0.025000    576.000000
  0.375000  0.125000  0.025000    576.000000
  0.425000  0.125000  0.025000    576.000000
  0.475000  0.125000  0.025000    576.000000
 -0.475000  0.125000  0.025000    576.000000
 -0.425000  0.125000  0.025000    576.000000
 -0.375000  0.125000  0.025000    576.000000
 -0.325000  0.125000  0.025000    576.000000
 -0.275000  0.125000  0.025000    576.000000
 -0.225000  0.125000  0.025000    576.000000
 -0.175000  0.125000  0.025000    576.000000
 -0.125000  0.125000  0.025000    576.000000
 -0.075000  0.125000  0.025000    576.000000
 -0.025000  0.125000  0.025000    576.000000
  0.175000  0.175000  0.025000    288.000000
  0.225000  0.175000  0.025000    576.000000
  0.275000  0.175000  0.025000    576.000000
  0.325000  0.175000  0.025000    576.000000
  0.375000  0.175000  0.025000    576.000000
  0.425000  0.175000  0.025000    576.000000
  0.475000  0.175000  0.025000    576.000000
 -0.475000  0.175000  0.025000    576.000000
 -0.425000  0.175000  0.025000    576.000000
 -0.375000  0.175000  0.025000    576.000000
 -0.325000  0.175000  0.025000    576.000000
 -0.275000  0.175000  0.025000    576.000000
 -0.225000  0.175000  0.025000    576.000000
 -0.175000  0.175000  0.025000    576.000000
 -0.125000  0.175000  0.025000    576.000000
 -0.075000  0.175000  0.025000    576.000000
 -0.025000  0.175000  0.025000    576.000000
  0.225000  0.225000  0.025000    288.000000
  0.275000  0.225000  0.025000    576.000000
  0.325000  0.225000  0.025000    576.000000
  0.375000  0.225000  0.025000    576.000000
  0.425000  0.225000  0.025000    576.000000
  0.475000  0.225000  0.025000    576.000000
 -0.475000  0.225000  0.025000    576.000000
 -0.425000  0.225000  0.025000    576.000000
 -0.375000  0.225000  0.025000    576.000000
 -0.325000  0.225000  0.025000    576.000000
 -0.275000  0.225000  0.025000    576.000000
 -0.225000  0.225000  0.025000    576.000000
 -0.175000  0.225000  0.025000    576.000000
 -0.125000  0.225000  0.025000    576.000000
 -0.075000  0.225000  0.025000    576.000000
 -0.025000  0.225000  0.025000    576.000000
  0.275000  0.275000  0.025000    288.000000
  0.325000  0.275000  0.025000    576.000000
  0.375000  0.275000  0.025000    576.000000
  0.425000  0.275000  0.025000    576.000000
  0.475000  0.275000  0.025000    576.000000
 -0.475000  0.275000  0.025000    576.000000
 -0.425000  0.275000  0.025000    576.000000
 -0.375000  0.275000  0.025000    576.000000
 -0.325000  0.275000  0.025000    576.000000
 -0.275000  0.275000  0.025000    576.000000
 -0.225000  0.275000  0.025000    576.000000
 -0.175000  0.275000  0.025000    576.000000
 -0.125000  0.275000  0.025000    576.000000
 -0.075000  0.275000  0.025000    576.000000
 -0.025000  0.275000  0.025000    576.000000
  0.325000  0.325000  0.025000    288.000000
  0.375000  0.325000  0.025000    576.000000
  0.425000  0.325000  0.025000    576.000000
  0.475000  0.325000  0.025000    576.000000
 -0.475000  0.325000  0.025000    576.000000
 -0.425000  0.325000  0.025000    576.000000
 -0.375000  0.325000  0.025000    576.000000
 -0.325000  0.325000  0.025000    576.000000
 -0.275000  0.325000  0.025000    576.000000
 -0.225000  0.325000  0.025000    576.000000
 -0.175000  0.325000  0.025000    576.000000
 -0.125000  0.325000  0.025000    576.000000
 -0.075000  0.325000  0.025000    576.000000
 -0.025000  0.325000  0.025000    576.000000
  0.375000  0.375000  0.025000    288.000000
  0.425000  0.375000  0.025000    576.000000
  0.475000  0.375000  0.025000    576.000000
 -0.475000  0.375000  0.025000    576.000000
 -0.425000  0.375000  0.025000    576.000000
 -0.375000  0.375000  0.025000    576.000000
 -0.325000  0.375000  0.025000    576.000000
 -0.275000  0.375000  0.025000    576.000000
 -0.225000  0.375000  0.025000    576.000000
 -0.175000  0.375000  0.025000    576.000000
 -0.125000  0.375000  0.025000    576.000000
 -0.075000  0.375000  0.025000    576.000000
 -0.025000  0.375000  0.025000    576.000000
  0.425000  0.425000  0.025000    288.000000
  0.475000  0.425000  0.025000    576.000000
 -0.475000  0.425000  0.025000    576.000000
 -0.425000  0.425000  0.025000    576.000000
 -0.375000  0.425000  0.025000    576.000000
 -0.325000  0.425000  0.025000    576.000000
 -0.275000  0.425000  0.025000    576.000000
 -0.225000  0.425000  0.025000    576.000000
 -0.175000  0.425000  0.025000    576.000000
 -0.125000  0.425000  0.025000    576.000000
 -0.075000  0.425000  0.025000    576.000000
 -0.025000  0.425000  0.025000    576.000000
  0.475000  0.475000  0.025000    288.000000
 -0.475000  0.475000  0.025000    576.000000
 -0.425000  0.475000  0.025000    576.000000
 -0.375000  0.475000  0.025000    576.000000
 -0.325000  0.475000  0.025000    576.000000
 -0.275000  0.475000  0.025000    576.000000
 -0.225000  0.475000  0.025000    576.000000
 -0.175000  0.475000  0.025000    576.000000
 -0.125000  0.475000  0.025000    576.000000
 -0.075000  0.475000  0.025000    576.000000
 -0.025000  0.475000  0.025000    576.000000
 -0.475000 -0.475000  0.025000    288.000000
 -0.425000 -0.475000  0.025000    576.000000
 -0.375000 -0.475000  0.025000    576.000000
 -0.325000 -0.475000  0.025000    576.000000
 -0.275000 -0.475000  0.025000    576.000000
 -0.225000 -0.475000  0.025000    576.000000
 -0.175000 -0.475000  0.025000    576.000000
 -0.125000 -0.475000  0.025000    576.000000
 -0.075000 -0.475000  0.025000    576.000000
 -0.425000 -0.425000  0.025000    288.000000
 -0.375000 -0.425000  0.025000    576.000000
 -0.325000 -0.425000  0.025000    576.000000
 -0.275000 -0.425000  0.025000    576.000000
 -0.225000 -0.425000  0.025000    576.000000
 -0.175000 -0.425000  0.025000    576.000000
 -0.125000 -0.425000  0.025000    576.000000
 -0.075000 -0.425000  0.025000    576.000000
 -0.375000 -0.375000  0.025000    288.000000
 -0.325000 -0.375000  0.025000    576.000000
 -0.275000 -0.375000  0.025000    576.000000
 -0.225000 -0.375000  0.025000    576.000000
 -0.175000 -0.375000  0.025000    576.000000
 -0.125000 -0.375000  0.025000    576.000000
 -0.075000 -0.375000  0.025000    576.000000
 -0.325000 -0.325000  0.025000    288.000000
 -0.275000 -0.325000  0.025000    576.000000
 -0.225000 -0.325000  0.025000    576.000000
 -0.175000 -0.325000  0.025000    576.000000
 -0.125000 -0.325000  0.025000    576.000000
 -0.075000 -0.325000  0.025000    576.000000
 -0.275000 -0.275000  0.025000    288.000000
 -0.225000 -0.275000  0.025000    576.000000
 -0.175000 -0.275000  0.025000    576.000000
 -0.125000 -0.275000  0.025000    576.000000
 -0.075000 -0.275000  0.025000    576.000000
 -0.225000 -0.225000  0.025000    288.000000
 -0.175000 -0.225000  0.025000    576.000000
 -0.125000 -0.225000  0.025000    576.000000
 -0.075000 -0.225000  0.025000    576.000000
 -0.175000 -0.175000  0.025000    288.000000
 -0.125000 -0.175000  0.025000    576.000000
 -0.075000 -0.175000  0.025000    576.000000
 -0.125000 -0.125000  0.025000    288.000000
 -0.075000 -0.125000  0.025000    576.000000
 -0.075000 -0.075000  0.025000    288.000000
  0.075000  0.075000  0.075000     96.000000
  0.125000  0.075000  0.075000    288.000000
  0.175000  0.075000  0.075000    288.000000
  0.225000  0.075000  0.075000    288.000000
  0.275000  0.075000  0.075000    288.000000
  0.325000  0.075000  0.075000    288.000000
  0.375000  0.075000  0.075000    288.000000
  0.425000  0.075000  0.075000    288.000000
  0.475000  0.075000  0.075000    288.000000
 -0.475000  0.075000  0.075000    288.000000
 -0.425000  0.075000  0.075000    288.000000
 -0.375000  0.075000  0.075000    288.000000
 -0.325000  0.075000  0.075000    288.000000
 -0.275000  0.075000  0.075000    288.000000
 -0.225000  0.075000  0.075000    288.000000
 -0.175000  0.075000  0.075000    288.000000
 -0.125000  0.075000  0.075000    288.000000
 -0.075000  0.075000  0.075000    288.000000
  0.125000  0.125000  0.075000    288.000000
  0.175000  0.125000  0.075000    576.000000
  0.225000  0.125000  0.075000    576.000000
  0.275000  0.125000  0.075000    576.000000
  0.325000  0.125000  0.075000    576.000000
  0.375000  0.125000  0.075000    576.000000
  0.425000  0.125000  0.075000    576.000000
  0.475000  0.125000  0.075000    576.000000
 -0.475000  0.125000  0.075000    576.000000
 -0.425000  0.125000  0.075000    576.000000
 -0.375000  0.125000  0.075000    576.000000
 -0.325000  0.125000  0.075000    576.000000
 -0.275000  0.125000  0.075000    576.000000
 -0.225000  0.125000  0.075000    576.000000
 -0.175000  0.125000  0.075000    576.000000
 -0.125000  0.125000  0.075000    576.000000
 -0.075000  0.125000  0.075000    576.000000
  0.175000  0.175000  0.075000    288.000000
  0.225000  0.175000  0.075000    576.000000
  0.275000  0.175000  0.075000    576.000000
  0.325000  0.175000  0.075000    576.000000
  0.375000  0.175000  0.075000    576.000000
  0.425000  0.175000  0.075000    576.000000
  0.475000  0.175000  0.075000    576.000000
 -0.475000  0.175000  0.075000    576.000000
 -0.425000  0.175000  0.075000    576.000000
 -0.375000  0.175000  0.075000    576.000000
 -0.325000  0.175000  0.075000    576.000000
 -0.275000  0.175000  0.075000    576.000000
 -0.225000  0.175000  0.075000    576.000000
 -0.175000  0.175000  0.075000    576.000000
 -0.125000  0.175000  0.075000    576.000000
 -0.075000  0.175000  0.075000    576.000000
  0.225000  0.225000  0.075000    288.000000
  0.275000  0.225000  0.075000    576.000000
  0.325000  0.225000  0.075000    576.000000
  0.375000  0.225000  0.075000    576.000000
  0.425000  0.225000  0.075000    576.000000
  0.475000  0.225000  0.075000    576.000000
 -0.475000  0.225000  0.075000    576.000000
 -0.425000  0.225000  0.075000    576.000000
 -0.375000  0.225000  0.075000    576.000000
 -0.325000  0.225000  0.075000    576.000000
 -0.275000  0.225000  0.075000    576.000000
 -0.225000  0.225000  0.075000    576.000000
 -0.175000  0.225000  0.075000    576.000000
 -0.125000  0.225000  0.075000    576.000000
 -0.075000  0.225000  0.075000    576.000000
  0.275000  0.275000  0.075000    288.000000
  0.325000  0.275000  0.075000    576.000000
  0.375000  0.275000  0.075000    576.000000
  0.425000  0.275000  0.075000    576.000000
  0.475000  0.275000  0.075000    576.000000
 -0.475000  0.275000  0.075000    576.000000
 -0.425000  0.275000  0.075000    576.000000
 -0.375000  0.275000  0.075000    576.000000
 -0.325000  0.275000  0.075000    576.000000
 -0.275000  0.275000  0.075000    576.000000
 -0.225000  0.275000  0.075000    576.000000
 -0.175000  0.275000  0.075000    576.000000
 -0.125000  0.275000  0.075000    576.000000
 -0.075000  0.275000  0.075000    576.000000
  0.325000  0.325000  0.075000    288.000000
  0.375000  0.325000  0.075000    576.000000
  0.425000  0.325000  0.075000    576.000000
  0.475000  0.325000  0.075000    576.000000
 -0.475000  0.325000  0.075000    576.000000
 -0.425000  0.325000  0.075000    576.000000
 -0.375000  0.325000  0.075000    576.000000
 -0.325000  0.325000  0.075000    576.000000
 -0.275000  0.325000  0.075000    576.000000
 -0.225000  0.325000  0.075000    576.000000
 -0.175000  0.325000  0.075000    576.000000
 -0.125000  0.325000  0.075000    576.000000
 -0.075000  0.325000  0.075000    576.000000
  0.375000  0.375000  0.075000    288.000000
  0.425000  0.375000  0.075000    576.000000
  0.475000  0.375000  0.075000    576.000000
 -0.475000  0.375000  0.075000    576.000000
 -0.425000  0.375000  0.075000    576.000000
 -0.375000  0.375000  0.075000    576.000000
 -0.325000  0.375000  0.075000    576.000000
 -0.275000  0.375000  0.075000    576.000000
 -0.225000  0.375000  0.075000    576.000000
 -0.175000  0.375000  0.075000    576.000000
 -0.125000  0.375000  0.075000    576.000000
 -0.075000  0.375000  0.075000    576.000000
  0.425000  0.425000  0.075000    288.000000
  0.475000  0.425000  0.075000    576.000000
 -0.475000  0.425000  0.075000    576.000000
 -0.425000  0.425000  0.075000    576.000000
 -0.375000  0.425000  0.075000    576.000000
 -0.325000  0.425000  0.075000    576.000000
 -0.275000  0.425000  0.075000    576.000000
 -0.225000  0.425000  0.075000    576.000000
 -0.175000  0.425000  0.075000    576.000000
 -0.125000  0.425000  0.075000    576.000000
 -0.075000  0.425000  0.075000    576.000000
  0.475000  0.475000  0.075000    288.000000
 -0.475000  0.475000  0.075000    576.000000
 -0.425000  0.475000  0.075000    576.000000
 -0.375000  0.475000  0.075000    576.000000
 -0.325000  0.475000  0.075000    576.000000
 -0.275000  0.475000  0.075000    576.000000
 -0.225000  0.475000  0.075000    576.000000
 -0.175000  0.475000  0.075000    576.000000
 -0.125000  0.475000  0.075000    576.000000
 -0.075000  0.475000  0.075000    576.000000
 -0.475000 -0.475000  0.075000    288.000000
 -0.425000 -0.475000  0.075000    576.000000
 -0.375000 -0.475000  0.075000    576.000000
 -0.325000 -0.475000  0.075000    576.000000
 -0.275000 -0.475000  0.075000    576.000000
 -0.225000 -0.475000  0.075000    576.000000
 -0.175000 -0.475000  0.075000    576.000000
 -0.125000 -0.475000  0.075000    576.000000
 -0.425000 -0.425000  0.075000    288.000000
 -0.375000 -0.425000  0.075000    576.000000
 -0.325000 -0.425000  0.075000    576.000000
 -0.275000 -0.425000  0.075000    576.000000
 -0.225000 -0.425000  0.075000    576.000000
 -0.175000 -0.425000  0.075000    576.000000
 -0.125000 -0.425000  0.075000    576.000000
 -0.375000 -0.375000  0.075000    288.000000
 -0.325000 -0.375000  0.075000    576.000000
 -0.275000 -0.375000  0.075000    576.000000
 -0.225000 -0.375000  0.075000    576.000000
 -0.175000 -0.375000  0.075000    576.000000
 -0.125000 -0.375000  0.075000    576.000000
 -0.325000 -0.325000  0.075000    288.000000
 -0.275000 -0.325000  0.075000    576.000000
 -0.225000 -0.325000  0.075000    576.000000
 -0.175000 -0.325000  0.075000    576.000000
 -0.125000 -0.325000  0.075000    576.000000
 -0.275000 -0.275000  0.075000    288.000000
 -0.225000 -0.275000  0.075000    576.000000
 -0.175000 -0.275000  0.075000    576.000000
 -0.125000 -0.275000  0.075000    576.000000
 -0.225000 -0.225000  0.075000    288.000000
 -0.175000 -0.225000  0.075000    576.000000
 -0.125000 -0.225000  0.075000    576.000000
 -0.175000 -0.175000  0.075000    288.000000
 -0.125000 -0.175000  0.075000    576.000000
 -0.125000 -0.125000  0.075000    288.000000
  0.125000  0.125000  0.125000     96.000000
  0.175000  0.125000  0.125000    288.000000
  0.225000  0.125000  0.125000    288.000000
  0.275000  0.125000  0.125000    288.000000
  0.325000  0.125000  0.125000    288.000000
  0.375000  0.125000  0.125000    288.000000
  0.425000  0.125000  0.125000    288.000000
  0.475000  0.125000  0.125000    288.000000
 -0.475000  0.125000  0.125000    288.000000
 -0.425000  0.125000  0.125000    288.000000
 -0.375000  0.125000  0.125000    288.000000
 -0.325000  0.125000  0.125000    288.000000
 -0.275000  0.125000  0.125000    288.000000
 -0.225000  0.125000  0.125000    288.000000
 -0.175000  0.125000  0.125000    288.000000
 -0.125000  0.125000  0.125000    288.000000
  0.175000  0.175000  0.125000    288.000000
  0.225000  0.175000  0.125000    576.000000
  0.275000  0.175000  0.125000    576.000000
  0.325000  0.175000  0.125000    576.000000
  0.375000  0.175000  0.125000    576.000000
  0.425000  0.175000  0.125000    576.000000
  0.475000  0.175000  0.125000    576.000000
 -0.475000  0.175000  0.125000    576.000000
 -0.425000  0.175000  0.125000    576.000000
 -0.375000  0.175000  0.125000    576.000000
 -0.325000  0.175000  0.125000    576.000000
 -0.275000  0.175000  0.125000    576.000000
 -0.225000  0.175000  0.125000    576.000000
 -0.175000  0.175000  0.125000    576.000000
 -0.125000  0.175000  0.125000    576.000000
  0.225000  0.225000  0.125000    288.000000
  0.275000  0.225000  0.125000    576.000000
  0.325000  0.225000  0.125000    576.000000
  0.375000  0.225000  0.125000    576.000000
  0.425000  0.225000  0.125000    576.000000
  0.475000  0.225000  0.125000    576.000000
 -0.475000  0.225000  0.125000    576.000000
 -0.425000  0.225000  0.125000    576.000000
 -0.375000  0.225000  0.125000    576.000000
 -0.325000  0.225000  0.125000    576.000000
 -0.275000  0.225000  0.125000    576.000000
 -0.225000  0.225000  0.125000    576.000000
 -0.175000  0.225000  0.125000    576.000000
 -0.125000  0.225000  0.125000    576.000000
  0.275000  0.275000  0.125000    288.000000
  0.325000  0.275000  0.125000    576.000000
  0.375000  0.275000  0.125000    576.000000
  0.425000  0.275000  0.125000    576.000000
  0.475000  0.275000  0.125000    576.000000
 -0.475000  0.275000  0.125000    576.000000
 -0.425000  0.275000  0.125000    576.000000
 -0.375000  0.275000  0.125000    576.000000
 -0.325000  0.275000  0.125000    576.000000
 -0.275000  0.275000  0.125000    576.000000
 -0.225000  0.275000  0.125000    576.000000
 -0.175000  0.275000  0.125000    576.000000
 -0.125000  0.275000  0.125000    576.000000
  0.325000  0.325000  0.125000    288.000000
  0.375000  0.325000  0.125000    576.000000
  0.425000  0.325000  0.125000    576.000000
  0.475000  0.325000  0.125000    576.000000
 -0.475000  0.325000  0.125000    576.000000
 -0.425000  0.325000  0.125000    576.000000
 -0.375000  0.325000  0.125000    576.000000
 -0.325000  0.325000  0.125000    576.000000
 -0.275000  0.325000  0.125000    576.000000
 -0.225000  0.325000  0.125000    576.000000
 -0.175000  0.325000  0.125000    576.000000
 -0.125000  0.325000  0.125000    576.000000
  0.375000  0.375000  0.125000    288.000000
  0.425000  0.375000  0.125000    576.000000
  0.475000  0.375000  0.125000    576.000000
 -0.475000  0.375000  0.125000    576.000000
 -0.425000  0.375000  0.125000    576.000000
 -0.375000  0.375000  0.125000    576.000000
 -0.325000  0.375000  0.125000    576.000000
 -0.275000  0.375000  0.125000    576.000000
 -0.225000  0.375000  0.125000    576.000000
 -0.175000  0.375000  0.125000    576.000000
 -0.125000  0.375000  0.125000    576.000000
  0.425000  0.425000  0.125000    288.000000
  0.475000  0.425000  0.125000    576.000000
 -0.475000  0.425000  0.125000    576.000000
 -0.425000  0.425000  0.125000    576.000000
 -0.375000  0.425000  0.125000    576.000000
 -0.325000  0.425000  0.125000    576.000000
 -0.275000  0.425000  0.125000    576.000000
 -0.225000  0.425000  0.125000    576.000000
 -0.175000  0.425000  0.125000    576.000000
 -0.125000  0.425000  0.125000    576.000000
  0.475000  0.475000  0.125000    288.000000
 -0.475000  0.475000  0.125000    576.000000
 -0.425000  0.475000  0.125000    576.000000
 -0.375000  0.475000  0.125000    576.000000
 -0.325000  0.475000  0.125000    576.000000
 -0.275000  0.475000  0.125000    576.000000
 -0.225000  0.475000  0.125000    576.000000
 -0.175000  0.475000  0.125000    576.000000
 -0.125000  0.475000  0.125000    576.000000
 -0.475000 -0.475000  0.125000    288.000000
 -0.425000 -0.475000  0.125000    576.000000
 -0.375000 -0.475000  0.125000    576.000000
 -0.325000 -0.475000  0.125000    576.000000
 -0.275000 -0.475000  0.125000    576.000000
 -0.225000 -0.475000  0.125000    576.000000
 -0.175000 -0.475000  0.125000    576.000000
 -0.425000 -0.425000  0.125000    288.000000
 -0.375000 -0.425000  0.125000    576.000000
 -0.325000 -0.425000  0.125000    576.000000
 -0.275000 -0.425000  0.125000    576.000000
 -0.225000 -0.425000  0.125000    576.000000
 -0.175000 -0.425000  0.125000    576.000000
 -0.375000 -0.375000  0.125000    288.000000
 -0.325000 -0.375000  0.125000    576.000000
 -0.275000 -0.375000  0.125000    576.000000
 -0.225000 -0.375000  0.125000    576.000000
 -0.175000 -0.375000  0.125000    576.000000
 -0.325000 -0.325000  0.125000    288.000000
 -0.275000 -0.325000  0.125000    576.000000
 -0.225000 -0.325000  0.125000    576.000000
 -0.175000 -0.325000  0.125000    576.000000
 -0.275000 -0.275000  0.125000    288.000000
 -0.225000 -0.275000  0.125000    576.000000
 -0.175000 -0.275000  0.125000    576.000000
 -0.225000 -0.225000  0.125000    288.000000
 -0.175000 -0.225000  0.125000    576.000000
 -0.175000 -0.175000  0.125000    288.000000
  0.175000  0.175000  0.175000     96.000000
  0.225000  0.175000  0.175000    288.000000
  0.275000  0.175000  0.175000    288.000000
  0.325000  0.175000  0.175000    288.000000
  0.375000  0.175000  0.175000    288.000000
  0.425000  0.175000  0.175000    288.000000
  0.475000  0.175000  0.175000    288.000000
 -0.475000  0.175000  0.175000    288.000000
 -0.425000  0.175000  0.175000    288.000000
 -0.375000  0.175000  0.175000    288.000000
 -0.325000  0.175000  0.175000    288.000000
 -0.275000  0.175000  0.175000    288.000000
 -0.225000  0.175000  0.175000    288.000000
 -0.175000  0.175000  0.175000    288.000000
  0.225000  0.225000  0.175000    288.000000
  0.275000  0.225000  0.175000    576.000000
  0.325000  0.225000  0.175000    576.000000
  0.375000  0.225000  0.175000    576.000000
  0.425000  0.225000  0.175000    576.000000
  0.475000  0.225000  0.175000    576.000000
 -0.475000  0.225000  0.175000    576.000000
 -0.425000  0.225000  0.175000    576.000000
 -0.375000  0.225000  0.175000    576.000000
 -0.325000  0.225000  0.175000    576.000000
 -0.275000  0.225000  0.175000    576.000000
 -0.225000  0.225000  0.175000    576.000000
 -0.175000  0.225000  0.175000    576.000000
  0.275000  0.275000  0.175000    288.000000
  0.325000  0.275000  0.175000    576.000000
  0.375000  0.275000  0.175000    576.000000
  0.425000  0.275000  0.175000    576.000000
  0.475000  0.275000  0.175000    576.000000
 -0.475000  0.275000  0.175000    576.000000
 -0.425000  0.275000  0.175000    576.000000
 -0.375000  0.275000  0.175000    576.000000
 -0.325000  0.275000  0.175000    576.000000
 -0.275000  0.275000  0.175000    576.000000
 -0.225000  0.275000  0.175000    576.000000
 -0.175000  0.275000  0.175000    576.000000
  0.325000  0.325000  0.175000    288.000000
  0.375000  0.325000  0.175000    576.000000
  0.425000  0.325000  0.175000    576.000000
  0.475000  0.325000  0.175000    576.000000
 -0.475000  0.325000  0.175000    576.000000
 -0.425000  0.325000  0.175000    576.000000
 -0.375000  0.325000  0.175000    576.000000
 -0.325000  0.325000  0.175000    576.000000
 -0.275000  0.325000  0.175000    576.000000
 -0.225000  0.325000  0.175000    576.000000
 -0.175000  0.325000  0.175000    576.000000
  0.375000  0.375000  0.175000    288.000000
  0.425000  0.375000  0.175000    576.000000
  0.475000  0.375000  0.175000    576.000000
 -0.475000  0.375000  0.175000    576.000000
 -0.425000  0.375000  0.175000    576.000000
 -0.375000  0.375000  0.175000    576.000000
 -0.325000  0.375000  0.175000    576.000000
 -0.275000  0.375000  0.175000    576.000000
 -0.225000  0.375000  0.175000    576.000000
 -0.175000  0.375000  0.175000    576.000000
  0.425000  0.425000  0.175000    288.000000
  0.475000  0.425000  0.175000    576.000000
 -0.475000  0.425000  0.175000    576.000000
 -0.425000  0.425000  0.175000    576.000000
 -0.375000  0.425000  0.175000    576.000000
 -0.325000  0.425000  0.175000    576.000000
 -0.275000  0.425000  0.175000    576.000000
 -0.225000  0.425000  0.175000    576.000000
 -0.175000  0.425000  0.175000    576.000000
  0.475000  0.475000  0.175000    288.000000
 -0.475000  0.475000  0.175000    576.000000
 -0.425000  0.475000  0.175000    576.000000
 -0.375000  0.475000  0.175000    576.000000
 -0.325000  0.475000  0.175000    576.000000
 -0.275000  0.475000  0.175000    576.000000
 -0.225000  0.475000  0.175000    576.000000
 -0.175000  0.475000  0.175000    576.000000
 -0.475000 -0.475000  0.175000    288.000000
 -0.425000 -0.475000  0.175000    576.000000
 -0.375000 -0.475000  0.175000    576.000000
 -0.325000 -0.475000  0.175000    576.000000
 -0.275000 -0.475000  0.175000    576.000000
 -0.225000 -0.475000  0.175000    576.000000
 -0.425000 -0.425000  0.175000    288.000000
 -0.375000 -0.425000  0.175000    576.000000
 -0.325000 -0.425000  0.175000    576.000000
 -0.275000 -0.425000  0.175000    576.000000
 -0.225000 -0.425000  0.175000    576.000000
 -0.375000 -0.375000  0.175000    288.000000
 -0.325000 -0.375000  0.175000    576.000000
 -0.275000 -0.375000  0.175000    576.000000
 -0.225000 -0.375000  0.175000    576.000000
 -0.325000 -0.325000  0.175000    288.000000
 -0.275000 -0.325000  0.175000    576.000000
 -0.225000 -0.325000  0.175000    576.000000
 -0.275000 -0.275000  0.175000    288.000000
 -0.225000 -0.275000  0.175000    576.000000
 -0.225000 -0.225000  0.175000    288.000000
  0.225000  0.225000  0.225000     96.000000
  0.275000  0.225000  0.225000    288.000000
  0.325000  0.225000  0.225000    288.000000
  0.375000  0.225000  0.225000    288.000000
  0.425000  0.225000  0.225000    288.000000
  0.475000  0.225000  0.225000    288.000000
 -0.475000  0.225000  0.225000    288.000000
 -0.425000  0.225000  0.225000    288.000000
 -0.375000  0.225000  0.225000    288.000000
 -0.325000  0.225000  0.225000    288.000000
 -0.275000  0.225000  0.225000    288.000000
 -0.225000  0.225000  0.225000    288.000000
  0.275000  0.275000  0.225000    288.000000
  0.325000  0.275000  0.225000    576.000000
  0.375000  0.275000  0.225000    576.000000
  0.425000  0.275000  0.225000    576.000000
  0.475000  0.275000  0.225000    576.000000
 -0.475000  0.275000  0.225000    576.000000
 -0.425000  0.275000  0.225000    576.000000
 -0.375000  0.275000  0.225000    576.000000
 -0.325000  0.275000  0.225000    576.000000
 -0.275000  0.275000  0.225000    576.000000
 -0.225000  0.275000  0.225000    576.000000
  0.325000  0.325000  0.225000    288.000000
  0.375000  0.325000  0.225000    576.000000
  0.425000  0.325000  0.225000    576.000000
  0.475000  0.325000  0.225000    576.000000
 -0.475000  0.325000  0.225000    576.000000
 -0.425000  0.325000  0.225000    576.000000
 -0.375000  0.325000  0.225000    576.000000
 -0.325000  0.325000  0.225000    576.000000
 -0.275000  0.325000  0.225000    576.000000
 -0.225000  0.325000  0.225000    576.000000
  0.375000  0.375000  0.225000    288.000000
  0.425000  0.375000  0.225000    576.000000
  0.475000  0.375000  0.225000    576.000000
 -0.475000  0.375000  0.225000    576.000000
 -0.425000  0.375000  0.225000    576.000000
 -0.375000  0.375000  0.225000    576.000000
 -0.325000  0.375000  0.225000    576.000000
 -0.275000  0.375000  0.225000    576.000000
 -0.225000  0.375000  0.225000    576.000000
  0.425000  0.425000  0.225000    288.000000
  0.475000  0.425000  0.225000    576.000000
 -0.475000  0.425000  0.225000    576.000000
 -0.425000  0.425000  0.225000    576.000000
 -0.375000  0.425000  0.225000    576.000000
 -0.325000  0.425000  0.225000    576.000000
 -0.275000  0.425000  0.225000    576.000000
 -0.225000  0.425000  0.225000    576.000000
  0.475000  0.475000  0.225000    288.000000
 -0.475000  0.475000  0.225000    576.000000
 -0.425000  0.475000  0.225000    576.000000
 -0.375000  0.475000  0.225000    576.000000
 -0.325000  0.475000  0.225000    576.000000
 -0.275000  0.475000  0.225000    576.000000
 -0.225000  0.475000  0.225000    576.000000
 -0.475000 -0.475000  0.225000    288.000000
 -0.425000 -0.475000  0.225000    576.000000
 -0.375000 -0.475000  0.225000    576.000000
 -0.325000 -0.475000  0.225000    576.000000
 -0.275000 -0.475000  0.225000    576.000000
 -0.425000 -0.425000  0.225000    288.000000
 -0.375000 -0.425000  0.225000    576.000000
 -0.325000 -0.425000  0.225000    576.000000
 -0.275000 -0.425000  0.225000    576.000000
 -0.375000 -0.375000  0.225000    288.000000
 -0.325000 -0.375000  0.225000    576.000000
 -0.275000 -0.375000  0.225000    576.000000
 -0.325000 -0.325000  0.225000    288.000000
 -0.275000 -0.325000  0.225000    576.000000
 -0.275000 -0.275000  0.225000    288.000000
  0.275000  0.275000  0.275000     96.000000
  0.325000  0.275000  0.275000    288.000000
  0.375000  0.275000  0.275000    288.000000
  0.425000  0.275000  0.275000    288.000000
  0.475000  0.275000  0.275000    288.000000
 -0.475000  0.275000  0.275000    288.000000
 -0.425000  0.275000  0.275000    288.000000
 -0.375000  0.275000  0.275000    288.000000
 -0.325000  0.275000  0.275000    288.000000
 -0.275000  0.275000  0.275000    288.000000
  0.325000  0.325000  0.275000    288.000000
  0.375000  0.325000  0.275000    576.000000
  0.425000  0.325000  0.275000    576.000000
  0.475000  0.325000  0.275000    576.000000
 -0.475000  0.325000  0.275000    576.000000
 -0.425000  0.325000  0.275000    576.000000
 -0.375000  0.325000  0.275000    576.000000
 -0.325000  0.325000  0.275000    576.000000
 -0.275000  0.325000  0.275000    576.000000
  0.375000  0.375000  0.275000    288.000000
  0.425000  0.375000  0.275000    576.000000
  0.475000  0.375000  0.275000    576.000000
 -0.475000  0.375000  0.275000    576.000000
 -0.425000  0.375000  0.275000    576.000000
 -0.375000  0.375000  0.275000    576.000000
 -0.325000  0.375000  0.275000    576.000000
 -0.275000  0.375000  0.275000    576.000000
  0.425000  0.425000  0.275000    288.000000
  0.475000  0.425000  0.275000    576.000000
 -0.475000  0.425000  0.275000    576.000000
 -0.425000  0.425000  0.275000    576.000000
 -0.375000  0.425000  0.275000    576.000000
 -0.325000  0.425000  0.275000    576.000000
 -0.275000  0.425000  0.275000    576.000000
  0.475000  0.475000  0.275000    288.000000
 -0.475000  0.475000  0.275000    576.000000
 -0.425000  0.475000  0.275000    576.000000
 -0.375000  0.475000  0.275000    576.000000
 -0.325000  0.475000  0.275000    576.000000
 -0.275000  0.475000  0.275000    576.000000
 -0.475000 -0.475000  0.275000    288.000000
 -0.425000 -0.475000  0.275000    576.000000
 -0.375000 -0.475000  0.275000    576.000000
 -0.325000 -0.475000  0.275000    576.000000
 -0.425000 -0.425000  0.275000    288.000000
 -0.375000 -0.425000  0.275000    576.000000
 -0.325000 -0.425000  0.275000    576.000000
 -0.375000 -0.375000  0.275000    288.000000
 -0.325000 -0.375000  0.275000    576.000000
 -0.325000 -0.325000  0.275000    288.000000
  0.325000  0.325000  0.325000     96.000000
  0.375000  0.325000  0.325000    288.000000
  0.425000  0.325000  0.325000    288.000000
  0.475000  0.325000  0.325000    288.000000
 -0.475000  0.325000  0.325000    288.000000
 -0.425000  0.325000  0.325000    288.000000
 -0.375000  0.325000  0.325000    288.000000
 -0.325000  0.325000  0.325000    288.000000
  0.375000  0.375000  0.325000    288.000000
  0.425000  0.375000  0.325000    576.000000
  0.475000  0.375000  0.325000    576.000000
 -0.475000  0.375000  0.325000    576.000000
 -0.425000  0.375000  0.325000    576.000000
 -0.375000  0.375000  0.325000    576.000000
 -0.325000  0.375000  0.325000    576.000000
  0.425000  0.425000  0.325000    288.000000
  0.475000  0.425000  0.325000    576.000000
 -0.475000  0.425000  0.325000    576.000000
 -0.425000  0.425000  0.325000    576.000000
 -0.375000  0.425000  0.325000    576.000000
 -0.325000  0.425000  0.325000    576.000000
  0.475000  0.475000  0.325000    288.000000
 -0.475000  0.475000  0.325000    576.000000
 -0.425000  0.475000  0.325000    576.000000
 -0.375000  0.475000  0.325000    576.000000
 -0.325000  0.475000  0.325000    576.000000
 -0.475000 -0.475000  0.325000    288.000000
 -0.425000 -0.475000  0.325000    576.000000
 -0.375000 -0.475000  0.325000    576.000000
 -0.425000 -0.425000  0.325000    288.000000
 -0.375000 -0.425000  0.325000    576.000000
 -0.375000 -0.375000  0.325000    288.000000
  0.375000  0.375000  0.375000     96.000000
  0.425000  0.375000  0.375000    288.000000
  0.475000  0.375000  0.375000    288.000000
 -0.475000  0.375000  0.375000    288.000000
 -0.425000  0.375000  0.375000    288.000000
 -0.375000  0.375000  0.375000    288.000000
  0.425000  0.425000  0.375000    288.000000
  0.475000  0.425000  0.375000    576.000000
 -0.475000  0.425000  0.375000    576.000000
 -0.425000  0.425000  0.375000    576.000000
 -0.375000  0.425000  0.375000    576.000000
  0.475000  0.475000  0.375000    288.000000
 -0.475000  0.475000  0.375000    576.000000
 -0.425000  0.475000  0.375000    576.000000
 -0.375000  0.475000  0.375000    576.000000
 -0.475000 -0.475000  0.375000    288.000000
 -0.425000 -0.475000  0.375000    576.000000
 -0.425000 -0.425000  0.375000    288.000000
  0.425000  0.425000  0.425000     96.000000
  0.475000  0.425000  0.425000    288.000000
 -0.475000  0.425000  0.425000    288.000000
 -0.425000  0.425000  0.425000    288.000000
  0.475000  0.475000  0.425000    288.000000
 -0.475000  0.475000  0.425000    576.000000
 -0.425000  0.475000  0.425000    576.000000
 -0.475000 -0.475000  0.425000    288.000000
  0.475000  0.475000  0.475000     96.000000
 -0.475000  0.475000  0.475000    288.000000
 
 Following cartesian coordinates:
            Coordinates               Weight
  0.025000  0.025000  0.025000     96.000000
 -0.025000  0.075000  0.075000    288.000000
 -0.075000  0.125000  0.125000    288.000000
 -0.125000  0.175000  0.175000    288.000000
 -0.175000  0.225000  0.225000    288.000000
 -0.225000  0.275000  0.275000    288.000000
 -0.275000  0.325000  0.325000    288.000000
 -0.325000  0.375000  0.375000    288.000000
 -0.375000  0.425000  0.425000    288.000000
 -0.425000  0.475000  0.475000    288.000000
  0.525000 -0.475000 -0.475000    288.000000
  0.475000 -0.425000 -0.425000    288.000000
  0.425000 -0.375000 -0.375000    288.000000
  0.375000 -0.325000 -0.325000    288.000000
  0.325000 -0.275000 -0.275000    288.000000
  0.275000 -0.225000 -0.225000    288.000000
  0.225000 -0.175000 -0.175000    288.000000
  0.175000 -0.125000 -0.125000    288.000000
  0.125000 -0.075000 -0.075000    288.000000
  0.075000 -0.025000 -0.025000    288.000000
  0.025000  0.025000  0.125000    288.000000
 -0.025000  0.075000  0.175000    576.000000
 -0.075000  0.125000  0.225000    576.000000
 -0.125000  0.175000  0.275000    576.000000
 -0.175000  0.225000  0.325000    576.000000
 -0.225000  0.275000  0.375000    576.000000
 -0.275000  0.325000  0.425000    576.000000
 -0.325000  0.375000  0.475000    576.000000
 -0.375000  0.425000  0.525000    576.000000
  0.575000 -0.525000 -0.425000    576.000000
  0.525000 -0.475000 -0.375000    576.000000
  0.475000 -0.425000 -0.325000    576.000000
  0.425000 -0.375000 -0.275000    576.000000
  0.375000 -0.325000 -0.225000    576.000000
  0.325000 -0.275000 -0.175000    576.000000
  0.275000 -0.225000 -0.125000    576.000000
  0.225000 -0.175000 -0.075000    576.000000
  0.175000 -0.125000 -0.025000    576.000000
  0.125000 -0.075000  0.025000    576.000000
  0.025000  0.025000  0.225000    288.000000
 -0.025000  0.075000  0.275000    576.000000
 -0.075000  0.125000  0.325000    576.000000
 -0.125000  0.175000  0.375000    576.000000
 -0.175000  0.225000  0.425000    576.000000
 -0.225000  0.275000  0.475000    576.000000
 -0.275000  0.325000  0.525000    576.000000
 -0.325000  0.375000  0.575000    576.000000
  0.625000 -0.575000 -0.375000    576.000000
  0.575000 -0.525000 -0.325000    576.000000
  0.525000 -0.475000 -0.275000    576.000000
  0.475000 -0.425000 -0.225000    576.000000
  0.425000 -0.375000 -0.175000    576.000000
  0.375000 -0.325000 -0.125000    576.000000
  0.325000 -0.275000 -0.075000    576.000000
  0.275000 -0.225000 -0.025000    576.000000
  0.225000 -0.175000  0.025000    576.000000
  0.175000 -0.125000  0.075000    576.000000
  0.025000  0.025000  0.325000    288.000000
 -0.025000  0.075000  0.375000    576.000000
 -0.075000  0.125000  0.425000    576.000000
 -0.125000  0.175000  0.475000    576.000000
 -0.175000  0.225000  0.525000    576.000000
 -0.225000  0.275000  0.575000    576.000000
 -0.275000  0.325000  0.625000    576.000000
  0.675000 -0.625000 -0.325000    576.000000
  0.625000 -0.575000 -0.275000    576.000000
  0.575000 -0.525000 -0.225000    576.000000
  0.525000 -0.475000 -0.175000    576.000000
  0.475000 -0.425000 -0.125000    576.000000
  0.425000 -0.375000 -0.075000    576.000000
  0.375000 -0.325000 -0.025000    576.000000
  0.325000 -0.275000  0.025000    576.000000
  0.275000 -0.225000  0.075000    576.000000
  0.225000 -0.175000  0.125000    576.000000
  0.025000  0.025000  0.425000    288.000000
 -0.025000  0.075000  0.475000    576.000000
 -0.075000  0.125000  0.525000    576.000000
 -0.125000  0.175000  0.575000    576.000000
 -0.175000  0.225000  0.625000    576.000000
 -0.225000  0.275000  0.675000    576.000000
  0.725000 -0.675000 -0.275000    576.000000
  0.675000 -0.625000 -0.225000    576.000000
  0.625000 -0.575000 -0.175000    576.000000
  0.575000 -0.525000 -0.125000    576.000000
  0.525000 -0.475000 -0.075000    576.000000
  0.475000 -0.425000 -0.025000    576.000000
  0.425000 -0.375000  0.025000    576.000000
  0.375000 -0.325000  0.075000    576.000000
  0.325000 -0.275000  0.125000    576.000000
  0.275000 -0.225000  0.175000    576.000000
  0.025000  0.025000  0.525000    288.000000
 -0.025000  0.075000  0.575000    576.000000
 -0.075000  0.125000  0.625000    576.000000
 -0.125000  0.175000  0.675000    576.000000
 -0.175000  0.225000  0.725000    576.000000
  0.775000 -0.725000 -0.225000    576.000000
  0.725000 -0.675000 -0.175000    576.000000
  0.675000 -0.625000 -0.125000    576.000000
  0.625000 -0.575000 -0.075000    576.000000
  0.575000 -0.525000 -0.025000    576.000000
  0.525000 -0.475000  0.025000    576.000000
  0.475000 -0.425000  0.075000    576.000000
  0.425000 -0.375000  0.125000    576.000000
  0.375000 -0.325000  0.175000    576.000000
  0.325000 -0.275000  0.225000    576.000000
  0.025000  0.025000  0.625000    288.000000
 -0.025000  0.075000  0.675000    576.000000
 -0.075000  0.125000  0.725000    576.000000
 -0.125000  0.175000  0.775000    576.000000
  0.825000 -0.775000 -0.175000    576.000000
  0.775000 -0.725000 -0.125000    576.000000
  0.725000 -0.675000 -0.075000    576.000000
  0.675000 -0.625000 -0.025000    576.000000
  0.625000 -0.575000  0.025000    576.000000
  0.575000 -0.525000  0.075000    576.000000
  0.525000 -0.475000  0.125000    576.000000
  0.475000 -0.425000  0.175000    576.000000
  0.425000 -0.375000  0.225000    576.000000
  0.375000 -0.325000  0.275000    576.000000
  0.025000  0.025000  0.725000    288.000000
 -0.025000  0.075000  0.775000    576.000000
 -0.075000  0.125000  0.825000    576.000000
  0.875000 -0.825000 -0.125000    576.000000
  0.825000 -0.775000 -0.075000    576.000000
  0.775000 -0.725000 -0.025000    576.000000
  0.725000 -0.675000  0.025000    576.000000
  0.675000 -0.625000  0.075000    576.000000
  0.625000 -0.575000  0.125000    576.000000
  0.575000 -0.525000  0.175000    576.000000
  0.525000 -0.475000  0.225000    576.000000
  0.475000 -0.425000  0.275000    576.000000
  0.425000 -0.375000  0.325000    576.000000
  0.025000  0.025000  0.825000    288.000000
 -0.025000  0.075000  0.875000    576.000000
  0.925000 -0.875000 -0.075000    576.000000
  0.875000 -0.825000 -0.025000    576.000000
  0.825000 -0.775000  0.025000    576.000000
  0.775000 -0.725000  0.075000    576.000000
  0.725000 -0.675000  0.125000    576.000000
  0.675000 -0.625000  0.175000    576.000000
  0.625000 -0.575000  0.225000    576.000000
  0.575000 -0.525000  0.275000    576.000000
  0.525000 -0.475000  0.325000    576.000000
  0.475000 -0.425000  0.375000    576.000000
  0.025000  0.025000  0.925000    288.000000
  0.975000 -0.925000 -0.025000    576.000000
  0.925000 -0.875000  0.025000    576.000000
  0.875000 -0.825000  0.075000    576.000000
  0.825000 -0.775000  0.125000    576.000000
  0.775000 -0.725000  0.175000    576.000000
  0.725000 -0.675000  0.225000    576.000000
  0.675000 -0.625000  0.275000    576.000000
  0.625000 -0.575000  0.325000    576.000000
  0.575000 -0.525000  0.375000    576.000000
  0.525000 -0.475000  0.425000    576.000000
  0.025000  0.025000 -0.975000    288.000000
 -0.025000  0.075000 -0.925000    576.000000
 -0.075000  0.125000 -0.875000    576.000000
 -0.125000  0.175000 -0.825000    576.000000
 -0.175000  0.225000 -0.775000    576.000000
 -0.225000  0.275000 -0.725000    576.000000
 -0.275000  0.325000 -0.675000    576.000000
 -0.325000  0.375000 -0.625000    576.000000
 -0.375000  0.425000 -0.575000    576.000000
  0.025000  0.025000 -0.875000    288.000000
 -0.025000  0.075000 -0.825000    576.000000
 -0.075000  0.125000 -0.775000    576.000000
 -0.125000  0.175000 -0.725000    576.000000
 -0.175000  0.225000 -0.675000    576.000000
 -0.225000  0.275000 -0.625000    576.000000
 -0.275000  0.325000 -0.575000    576.000000
 -0.325000  0.375000 -0.525000    576.000000
  0.025000  0.025000 -0.775000    288.000000
 -0.025000  0.075000 -0.725000    576.000000
 -0.075000  0.125000 -0.675000    576.000000
 -0.125000  0.175000 -0.625000    576.000000
 -0.175000  0.225000 -0.575000    576.000000
 -0.225000  0.275000 -0.525000    576.000000
 -0.275000  0.325000 -0.475000    576.000000
  0.025000  0.025000 -0.675000    288.000000
 -0.025000  0.075000 -0.625000    576.000000
 -0.075000  0.125000 -0.575000    576.000000
 -0.125000  0.175000 -0.525000    576.000000
 -0.175000  0.225000 -0.475000    576.000000
 -0.225000  0.275000 -0.425000    576.000000
  0.025000  0.025000 -0.575000    288.000000
 -0.025000  0.075000 -0.525000    576.000000
 -0.075000  0.125000 -0.475000    576.000000
 -0.125000  0.175000 -0.425000    576.000000
 -0.175000  0.225000 -0.375000    576.000000
  0.025000  0.025000 -0.475000    288.000000
 -0.025000  0.075000 -0.425000    576.000000
 -0.075000  0.125000 -0.375000    576.000000
 -0.125000  0.175000 -0.325000    576.000000
  0.025000  0.025000 -0.375000    288.000000
 -0.025000  0.075000 -0.325000    576.000000
 -0.075000  0.125000 -0.275000    576.000000
  0.025000  0.025000 -0.275000    288.000000
 -0.025000  0.075000 -0.225000    576.000000
  0.025000  0.025000 -0.175000    288.000000
  0.075000  0.075000  0.075000     96.000000
  0.025000  0.125000  0.125000    288.000000
 -0.025000  0.175000  0.175000    288.000000
 -0.075000  0.225000  0.225000    288.000000
 -0.125000  0.275000  0.275000    288.000000
 -0.175000  0.325000  0.325000    288.000000
 -0.225000  0.375000  0.375000    288.000000
 -0.275000  0.425000  0.425000    288.000000
 -0.325000  0.475000  0.475000    288.000000
  0.625000 -0.475000 -0.475000    288.000000
  0.575000 -0.425000 -0.425000    288.000000
  0.525000 -0.375000 -0.375000    288.000000
  0.475000 -0.325000 -0.325000    288.000000
  0.425000 -0.275000 -0.275000    288.000000
  0.375000 -0.225000 -0.225000    288.000000
  0.325000 -0.175000 -0.175000    288.000000
  0.275000 -0.125000 -0.125000    288.000000
  0.225000 -0.075000 -0.075000    288.000000
  0.075000  0.075000  0.175000    288.000000
  0.025000  0.125000  0.225000    576.000000
 -0.025000  0.175000  0.275000    576.000000
 -0.075000  0.225000  0.325000    576.000000
 -0.125000  0.275000  0.375000    576.000000
 -0.175000  0.325000  0.425000    576.000000
 -0.225000  0.375000  0.475000    576.000000
 -0.275000  0.425000  0.525000    576.000000
  0.675000 -0.525000 -0.425000    576.000000
  0.625000 -0.475000 -0.375000    576.000000
  0.575000 -0.425000 -0.325000    576.000000
  0.525000 -0.375000 -0.275000    576.000000
  0.475000 -0.325000 -0.225000    576.000000
  0.425000 -0.275000 -0.175000    576.000000
  0.375000 -0.225000 -0.125000    576.000000
  0.325000 -0.175000 -0.075000    576.000000
  0.275000 -0.125000 -0.025000    576.000000
  0.075000  0.075000  0.275000    288.000000
  0.025000  0.125000  0.325000    576.000000
 -0.025000  0.175000  0.375000    576.000000
 -0.075000  0.225000  0.425000    576.000000
 -0.125000  0.275000  0.475000    576.000000
 -0.175000  0.325000  0.525000    576.000000
 -0.225000  0.375000  0.575000    576.000000
  0.725000 -0.575000 -0.375000    576.000000
  0.675000 -0.525000 -0.325000    576.000000
  0.625000 -0.475000 -0.275000    576.000000
  0.575000 -0.425000 -0.225000    576.000000
  0.525000 -0.375000 -0.175000    576.000000
  0.475000 -0.325000 -0.125000    576.000000
  0.425000 -0.275000 -0.075000    576.000000
  0.375000 -0.225000 -0.025000    576.000000
  0.325000 -0.175000  0.025000    576.000000
  0.075000  0.075000  0.375000    288.000000
  0.025000  0.125000  0.425000    576.000000
 -0.025000  0.175000  0.475000    576.000000
 -0.075000  0.225000  0.525000    576.000000
 -0.125000  0.275000  0.575000    576.000000
 -0.175000  0.325000  0.625000    576.000000
  0.775000 -0.625000 -0.325000    576.000000
  0.725000 -0.575000 -0.275000    576.000000
  0.675000 -0.525000 -0.225000    576.000000
  0.625000 -0.475000 -0.175000    576.000000
  0.575000 -0.425000 -0.125000    576.000000
  0.525000 -0.375000 -0.075000    576.000000
  0.475000 -0.325000 -0.025000    576.000000
  0.425000 -0.275000  0.025000    576.000000
  0.375000 -0.225000  0.075000    576.000000
  0.075000  0.075000  0.475000    288.000000
  0.025000  0.125000  0.525000    576.000000
 -0.025000  0.175000  0.575000    576.000000
 -0.075000  0.225000  0.625000    576.000000
 -0.125000  0.275000  0.675000    576.000000
  0.825000 -0.675000 -0.275000    576.000000
  0.775000 -0.625000 -0.225000    576.000000
  0.725000 -0.575000 -0.175000    576.000000
  0.675000 -0.525000 -0.125000    576.000000
  0.625000 -0.475000 -0.075000    576.000000
  0.575000 -0.425000 -0.025000    576.000000
  0.525000 -0.375000  0.025000    576.000000
  0.475000 -0.325000  0.075000    576.000000
  0.425000 -0.275000  0.125000    576.000000
  0.075000  0.075000  0.575000    288.000000
  0.025000  0.125000  0.625000    576.000000
 -0.025000  0.175000  0.675000    576.000000
 -0.075000  0.225000  0.725000    576.000000
  0.875000 -0.725000 -0.225000    576.000000
  0.825000 -0.675000 -0.175000    576.000000
  0.775000 -0.625000 -0.125000    576.000000
  0.725000 -0.575000 -0.075000    576.000000
  0.675000 -0.525000 -0.025000    576.000000
  0.625000 -0.475000  0.025000    576.000000
  0.575000 -0.425000  0.075000    576.000000
  0.525000 -0.375000  0.125000    576.000000
  0.475000 -0.325000  0.175000    576.000000
  0.075000  0.075000  0.675000    288.000000
  0.025000  0.125000  0.725000    576.000000
 -0.025000  0.175000  0.775000    576.000000
  0.925000 -0.775000 -0.175000    576.000000
  0.875000 -0.725000 -0.125000    576.000000
  0.825000 -0.675000 -0.075000    576.000000
  0.775000 -0.625000 -0.025000    576.000000
  0.725000 -0.575000  0.025000    576.000000
  0.675000 -0.525000  0.075000    576.000000
  0.625000 -0.475000  0.125000    576.000000
  0.575000 -0.425000  0.175000    576.000000
  0.525000 -0.375000  0.225000    576.000000
  0.075000  0.075000  0.775000    288.000000
  0.025000  0.125000  0.825000    576.000000
  0.975000 -0.825000 -0.125000    576.000000
  0.925000 -0.775000 -0.075000    576.000000
  0.875000 -0.725000 -0.025000    576.000000
  0.825000 -0.675000  0.025000    576.000000
  0.775000 -0.625000  0.075000    576.000000
  0.725000 -0.575000  0.125000    576.000000
  0.675000 -0.525000  0.175000    576.000000
  0.625000 -0.475000  0.225000    576.000000
  0.575000 -0.425000  0.275000    576.000000
  0.075000  0.075000  0.875000    288.000000
  1.025000 -0.875000 -0.075000    576.000000
  0.975000 -0.825000 -0.025000    576.000000
  0.925000 -0.775000  0.025000    576.000000
  0.875000 -0.725000  0.075000    576.000000
  0.825000 -0.675000  0.125000    576.000000
  0.775000 -0.625000  0.175000    576.000000
  0.725000 -0.575000  0.225000    576.000000
  0.675000 -0.525000  0.275000    576.000000
  0.625000 -0.475000  0.325000    576.000000
  0.075000  0.075000 -1.025000    288.000000
  0.025000  0.125000 -0.975000    576.000000
 -0.025000  0.175000 -0.925000    576.000000
 -0.075000  0.225000 -0.875000    576.000000
 -0.125000  0.275000 -0.825000    576.000000
 -0.175000  0.325000 -0.775000    576.000000
 -0.225000  0.375000 -0.725000    576.000000
 -0.275000  0.425000 -0.675000    576.000000
  0.075000  0.075000 -0.925000    288.000000
  0.025000  0.125000 -0.875000    576.000000
 -0.025000  0.175000 -0.825000    576.000000
 -0.075000  0.225000 -0.775000    576.000000
 -0.125000  0.275000 -0.725000    576.000000
 -0.175000  0.325000 -0.675000    576.000000
 -0.225000  0.375000 -0.625000    576.000000
  0.075000  0.075000 -0.825000    288.000000
  0.025000  0.125000 -0.775000    576.000000
 -0.025000  0.175000 -0.725000    576.000000
 -0.075000  0.225000 -0.675000    576.000000
 -0.125000  0.275000 -0.625000    576.000000
 -0.175000  0.325000 -0.575000    576.000000
  0.075000  0.075000 -0.725000    288.000000
  0.025000  0.125000 -0.675000    576.000000
 -0.025000  0.175000 -0.625000    576.000000
 -0.075000  0.225000 -0.575000    576.000000
 -0.125000  0.275000 -0.525000    576.000000
  0.075000  0.075000 -0.625000    288.000000
  0.025000  0.125000 -0.575000    576.000000
 -0.025000  0.175000 -0.525000    576.000000
 -0.075000  0.225000 -0.475000    576.000000
  0.075000  0.075000 -0.525000    288.000000
  0.025000  0.125000 -0.475000    576.000000
 -0.025000  0.175000 -0.425000    576.000000
  0.075000  0.075000 -0.425000    288.000000
  0.025000  0.125000 -0.375000    576.000000
  0.075000  0.075000 -0.325000    288.000000
  0.125000  0.125000  0.125000     96.000000
  0.075000  0.175000  0.175000    288.000000
  0.025000  0.225000  0.225000    288.000000
 -0.025000  0.275000  0.275000    288.000000
 -0.075000  0.325000  0.325000    288.000000
 -0.125000  0.375000  0.375000    288.000000
 -0.175000  0.425000  0.425000    288.000000
 -0.225000  0.475000  0.475000    288.000000
  0.725000 -0.475000 -0.475000    288.000000
  0.675000 -0.425000 -0.425000    288.000000
  0.625000 -0.375000 -0.375000    288.000000
  0.575000 -0.325000 -0.325000    288.000000
  0.525000 -0.275000 -0.275000    288.000000
  0.475000 -0.225000 -0.225000    288.000000
  0.425000 -0.175000 -0.175000    288.000000
  0.375000 -0.125000 -0.125000    288.000000
  0.125000  0.125000  0.225000    288.000000
  0.075000  0.175000  0.275000    576.000000
  0.025000  0.225000  0.325000    576.000000
 -0.025000  0.275000  0.375000    576.000000
 -0.075000  0.325000  0.425000    576.000000
 -0.125000  0.375000  0.475000    576.000000
 -0.175000  0.425000  0.525000    576.000000
  0.775000 -0.525000 -0.425000    576.000000
  0.725000 -0.475000 -0.375000    576.000000
  0.675000 -0.425000 -0.325000    576.000000
  0.625000 -0.375000 -0.275000    576.000000
  0.575000 -0.325000 -0.225000    576.000000
  0.525000 -0.275000 -0.175000    576.000000
  0.475000 -0.225000 -0.125000    576.000000
  0.425000 -0.175000 -0.075000    576.000000
  0.125000  0.125000  0.325000    288.000000
  0.075000  0.175000  0.375000    576.000000
  0.025000  0.225000  0.425000    576.000000
 -0.025000  0.275000  0.475000    576.000000
 -0.075000  0.325000  0.525000    576.000000
 -0.125000  0.375000  0.575000    576.000000
  0.825000 -0.575000 -0.375000    576.000000
  0.775000 -0.525000 -0.325000    576.000000
  0.725000 -0.475000 -0.275000    576.000000
  0.675000 -0.425000 -0.225000    576.000000
  0.625000 -0.375000 -0.175000    576.000000
  0.575000 -0.325000 -0.125000    576.000000
  0.525000 -0.275000 -0.075000    576.000000
  0.475000 -0.225000 -0.025000    576.000000
  0.125000  0.125000  0.425000    288.000000
  0.075000  0.175000  0.475000    576.000000
  0.025000  0.225000  0.525000    576.000000
 -0.025000  0.275000  0.575000    576.000000
 -0.075000  0.325000  0.625000    576.000000
  0.875000 -0.625000 -0.325000    576.000000
  0.825000 -0.575000 -0.275000    576.000000
  0.775000 -0.525000 -0.225000    576.000000
  0.725000 -0.475000 -0.175000    576.000000
  0.675000 -0.425000 -0.125000    576.000000
  0.625000 -0.375000 -0.075000    576.000000
  0.575000 -0.325000 -0.025000    576.000000
  0.525000 -0.275000  0.025000    576.000000
  0.125000  0.125000  0.525000    288.000000
  0.075000  0.175000  0.575000    576.000000
  0.025000  0.225000  0.625000    576.000000
 -0.025000  0.275000  0.675000    576.000000
  0.925000 -0.675000 -0.275000    576.000000
  0.875000 -0.625000 -0.225000    576.000000
  0.825000 -0.575000 -0.175000    576.000000
  0.775000 -0.525000 -0.125000    576.000000
  0.725000 -0.475000 -0.075000    576.000000
  0.675000 -0.425000 -0.025000    576.000000
  0.625000 -0.375000  0.025000    576.000000
  0.575000 -0.325000  0.075000    576.000000
  0.125000  0.125000  0.625000    288.000000
  0.075000  0.175000  0.675000    576.000000
  0.025000  0.225000  0.725000    576.000000
  0.975000 -0.725000 -0.225000    576.000000
  0.925000 -0.675000 -0.175000    576.000000
  0.875000 -0.625000 -0.125000    576.000000
  0.825000 -0.575000 -0.075000    576.000000
  0.775000 -0.525000 -0.025000    576.000000
  0.725000 -0.475000  0.025000    576.000000
  0.675000 -0.425000  0.075000    576.000000
  0.625000 -0.375000  0.125000    576.000000
  0.125000  0.125000  0.725000    288.000000
  0.075000  0.175000  0.775000    576.000000
  1.025000 -0.775000 -0.175000    576.000000
  0.975000 -0.725000 -0.125000    576.000000
  0.925000 -0.675000 -0.075000    576.000000
  0.875000 -0.625000 -0.025000    576.000000
  0.825000 -0.575000  0.025000    576.000000
  0.775000 -0.525000  0.075000    576.000000
  0.725000 -0.475000  0.125000    576.000000
  0.675000 -0.425000  0.175000    576.000000
  0.125000  0.125000  0.825000    288.000000
  1.075000 -0.825000 -0.125000    576.000000
  1.025000 -0.775000 -0.075000    576.000000
  0.975000 -0.725000 -0.025000    576.000000
  0.925000 -0.675000  0.025000    576.000000
  0.875000 -0.625000  0.075000    576.000000
  0.825000 -0.575000  0.125000    576.000000
  0.775000 -0.525000  0.175000    576.000000
  0.725000 -0.475000  0.225000    576.000000
  0.125000  0.125000 -1.075000    288.000000
  0.075000  0.175000 -1.025000    576.000000
  0.025000  0.225000 -0.975000    576.000000
 -0.025000  0.275000 -0.925000    576.000000
 -0.075000  0.325000 -0.875000    576.000000
 -0.125000  0.375000 -0.825000    576.000000
 -0.175000  0.425000 -0.775000    576.000000
  0.125000  0.125000 -0.975000    288.000000
  0.075000  0.175000 -0.925000    576.000000
  0.025000  0.225000 -0.875000    576.000000
 -0.025000  0.275000 -0.825000    576.000000
 -0.075000  0.325000 -0.775000    576.000000
 -0.125000  0.375000 -0.725000    576.000000
  0.125000  0.125000 -0.875000    288.000000
  0.075000  0.175000 -0.825000    576.000000
  0.025000  0.225000 -0.775000    576.000000
 -0.025000  0.275000 -0.725000    576.000000
 -0.075000  0.325000 -0.675000    576.000000
  0.125000  0.125000 -0.775000    288.000000
  0.075000  0.175000 -0.725000    576.000000
  0.025000  0.225000 -0.675000    576.000000
 -0.025000  0.275000 -0.625000    576.000000
  0.125000  0.125000 -0.675000    288.000000
  0.075000  0.175000 -0.625000    576.000000
  0.025000  0.225000 -0.575000    576.000000
  0.125000  0.125000 -0.575000    288.000000
  0.075000  0.175000 -0.525000    576.000000
  0.125000  0.125000 -0.475000    288.000000
  0.175000  0.175000  0.175000     96.000000
  0.125000  0.225000  0.225000    288.000000
  0.075000  0.275000  0.275000    288.000000
  0.025000  0.325000  0.325000    288.000000
 -0.025000  0.375000  0.375000    288.000000
 -0.075000  0.425000  0.425000    288.000000
 -0.125000  0.475000  0.475000    288.000000
  0.825000 -0.475000 -0.475000    288.000000
  0.775000 -0.425000 -0.425000    288.000000
  0.725000 -0.375000 -0.375000    288.000000
  0.675000 -0.325000 -0.325000    288.000000
  0.625000 -0.275000 -0.275000    288.000000
  0.575000 -0.225000 -0.225000    288.000000
  0.525000 -0.175000 -0.175000    288.000000
  0.175000  0.175000  0.275000    288.000000
  0.125000  0.225000  0.325000    576.000000
  0.075000  0.275000  0.375000    576.000000
  0.025000  0.325000  0.425000    576.000000
 -0.025000  0.375000  0.475000    576.000000
 -0.075000  0.425000  0.525000    576.000000
  0.875000 -0.525000 -0.425000    576.000000
  0.825000 -0.475000 -0.375000    576.000000
  0.775000 -0.425000 -0.325000    576.000000
  0.725000 -0.375000 -0.275000    576.000000
  0.675000 -0.325000 -0.225000    576.000000
  0.625000 -0.275000 -0.175000    576.000000
  0.575000 -0.225000 -0.125000    576.000000
  0.175000  0.175000  0.375000    288.000000
  0.125000  0.225000  0.425000    576.000000
  0.075000  0.275000  0.475000    576.000000
  0.025000  0.325000  0.525000    576.000000
 -0.025000  0.375000  0.575000    576.000000
  0.925000 -0.575000 -0.375000    576.000000
  0.875000 -0.525000 -0.325000    576.000000
  0.825000 -0.475000 -0.275000    576.000000
  0.775000 -0.425000 -0.225000    576.000000
  0.725000 -0.375000 -0.175000    576.000000
  0.675000 -0.325000 -0.125000    576.000000
  0.625000 -0.275000 -0.075000    576.000000
  0.175000  0.175000  0.475000    288.000000
  0.125000  0.225000  0.525000    576.000000
  0.075000  0.275000  0.575000    576.000000
  0.025000  0.325000  0.625000    576.000000
  0.975000 -0.625000 -0.325000    576.000000
  0.925000 -0.575000 -0.275000    576.000000
  0.875000 -0.525000 -0.225000    576.000000
  0.825000 -0.475000 -0.175000    576.000000
  0.775000 -0.425000 -0.125000    576.000000
  0.725000 -0.375000 -0.075000    576.000000
  0.675000 -0.325000 -0.025000    576.000000
  0.175000  0.175000  0.575000    288.000000
  0.125000  0.225000  0.625000    576.000000
  0.075000  0.275000  0.675000    576.000000
  1.025000 -0.675000 -0.275000    576.000000
  0.975000 -0.625000 -0.225000    576.000000
  0.925000 -0.575000 -0.175000    576.000000
  0.875000 -0.525000 -0.125000    576.000000
  0.825000 -0.475000 -0.075000    576.000000
  0.775000 -0.425000 -0.025000    576.000000
  0.725000 -0.375000  0.025000    576.000000
  0.175000  0.175000  0.675000    288.000000
  0.125000  0.225000  0.725000    576.000000
  1.075000 -0.725000 -0.225000    576.000000
  1.025000 -0.675000 -0.175000    576.000000
  0.975000 -0.625000 -0.125000    576.000000
  0.925000 -0.575000 -0.075000    576.000000
  0.875000 -0.525000 -0.025000    576.000000
  0.825000 -0.475000  0.025000    576.000000
  0.775000 -0.425000  0.075000    576.000000
  0.175000  0.175000  0.775000    288.000000
  1.125000 -0.775000 -0.175000    576.000000
  1.075000 -0.725000 -0.125000    576.000000
  1.025000 -0.675000 -0.075000    576.000000
  0.975000 -0.625000 -0.025000    576.000000
  0.925000 -0.575000  0.025000    576.000000
  0.875000 -0.525000  0.075000    576.000000
  0.825000 -0.475000  0.125000    576.000000
  0.175000  0.175000 -1.125000    288.000000
  0.125000  0.225000 -1.075000    576.000000
  0.075000  0.275000 -1.025000    576.000000
  0.025000  0.325000 -0.975000    576.000000
 -0.025000  0.375000 -0.925000    576.000000
 -0.075000  0.425000 -0.875000    576.000000
  0.175000  0.175000 -1.025000    288.000000
  0.125000  0.225000 -0.975000    576.000000
  0.075000  0.275000 -0.925000    576.000000
  0.025000  0.325000 -0.875000    576.000000
 -0.025000  0.375000 -0.825000    576.000000
  0.175000  0.175000 -0.925000    288.000000
  0.125000  0.225000 -0.875000    576.000000
  0.075000  0.275000 -0.825000    576.000000
  0.025000  0.325000 -0.775000    576.000000
  0.175000  0.175000 -0.825000    288.000000
  0.125000  0.225000 -0.775000    576.000000
  0.075000  0.275000 -0.725000    576.000000
  0.175000  0.175000 -0.725000    288.000000
  0.125000  0.225000 -0.675000    576.000000
  0.175000  0.175000 -0.625000    288.000000
  0.225000  0.225000  0.225000     96.000000
  0.175000  0.275000  0.275000    288.000000
  0.125000  0.325000  0.325000    288.000000
  0.075000  0.375000  0.375000    288.000000
  0.025000  0.425000  0.425000    288.000000
 -0.025000  0.475000  0.475000    288.000000
  0.925000 -0.475000 -0.475000    288.000000
  0.875000 -0.425000 -0.425000    288.000000
  0.825000 -0.375000 -0.375000    288.000000
  0.775000 -0.325000 -0.325000    288.000000
  0.725000 -0.275000 -0.275000    288.000000
  0.675000 -0.225000 -0.225000    288.000000
  0.225000  0.225000  0.325000    288.000000
  0.175000  0.275000  0.375000    576.000000
  0.125000  0.325000  0.425000    576.000000
  0.075000  0.375000  0.475000    576.000000
  0.025000  0.425000  0.525000    576.000000
  0.975000 -0.525000 -0.425000    576.000000
  0.925000 -0.475000 -0.375000    576.000000
  0.875000 -0.425000 -0.325000    576.000000
  0.825000 -0.375000 -0.275000    576.000000
  0.775000 -0.325000 -0.225000    576.000000
  0.725000 -0.275000 -0.175000    576.000000
  0.225000  0.225000  0.425000    288.000000
  0.175000  0.275000  0.475000    576.000000
  0.125000  0.325000  0.525000    576.000000
  0.075000  0.375000  0.575000    576.000000
  1.025000 -0.575000 -0.375000    576.000000
  0.975000 -0.525000 -0.325000    576.000000
  0.925000 -0.475000 -0.275000    576.000000
  0.875000 -0.425000 -0.225000    576.000000
  0.825000 -0.375000 -0.175000    576.000000
  0.775000 -0.325000 -0.125000    576.000000
  0.225000  0.225000  0.525000    288.000000
  0.175000  0.275000  0.575000    576.000000
  0.125000  0.325000  0.625000    576.000000
  1.075000 -0.625000 -0.325000    576.000000
  1.025000 -0.575000 -0.275000    576.000000
  0.975000 -0.525000 -0.225000    576.000000
  0.925000 -0.475000 -0.175000    576.000000
  0.875000 -0.425000 -0.125000    576.000000
  0.825000 -0.375000 -0.075000    576.000000
  0.225000  0.225000  0.625000    288.000000
  0.175000  0.275000  0.675000    576.000000
  1.125000 -0.675000 -0.275000    576.000000
  1.075000 -0.625000 -0.225000    576.000000
  1.025000 -0.575000 -0.175000    576.000000
  0.975000 -0.525000 -0.125000    576.000000
  0.925000 -0.475000 -0.075000    576.000000
  0.875000 -0.425000 -0.025000    576.000000
  0.225000  0.225000  0.725000    288.000000
  1.175000 -0.725000 -0.225000    576.000000
  1.125000 -0.675000 -0.175000    576.000000
  1.075000 -0.625000 -0.125000    576.000000
  1.025000 -0.575000 -0.075000    576.000000
  0.975000 -0.525000 -0.025000    576.000000
  0.925000 -0.475000  0.025000    576.000000
  0.225000  0.225000 -1.175000    288.000000
  0.175000  0.275000 -1.125000    576.000000
  0.125000  0.325000 -1.075000    576.000000
  0.075000  0.375000 -1.025000    576.000000
  0.025000  0.425000 -0.975000    576.000000
  0.225000  0.225000 -1.075000    288.000000
  0.175000  0.275000 -1.025000    576.000000
  0.125000  0.325000 -0.975000    576.000000
  0.075000  0.375000 -0.925000    576.000000
  0.225000  0.225000 -0.975000    288.000000
  0.175000  0.275000 -0.925000    576.000000
  0.125000  0.325000 -0.875000    576.000000
  0.225000  0.225000 -0.875000    288.000000
  0.175000  0.275000 -0.825000    576.000000
  0.225000  0.225000 -0.775000    288.000000
  0.275000  0.275000  0.275000     96.000000
  0.225000  0.325000  0.325000    288.000000
  0.175000  0.375000  0.375000    288.000000
  0.125000  0.425000  0.425000    288.000000
  0.075000  0.475000  0.475000    288.000000
  1.025000 -0.475000 -0.475000    288.000000
  0.975000 -0.425000 -0.425000    288.000000
  0.925000 -0.375000 -0.375000    288.000000
  0.875000 -0.325000 -0.325000    288.000000
  0.825000 -0.275000 -0.275000    288.000000
  0.275000  0.275000  0.375000    288.000000
  0.225000  0.325000  0.425000    576.000000
  0.175000  0.375000  0.475000    576.000000
  0.125000  0.425000  0.525000    576.000000
  1.075000 -0.525000 -0.425000    576.000000
  1.025000 -0.475000 -0.375000    576.000000
  0.975000 -0.425000 -0.325000    576.000000
  0.925000 -0.375000 -0.275000    576.000000
  0.875000 -0.325000 -0.225000    576.000000
  0.275000  0.275000  0.475000    288.000000
  0.225000  0.325000  0.525000    576.000000
  0.175000  0.375000  0.575000    576.000000
  1.125000 -0.575000 -0.375000    576.000000
  1.075000 -0.525000 -0.325000    576.000000
  1.025000 -0.475000 -0.275000    576.000000
  0.975000 -0.425000 -0.225000    576.000000
  0.925000 -0.375000 -0.175000    576.000000
  0.275000  0.275000  0.575000    288.000000
  0.225000  0.325000  0.625000    576.000000
  1.175000 -0.625000 -0.325000    576.000000
  1.125000 -0.575000 -0.275000    576.000000
  1.075000 -0.525000 -0.225000    576.000000
  1.025000 -0.475000 -0.175000    576.000000
  0.975000 -0.425000 -0.125000    576.000000
  0.275000  0.275000  0.675000    288.000000
  1.225000 -0.675000 -0.275000    576.000000
  1.175000 -0.625000 -0.225000    576.000000
  1.125000 -0.575000 -0.175000    576.000000
  1.075000 -0.525000 -0.125000    576.000000
  1.025000 -0.475000 -0.075000    576.000000
  0.275000  0.275000 -1.225000    288.000000
  0.225000  0.325000 -1.175000    576.000000
  0.175000  0.375000 -1.125000    576.000000
  0.125000  0.425000 -1.075000    576.000000
  0.275000  0.275000 -1.125000    288.000000
  0.225000  0.325000 -1.075000    576.000000
  0.175000  0.375000 -1.025000    576.000000
  0.275000  0.275000 -1.025000    288.000000
  0.225000  0.325000 -0.975000    576.000000
  0.275000  0.275000 -0.925000    288.000000
  0.325000  0.325000  0.325000     96.000000
  0.275000  0.375000  0.375000    288.000000
  0.225000  0.425000  0.425000    288.000000
  0.175000  0.475000  0.475000    288.000000
  1.125000 -0.475000 -0.475000    288.000000
  1.075000 -0.425000 -0.425000    288.000000
  1.025000 -0.375000 -0.375000    288.000000
  0.975000 -0.325000 -0.325000    288.000000
  0.325000  0.325000  0.425000    288.000000
  0.275000  0.375000  0.475000    576.000000
  0.225000  0.425000  0.525000    576.000000
  1.175000 -0.525000 -0.425000    576.000000
  1.125000 -0.475000 -0.375000    576.000000
  1.075000 -0.425000 -0.325000    576.000000
  1.025000 -0.375000 -0.275000    576.000000
  0.325000  0.325000  0.525000    288.000000
  0.275000  0.375000  0.575000    576.000000
  1.225000 -0.575000 -0.375000    576.000000
  1.175000 -0.525000 -0.325000    576.000000
  1.125000 -0.475000 -0.275000    576.000000
  1.075000 -0.425000 -0.225000    576.000000
  0.325000  0.325000  0.625000    288.000000
  1.275000 -0.625000 -0.325000    576.000000
  1.225000 -0.575000 -0.275000    576.000000
  1.175000 -0.525000 -0.225000    576.000000
  1.125000 -0.475000 -0.175000    576.000000
  0.325000  0.325000 -1.275000    288.000000
  0.275000  0.375000 -1.225000    576.000000
  0.225000  0.425000 -1.175000    576.000000
  0.325000  0.325000 -1.175000    288.000000
  0.275000  0.375000 -1.125000    576.000000
  0.325000  0.325000 -1.075000    288.000000
  0.375000  0.375000  0.375000     96.000000
  0.325000  0.425000  0.425000    288.000000
  0.275000  0.475000  0.475000    288.000000
  1.225000 -0.475000 -0.475000    288.000000
  1.175000 -0.425000 -0.425000    288.000000
  1.125000 -0.375000 -0.375000    288.000000
  0.375000  0.375000  0.475000    288.000000
[...]
      3       1.3986      2.00000
      4       1.5572      2.00000
      5       3.1840      2.00000
      6       6.6188      0.00000
      7      10.3630      0.00000
      8      17.2676      0.00000
      9      22.0561      0.00000

 k-point   748 :      -0.3750    0.3750    0.3750
  band No.  band energies     occupation 
      1      -0.6404      2.00000
      2       0.2835      2.00000
      3       1.1220      2.00000
      4       1.8904      2.00000
      5       3.2251      2.00000
      6       7.4905      0.00000
      7      10.4586      0.00000
      8      15.5483      0.00000
      9      21.0655      0.00000

 k-point   749 :       0.4250    0.4250    0.3750
  band No.  band energies     occupation 
      1      -1.7391      2.00000
      2       0.8524      2.00000
      3       0.9631      2.00000
      4       2.5557      2.00000
      5       3.5322      2.00000
      6       3.9037      2.00000
      7      10.7034      0.00000
      8      20.5702      0.00000
      9      23.0583      0.00000

 k-point   750 :       0.4750    0.4250    0.3750
  band No.  band energies     occupation 
      1      -1.6005      2.00000
      2       0.7619      2.00000
      3       1.0310      2.00000
      4       2.3355      2.00000
      5       3.4766      2.00000
      6       4.7355      2.01176
      7      10.2087      0.00000
      8      20.5043      0.00000
      9      22.0065      0.00000

 k-point   751 :      -0.4750    0.4250    0.3750
  band No.  band energies     occupation 
      1      -1.3485      2.00000
      2       0.6051      2.00000
      3       1.1949      2.00000
      4       1.9961      2.00000
      5       3.4023      2.00000
      6       5.7282      0.58735
      7       9.8303      0.00000
      8      19.8076      0.00000
      9      21.1884      0.00000

 k-point   752 :      -0.4250    0.4250    0.3750
  band No.  band energies     occupation 
      1      -1.0222      2.00000
      2       0.4114      2.00000
      3       1.4446      2.00000
      4       1.6180      2.00000
      5       3.3678      2.00000
      6       6.7478      0.00000
      7       9.6037      0.00000
      8      18.2747      0.00000
      9      20.9021      0.00000

 k-point   753 :      -0.3750    0.4250    0.3750
  band No.  band energies     occupation 
      1      -0.7259      2.00000
      2       0.2482      2.00000
      3       1.2536      2.00000
      4       1.7753      2.00000
      5       3.3747      2.00000
      6       7.7133      0.00000
      7       9.5764      0.00000
      8      16.6112      0.00000
      9      20.2955      0.00000

 k-point   754 :       0.4750    0.4750    0.3750
  band No.  band energies     occupation 
      1      -1.5421      2.00000
      2       0.6950      2.00000
      3       1.0774      2.00000
      4       2.2492      2.00000
      5       3.6580      2.00000
      6       5.1790      2.03762
      7       9.6872      0.00000
      8      20.4728      0.00000
      9      22.2248      0.00000

 k-point   755 :      -0.4750    0.4750    0.3750
  band No.  band energies     occupation 
      1      -1.3633      2.00000
      2       0.5747      2.00000
      3       1.2042      2.00000
      4       2.0123      2.00000
      5       3.6063      2.00000
      6       6.0286     -0.00697
      7       9.2799      0.00000
      8      20.2525      0.00000
      9      20.8569      0.00000

 k-point   756 :      -0.4250    0.4750    0.3750
  band No.  band energies     occupation 
      1      -1.0834      2.00000
      2       0.3969      2.00000
      3       1.4224      2.00000
      4       1.6854      2.00000
      5       3.5235      2.00000
      6       7.0377      0.00000
      7       8.9983      0.00000
      8      19.2589      0.00000
      9      19.8299      0.00000

 k-point   757 :      -0.3750    0.4750    0.3750
  band No.  band energies     occupation 
      1      -0.7574      2.00000
      2       0.2019      2.00000
      3       1.3058      2.00000
      4       1.7269      2.00000
      5       3.4858      2.00000
      6       8.0944      0.00000
      7       8.8481      0.00000
      8      17.6182      0.00000
      9      19.2066      0.00000

 k-point   758 :      -0.4750   -0.4750    0.3750
  band No.  band energies     occupation 
      1      -1.2637      2.00000
      2       0.5076      2.00000
      3       1.2883      2.00000
      4       1.8823      2.00000
      5       3.6341      2.00000
      6       6.6460     -0.00285
      7       8.8773      0.00000
      8      19.5474      0.00000
      9      21.6340      0.00000

 k-point   759 :      -0.4250   -0.4750    0.3750
  band No.  band energies     occupation 
      1      -1.0560      2.00000
      2       0.3821      2.00000
      3       1.4613      2.00000
      4       1.6434      2.00000
      5       3.5553      2.00000
      6       7.4554      0.00000
      7       8.6502      0.00000
      8      18.6696      0.00000
      9      20.4421      0.00000

 k-point   760 :      -0.4250   -0.4250    0.3750
  band No.  band energies     occupation 
      1      -0.9380      2.00000
      2       0.3447      2.00000
      3       1.5010      2.00000
      4       1.5737      2.00000
      5       3.4739      2.00000
      6       7.7069      0.00000
      7       8.8378      0.00000
      8      17.6484      0.00000
      9      21.2624      0.00000

 k-point   761 :       0.4250    0.4250    0.4250
  band No.  band energies     occupation 
      1      -1.7986      2.00000
      2       0.8799      2.00000
      3       0.8799      2.00000
      4       3.4763      2.00000
      5       3.5027      2.00000
      6       3.5027      2.00000
      7      10.1302      0.00000
      8      20.4154      0.00000
      9      23.5195      0.00000

 k-point   762 :       0.4750    0.4250    0.4250
  band No.  band energies     occupation 
      1      -1.7278      2.00000
      2       0.8293      2.00000
      3       0.9048      2.00000
      4       3.0149      2.00000
      5       3.4758      2.00000
      6       4.4851      2.00000
      7       9.6499      0.00000
      8      20.3886      0.00000
      9      22.6625      0.00000

 k-point   763 :      -0.4750    0.4250    0.4250
  band No.  band energies     occupation 
      1      -1.5328      2.00000
      2       0.7012      2.00000
      3       1.0367      2.00000
      4       2.4988      2.00000
      5       3.4601      2.00000
      6       5.5355      1.35191
      7       9.2720      0.00000
      8      20.2298      0.00000
      9      21.6951      0.00000

 k-point   764 :      -0.4250    0.4250    0.4250
  band No.  band energies     occupation 
      1      -1.2439      2.00000
      2       0.5219      2.00000
      3       1.2631      2.00000
      4       1.9758      2.00000
      5       3.4586      2.00000
      6       6.6195     -0.00491
      7       8.9989      0.00000
      8      19.1675      0.00000
      9      21.6077      0.00000

 k-point   765 :       0.4750    0.4750    0.4250
  band No.  band energies     occupation 
      1      -1.7282      2.00000
      2       0.8025      2.00000
      3       0.9051      2.00000
      4       3.0510      2.00000
      5       3.6375      2.00000
      6       4.7050      2.00000
      7       9.2056      0.00000
      8      20.3441      0.00000
      9      22.9024      0.00000

 k-point   766 :      -0.4750    0.4750    0.4250
  band No.  band energies     occupation 
      1      -1.5993      2.00000
      2       0.7170      2.00000
      3       0.9916      2.00000
      4       2.6805      2.00000
      5       3.5970      2.00000
      6       5.5376      1.41197
      7       8.8799      0.00000
      8      20.3632      0.00000
      9      21.9288      0.00000

 k-point   767 :      -0.4250    0.4750    0.4250
  band No.  band energies     occupation 
      1      -1.3586      2.00000
      2       0.5637      2.00000
      3       1.1814      2.00000
      4       2.1676      2.00000
      5       3.5599      2.00000
      6       6.5199     -0.00533
      7       8.6741      0.00000
      8      19.9806      0.00000
      9      20.9562      0.00000

 k-point   768 :      -0.4750   -0.4750    0.4250
  band No.  band energies     occupation 
      1      -1.5389      2.00000
      2       0.6738      2.00000
      3       1.0383      2.00000
      4       2.5364      2.00000
      5       3.6216      2.00000
      6       5.9189      0.06990
      7       8.6686      0.00000
      8      20.2873      0.00000
      9      21.8826      0.00000

 k-point   769 :       0.4750    0.4750    0.4750
  band No.  band energies     occupation 
      1      -1.7942      2.00000
      2       0.8403      2.00000
      3       0.8403      2.00000
      4       3.6231      2.00000
      5       3.6231      2.00000
      6       4.4090      2.00000
      7       8.8739      0.00000
      8      20.2438      0.00000
      9      23.1982      0.00000

 k-point   770 :      -0.4750    0.4750    0.4750
  band No.  band energies     occupation 
      1      -1.7280      2.00000
      2       0.7956      2.00000
      3       0.8847      2.00000
      4       3.2018      2.00000
      5       3.6172      2.00000
      6       5.0675      2.04061
      7       8.6903      0.00000
      8      20.2841      0.00000
      9      22.6894      0.00000


--------------------------------------------------------------------------------------------------------


 soft charge-density along one line, spin component           1
         0         1         2         3         4         5         6         7         8         9
 total charge-density along one line
 
 pseudopotential strength for first ion, spin component:           1
 -9.784   0.000   0.000   0.000   0.000   0.000   0.000   0.000   0.000   0.000  -0.098   0.000   0.000   0.000  -0.000   0.000
  0.000   0.000  -9.784   0.000  -0.000   0.000   0.000   0.000   0.000   0.000   0.000   0.000  -0.098   0.000   0.000   0.000
  0.000   0.000  -0.000   0.000  -9.779   0.000  -0.000   0.000  -0.000   0.000  -0.000   0.000   0.000   0.000  -0.099   0.000
  0.000   0.000   0.000   0.000  -0.000   0.000  -9.784   0.000  -0.000   0.000   0.000   0.000   0.000   0.000   0.000   0.000
  0.000   0.000   0.000   0.000  -0.000   0.000  -0.000   0.000  -9.779   0.000  -0.000   0.000  -0.000   0.000   0.000   0.000
 -0.098   0.000   0.000   0.000  -0.000   0.000   0.000   0.000  -0.000   0.000   0.284   0.000  -0.000   0.000   0.000   0.000
  0.000   0.000  -0.098   0.000   0.000   0.000   0.000   0.000  -0.000   0.000  -0.000   0.000   0.284   0.000  -0.000   0.000
 -0.000   0.000   0.000   0.000  -0.099   0.000   0.000   0.000   0.000   0.000   0.000   0.000  -0.000   0.000   0.284   0.000
  0.000   0.000   0.000   0.000   0.000   0.000  -0.098   0.000   0.000   0.000  -0.000   0.000  -0.000   0.000  -0.000   0.000
 -0.000   0.000  -0.000   0.000   0.000   0.000   0.000   0.000  -0.099   0.000   0.000   0.000   0.000   0.000  -0.000   0.000
  0.000   0.000   0.000   0.000   0.000   0.000   0.000   0.000   0.000   0.000   0.000   0.000   0.000   0.000  -0.000   0.000
 -0.000   0.000  -0.000   0.000  -0.000   0.000  -0.000   0.000  -0.000   0.000   0.000   0.000   0.000   0.000   0.000   0.000
  0.000   0.000   0.000   0.000  -0.000   0.000   0.000   0.000  -0.000   0.000  -0.000   0.000  -0.000   0.000   0.000   0.000
  0.000   0.000  -0.000   0.000   0.000   0.000   0.000   0.000   0.000   0.000  -0.000   0.000  -0.000   0.000  -0.000   0.000
  0.000   0.000   0.000   0.000  -0.000   0.000   0.000   0.000   0.000   0.000  -0.000   0.000  -0.000   0.000   0.000   0.000
 -0.000   0.000  -0.000   0.000   0.000   0.000  -0.000   0.000   0.000   0.000   0.000   0.000   0.000   0.000  -0.000   0.000
 -0.000   0.000   0.000   0.000  -0.000   0.000  -0.000   0.000  -0.000   0.000   0.000   0.000  -0.000   0.000   0.000   0.000
 -0.000   0.000  -0.000   0.000   0.000   0.000  -0.000   0.000  -0.000   0.000   0.000   0.000   0.000   0.000  -0.000   0.000
 total augmentation occupancy for first ion, spin component:           1
  2.000   0.000   0.000   0.000   0.000   0.000   0.000   0.000   0.000   0.000   0.000   0.000   0.000   0.000   0.000   0.000
  0.000   2.000   0.000   0.000   0.000   0.000   0.000   0.000   0.000   0.000   0.000   0.000   0.000   0.000   0.000   0.000
  0.000   0.000   2.000   0.000   0.000   0.000   0.000   0.000   0.000   0.000   0.000   0.000   0.000   0.000   0.000   0.000
  0.000   0.000   0.000   2.000   0.000   0.000   0.000   0.000   0.000   0.000   0.000   0.000   0.000   0.000   0.000   0.000
  0.000   0.000   0.000   0.000   2.000   0.000   0.000   0.000   0.000   0.000   0.000   0.000   0.000   0.000   0.000   0.000
  0.000   0.000   0.000   0.000   0.000   0.000   0.000   0.000   0.000   0.000   0.000   0.000   0.000   0.000   0.000   0.000
  0.000   0.000   0.000   0.000   0.000   0.000   0.000   0.000   0.000   0.000   0.000   0.000   0.000   0.000   0.000   0.000
  0.000   0.000   0.000   0.000   0.000   0.000   0.000   0.000   0.000   0.000   0.000   0.000   0.000   0.000   0.000   0.000
  0.000   0.000   0.000   0.000   0.000   0.000   0.000   0.000   0.000   0.000   0.000   0.000   0.000   0.000   0.000   0.000
  0.000   0.000   0.000   0.000   0.000   0.000   0.000   0.000   0.000   0.000   0.000   0.000   0.000   0.000   0.000   0.000
  0.000   0.000   0.000   0.000   0.000   0.000   0.000   0.000   0.000   0.000   1.000   0.000   0.000   0.000   0.000   0.000
  0.000   0.000   0.000   0.000   0.000   0.000   0.000   0.000   0.000   0.000   0.000   0.000   0.000   0.000   0.000   0.000
  0.000   0.000   0.000   0.000   0.000   0.000   0.000   0.000   0.000   0.000   0.000   0.000   0.000   0.000   0.000   0.000
  0.000   0.000   0.000   0.000   0.000   0.000   0.000   0.000   0.000   0.000   0.000   0.000   0.000   0.000   0.000   0.000
  0.000   0.000   0.000   0.000   0.000   0.000   0.000   0.000   0.000   0.000   0.000   0.000   0.000   0.000   0.000   0.000
  0.000   0.000   0.000   0.000   0.000   0.000   0.000   0.000   0.000   0.000   0.000   0.000   0.000   0.000   0.000   0.000
  0.000   0.000   0.000   0.000   0.000   0.000   0.000   0.000   0.000   0.000   0.000   0.000   0.000   0.000   0.000   0.000
  0.000   0.000   0.000   0.000   0.000   0.000   0.000   0.000   0.000   0.000   0.000   0.000   0.000   0.000   0.000   0.000


------------------------ aborting loop because EDIFF is reached ----------------------------------------


 


 total charge     
 
# of ion       s       p       d       tot
------------------------------------------
    1        0.548   0.376   8.723   9.647
 
    CHARGE:  cpu time    0.0542: real time    0.0933
    FORLOC:  cpu time    0.0007: real time    0.0006
    FORNL :  cpu time    0.1584: real time    0.3149
    STRESS:  cpu time    0.4893: real time    0.9885
    FORCOR:  cpu time    0.0030: real time    0.0030
    FORHAR:  cpu time    0.0024: real time    0.0154
    OFIELD:  cpu time    0.0004: real time    0.0001

  FORCE on cell =-STRESS in cart. coord.  units (eV):
  Direction    XX          YY          ZZ          XY          YZ          ZX
  --------------------------------------------------------------------------------------
  Alpha Z   108.24217   108.24217   108.24217
  Ewald    -326.32949  -326.32949  -326.32949     0.00000     0.00000     0.00000
  Hartree    37.02624    37.02624    37.02624    -0.00000    -0.00000    -0.00000
  E(xc)     -49.05919   -49.05919   -49.05919     0.00001     0.00001     0.00001
  Local      82.21003    82.21003    82.21003     0.00014     0.00014     0.00014
  n-local   -49.69503   -46.49930   -50.00626     0.79331    -0.84189    -0.00097
  augment    42.42253    42.42253    42.42253    -0.00002    -0.00002    -0.00002
  Kinetic   153.12864   152.28358   154.79918    -0.22930     0.17588    -0.00681
  Fock        0.00000     0.00000     0.00000     0.00000     0.00000     0.00000
  -------------------------------------------------------------------------------------
  Total      -0.81744    -0.81744    -0.81744    -0.00000    -0.00000     0.00000
  in kB     -77.13355   -77.13355   -77.13355    -0.00000    -0.00000     0.00000
  external pressure =      -77.13 kB  Pullay stress =        0.00 kB


 VOLUME and BASIS-vectors are now :
 -----------------------------------------------------------------------------
  energy-cutoff  :      229.87
  volume of cell :       16.98
      direct lattice vectors                 reciprocal lattice vectors
     0.000000000  2.040000000  2.040000000    -0.245098039  0.245098039  0.245098039
     2.040000000  0.000000000  2.040000000     0.245098039 -0.245098039  0.245098039
     2.040000000  2.040000000  0.000000000     0.245098039  0.245098039 -0.245098039

  length of vectors
     2.884995667  2.884995667  2.884995667     0.424522257  0.424522257  0.424522257


 FORCES acting on ions
    electron-ion (+dipol)            ewald-force                    non-local-force                 convergence-correction
 -----------------------------------------------------------------------------------------------
   0.101E-14 -.166E-15 -.115E-15   -.208E-15 0.128E-14 0.450E-14   0.000E+00 0.000E+00 0.000E+00   0.181E-14 -.643E-14 -.268E-14
 -----------------------------------------------------------------------------------------------
   0.101E-14 -.166E-15 -.115E-15   -.208E-15 0.128E-14 0.450E-14   0.000E+00 0.000E+00 0.000E+00   0.181E-14 -.643E-14 -.268E-14
 
 
 POSITION                                       TOTAL-FORCE (eV/Angst)
 -----------------------------------------------------------------------------------
      0.00000      0.00000      0.00000        -0.000000      0.000000      0.000000
 -----------------------------------------------------------------------------------
    total drift:                                0.000000     -0.000000      0.000000


--------------------------------------------------------------------------------------------------------



  FREE ENERGIE OF THE ION-ELECTRON SYSTEM (eV)
  ---------------------------------------------------
  free  energy   TOTEN  =        -4.38939919 eV

  energy  without entropy=       -4.38939919  energy(sigma->0) =       -4.38939919
 


--------------------------------------------------------------------------------------------------------


    POTLOK:  cpu time    0.0051: real time    0.0054


--------------------------------------------------------------------------------------------------------


     LOOP+:  cpu time    9.3260: real time   18.8117
    4ORBIT:  cpu time    0.0000: real time    0.0000
 


 total charge     
 
# of ion       s       p       d       tot
------------------------------------------
    1        0.548   0.376   8.723   9.647
 
 BZINTS: Fermi energy:  5.625783; 11.000000 electrons
         Band energy:  14.603927;  BLOECHL correction: -0.011156

 total amount of memory used by VASP MPI-rank0    66039. kBytes
=======================================================================

   base      :      30000. kBytes
   nonl-proj :      15969. kBytes
   fftplans  :        932. kBytes
   grid      :       1161. kBytes
   one-center:         15. kBytes
   wavefun   :      17962. kBytes
 
  
  
 General timing and accounting informations for this job:
 ========================================================
  
                  Total CPU time used (sec):       37.056
                            User time (sec):       19.905
                          System time (sec):       17.151
                         Elapsed time (sec):       92.724
  
                   Maximum memory used (kb):       92804.
                   Average memory used (kb):           0.
  
                          Minor page faults:        11189
                          Major page faults:            0
                 Voluntary context switches:          299
