   4   4   1   0
  0.9063964E+01  0.5107186E-09  0.5107186E-09  0.5107186E-09  0.5000000E-15
  1.000000000000000E-004
  CAR 
 NiO_af2                                 
     14.93107126    -17.08499753  301      4.86084190      1.00000000
    -17.085  0.0000E+00  0.0000E+00  0.0000E+00  0.0000E+00
    -16.978  0.0000E+00  0.0000E+00  0.0000E+00  0.0000E+00
    -16.872  0.0000E+00  0.0000E+00  0.0000E+00  0.0000E+00
    -16.765 -0.2477E-30 -0.2477E-30 -0.2644E-31 -0.2644E-31
    -16.658 -0.1437E-26 -0.1437E-26 -0.1533E-27 -0.1533E-27
    -16.551 -0.4574E-23 -0.4574E-23 -0.4883E-24 -0.4883E-24
    -16.445 -0.8215E-20 -0.8215E-20 -0.8772E-21 -0.8772E-21
    -16.338 -0.8318E-17 -0.8318E-17 -0.8886E-18 -0.8886E-18
    -16.231 -0.4602E-14 -0.4602E-14 -0.4920E-15 -0.4920E-15
    -16.125 -0.1469E-11 -0.1469E-11 -0.1572E-12 -0.1572E-12
    -16.018 -0.2626E-09 -0.2626E-09 -0.2818E-10 -0.2818E-10
    -15.911 -0.2624E-07 -0.2624E-07 -0.2829E-08 -0.2829E-08
    -15.804 -0.1457E-05 -0.1457E-05 -0.1583E-06 -0.1583E-06
    -15.698 -0.4450E-04 -0.4450E-04 -0.4907E-05 -0.4907E-05
    -15.591 -0.7333E-03 -0.7333E-03 -0.8317E-04 -0.8317E-04
    -15.484 -0.6244E-02 -0.6244E-02 -0.7495E-03 -0.7495E-03
    -15.377 -0.2409E-01 -0.2409E-01 -0.3321E-02 -0.3321E-02
    -15.271 -0.1457E-01 -0.1457E-01 -0.4876E-02 -0.4876E-02
    -15.164  0.1681E+00  0.1681E+00  0.1307E-01  0.1307E-01
    -15.057  0.5226E+00  0.5226E+00  0.6884E-01  0.6884E-01
    -14.951  0.6983E+00  0.6983E+00  0.1434E+00  0.1434E+00
    -14.844  0.5659E+00  0.5659E+00  0.2038E+00  0.2038E+00
    -14.737  0.3884E+00  0.3884E+00  0.2452E+00  0.2452E+00
    -14.630  0.3299E+00  0.3299E+00  0.2804E+00  0.2804E+00
    -14.524  0.4548E+00  0.4548E+00  0.3290E+00  0.3290E+00
    -14.417  0.7143E+00  0.7143E+00  0.4052E+00  0.4052E+00
    -14.310  0.8292E+00  0.8292E+00  0.4937E+00  0.4937E+00
    -14.204  0.7135E+00  0.7135E+00  0.5698E+00  0.5698E+00
    -14.097  0.5575E+00  0.5575E+00  0.6293E+00  0.6293E+00
    -13.990  0.5212E+00  0.5212E+00  0.6849E+00  0.6849E+00
    -13.883  0.1014E+01  0.1014E+01  0.7931E+00  0.7931E+00
    -13.777  0.2582E+01  0.2582E+01  0.1069E+01  0.1069E+01
    -13.670  0.4196E+01  0.4196E+01  0.1516E+01  0.1516E+01
    -13.563  0.3541E+01  0.3541E+01  0.1894E+01  0.1894E+01
    -13.457  0.1255E+01  0.1255E+01  0.2028E+01  0.2028E+01
    -13.350 -0.5354E-01 -0.5354E-01  0.2023E+01  0.2023E+01
    -13.243 -0.1613E+00 -0.1613E+00  0.2005E+01  0.2005E+01
    -13.136 -0.4468E-01 -0.4468E-01  0.2001E+01  0.2001E+01
    -13.030 -0.5527E-02 -0.5527E-02  0.2000E+01  0.2000E+01
    -12.923 -0.3540E-03 -0.3540E-03  0.2000E+01  0.2000E+01
    -12.816 -0.1230E-04 -0.1230E-04  0.2000E+01  0.2000E+01
    -12.709 -0.2367E-06 -0.2367E-06  0.2000E+01  0.2000E+01
    -12.603 -0.2546E-08 -0.2546E-08  0.2000E+01  0.2000E+01
    -12.496 -0.1538E-10 -0.1538E-10  0.2000E+01  0.2000E+01
    -12.389 -0.5250E-13 -0.5250E-13  0.2000E+01  0.2000E+01
    -12.283  0.0000E+00  0.0000E+00  0.2000E+01  0.2000E+01
    -12.176  0.0000E+00  0.0000E+00  0.2000E+01  0.2000E+01
    -12.069  0.0000E+00  0.0000E+00  0.2000E+01  0.2000E+01
    -11.962  0.0000E+00  0.0000E+00  0.2000E+01  0.2000E+01
    -11.856  0.0000E+00  0.0000E+00  0.2000E+01  0.2000E+01
    -11.749  0.0000E+00  0.0000E+00  0.2000E+01  0.2000E+01
    -11.642  0.0000E+00  0.0000E+00  0.2000E+01  0.2000E+01
    -11.536  0.0000E+00  0.0000E+00  0.2000E+01  0.2000E+01
    -11.429  0.0000E+00  0.0000E+00  0.2000E+01  0.2000E+01
    -11.322  0.0000E+00  0.0000E+00  0.2000E+01  0.2000E+01
    -11.215  0.0000E+00  0.0000E+00  0.2000E+01  0.2000E+01
    -11.109  0.0000E+00  0.0000E+00  0.2000E+01  0.2000E+01
    -11.002  0.0000E+00  0.0000E+00  0.2000E+01  0.2000E+01
    -10.895  0.0000E+00  0.0000E+00  0.2000E+01  0.2000E+01
    -10.789  0.0000E+00  0.0000E+00  0.2000E+01  0.2000E+01
    -10.682  0.0000E+00  0.0000E+00  0.2000E+01  0.2000E+01
    -10.575  0.0000E+00  0.0000E+00  0.2000E+01  0.2000E+01
    -10.468  0.0000E+00  0.0000E+00  0.2000E+01  0.2000E+01
    -10.362  0.0000E+00  0.0000E+00  0.2000E+01  0.2000E+01
    -10.255  0.0000E+00  0.0000E+00  0.2000E+01  0.2000E+01
    -10.148  0.0000E+00  0.0000E+00  0.2000E+01  0.2000E+01
    -10.041  0.0000E+00  0.0000E+00  0.2000E+01  0.2000E+01
     -9.935  0.0000E+00  0.0000E+00  0.2000E+01  0.2000E+01
     -9.828  0.0000E+00  0.0000E+00  0.2000E+01  0.2000E+01
     -9.721  0.0000E+00  0.0000E+00  0.2000E+01  0.2000E+01
     -9.615  0.0000E+00  0.0000E+00  0.2000E+01  0.2000E+01
     -9.508  0.0000E+00  0.0000E+00  0.2000E+01  0.2000E+01
     -9.401  0.0000E+00  0.0000E+00  0.2000E+01  0.2000E+01
     -9.294  0.0000E+00  0.0000E+00  0.2000E+01  0.2000E+01
     -9.188  0.0000E+00  0.0000E+00  0.2000E+01  0.2000E+01
     -9.081  0.0000E+00  0.0000E+00  0.2000E+01  0.2000E+01
     -8.974  0.0000E+00  0.0000E+00  0.2000E+01  0.2000E+01
     -8.868  0.0000E+00  0.0000E+00  0.2000E+01  0.2000E+01
     -8.761  0.0000E+00  0.0000E+00  0.2000E+01  0.2000E+01
     -8.654  0.0000E+00  0.0000E+00  0.2000E+01  0.2000E+01
     -8.547  0.0000E+00  0.0000E+00  0.2000E+01  0.2000E+01
     -8.441  0.0000E+00  0.0000E+00  0.2000E+01  0.2000E+01
     -8.334  0.0000E+00  0.0000E+00  0.2000E+01  0.2000E+01
     -8.227  0.0000E+00  0.0000E+00  0.2000E+01  0.2000E+01
     -8.120  0.0000E+00  0.0000E+00  0.2000E+01  0.2000E+01
     -8.014  0.0000E+00  0.0000E+00  0.2000E+01  0.2000E+01
     -7.907  0.0000E+00  0.0000E+00  0.2000E+01  0.2000E+01
     -7.800  0.0000E+00  0.0000E+00  0.2000E+01  0.2000E+01
     -7.694  0.0000E+00  0.0000E+00  0.2000E+01  0.2000E+01
     -7.587  0.0000E+00  0.0000E+00  0.2000E+01  0.2000E+01
     -7.480  0.0000E+00  0.0000E+00  0.2000E+01  0.2000E+01
     -7.373  0.0000E+00  0.0000E+00  0.2000E+01  0.2000E+01
     -7.267  0.0000E+00  0.0000E+00  0.2000E+01  0.2000E+01
     -7.160  0.0000E+00  0.0000E+00  0.2000E+01  0.2000E+01
     -7.053  0.0000E+00  0.0000E+00  0.2000E+01  0.2000E+01
     -6.947  0.0000E+00  0.0000E+00  0.2000E+01  0.2000E+01
     -6.840  0.0000E+00  0.0000E+00  0.2000E+01  0.2000E+01
     -6.733  0.0000E+00  0.0000E+00  0.2000E+01  0.2000E+01
     -6.626  0.0000E+00  0.0000E+00  0.2000E+01  0.2000E+01
     -6.520  0.0000E+00  0.0000E+00  0.2000E+01  0.2000E+01
     -6.413  0.0000E+00  0.0000E+00  0.2000E+01  0.2000E+01
     -6.306  0.0000E+00  0.0000E+00  0.2000E+01  0.2000E+01
     -6.200  0.0000E+00  0.0000E+00  0.2000E+01  0.2000E+01
     -6.093  0.0000E+00  0.0000E+00  0.2000E+01  0.2000E+01
     -5.986  0.0000E+00  0.0000E+00  0.2000E+01  0.2000E+01
     -5.879  0.0000E+00  0.0000E+00  0.2000E+01  0.2000E+01
     -5.773  0.0000E+00  0.0000E+00  0.2000E+01  0.2000E+01
     -5.666  0.0000E+00  0.0000E+00  0.2000E+01  0.2000E+01
     -5.559  0.0000E+00  0.0000E+00  0.2000E+01  0.2000E+01
     -5.452  0.0000E+00  0.0000E+00  0.2000E+01  0.2000E+01
     -5.346  0.0000E+00  0.0000E+00  0.2000E+01  0.2000E+01
     -5.239  0.0000E+00  0.0000E+00  0.2000E+01  0.2000E+01
     -5.132  0.0000E+00  0.0000E+00  0.2000E+01  0.2000E+01
     -5.026  0.0000E+00  0.0000E+00  0.2000E+01  0.2000E+01
     -4.919  0.0000E+00  0.0000E+00  0.2000E+01  0.2000E+01
     -4.812  0.0000E+00  0.0000E+00  0.2000E+01  0.2000E+01
     -4.705  0.0000E+00  0.0000E+00  0.2000E+01  0.2000E+01
     -4.599 -0.9011E-29 -0.9011E-29  0.2000E+01  0.2000E+01
     -4.492 -0.4182E-25 -0.4182E-25  0.2000E+01  0.2000E+01
     -4.385 -0.1095E-21 -0.1095E-21  0.2000E+01  0.2000E+01
     -4.279 -0.1616E-18 -0.1616E-18  0.2000E+01  0.2000E+01
     -4.172 -0.1345E-15 -0.1345E-15  0.2000E+01  0.2000E+01
     -4.065 -0.6103E-13 -0.6103E-13  0.2000E+01  0.2000E+01
     -3.958 -0.1597E-10 -0.1597E-10  0.2000E+01  0.2000E+01
     -3.852 -0.2341E-08 -0.2341E-08  0.2000E+01  0.2000E+01
     -3.745 -0.1914E-06 -0.1914E-06  0.2000E+01  0.2000E+01
     -3.638 -0.8669E-05 -0.8669E-05  0.2000E+01  0.2000E+01
     -3.532 -0.2148E-03 -0.2148E-03  0.2000E+01  0.2000E+01
     -3.425 -0.2840E-02 -0.2840E-02  0.2000E+01  0.2000E+01
     -3.318 -0.1885E-01 -0.1885E-01  0.1998E+01  0.1998E+01
     -3.211 -0.5031E-01 -0.5031E-01  0.1992E+01  0.1992E+01
     -3.105  0.3678E-01  0.3678E-01  0.1996E+01  0.1996E+01
     -2.998  0.4867E+00  0.4867E+00  0.2048E+01  0.2048E+01
     -2.891  0.1060E+01  0.1060E+01  0.2161E+01  0.2161E+01
     -2.784  0.1149E+01  0.1149E+01  0.2284E+01  0.2284E+01
     -2.678  0.8549E+00  0.8549E+00  0.2375E+01  0.2375E+01
     -2.571  0.6386E+00  0.6386E+00  0.2443E+01  0.2443E+01
     -2.464  0.5399E+00  0.5399E+00  0.2501E+01  0.2501E+01
     -2.358  0.4493E+00  0.4493E+00  0.2549E+01  0.2549E+01
     -2.251  0.3697E+00  0.3697E+00  0.2588E+01  0.2588E+01
     -2.144  0.3290E+00  0.3290E+00  0.2623E+01  0.2623E+01
     -2.037  0.3771E+00  0.3771E+00  0.2664E+01  0.2664E+01
     -1.931  0.5982E+00  0.5982E+00  0.2727E+01  0.2727E+01
     -1.824  0.1137E+01  0.1137E+01  0.2849E+01  0.2849E+01
     -1.717  0.1931E+01  0.1931E+01  0.3055E+01  0.3055E+01
     -1.611  0.2084E+01  0.2084E+01  0.3277E+01  0.3277E+01
     -1.504  0.1203E+01  0.1203E+01  0.3406E+01  0.3406E+01
     -1.397  0.3927E+00  0.3927E+00  0.3448E+01  0.3448E+01
     -1.290  0.2007E+00  0.2007E+00  0.3469E+01  0.3469E+01
     -1.184  0.2501E+00  0.2501E+00  0.3496E+01  0.3496E+01
     -1.077  0.3466E+00  0.3466E+00  0.3533E+01  0.3533E+01
     -0.970  0.4518E+00  0.4518E+00  0.3581E+01  0.3581E+01
     -0.864  0.4514E+00  0.4514E+00  0.3629E+01  0.3629E+01
     -0.757  0.2767E+00  0.2767E+00  0.3659E+01  0.3659E+01
     -0.650  0.1163E+00  0.1163E+00  0.3671E+01  0.3671E+01
     -0.543  0.2558E+00  0.2558E+00  0.3698E+01  0.3698E+01
     -0.437  0.9416E+00  0.9416E+00  0.3799E+01  0.3799E+01
     -0.330  0.2514E+01  0.2514E+01  0.4067E+01  0.4067E+01
     -0.223  0.4181E+01  0.4181E+01  0.4513E+01  0.4513E+01
     -0.116  0.4001E+01  0.4001E+01  0.4940E+01  0.4940E+01
     -0.010  0.2485E+01  0.2485E+01  0.5205E+01  0.5205E+01
      0.097  0.1727E+01  0.1727E+01  0.5390E+01  0.5390E+01
      0.204  0.1838E+01  0.1838E+01  0.5586E+01  0.5586E+01
      0.310  0.1897E+01  0.1897E+01  0.5788E+01  0.5788E+01
      0.417  0.1683E+01  0.1683E+01  0.5968E+01  0.5968E+01
      0.524  0.1492E+01  0.1492E+01  0.6127E+01  0.6127E+01
      0.631  0.1413E+01  0.1413E+01  0.6278E+01  0.6278E+01
      0.737  0.1471E+01  0.1471E+01  0.6435E+01  0.6435E+01
      0.844  0.2044E+01  0.2044E+01  0.6653E+01  0.6653E+01
      0.951  0.2842E+01  0.2842E+01  0.6956E+01  0.6956E+01
      1.057  0.2571E+01  0.2571E+01  0.7231E+01  0.7231E+01
      1.164  0.1293E+01  0.1293E+01  0.7369E+01  0.7369E+01
      1.271  0.4632E+00  0.4632E+00  0.7418E+01  0.7418E+01
      1.378  0.3524E+00  0.3524E+00  0.7456E+01  0.7456E+01
      1.484  0.4024E+00  0.4024E+00  0.7499E+01  0.7499E+01
      1.591  0.4029E+00  0.4029E+00  0.7542E+01  0.7542E+01
      1.698  0.4301E+00  0.4301E+00  0.7587E+01  0.7587E+01
      1.804  0.7074E+00  0.7074E+00  0.7663E+01  0.7663E+01
      1.911  0.1221E+01  0.1221E+01  0.7793E+01  0.7793E+01
      2.018  0.1433E+01  0.1433E+01  0.7946E+01  0.7946E+01
      2.125  0.1244E+01  0.1244E+01  0.8079E+01  0.8079E+01
      2.231  0.1106E+01  0.1106E+01  0.8197E+01  0.8197E+01
      2.338  0.8838E+00  0.8838E+00  0.8291E+01  0.8291E+01
      2.445  0.4219E+00  0.4219E+00  0.8336E+01  0.8336E+01
      2.552  0.4756E+00  0.4756E+00  0.8387E+01  0.8387E+01
      2.658  0.1891E+01  0.1891E+01  0.8589E+01  0.8589E+01
      2.765  0.3745E+01  0.3745E+01  0.8989E+01  0.8989E+01
      2.872  0.3813E+01  0.3813E+01  0.9395E+01  0.9395E+01
      2.978  0.2376E+01  0.2376E+01  0.9649E+01  0.9649E+01
      3.085  0.1736E+01  0.1736E+01  0.9834E+01  0.9834E+01
      3.192  0.2491E+01  0.2491E+01  0.1010E+02  0.1010E+02
      3.299  0.3544E+01  0.3544E+01  0.1048E+02  0.1048E+02
      3.405  0.3606E+01  0.3606E+01  0.1086E+02  0.1086E+02
      3.512  0.2371E+01  0.2371E+01  0.1112E+02  0.1112E+02
      3.619  0.1266E+01  0.1266E+01  0.1125E+02  0.1125E+02
      3.725  0.1693E+01  0.1693E+01  0.1143E+02  0.1143E+02
      3.832  0.3533E+01  0.3533E+01  0.1181E+02  0.1181E+02
      3.939  0.5390E+01  0.5390E+01  0.1238E+02  0.1238E+02
      4.046  0.5379E+01  0.5379E+01  0.1296E+02  0.1296E+02
      4.152  0.3903E+01  0.3903E+01  0.1337E+02  0.1337E+02
      4.259  0.3219E+01  0.3219E+01  0.1372E+02  0.1372E+02
      4.366  0.4029E+01  0.4029E+01  0.1415E+02  0.1415E+02
      4.472  0.5143E+01  0.5143E+01  0.1470E+02  0.1470E+02
      4.579  0.5384E+01  0.5384E+01  0.1527E+02  0.1527E+02
      4.686  0.4182E+01  0.4182E+01  0.1572E+02  0.1572E+02
      4.793  0.2137E+01  0.2137E+01  0.1595E+02  0.1595E+02
      4.899  0.6152E+00  0.6152E+00  0.1601E+02  0.1601E+02
      5.006  0.1090E-01  0.1090E-01  0.1601E+02  0.1601E+02
      5.113 -0.7855E-01 -0.7855E-01  0.1600E+02  0.1600E+02
      5.220 -0.3517E-01 -0.3517E-01  0.1600E+02  0.1600E+02
      5.326 -0.1280E-01 -0.1280E-01  0.1600E+02  0.1600E+02
      5.433 -0.3106E-01 -0.3106E-01  0.1600E+02  0.1600E+02
      5.540 -0.6496E-01 -0.6496E-01  0.1599E+02  0.1599E+02
      5.646  0.6198E-01  0.6198E-01  0.1600E+02  0.1600E+02
      5.753  0.6687E+00  0.6687E+00  0.1607E+02  0.1607E+02
      5.860  0.1705E+01  0.1705E+01  0.1625E+02  0.1625E+02
      5.967  0.2430E+01  0.2430E+01  0.1651E+02  0.1651E+02
      6.073  0.2258E+01  0.2258E+01  0.1675E+02  0.1675E+02
      6.180  0.1625E+01  0.1625E+01  0.1692E+02  0.1692E+02
      6.287  0.1255E+01  0.1255E+01  0.1706E+02  0.1706E+02
      6.393  0.1448E+01  0.1448E+01  0.1721E+02  0.1721E+02
      6.500  0.2234E+01  0.2234E+01  0.1745E+02  0.1745E+02
      6.607  0.2792E+01  0.2792E+01  0.1775E+02  0.1775E+02
      6.714  0.1976E+01  0.1976E+01  0.1796E+02  0.1796E+02
      6.820  0.6185E+00  0.6185E+00  0.1802E+02  0.1802E+02
      6.927  0.1261E+00  0.1261E+00  0.1804E+02  0.1804E+02
      7.034  0.2077E+00  0.2077E+00  0.1806E+02  0.1806E+02
      7.140  0.2221E+00  0.2221E+00  0.1808E+02  0.1808E+02
      7.247  0.1627E+00  0.1627E+00  0.1810E+02  0.1810E+02
      7.354  0.1330E+00  0.1330E+00  0.1812E+02  0.1812E+02
      7.461  0.1215E+00  0.1215E+00  0.1813E+02  0.1813E+02
      7.567  0.1122E+00  0.1122E+00  0.1814E+02  0.1814E+02
      7.674  0.1101E+00  0.1101E+00  0.1815E+02  0.1815E+02
      7.781  0.1066E+00  0.1066E+00  0.1816E+02  0.1816E+02
      7.888  0.9553E-01  0.9553E-01  0.1817E+02  0.1817E+02
      7.994  0.9818E-01  0.9818E-01  0.1818E+02  0.1818E+02
      8.101  0.1041E+00  0.1041E+00  0.1820E+02  0.1820E+02
      8.208  0.8865E-01  0.8865E-01  0.1820E+02  0.1820E+02
      8.314  0.8719E-01  0.8719E-01  0.1821E+02  0.1821E+02
      8.421  0.1048E+00  0.1048E+00  0.1823E+02  0.1823E+02
      8.528  0.9253E-01  0.9253E-01  0.1824E+02  0.1824E+02
      8.635  0.7835E-01  0.7835E-01  0.1824E+02  0.1824E+02
      8.741  0.9932E-01  0.9932E-01  0.1825E+02  0.1825E+02
      8.848  0.1014E+00  0.1014E+00  0.1826E+02  0.1826E+02
      8.955  0.7978E-01  0.7978E-01  0.1827E+02  0.1827E+02
      9.061  0.9239E-01  0.9239E-01  0.1828E+02  0.1828E+02
      9.168  0.1059E+00  0.1059E+00  0.1829E+02  0.1829E+02
      9.275  0.8335E-01  0.8335E-01  0.1830E+02  0.1830E+02
      9.382  0.8769E-01  0.8769E-01  0.1831E+02  0.1831E+02
      9.488  0.1448E+00  0.1448E+00  0.1833E+02  0.1833E+02
      9.595  0.2193E+00  0.2193E+00  0.1835E+02  0.1835E+02
      9.702  0.2921E+00  0.2921E+00  0.1838E+02  0.1838E+02
      9.809  0.3087E+00  0.3087E+00  0.1842E+02  0.1842E+02
      9.915  0.2516E+00  0.2516E+00  0.1844E+02  0.1844E+02
     10.022  0.2134E+00  0.2134E+00  0.1847E+02  0.1847E+02
     10.129  0.2128E+00  0.2128E+00  0.1849E+02  0.1849E+02
     10.235  0.2065E+00  0.2065E+00  0.1851E+02  0.1851E+02
     10.342  0.2124E+00  0.2124E+00  0.1853E+02  0.1853E+02
     10.449  0.2213E+00  0.2213E+00  0.1856E+02  0.1856E+02
     10.556  0.2177E+00  0.2177E+00  0.1858E+02  0.1858E+02
     10.662  0.2478E+00  0.2478E+00  0.1861E+02  0.1861E+02
     10.769  0.4414E+00  0.4414E+00  0.1865E+02  0.1865E+02
     10.876  0.8550E+00  0.8550E+00  0.1874E+02  0.1874E+02
     10.982  0.1081E+01  0.1081E+01  0.1886E+02  0.1886E+02
     11.089  0.8442E+00  0.8442E+00  0.1895E+02  0.1895E+02
     11.196  0.5261E+00  0.5261E+00  0.1901E+02  0.1901E+02
     11.303  0.3925E+00  0.3925E+00  0.1905E+02  0.1905E+02
     11.409  0.3917E+00  0.3917E+00  0.1909E+02  0.1909E+02
     11.516  0.5929E+00  0.5929E+00  0.1915E+02  0.1915E+02
     11.623  0.9696E+00  0.9696E+00  0.1926E+02  0.1926E+02
     11.729  0.1147E+01  0.1147E+01  0.1938E+02  0.1938E+02
     11.836  0.9963E+00  0.9963E+00  0.1949E+02  0.1949E+02
     11.943  0.7395E+00  0.7395E+00  0.1956E+02  0.1956E+02
     12.050  0.5643E+00  0.5643E+00  0.1962E+02  0.1962E+02
     12.156  0.5200E+00  0.5200E+00  0.1968E+02  0.1968E+02
     12.263  0.4718E+00  0.4718E+00  0.1973E+02  0.1973E+02
     12.370  0.3647E+00  0.3647E+00  0.1977E+02  0.1977E+02
     12.477  0.3084E+00  0.3084E+00  0.1980E+02  0.1980E+02
     12.583  0.3231E+00  0.3231E+00  0.1984E+02  0.1984E+02
     12.690  0.3838E+00  0.3839E+00  0.1988E+02  0.1988E+02
     12.797  0.4616E+00  0.4616E+00  0.1993E+02  0.1993E+02
     12.903  0.4276E+00  0.4276E+00  0.1997E+02  0.1997E+02
     13.010  0.2351E+00  0.2351E+00  0.2000E+02  0.2000E+02
     13.117  0.4964E-01  0.4963E-01  0.2000E+02  0.2000E+02
     13.224 -0.1401E-01 -0.1401E-01  0.2000E+02  0.2000E+02
     13.330 -0.1033E-01 -0.1033E-01  0.2000E+02  0.2000E+02
     13.437 -0.2342E-02 -0.2342E-02  0.2000E+02  0.2000E+02
     13.544 -0.2603E-03 -0.2602E-03  0.2000E+02  0.2000E+02
     13.650 -0.1542E-04 -0.1542E-04  0.2000E+02  0.2000E+02
     13.757 -0.5013E-06 -0.5012E-06  0.2000E+02  0.2000E+02
     13.864 -0.9049E-08 -0.9047E-08  0.2000E+02  0.2000E+02
     13.971 -0.9124E-10 -0.9123E-10  0.2000E+02  0.2000E+02
     14.077 -0.5156E-12 -0.5155E-12  0.2000E+02  0.2000E+02
     14.184 -0.1664E-14 -0.1664E-14  0.2000E+02  0.2000E+02
     14.291  0.0000E+00  0.0000E+00  0.2000E+02  0.2000E+02
     14.397  0.0000E+00  0.0000E+00  0.2000E+02  0.2000E+02
     14.504  0.0000E+00  0.0000E+00  0.2000E+02  0.2000E+02
     14.611  0.0000E+00  0.0000E+00  0.2000E+02  0.2000E+02
     14.718  0.0000E+00  0.0000E+00  0.2000E+02  0.2000E+02
     14.824  0.0000E+00  0.0000E+00  0.2000E+02  0.2000E+02
     14.931  0.0000E+00  0.0000E+00  0.2000E+02  0.2000E+02
     14.93107126    -17.08499753  301      4.86084190      1.00000000
    -17.085  0.0000E+00  0.0000E+00  0.0000E+00  0.0000E+00  0.0000E+00  0.0000E+00  0.0000E+00  0.0000E+00  0.0000E+00  0.0000E+00  0.0000E+00  0.0000E+00  0.0000E+00  0.0000E+00  0.0000E+00  0.0000E+00  0.0000E+00  0.0000E+00
    -16.978  0.0000E+00  0.0000E+00  0.0000E+00  0.0000E+00  0.0000E+00  0.0000E+00  0.0000E+00  0.0000E+00  0.0000E+00  0.0000E+00  0.0000E+00  0.0000E+00  0.0000E+00  0.0000E+00  0.0000E+00  0.0000E+00  0.0000E+00  0.0000E+00
    -16.872  0.0000E+00  0.0000E+00  0.0000E+00  0.0000E+00  0.0000E+00  0.0000E+00  0.0000E+00  0.0000E+00  0.0000E+00  0.0000E+00  0.0000E+00  0.0000E+00  0.0000E+00  0.0000E+00  0.0000E+00  0.0000E+00  0.0000E+00  0.0000E+00
    -16.765 -0.1485E-31 -0.1466E-31 -0.5072E-35 -0.5063E-35 -0.7180E-35 -0.7224E-35 -0.7180E-35 -0.7224E-35 -0.2338E-38 -0.2753E-38 -0.2342E-38 -0.2758E-38 -0.9198E-39 -0.8982E-39 -0.3724E-38 -0.1748E-38 -0.2758E-38 -0.2687E-38
    -16.658 -0.8606E-28 -0.8498E-28 -0.4134E-31 -0.4127E-31 -0.5518E-31 -0.5553E-31 -0.5518E-31 -0.5553E-31 -0.1662E-34 -0.1869E-34 -0.1665E-34 -0.1873E-34 -0.7934E-35 -0.7749E-35 -0.2742E-34 -0.1126E-34 -0.2380E-34 -0.2321E-34
    -16.551 -0.2740E-24 -0.2705E-24 -0.1424E-27 -0.1421E-27 -0.1900E-27 -0.1912E-27 -0.1900E-27 -0.1912E-27 -0.5556E-31 -0.6185E-31 -0.5565E-31 -0.6198E-31 -0.2931E-31 -0.2863E-31 -0.9327E-31 -0.3682E-31 -0.8792E-31 -0.8578E-31
    -16.445 -0.4919E-21 -0.4857E-21 -0.2781E-24 -0.2777E-24 -0.3712E-24 -0.3736E-24 -0.3712E-24 -0.3735E-24 -0.1056E-27 -0.1163E-27 -0.1058E-27 -0.1165E-27 -0.6170E-28 -0.6026E-28 -0.1804E-27 -0.6865E-28 -0.1851E-27 -0.1806E-27
    -16.338 -0.4979E-18 -0.4916E-18 -0.3083E-21 -0.3078E-21 -0.4115E-21 -0.4141E-21 -0.4115E-21 -0.4141E-21 -0.1144E-24 -0.1244E-24 -0.1146E-24 -0.1247E-24 -0.7413E-25 -0.7240E-25 -0.1988E-24 -0.7324E-25 -0.2223E-24 -0.2170E-24
    -16.231 -0.2753E-15 -0.2718E-15 -0.1885E-18 -0.1882E-18 -0.2521E-18 -0.2537E-18 -0.2521E-18 -0.2537E-18 -0.6884E-22 -0.7389E-22 -0.6894E-22 -0.7404E-22 -0.5024E-22 -0.4907E-22 -0.1218E-21 -0.4384E-22 -0.1507E-21 -0.1471E-21
    -16.125 -0.8782E-13 -0.8671E-13 -0.6695E-16 -0.6684E-16 -0.8933E-16 -0.8990E-16 -0.8933E-16 -0.8990E-16 -0.2414E-19 -0.2552E-19 -0.2417E-19 -0.2558E-19 -0.1935E-19 -0.1890E-19 -0.4326E-19 -0.1533E-19 -0.5804E-19 -0.5667E-19
    -16.018 -0.1570E-10 -0.1550E-10 -0.1348E-13 -0.1346E-13 -0.1799E-13 -0.1811E-13 -0.1799E-13 -0.1810E-13 -0.4852E-17 -0.5053E-17 -0.4859E-17 -0.5063E-17 -0.4330E-17 -0.4229E-17 -0.8808E-17 -0.3120E-17 -0.1299E-16 -0.1268E-16
    -15.911 -0.1567E-08 -0.1547E-08 -0.1539E-11 -0.1537E-11 -0.2053E-11 -0.2066E-11 -0.2053E-11 -0.2066E-11 -0.5598E-15 -0.5736E-15 -0.5605E-15 -0.5747E-15 -0.5559E-15 -0.5431E-15 -0.1026E-14 -0.3701E-15 -0.1668E-14 -0.1629E-14
    -15.804 -0.8691E-07 -0.8581E-07 -0.9940E-10 -0.9926E-10 -0.1326E-09 -0.1334E-09 -0.1326E-09 -0.1334E-09 -0.3715E-13 -0.3746E-13 -0.3720E-13 -0.3752E-13 -0.4102E-13 -0.4007E-13 -0.6849E-13 -0.2571E-13 -0.1230E-12 -0.1202E-12
    -15.698 -0.2651E-05 -0.2617E-05 -0.3621E-08 -0.3616E-08 -0.4829E-08 -0.4861E-08 -0.4829E-08 -0.4861E-08 -0.1423E-11 -0.1411E-11 -0.1424E-11 -0.1413E-11 -0.1742E-11 -0.1701E-11 -0.2623E-11 -0.1050E-11 -0.5224E-11 -0.5104E-11
    -15.591 -0.4360E-04 -0.4304E-04 -0.7389E-07 -0.7380E-07 -0.9849E-07 -0.9916E-07 -0.9849E-07 -0.9916E-07 -0.3149E-10 -0.3078E-10 -0.3152E-10 -0.3081E-10 -0.4259E-10 -0.4161E-10 -0.5763E-10 -0.2528E-10 -0.1278E-09 -0.1248E-09
    -15.484 -0.3699E-03 -0.3651E-03 -0.8306E-06 -0.8297E-06 -0.1107E-05 -0.1114E-05 -0.1107E-05 -0.1114E-05 -0.4022E-09 -0.3880E-09 -0.4025E-09 -0.3882E-09 -0.5987E-09 -0.5850E-09 -0.7238E-09 -0.3573E-09 -0.1796E-08 -0.1755E-08
    -15.377 -0.1416E-02 -0.1398E-02 -0.4924E-05 -0.4921E-05 -0.6556E-05 -0.6603E-05 -0.6556E-05 -0.6603E-05 -0.2924E-08 -0.2793E-08 -0.2926E-08 -0.2794E-08 -0.4790E-08 -0.4680E-08 -0.5112E-08 -0.2923E-08 -0.1437E-07 -0.1404E-07
    -15.271 -0.7912E-03 -0.7793E-03 -0.1311E-04 -0.1312E-04 -0.1743E-04 -0.1757E-04 -0.1743E-04 -0.1757E-04 -0.1146E-07 -0.1088E-07 -0.1146E-07 -0.1088E-07 -0.2100E-07 -0.2052E-07 -0.1908E-07 -0.1320E-07 -0.6298E-07 -0.6155E-07
    -15.164  0.1010E-01  0.9971E-02  0.1079E-05  0.9851E-06  0.1613E-05  0.1527E-05  0.1613E-05  0.1527E-05 -0.1813E-07 -0.1717E-07 -0.1812E-07 -0.1716E-07 -0.4244E-07 -0.4151E-07 -0.2658E-07 -0.2695E-07 -0.1269E-06 -0.1241E-06
    -15.057  0.3077E-01  0.3038E-01  0.9897E-04  0.9862E-04  0.1321E-03  0.1328E-03  0.1321E-03  0.1328E-03  0.2944E-07  0.2825E-07  0.2955E-07  0.2836E-07  0.1388E-07  0.1256E-07  0.6031E-07  0.1618E-07  0.5510E-07  0.5348E-07
    -14.951  0.4010E-01  0.3956E-01  0.2899E-03  0.2889E-03  0.3866E-03  0.3886E-03  0.3866E-03  0.3886E-03  0.2092E-06  0.2018E-06  0.2103E-06  0.2029E-06  0.2369E-06  0.2166E-06  0.3614E-06  0.2331E-06  0.9922E-06  0.9655E-06
    -14.844  0.3089E-01  0.3045E-01  0.4801E-03  0.4776E-03  0.6444E-03  0.6470E-03  0.6448E-03  0.6472E-03  0.5058E-06  0.4948E-06  0.5162E-06  0.5045E-06 -0.1454E-06 -0.2481E-06  0.8602E-06  0.6516E-06  0.2805E-05  0.2711E-05
    -14.737  0.1947E-01  0.1912E-01  0.5842E-03  0.5868E-03  0.8013E-03  0.8108E-03  0.8034E-03  0.8120E-03  0.8120E-06  0.7894E-06  0.8692E-06  0.8423E-06 -0.5208E-05 -0.5307E-05  0.1416E-05  0.1145E-05  0.4173E-05  0.4026E-05
    -14.630  0.1491E-01  0.1426E-01  0.7550E-03  0.8007E-03  0.1014E-02  0.1068E-02  0.1018E-02  0.1072E-02  0.1535E-05  0.1374E-05  0.1666E-05  0.1498E-05 -0.1711E-04 -0.1567E-04  0.2417E-05  0.1973E-05  0.4238E-05  0.4542E-05
    -14.524  0.1784E-01  0.1663E-01  0.1560E-02  0.1664E-02  0.1858E-02  0.1972E-02  0.1853E-02  0.1974E-02  0.4061E-05  0.3556E-05  0.3949E-05  0.3458E-05  0.2773E-05  0.8287E-05  0.5243E-05  0.4428E-05  0.1620E-04  0.1770E-04
    -14.417  0.2478E-01  0.2384E-01  0.3042E-02  0.3073E-02  0.3379E-02  0.3421E-02  0.3333E-02  0.3395E-02  0.8135E-05  0.7467E-05  0.6844E-05  0.6249E-05  0.1523E-03  0.1551E-03  0.9630E-05  0.8632E-05  0.7363E-04  0.7385E-04
    -14.310  0.2594E-01  0.2616E-01  0.3914E-02  0.3777E-02  0.4299E-02  0.4174E-02  0.4189E-02  0.4083E-02  0.1040E-04  0.9992E-05  0.7222E-05  0.6960E-05  0.4587E-03  0.4380E-03  0.1221E-04  0.1146E-04  0.1735E-03  0.1666E-03
    -14.204  0.1975E-01  0.2039E-01  0.3608E-02  0.3434E-02  0.4088E-02  0.3928E-02  0.3922E-02  0.3766E-02  0.9842E-05  0.9658E-05  0.5326E-05  0.5328E-05  0.7796E-03  0.7236E-03  0.1200E-04  0.1147E-04  0.1827E-03  0.1741E-03
    -14.097  0.1361E-01  0.1391E-01  0.2971E-02  0.2866E-02  0.3568E-02  0.3480E-02  0.3372E-02  0.3272E-02  0.8749E-05  0.8558E-05  0.4072E-05  0.4079E-05  0.9606E-03  0.8807E-03  0.1123E-04  0.1070E-04 -0.6532E-04 -0.5517E-04
    -13.990  0.1089E-01  0.1096E-01  0.3143E-02  0.3103E-02  0.3398E-02  0.3356E-02  0.3193E-02  0.3128E-02  0.8476E-05  0.8238E-05  0.4483E-05  0.4439E-05  0.1237E-02  0.1120E-02  0.1085E-04  0.1032E-04  0.1512E-03  0.1238E-03
    -13.883  0.1209E-01  0.1215E-01  0.7305E-02  0.7319E-02  0.6222E-02  0.6181E-02  0.6019E-02  0.5904E-02  0.9605E-05  0.9300E-05  0.6955E-05  0.6841E-05  0.3083E-02  0.2760E-02  0.1164E-04  0.1112E-04  0.4015E-02  0.3620E-02
    -13.777  0.1635E-01  0.1636E-01  0.1833E-01  0.1829E-01  0.1612E-01  0.1601E-01  0.1586E-01  0.1558E-01  0.1142E-04  0.1101E-04  0.1116E-04  0.1096E-04  0.9072E-02  0.8190E-02  0.1451E-04  0.1399E-04  0.1634E-01  0.1494E-01
    -13.670  0.1893E-01  0.1871E-01  0.2719E-01  0.2690E-01  0.2545E-01  0.2520E-01  0.2504E-01  0.2468E-01  0.1082E-04  0.1036E-04  0.1319E-04  0.1290E-04  0.1692E-01  0.1550E-01  0.1515E-04  0.1465E-04  0.3338E-01  0.3073E-01
    -13.563  0.1439E-01  0.1404E-01  0.2020E-01  0.1978E-01  0.1949E-01  0.1917E-01  0.1905E-01  0.1888E-01  0.6372E-05  0.6008E-05  0.9087E-05  0.8775E-05  0.1646E-01  0.1529E-01  0.9018E-05  0.8683E-05  0.3497E-01  0.3226E-01
    -13.457  0.5307E-02  0.5105E-02  0.5680E-02  0.5455E-02  0.5525E-02  0.5350E-02  0.5308E-02  0.5331E-02  0.1557E-05  0.1416E-05  0.2605E-05  0.2435E-05  0.6970E-02  0.6575E-02  0.1854E-05  0.1743E-05  0.1626E-01  0.1501E-01
    -13.350 -0.6577E-04 -0.8863E-04 -0.8787E-03 -0.8995E-03 -0.8539E-03 -0.8725E-03 -0.8687E-03 -0.8331E-03 -0.3270E-06 -0.3265E-06 -0.3572E-06 -0.3761E-06  0.1743E-03  0.2008E-03 -0.6006E-06 -0.5941E-06  0.1000E-02  0.9216E-03
    -13.243 -0.6790E-03 -0.6610E-03 -0.8806E-03 -0.8593E-03 -0.8475E-03 -0.8309E-03 -0.8249E-03 -0.8196E-03 -0.2885E-06 -0.2707E-06 -0.4094E-06 -0.3929E-06 -0.7830E-03 -0.7302E-03 -0.3855E-06 -0.3696E-06 -0.1692E-02 -0.1562E-02
    -13.136 -0.2073E-03 -0.2003E-03 -0.2006E-03 -0.1929E-03 -0.1908E-03 -0.1845E-03 -0.1830E-03 -0.1841E-03 -0.6769E-07 -0.6231E-07 -0.9917E-07 -0.9281E-07 -0.2474E-03 -0.2334E-03 -0.7845E-07 -0.7388E-07 -0.5852E-03 -0.5397E-03
    -13.030 -0.2755E-04 -0.2654E-04 -0.2129E-04 -0.2021E-04 -0.1999E-04 -0.1907E-04 -0.1892E-04 -0.1924E-04 -0.7550E-08 -0.6854E-08 -0.1111E-07 -0.1019E-07 -0.3293E-04 -0.3126E-04 -0.7794E-08 -0.7208E-08 -0.8193E-04 -0.7552E-04
    -12.923 -0.1870E-05 -0.1799E-05 -0.1181E-05 -0.1107E-05 -0.1094E-05 -0.1029E-05 -0.1021E-05 -0.1051E-05 -0.4425E-09 -0.3970E-09 -0.6468E-09 -0.5821E-09 -0.2223E-05 -0.2118E-05 -0.4130E-09 -0.3745E-09 -0.5740E-05 -0.5289E-05
    -12.816 -0.6822E-07 -0.6557E-07 -0.3571E-07 -0.3301E-07 -0.3258E-07 -0.3020E-07 -0.2997E-07 -0.3127E-07 -0.1411E-10 -0.1253E-10 -0.2039E-10 -0.1802E-10 -0.8045E-07 -0.7680E-07 -0.1205E-10 -0.1070E-10 -0.2140E-06 -0.1971E-06
    -12.709 -0.1365E-08 -0.1312E-08 -0.5996E-09 -0.5465E-09 -0.5387E-09 -0.4913E-09 -0.4879E-09 -0.5164E-09 -0.2488E-12 -0.2188E-12 -0.3543E-12 -0.3076E-12 -0.1597E-08 -0.1527E-08 -0.1965E-12 -0.1704E-12 -0.4352E-08 -0.4008E-08
    -12.603 -0.1516E-10 -0.1458E-10 -0.5648E-11 -0.5075E-11 -0.4995E-11 -0.4477E-11 -0.4451E-11 -0.4783E-11 -0.2447E-14 -0.2134E-14 -0.3429E-14 -0.2926E-14 -0.1762E-10 -0.1684E-10 -0.1802E-14 -0.1525E-14 -0.4896E-10 -0.4507E-10
    -12.496 -0.9402E-13 -0.9043E-13 -0.3002E-13 -0.2659E-13 -0.2613E-13 -0.2300E-13 -0.2291E-13 -0.2500E-13 -0.1349E-16 -0.1167E-16 -0.1859E-16 -0.1559E-16 -0.1086E-12 -0.1038E-12 -0.9337E-17 -0.7703E-17 -0.3067E-12 -0.2823E-12
    -12.389 -0.3271E-15 -0.3150E-15 -0.9129E-16 -0.7993E-16 -0.7826E-16 -0.6786E-16 -0.6769E-16 -0.7484E-16 -0.4181E-19 -0.3589E-19 -0.5689E-19 -0.4709E-19 -0.3766E-15 -0.3595E-15 -0.2730E-19 -0.2197E-19 -0.1076E-14 -0.9907E-15
    -12.283  0.0000E+00  0.0000E+00  0.0000E+00  0.0000E+00  0.0000E+00  0.0000E+00  0.0000E+00  0.0000E+00  0.0000E+00  0.0000E+00  0.0000E+00  0.0000E+00  0.0000E+00  0.0000E+00  0.0000E+00  0.0000E+00  0.0000E+00  0.0000E+00
    -12.176  0.0000E+00  0.0000E+00  0.0000E+00  0.0000E+00  0.0000E+00  0.0000E+00  0.0000E+00  0.0000E+00  0.0000E+00  0.0000E+00  0.0000E+00  0.0000E+00  0.0000E+00  0.0000E+00  0.0000E+00  0.0000E+00  0.0000E+00  0.0000E+00
    -12.069  0.0000E+00  0.0000E+00  0.0000E+00  0.0000E+00  0.0000E+00  0.0000E+00  0.0000E+00  0.0000E+00  0.0000E+00  0.0000E+00  0.0000E+00  0.0000E+00  0.0000E+00  0.0000E+00  0.0000E+00  0.0000E+00  0.0000E+00  0.0000E+00
    -11.962  0.0000E+00  0.0000E+00  0.0000E+00  0.0000E+00  0.0000E+00  0.0000E+00  0.0000E+00  0.0000E+00  0.0000E+00  0.0000E+00  0.0000E+00  0.0000E+00  0.0000E+00  0.0000E+00  0.0000E+00  0.0000E+00  0.0000E+00  0.0000E+00
    -11.856  0.0000E+00  0.0000E+00  0.0000E+00  0.0000E+00  0.0000E+00  0.0000E+00  0.0000E+00  0.0000E+00  0.0000E+00  0.0000E+00  0.0000E+00  0.0000E+00  0.0000E+00  0.0000E+00  0.0000E+00  0.0000E+00  0.0000E+00  0.0000E+00
    -11.749  0.0000E+00  0.0000E+00  0.0000E+00  0.0000E+00  0.0000E+00  0.0000E+00  0.0000E+00  0.0000E+00  0.0000E+00  0.0000E+00  0.0000E+00  0.0000E+00  0.0000E+00  0.0000E+00  0.0000E+00  0.0000E+00  0.0000E+00  0.0000E+00