    4    4    1    2
  0.9063964E+01  0.5107186E-09  0.5107186E-09  0.5107186E-09  0.5000000E-15
  1.000000000000000E-004
  CAR 
 NiO_af2                                 
     32    120     20
 
  0.0000000E+00  0.0000000E+00  0.0000000E+00  0.8333333E-02
    1      -15.084998    -15.084998   1.000000   1.000000
    2      -13.683049    -13.683049   1.000000   1.000000
    3       -2.954910     -2.954910   1.000000   1.000000
    4       -0.263047     -0.263047   1.000000   1.000000
    5       -0.263047     -0.263047   1.000000   1.000000
    6        2.280991      2.280991   1.000000   1.000000
    7        2.280991      2.280991   1.000000   1.000000
    8        2.281884      2.281884   1.000000   1.000000
    9        2.658296      2.658296   1.000000   1.000000
   10        2.658296      2.658296   1.000000   1.000000
   11        2.735229      2.735229   1.000000   1.000000
   12        3.317651      3.317651   1.000000   1.000000
   13        3.317651      3.317651   1.000000   1.000000
   14        4.056809      4.056809   1.000000   1.000000
   15        4.056809      4.056809   1.000000   1.000000
   16        4.348773      4.348773   1.000881   1.000881
   17        6.585142      6.585142  -0.000000  -0.000000
   18        6.585142      6.585142  -0.000000  -0.000000
   19        6.917467      6.917467  -0.000000  -0.000000
   20       10.907409     10.907409   0.000000   0.000000
 
  0.2631579E-01  0.0000000E+00  0.2631579E-01  0.8333333E-02
    1      -15.076927    -15.076927   1.000000   1.000000
    2      -13.682807    -13.682807   1.000000   1.000000
    3       -2.940158     -2.940158   1.000000   1.000000
    4       -0.268854     -0.268854   1.000000   1.000000
    5       -0.257775     -0.257775   1.000000   1.000000
    6        2.176517      2.176517   1.000000   1.000000
    7        2.210540      2.210540   1.000000   1.000000
    8        2.219489      2.219489   1.000000   1.000000
    9        2.687590      2.687590   1.000000   1.000000
   10        2.696954      2.696954   1.000000   1.000000
   11        2.758925      2.758925   1.000000   1.000000
   12        3.358365      3.358365   1.000000   1.000000
   13        3.368625      3.368625   1.000000   1.000000
   14        4.056719      4.056719   1.000000   1.000000
   15        4.065114      4.065114   1.000000   1.000000
   16        4.346920      4.346921   1.000844   1.000844
   17        6.562302      6.562302  -0.000000  -0.000000
   18        6.570061      6.570061  -0.000000  -0.000000
   19        6.971295      6.971295  -0.000000  -0.000000
   20       10.954149     10.954148   0.000000   0.000000
 
  0.5263158E-01  0.0000000E+00  0.5263158E-01  0.8333333E-02
    1      -15.052819    -15.052819   1.000000   1.000000
    2      -13.682782    -13.682782   1.000000   1.000000
    3       -2.896576     -2.896576   1.000000   1.000000
    4       -0.287210     -0.287210   1.000000   1.000000
    5       -0.243226     -0.243226   1.000000   1.000000
    6        1.939799      1.939799   1.000000   1.000000
    7        2.051641      2.051641   1.000000   1.000000
    8        2.068692      2.068692   1.000000   1.000000
    9        2.735697      2.735696   1.000000   1.000000
   10        2.737213      2.737213   1.000000   1.000000
   11        2.824236      2.824236   1.000000   1.000000
   12        3.463732      3.463732   1.000000   1.000000
   13        3.497387      3.497387   1.000000   1.000000
   14        4.055993      4.055993   1.000000   1.000000
   15        4.092106      4.092106   1.000000   1.000000
   16        4.342342      4.342342   1.000758   1.000758
   17        6.496619      6.496619  -0.000000  -0.000000
   18        6.524820      6.524820  -0.000000  -0.000000
   19        7.125750      7.125750  -0.000000  -0.000000
   20       11.089502     11.089502   0.000000   0.000000
 
  0.7894737E-01  0.0000000E+00  0.7894737E-01  0.8333333E-02
    1      -15.013226    -15.013226   1.000000   1.000000
    2      -13.681392    -13.681392   1.000000   1.000000
    3       -2.824530     -2.824530   1.000000   1.000000
    4       -0.313944     -0.313944   1.000000   1.000000
    5       -0.217252     -0.217252   1.000000   1.000000
    6        1.632520      1.632520   1.000000   1.000000
    7        1.858887      1.858887   1.000000   1.000000
    8        1.877999      1.877999   1.000000   1.000000
    9        2.758368      2.758368   1.000000   1.000000
   10        2.781625      2.781625   1.000000   1.000000
   11        2.892686      2.892686   1.000000   1.000000
   12        3.596938      3.596938   1.000000   1.000000
   13        3.659496      3.659496   1.000000   1.000000
   14        4.056175      4.056175   1.000000   1.000000
   15        4.144526      4.144526   1.000003   1.000003
   16        4.339927      4.339927   1.000717   1.000717
   17        6.399791      6.399791  -0.000000  -0.000000
   18        6.453278      6.453278  -0.000000  -0.000000
   19        7.362942      7.362942  -0.000000  -0.000000
   20       11.300980     11.300980   0.000000   0.000000
 
  0.1052632E+00  0.0000000E+00  0.1052632E+00  0.8333333E-02
    1      -14.958514    -14.958514   1.000000   1.000000
    2      -13.678589    -13.678589   1.000000   1.000000
    3       -2.725062     -2.725062   1.000000   1.000000
    4       -0.347804     -0.347804   1.000000   1.000000
    5       -0.180554     -0.180554   1.000000   1.000000
    6        1.282104      1.282104   1.000000   1.000000
    7        1.654748      1.654748   1.000000   1.000000
    8        1.672384      1.672384   1.000000   1.000000
    9        2.776051      2.776051   1.000000   1.000000
   10        2.822218      2.822218   1.000000   1.000000
   11        2.950338      2.950338   1.000000   1.000000
   12        3.721968      3.721968   1.000000   1.000000
   13        3.808002      3.808002   1.000000   1.000000
   14        4.071436      4.071436   1.000000   1.000000
   15        4.232245      4.232245   1.000041   1.000041
   16        4.346188      4.346188   1.000830   1.000830
   17        6.283461      6.283461  -0.000000  -0.000000
   18        6.359099      6.359099  -0.000000  -0.000000
   19        7.661114      7.661114  -0.000000  -0.000000
   20       11.571126     11.571126   0.000000   0.000000
 
  0.1315789E+00  0.0000000E+00  0.1315789E+00  0.8333333E-02
    1      -14.889336    -14.889336   1.000000   1.000000
    2      -13.676962    -13.676962   1.000000   1.000000
    3       -2.603759     -2.603759   1.000000   1.000000
    4       -0.389530     -0.389530   1.000000   1.000000
    5       -0.135225     -0.135225   1.000000   1.000000
    6        0.904121      0.904121   1.000000   1.000000
    7        1.449769      1.449769   1.000000   1.000000
    8        1.463707      1.463707   1.000000   1.000000
    9        2.790211      2.790211   1.000000   1.000000
   10        2.862719      2.862719   1.000000   1.000000
   11        3.000207      3.000207   1.000000   1.000000
   12        3.818367      3.818367   1.000000   1.000000
   13        3.882801      3.882801   1.000000   1.000000
   14        4.134192      4.134193   1.000002   1.000002
   15        4.357769      4.357769   1.001081   1.001081
   16        4.373729      4.373729   1.001537   1.001537
   17        6.158523      6.158523  -0.000000  -0.000000
   18        6.247280      6.247280  -0.000000  -0.000000
   19        8.001625      8.001625  -0.000000  -0.000000
   20       11.875968     11.875968   0.000000   0.000000
 
  0.1578947E+00  0.0000000E+00  0.1578947E+00  0.8333333E-02
    1      -14.807336    -14.807336   1.000000   1.000000
    2      -13.673708    -13.673708   1.000000   1.000000
    3       -2.462378     -2.462378   1.000000   1.000000
    4       -0.431424     -0.431424   1.000000   1.000000
    5       -0.079412     -0.079412   1.000000   1.000000
    6        0.510592      0.510592   1.000000   1.000000
    7        1.249437      1.249437   1.000000   1.000000
    8        1.257721      1.257721   1.000000   1.000000
    9        2.798936      2.798936   1.000000   1.000000
   10        2.904811      2.904811   1.000000   1.000000
   11        3.045062      3.045062   1.000000   1.000000
   12        3.886249      3.886249   1.000000   1.000000
   13        3.887334      3.887334   1.000000   1.000000
   14        4.210847      4.210847   1.000022   1.000022
   15        4.446627      4.446627   1.006312   1.006312
   16        4.506468      4.506468   1.015536   1.015536
   17        6.041692      6.041692  -0.000000  -0.000000
   18        6.127998      6.127998  -0.000000  -0.000000
   19        8.365516      8.365516  -0.000000  -0.000000
   20       12.193083     12.193083   0.000000   0.000000
 
  0.1842105E+00  0.0000000E+00  0.1842105E+00  0.8333333E-02
    1      -14.713617    -14.713617   1.000000   1.000000
    2      -13.669443    -13.669443   1.000000   1.000000
    3       -2.306451     -2.306451   1.000000   1.000000
    4       -0.467916     -0.467916   1.000000   1.000000
    5       -0.017986     -0.017986   1.000000   1.000000
    6        0.109793      0.109793   1.000000   1.000000
    7        1.059731      1.059731   1.000000   1.000000
    8        1.060130      1.060129   1.000000   1.000000
    9        2.799503      2.799503   1.000000   1.000000
   10        2.949169      2.949169   1.000000   1.000000
   11        3.088256      3.088256   1.000000   1.000000
   12        3.867993      3.867993   1.000000   1.000000
   13        3.938855      3.938855   1.000000   1.000000
   14        4.254828      4.254828   1.000079   1.000079
   15        4.554692      4.554692   1.026262   1.026262
   16        4.654039      4.654039   1.028306   1.028307
   17        5.948210      5.948210  -0.000000  -0.000000
   18        6.012341      6.012341  -0.000000  -0.000000
   19        8.738499      8.738499  -0.000000  -0.000000
   20       12.489996     12.489995   0.000000   0.000000
 
  0.2105263E+00  0.0000000E+00  0.2105263E+00  0.8333333E-02
    1      -14.611421    -14.611421   1.000000   1.000000
    2      -13.664898    -13.664898   1.000000   1.000000
    3       -2.144461     -2.144461   1.000000   1.000000
    4       -0.494520     -0.494520   1.000000   1.000000
    5       -0.288456     -0.288456   1.000000   1.000000
    6        0.048512      0.048512   1.000000   1.000000
    7        0.870333      0.870333   1.000000   1.000000
    8        0.881786      0.881786   1.000000   1.000000
    9        2.787650      2.787650   1.000000   1.000000
   10        2.994400      2.994400   1.000000   1.000000
   11        3.130662      3.130662   1.000000   1.000000
   12        3.848376      3.848376   1.000000   1.000000
   13        3.980463      3.980463   1.000000   1.000000
   14        4.280399      4.280399   1.000160   1.000160
   15        4.648339      4.648338   1.030458   1.030458
   16        4.771140      4.771140   0.840521   0.840522
   17        5.893016      5.893016  -0.000000  -0.000000
   18        5.921240      5.921240  -0.000000  -0.000000
   19        9.105198      9.105198  -0.000000  -0.000000
   20       12.725864     12.725858   0.000000   0.000000
 
  0.2368421E+00  0.0000000E+00  0.2368421E+00  0.8333333E-02
    1      -14.502392    -14.502392   1.000000   1.000000
    2      -13.660865    -13.660865   1.000000   1.000000
    3       -1.988794     -1.988794   1.000000   1.000000
    4       -0.686808     -0.686808   1.000000   1.000000
    5       -0.492077     -0.492077   1.000000   1.000000
    6        0.114109      0.114109   1.000000   1.000000
    7        0.691973      0.691973   1.000000   1.000000
    8        0.723080      0.723080   1.000000   1.000000
    9        2.759961      2.759961   1.000000   1.000000
   10        3.039843      3.039843   1.000000   1.000000
   11        3.172255      3.172255   1.000000   1.000000
   12        3.835310      3.835310   1.000000   1.000000
   13        4.015253      4.015253   1.000000   1.000000
   14        4.300591      4.300591   1.000272   1.000272
   15        4.697376      4.697376   0.994349   0.994349
   16        4.830220      4.830220   0.627904   0.627904
   17        5.880050      5.880050  -0.000000  -0.000000
   18        5.890424      5.890424  -0.000000  -0.000000
   19        9.456549      9.456549  -0.000000  -0.000000
   20       12.857603     12.857604   0.000000   0.000000
 
  0.2631579E+00  0.0000000E+00  0.2631579E+00  0.8333333E-02
    1      -14.388689    -14.388689   1.000000   1.000000
    2      -13.655760    -13.655760   1.000000   1.000000
    3       -1.852160     -1.852160   1.000000   1.000000
    4       -1.061207     -1.061207   1.000000   1.000000
    5       -0.461065     -0.461065   1.000000   1.000000
    6        0.167296      0.167296   1.000000   1.000000
    7        0.526623      0.526623   1.000000   1.000000
    8        0.596852      0.596852   1.000000   1.000000
    9        2.715213      2.715213   1.000000   1.000000
   10        3.084359      3.084359   1.000000   1.000000
   11        3.213406      3.213406   1.000000   1.000000
   12        3.832940      3.832939   1.000000   1.000000
   13        4.043125      4.043125   1.000000   1.000000
   14        4.319566      4.319566   1.000439   1.000439
   15        4.697775      4.697775   0.993867   0.993868
   16        4.816046      4.816046   0.684375   0.684375
   17        5.904585      5.904585  -0.000000  -0.000000
   18        5.941955      5.941955  -0.000000  -0.000000
   19        9.784293      9.784292  -0.000000  -0.000000
   20       12.865550     12.865547   0.000000   0.000000
 
  0.2894737E+00  0.0000000E+00  0.2894737E+00  0.8333333E-02
    1      -14.273526    -14.273526   1.000000   1.000000
    2      -13.650459    -13.650459   1.000000   1.000000
    3       -1.748115     -1.748115   1.000000   1.000000
    4       -1.417799     -1.417799   1.000000   1.000000
    5       -0.383150     -0.383149   1.000000   1.000000
    6        0.175718      0.175718   1.000000   1.000000
    7        0.377183      0.377183   1.000000   1.000000
    8        0.534284      0.534284   1.000000   1.000000
    9        2.652214      2.652214   1.000000   1.000000
   10        3.126255      3.126255   1.000000   1.000000
   11        3.252250      3.252250   1.000000   1.000000
   12        3.839914      3.839914   1.000000   1.000000
   13        4.061571      4.061571   1.000000   1.000000
   14        4.337823      4.337823   1.000682   1.000682
   15        4.663575      4.663575   1.023651   1.023651
   16        4.745111      4.745111   0.910206   0.910206
   17        5.984244      5.984244  -0.000000  -0.000000
   18        6.032711      6.032711  -0.000000  -0.000000
   19       10.077431     10.077431  -0.000000  -0.000000
   20       12.766423     12.766428   0.000000   0.000000
 
  0.3157895E+00  0.0000000E+00  0.3157895E+00  0.8333333E-02
    1      -14.158839    -14.158839   1.000000   1.000000
    2      -13.645278    -13.645278   1.000000   1.000000
    3       -1.755422     -1.755422   1.000000   1.000000
    4       -1.676613     -1.676613   1.000000   1.000000
    5       -0.259162     -0.259162   1.000000   1.000000
    6        0.121826      0.121825   1.000000   1.000000
    7        0.249861      0.249861   1.000000   1.000000
    8        0.553788      0.553788   1.000000   1.000000
    9        2.572867      2.572867   1.000000   1.000000
   10        3.164362      3.164362   1.000000   1.000000
   11        3.288111      3.288111   1.000000   1.000000
   12        3.854393      3.854393   1.000000   1.000000
   13        4.064375      4.064375   1.000000   1.000000
   14        4.353696      4.353696   1.000986   1.000986
   15        4.616036      4.616036   1.035458   1.035458
   16        4.650822      4.650822   1.029576   1.029576
   17        6.093476      6.093476  -0.000000  -0.000000
   18        6.144104      6.144104  -0.000000  -0.000000
   19       10.330269     10.330269   0.000000   0.000000
   20       12.596778     12.596779   0.000000   0.000000
 
  0.3421053E+00  0.0000000E+00  0.3421053E+00  0.8333333E-02
    1      -14.048954    -14.048954   1.000000   1.000000
    2      -13.639456    -13.639456   1.000000   1.000000
    3       -2.051220     -2.051220   1.000000   1.000000
    4       -1.647068     -1.647068   1.000000   1.000000
    5       -0.113222     -0.113222   1.000000   1.000000
    6        0.038028      0.038028   1.000000   1.000000
    7        0.160592      0.160592   1.000000   1.000000
    8        0.620204      0.620204   1.000000   1.000000
    9        2.478622      2.478622   1.000000   1.000000
   10        3.196869      3.196869   1.000000   1.000000
   11        3.319588      3.319588   1.000000   1.000000
   12        3.871955      3.871955   1.000000   1.000000
   13        4.043221      4.043221   1.000000   1.000000
   14        4.363320      4.363320   1.001224   1.001224
   15        4.563814      4.563813   1.028309   1.028309
   16        4.574103      4.574103   1.030478   1.030478
   17        6.210224      6.210224  -0.000000  -0.000000
   18        6.259769      6.259769  -0.000000  -0.000000
   19       10.533941     10.533941   0.000000   0.000000
   20       12.394572     12.394565   0.000000   0.000000
 
  0.3684211E+00  0.0000000E+00  0.3684211E+00  0.8333333E-02
    1      -13.946424    -13.946424   1.000000   1.000000
    2      -13.634280    -13.634280   1.000000   1.000000
    3       -2.313804     -2.313804   1.000000   1.000000
    4       -1.637646     -1.637645   1.000000   1.000000
    5       -0.058191     -0.058191   1.000000   1.000000
    6       -0.045711     -0.045711   1.000000   1.000000
    7        0.207469      0.207469   1.000000   1.000000
    8        0.701903      0.701903   1.000000   1.000000
    9        2.371349      2.371349   1.000000   1.000000
   10        3.222263      3.222263   1.000000   1.000000
   11        3.345863      3.345863   1.000000   1.000000
   12        3.888761      3.888761   1.000000   1.000000
   13        3.993305      3.993305   1.000000   1.000000
   14        4.361112      4.361112   1.001165   1.001165
   15        4.504596      4.504596   1.015163   1.015163
   16        4.552121      4.552121   1.025673   1.025673
   17        6.322707      6.322707  -0.000000  -0.000000
   18        6.370278      6.370278  -0.000000  -0.000000
   19       10.689882     10.689882   0.000000   0.000000
   20       12.185730     12.185733   0.000000   0.000000
 
  0.3947368E+00  0.0000000E+00  0.3947368E+00  0.8333333E-02
    1      -13.857903    -13.857903   1.000000   1.000000
    2      -13.629273    -13.629273   1.000000   1.000000
    3       -2.537864     -2.537864   1.000000   1.000000
    4       -1.640990     -1.640990   1.000000   1.000000
    5       -0.122120     -0.122120   1.000000   1.000000
    6       -0.111990     -0.111990   1.000000   1.000000
    7        0.391050      0.391050   1.000000   1.000000
    8        0.784516      0.784516   1.000000   1.000000
    9        2.254377      2.254377   1.000000   1.000000
   10        3.238796      3.238796   1.000000   1.000000
   11        3.365999      3.365999   1.000000   1.000000
   12        3.900921      3.900922   1.000000   1.000000
   13        3.923142      3.923142   1.000000   1.000000
   14        4.346973      4.346973   1.000845   1.000845
   15        4.474785      4.474785   1.009949   1.009949
   16        4.552122      4.552122   1.025673   1.025673
   17        6.420889      6.420889  -0.000000  -0.000000
   18        6.466634      6.466634  -0.000000  -0.000000
   19       10.793879     10.793878   0.000000   0.000000
   20       11.990163     11.990163   0.000000   0.000000
 
  0.4210526E+00  0.0000000E+00  0.4210526E+00  0.8333333E-02
    1      -13.783906    -13.783906   1.000000   1.000000
    2      -13.625699    -13.625699   1.000000   1.000000
    3       -2.716530     -2.716530   1.000000   1.000000
    4       -1.650218     -1.650218   1.000000   1.000000
    5       -0.182256     -0.182256   1.000000   1.000000
    6       -0.169972     -0.169971   1.000000   1.000000
    7        0.593635      0.593635   1.000000   1.000000
    8        0.858373      0.858373   1.000000   1.000000
    9        2.132296      2.132296   1.000000   1.000000
   10        3.246216      3.246216   1.000000   1.000000
   11        3.380637      3.380637   1.000000   1.000000
   12        3.851135      3.851135   1.000000   1.000000
   13        3.907809      3.907809   1.000000   1.000000
   14        4.330149      4.330149   1.000568   1.000568
   15        4.464444      4.464444   1.008470   1.008470
   16        4.565172      4.565172   1.028605   1.028605
   17        6.502253      6.502253  -0.000000  -0.000000
   18        6.546468      6.546468  -0.000000  -0.000000
   19       10.857257     10.857257   0.000000   0.000000
   20       11.822796     11.822794   0.000000   0.000000
 
  0.4473684E+00  0.0000000E+00  0.4473684E+00  0.8333333E-02
    1      -13.729206    -13.729206   1.000000   1.000000
    2      -13.623829    -13.623829   1.000000   1.000000
    3       -2.849602     -2.849602   1.000000   1.000000
    4       -1.660892     -1.660892   1.000000   1.000000
    5       -0.225121     -0.225121   1.000000   1.000000
    6       -0.213544     -0.213544   1.000000   1.000000
    7        0.777572      0.777572   1.000000   1.000000
    8        0.917088      0.917089   1.000000   1.000000
    9        2.013993      2.013993   1.000000   1.000000
   10        3.245938      3.245938   1.000000   1.000000
   11        3.390077      3.390077   1.000000   1.000000
   12        3.793051      3.793051   1.000000   1.000000
   13        3.910089      3.910089   1.000000   1.000000
   14        4.317133      4.317134   1.000413   1.000413
   15        4.463073      4.463073   1.008287   1.008287
   16        4.580675      4.580675   1.031742   1.031742
   17        6.562669      6.562669  -0.000000  -0.000000
   18        6.605772      6.605772  -0.000000  -0.000000
   19       10.890724     10.890724   0.000000   0.000000
   20       11.694738     11.694739   0.000000   0.000000
 
  0.4736842E+00  0.0000000E+00  0.4736842E+00  0.8333333E-02
    1      -13.694946    -13.694946   1.000000   1.000000
    2      -13.622406    -13.622406   1.000000   1.000000
    3       -2.929165     -2.929165   1.000000   1.000000
    4       -1.668344     -1.668344   1.000000   1.000000
    5       -0.251747     -0.251747   1.000000   1.000000
    6       -0.241013     -0.241013   1.000000   1.000000
    7        0.915849      0.915849   1.000000   1.000000
    8        0.955542      0.955542   1.000000   1.000000
    9        1.919544      1.919544   1.000000   1.000000
   10        3.242191      3.242191   1.000000   1.000000
   11        3.395495      3.395495   1.000000   1.000000
   12        3.756792      3.756792   1.000000   1.000000
   13        3.910204      3.910204   1.000000   1.000000
   14        4.309679      4.309679   1.000343   1.000343
   15        4.464281      4.464281   1.008448   1.008448
   16        4.592604      4.592604   1.033683   1.033683
   17        6.599670      6.599670  -0.000000  -0.000000
   18        6.642131      6.642131  -0.000000  -0.000000
   19       10.905562     10.905561   0.000000   0.000000
   20       11.614709     11.614709   0.000000   0.000000
 
  0.5000000E+00  0.0000000E+00  0.5000000E+00  0.8333333E-02
    1      -13.682859    -13.682859   1.000000   1.000000
    2      -13.622608    -13.622608   1.000000   1.000000
    3       -2.955309     -2.955309   1.000000   1.000000
    4       -1.672430     -1.672430   1.000000   1.000000
    5       -0.260616     -0.260616   1.000000   1.000000
    6       -0.250209     -0.250209   1.000000   1.000000
    7        0.968632      0.968632   1.000000   1.000000
    8        0.969075      0.969075   1.000000   1.000000
    9        1.881154      1.881154   1.000000   1.000000
   10        3.240128      3.240128   1.000000   1.000000
   11        3.397431      3.397431   1.000000   1.000000
   12        3.744674      3.744674   1.000000   1.000000
   13        3.910284      3.910284   1.000000   1.000000
   14        4.307465      4.307465   1.000324   1.000324
   15        4.464935      4.464935   1.008536   1.008536
   16        4.597617      4.597617   1.034325   1.034325
   17        6.612181      6.612181  -0.000000  -0.000000
   18        6.654429      6.654429  -0.000000  -0.000000
   19       10.909560     10.909560   0.000000   0.000000
   20       11.587473     11.587473   0.000000   0.000000
 
  0.5000000E+00  0.0000000E+00  0.5000000E+00  0.8333333E-02
    1      -13.682859    -13.682859   1.000000   1.000000
    2      -13.622608    -13.622608   1.000000   1.000000
    3       -2.955309     -2.955309   1.000000   1.000000
    4       -1.672430     -1.672430   1.000000   1.000000
    5       -0.260616     -0.260616   1.000000   1.000000
    6       -0.250209     -0.250209   1.000000   1.000000
    7        0.968632      0.968632   1.000000   1.000000
    8        0.969075      0.969075   1.000000   1.000000
    9        1.881154      1.881154   1.000000   1.000000
   10        3.240128      3.240128   1.000000   1.000000
   11        3.397431      3.397431   1.000000   1.000000
   12        3.744674      3.744674   1.000000   1.000000
   13        3.910284      3.910284   1.000000   1.000000
   14        4.307465      4.307465   1.000324   1.000324
   15        4.464935      4.464935   1.008536   1.008536
   16        4.597617      4.597617   1.034325   1.034325
   17        6.612181      6.612181  -0.000000  -0.000000
   18        6.654429      6.654429  -0.000000  -0.000000
   19       10.909560     10.909560   0.000000   0.000000
   20       11.587474     11.587473   0.000000   0.000000
 
  0.5065789E+00  0.1315789E-01  0.5065789E+00  0.8333333E-02
    1      -13.683088    -13.683088   1.000000   1.000000
    2      -13.623129    -13.623129   1.000000   1.000000
    3       -2.953828     -2.953828   1.000000   1.000000
    4       -1.672875     -1.672875   1.000000   1.000000
    5       -0.260383     -0.260383   1.000000   1.000000
    6       -0.250008     -0.250008   1.000000   1.000000
    7        0.968636      0.968636   1.000000   1.000000
    8        0.969081      0.969080   1.000000   1.000000
    9        1.881511      1.881511   1.000000   1.000000
   10        3.240099      3.240099   1.000000   1.000000
   11        3.397382      3.397382   1.000000   1.000000
   12        3.744527      3.744527   1.000000   1.000000
   13        3.910429      3.910429   1.000000   1.000000
   14        4.307975      4.307975   1.000328   1.000328
   15        4.464852      4.464852   1.008525   1.008525
   16        4.597450      4.597450   1.034305   1.034305
   17        6.612048      6.612048  -0.000000  -0.000000
   18        6.651670      6.651670  -0.000000  -0.000000
   19       10.912430     10.912430   0.000000   0.000000
   20       11.588712     11.588713   0.000000   0.000000
 
  0.5131579E+00  0.2631579E-01  0.5131579E+00  0.8333333E-02
    1      -13.683770    -13.683770   1.000000   1.000000
    2      -13.623066    -13.623066   1.000000   1.000000
    3       -2.949387     -2.949387   1.000000   1.000000
    4       -1.670765     -1.670765   1.000000   1.000000
    5       -0.259686     -0.259686   1.000000   1.000000
    6       -0.249407     -0.249407   1.000000   1.000000
    7        0.969385      0.969385   1.000000   1.000000
    8        0.969834      0.969835   1.000000   1.000000
    9        1.882585      1.882585   1.000000   1.000000
   10        3.240070      3.240070   1.000000   1.000000
   11        3.397313      3.397313   1.000000   1.000000
   12        3.744148      3.744148   1.000000   1.000000
   13        3.910895      3.910895   1.000000   1.000000
   14        4.309490      4.309490   1.000341   1.000341
   15        4.464746      4.464746   1.008511   1.008511
   16        4.597067      4.597067   1.034260   1.034260
   17        6.611664      6.611664  -0.000000  -0.000000
   18        6.643426      6.643426  -0.000000  -0.000000
   19       10.921010     10.921010   0.000000   0.000000
   20       11.592583     11.592583   0.000000   0.000000
 
  0.5197368E+00  0.3947368E-01  0.5197368E+00  0.8333333E-02
    1      -13.685076    -13.685076   1.000000   1.000000
    2      -13.625719    -13.625719   1.000000   1.000000
    3       -2.942045     -2.942045   1.000000   1.000000
    4       -1.673029     -1.673029   1.000000   1.000000
    5       -0.258530     -0.258530   1.000000   1.000000
    6       -0.249204     -0.249204   1.000000   1.000000
    7        0.969371      0.969371   1.000000   1.000000
    8        0.969828      0.969828   1.000000   1.000000
    9        1.884364      1.884364   1.000000   1.000000
   10        3.239929      3.239929   1.000000   1.000000
   11        3.397075      3.397075   1.000000   1.000000
   12        3.743407      3.743407   1.000000   1.000000
   13        3.911578      3.911578   1.000000   1.000000
   14        4.311883      4.311883   1.000362   1.000362
   15        4.464343      4.464343   1.008456   1.008456
   16        4.596281      4.596282   1.034166   1.034166
   17        6.611006      6.611006  -0.000000  -0.000000
   18        6.629311      6.629311  -0.000000  -0.000000
   19       10.935171     10.935171   0.000000   0.000000
   20       11.598783     11.598783   0.000000   0.000000
 
  0.5263158E+00  0.5263158E-01  0.5263158E+00  0.8333333E-02
    1      -13.686651    -13.686651   1.000000   1.000000
    2      -13.629415    -13.629415   1.000000   1.000000
    3       -2.931754     -2.931754   1.000000   1.000000
    4       -1.676073     -1.676073   1.000000   1.000000
    5       -0.256920     -0.256920   1.000000   1.000000
    6       -0.247886     -0.247887   1.000000   1.000000