       N       E                     dE             d eps       ncg     rms          rms(c)
DAV:   1     0.214924006222E+03    0.21492E+03   -0.14069E+04  9776   0.183E+03
DAV:   2    -0.143728776441E+01   -0.21636E+03   -0.20382E+03 10148   0.374E+02
DAV:   3    -0.217750417169E+02   -0.20338E+02   -0.19179E+02 10820   0.128E+02
DAV:   4    -0.222876056656E+02   -0.51256E+00   -0.50942E+00 10284   0.207E+01
DAV:   5    -0.222962731887E+02   -0.86675E-02   -0.86656E-02 10724   0.253E+00
DAV:   6    -0.222965413071E+02   -0.26812E-03   -0.26812E-03 10520   0.385E-01
DAV:   7    -0.222965498448E+02   -0.85376E-05   -0.85381E-05  6916   0.629E-02
   1 F= -.22296550E+02 E0= -.22303241E+02  d E =0.200720E-01  mag=    -0.0000
