 vasp.5.4.4.18Apr17-6-g9f103f2a35 (build May 20 2018 16:52:39) complex          
  
 executed on             LinuxIFC date 2022.10.29  10:46:39
 running on    1 total cores
 distrk:  each k-point on    1 cores,    1 groups
 distr:  one band on NCORES_PER_BAND=   1 cores,    1 groups


--------------------------------------------------------------------------------------------------------


 INCAR:
 POTCAR:    PAW Ni                                
 POTCAR:    PAW O                                 
 POTCAR:    PAW Ni                                
   VRHFIN =Ni:                                                                  
   LEXCH  = 91                                                                  
   EATOM  =  1079.4692 eV,   79.3388 Ry                                         
                                                                                
   TITEL  = PAW Ni                                                              
   LULTRA =        F    use ultrasoft PP ?                                      
   IUNSCR =        1    unscreen: 0-lin 1-nonlin 2-no                           
   RPACOR =    2.000    partial core radius                                     
   POMASS =   58.690; ZVAL   =   10.000    mass and valenz                      
   RCORE  =    2.300    outmost cutoff radius                                   
   RWIGS  =    2.430; RWIGS  =    1.286    wigner-seitz radius (au A)           
   ENMAX  =  269.561; ENMIN  =  202.171 eV                                      
   RCLOC  =    1.681    cutoff for local pot                                    
   LCOR   =        T    correct aug charges                                     
   LPAW   =        T    paw PP                                                  
   EAUG   =  544.565                                                            
   DEXC   =    -.002                                                            
   RMAX   =    2.808    core radius for proj-oper                               
   RAUG   =    1.300    factor for augmentation sphere                          
   RDEP   =    2.390    core radius for depl-charge                             
   QCUT   =   -4.451; QGAM   =    8.902    optimization parameters              
                                                                                
   Description                                                                  
     l     E      TYP  RCUT    TYP  RCUT                                        
     2   .000     23  2.300                                                     
     2   .000     23  2.300                                                     
     0   .000     23  2.300                                                     
     0   .000     23  2.300                                                     
     1  -.200     23  2.300                                                     
     1   .000     23  2.300                                                     
     3   .000      7   .000                                                     
  local pseudopotential read in
  partial core-charges read in
  atomic valenz-charges read in
  non local Contribution for L=           2  read in
    real space projection operators read in
  non local Contribution for L=           2  read in
    real space projection operators read in
  non local Contribution for L=           0  read in
    real space projection operators read in
  non local Contribution for L=           0  read in
    real space projection operators read in
  non local Contribution for L=           1  read in
    real space projection operators read in
  non local Contribution for L=           1  read in
    real space projection operators read in
    PAW grid and wavefunctions read in
 
   number of l-projection  operators is LMAX  =           6
   number of lm-projection operators is LMMAX =          18
 
 POTCAR:    PAW O                                 
   VRHFIN =O: s2p4                                                              
   LEXCH  = 91                                                                  
   EATOM  =   433.0277 eV,   31.8266 Ry                                         
                                                                                
   TITEL  = PAW O                                                               
   LULTRA =        F    use ultrasoft PP ?                                      
   IUNSCR =        0    unscreen: 0-lin 1-nonlin 2-no                           
   RPACOR =     .000    partial core radius                                     
   POMASS =   16.000; ZVAL   =    6.000    mass and valenz                      
   RCORE  =    1.520    outmost cutoff radius                                   
   RWIGS  =    1.550; RWIGS  =     .820    wigner-seitz radius (au A)           
   ENMAX  =  400.000; ENMIN  =  300.000 eV                                      
   ICORE  =        2    local potential                                         
   LCOR   =        T    correct aug charges                                     
   LPAW   =        T    paw PP                                                  
   EAUG   =  605.392                                                            
   DEXC   =     .000                                                            
   RMAX   =    2.264    core radius for proj-oper                               
   RAUG   =    1.300    factor for augmentation sphere                          
   RDEP   =    1.550    radius for radial grids                                 
   QCUT   =   -5.520; QGAM   =   11.040    optimization parameters              
                                                                                
   Description                                                                  
     l     E      TYP  RCUT    TYP  RCUT                                        
     0   .000     23  1.200                                                     
     0  -.700     23  1.200                                                     
     1   .000     23  1.520                                                     
     1   .600     23  1.520                                                     
     2   .000      7  1.500                                                     
  local pseudopotential read in
  atomic valenz-charges read in
  non local Contribution for L=           0  read in
    real space projection operators read in
  non local Contribution for L=           0  read in
    real space projection operators read in
  non local Contribution for L=           1  read in
    real space projection operators read in
  non local Contribution for L=           1  read in
    real space projection operators read in
    PAW grid and wavefunctions read in
 
   number of l-projection  operators is LMAX  =           4
   number of lm-projection operators is LMMAX =           8
 
  PAW Ni                                :
 energy of atom  1       EATOM=-1079.4692
 kinetic energy error for atom=    0.0101 (will be added to EATOM!!)
  PAW O                                 :
 energy of atom  2       EATOM= -433.0277
 kinetic energy error for atom=    0.1156 (will be added to EATOM!!)
 
 
 POSCAR: NiO AFM                                 
  positions in cartesian coordinates
  velocities in cartesian coordinates
  No initial velocities read in
 exchange correlation table for  LEXCH =        7
   RHO(1)=    0.500       N(1)  =     2000
   RHO(2)=  100.500       N(2)  =     4000
 


--------------------------------------------------------------------------------------------------------


 ion  position               nearest neighbor table
   1  0.000  0.000  0.000-   4 2.08   4 2.08   4 2.08   3 2.08   3 2.08   3 2.08   2 2.95   2 2.95
                             2 2.95   2 2.95   2 2.95   2 2.95
   2  0.500  0.500  0.500-   3 2.08   3 2.08   3 2.08   4 2.08   4 2.08   4 2.08   1 2.95   1 2.95
                             1 2.95   1 2.95   1 2.95   1 2.95
   3  0.250  0.250  0.250-   1 2.08   1 2.08   1 2.08   2 2.08   2 2.08   2 2.08
   4  0.750  0.750  0.750-   2 2.08   2 2.08   2 2.08   1 2.08   1 2.08   1 2.08
 
  LATTYP: Found a trigonal (rhomboedric) cell.
 ALAT       =     5.1071861137
 COS(alpha) =     0.8333333333
  
  Lattice vectors:
  
 A1 = (   4.1700000000,   2.0850000000,   2.0850000000)
 A2 = (   2.0850000000,   4.1700000000,   2.0850000000)
 A3 = (   2.0850000000,   2.0850000000,   4.1700000000)


Analysis of symmetry for initial positions (statically):
=====================================================================
 Subroutine PRICEL returns following result:
 
  LATTYP: Found a face centered cubic cell.
 ALAT       =     4.1700000000
  
  Lattice vectors:
  
 A1 = (   2.0850000000,   0.0000000000,  -2.0850000000)
 A2 = (   0.0000000000,   2.0850000000,  -2.0850000000)
 A3 = (   2.0850000000,   2.0850000000,   0.0000000000)
 
   2 primitive cells build up your supercell.
 

 Routine SETGRP: Setting up the symmetry group for a 
 trigonal (rhombohedral) supercell.


 Subroutine GETGRP returns: Found 12 space group operations
 (whereof 12 operations were pure point group operations)
 out of a pool of 12 trial point group operations.


The static configuration has the point symmetry D_3d.


Analysis of symmetry for dynamics (positions and initial velocities):
=====================================================================
 Subroutine PRICEL returns following result:
 
  LATTYP: Found a face centered cubic cell.
 ALAT       =     4.1700000000
  
  Lattice vectors:
  
 A1 = (   2.0850000000,   0.0000000000,  -2.0850000000)
 A2 = (   0.0000000000,   2.0850000000,  -2.0850000000)
 A3 = (   2.0850000000,   2.0850000000,   0.0000000000)
 
   2 primitive cells build up your supercell.
 

 Routine SETGRP: Setting up the symmetry group for a 
 trigonal (rhombohedral) supercell.


 Subroutine GETGRP returns: Found 12 space group operations
 (whereof 12 operations were pure point group operations)
 out of a pool of 12 trial point group operations.


The dynamic configuration has the point symmetry D_3d.


Analysis of structural, dynamic, and magnetic symmetry:
=====================================================================
 Subroutine PRICEL returns following result:
 
  LATTYP: Found a face centered cubic cell.
 ALAT       =     4.1700000000
  
  Lattice vectors:
  
 A1 = (   2.0850000000,   0.0000000000,  -2.0850000000)
 A2 = (   0.0000000000,   2.0850000000,  -2.0850000000)
 A3 = (   2.0850000000,   2.0850000000,   0.0000000000)
 
   2 primitive cells build up your supercell.
 

 Routine SETGRP: Setting up the symmetry group for a 
 trigonal (rhombohedral) supercell.


 Subroutine GETGRP returns: Found 12 space group operations
 (whereof 12 operations were pure point group operations)
 out of a pool of 12 trial point group operations.


The magnetic configuration has the point symmetry D_3d.


 Subroutine INISYM returns: Found 12 space group operations
 (whereof 12 operations are pure point group operations),
 and found     2 'primitive' translations

 
 
 KPOINTS: K-points                                
  interpolating k-points between supplied coordinates
  k-points in reciprocal lattice
Space group operators:
 irot       det(A)        alpha          n_x          n_y          n_z        tau_x        tau_y        tau_z
    1     1.000000     0.000000     1.000000     0.000000     0.000000     0.000000     0.000000     0.000000
    2    -1.000000     0.000000     1.000000     0.000000     0.000000     0.000000     0.000000     0.000000
    3     1.000000   180.000000     0.000000     0.707107    -0.707107     0.000000     0.000000     0.000000
    4    -1.000000   180.000000     0.000000     0.707107    -0.707107     0.000000     0.000000     0.000000
    5     1.000000   120.000000    -0.577350    -0.577350    -0.577350     0.000000     0.000000     0.000000
    6    -1.000000   120.000000    -0.577350    -0.577350    -0.577350     0.000000     0.000000     0.000000
    7     1.000000   180.000000     0.707107    -0.707107     0.000000     0.000000     0.000000     0.000000
    8    -1.000000   180.000000     0.707107    -0.707107     0.000000     0.000000     0.000000     0.000000
    9     1.000000   120.000000     0.577350     0.577350     0.577350     0.000000     0.000000     0.000000
   10    -1.000000   120.000000     0.577350     0.577350     0.577350     0.000000     0.000000     0.000000
   11     1.000000   180.000000     0.707107     0.000000    -0.707107     0.000000     0.000000     0.000000
   12    -1.000000   180.000000     0.707107     0.000000    -0.707107     0.000000     0.000000     0.000000


--------------------------------------------------------------------------------------------------------




 Dimension of arrays:
   k-points           NKPTS =    120   k-points in BZ     NKDIM =    120   number of bands    NBANDS=     20
   number of dos      NEDOS =    301   number of ions     NIONS =      4
   non local maximal  LDIM  =      6   non local SUM 2l+1 LMDIM =     18
   total plane-waves  NPLWV =  21952
   max r-space proj   IRMAX =      1   max aug-charges    IRDMAX=  19824
   dimension x,y,z NGX =    28 NGY =   28 NGZ =   28
   dimension x,y,z NGXF=    56 NGYF=   56 NGZF=   56
   support grid    NGXF=    56 NGYF=   56 NGZF=   56
   ions per type =               2   2
   NGX,Y,Z   is equivalent  to a cutoff of   9.11,  9.11,  9.11 a.u.
   NGXF,Y,Z  is equivalent  to a cutoff of  18.23, 18.23, 18.23 a.u.

 SYSTEM =  NiO_af2                                 
 POSCAR =  NiO AFM                                 

 Startparameter for this run:
   NWRITE =      2    write-flag & timer
   PREC   = normal    normal or accurate (medium, high low for compatibility)
   ISTART =      0    job   : 0-new  1-cont  2-samecut
   ICHARG =     11    charge: 1-file 2-atom 10-const
   ISPIN  =      2    spin polarized calculation?
   LNONCOLLINEAR =      F non collinear calculations
   LSORBIT =      F    spin-orbit coupling
   INIWAV =      1    electr: 0-lowe 1-rand  2-diag
   LASPH  =      F    aspherical Exc in radial PAW
   METAGGA=      F    non-selfconsistent MetaGGA calc.

 Electronic Relaxation 1
   ENCUT  =  400.0 eV  29.40 Ry    5.42 a.u.   8.33  8.33  8.33*2*pi/ulx,y,z
   ENINI  =  400.0     initial cutoff
   ENAUG  =  605.4 eV  augmentation charge cutoff
   NELM   =     60;   NELMIN=  2; NELMDL= -5     # of ELM steps 
   EDIFF  = 0.1E-03   stopping-criterion for ELM
   LREAL  =      F    real-space projection
   NLSPLINE    = F    spline interpolate recip. space projectors
   LCOMPAT=      F    compatible to vasp.4.4
   GGA_COMPAT  = T    GGA compatible to vasp.4.4-vasp.4.6
   LMAXPAW     = -100 max onsite density
   LMAXMIX     =    2 max onsite mixed and CHGCAR
   VOSKOWN=      0    Vosko Wilk Nusair interpolation
   ROPT   =    0.00000   0.00000
 Ionic relaxation
   EDIFFG = 0.1E-02   stopping-criterion for IOM
   NSW    =      0    number of steps for IOM
   NBLOCK =      1;   KBLOCK =      1    inner block; outer block 
   IBRION =     -1    ionic relax: 0-MD 1-quasi-New 2-CG
   NFREE  =      0    steps in history (QN), initial steepest desc. (CG)
   ISIF   =      2    stress and relaxation
   IWAVPR =     10    prediction:  0-non 1-charg 2-wave 3-comb
   ISYM   =      2    0-nonsym 1-usesym 2-fastsym
   LCORR  =      T    Harris-Foulkes like correction to forces

   POTIM  = 0.5000    time-step for ionic-motion
   TEIN   =    0.0    initial temperature
   TEBEG  =    0.0;   TEEND  =   0.0 temperature during run
   SMASS  =  -3.00    Nose mass-parameter (am)
   estimated Nose-frequenzy (Omega)   =  0.10E-29 period in steps =****** mass=  -0.596E-27a.u.
   SCALEE = 1.0000    scale energy and forces
   NPACO  =    256;   APACO  = 16.0  distance and # of slots for P.C.
   PSTRESS=    0.0 pullay stress

  Mass of Ions in am
   POMASS =  58.69 16.00
  Ionic Valenz
   ZVAL   =  10.00  6.00
  Atomic Wigner-Seitz radii
   RWIGS  =   1.29  0.82
  virtual crystal weights 
   VCA    =   1.00  1.00
   NELECT =      32.0000    total number of electrons
   NUPDOWN=      -1.0000    fix difference up-down

 DOS related values:
   EMIN   =  10.00;   EMAX   =-10.00  energy-range for DOS
   EFERMI =   0.00
   ISMEAR =     1;   SIGMA  =   0.20  broadening in eV -4-tet -1-fermi 0-gaus

 Electronic relaxation 2 (details)
   IALGO  =     38    algorithm
   LDIAG  =      T    sub-space diagonalisation (order eigenvalues)
   LSUBROT=      F    optimize rotation matrix (better conditioning)
   TURBO    =      0    0=normal 1=particle mesh
   IRESTART =      0    0=no restart 2=restart with 2 vectors
   NREBOOT  =      0    no. of reboots
   NMIN     =      0    reboot dimension
   EREF     =   0.00    reference energy to select bands
   IMIX   =      4    mixing-type and parameters
     AMIX     =   0.40;   BMIX     =  1.00
     AMIX_MAG =   1.60;   BMIX_MAG =  1.00
     AMIN     =   0.10
     WC   =   100.;   INIMIX=   1;  MIXPRE=   1;  MAXMIX= -45

 Intra band minimization:
   WEIMIN = 0.0000     energy-eigenvalue tresh-hold
   EBREAK =  0.13E-05  absolut break condition
   DEPER  =   0.30     relativ break condition  

   TIME   =   0.40     timestep for ELM

  volume/ion in A,a.u.               =       9.06        61.17
  Fermi-wavevector in a.u.,A,eV,Ry     =   1.570358  2.967547 33.552312  2.466025
  Thomas-Fermi vector in A             =   2.672104
 
 Write flags
   LWAVE        =      F    write WAVECAR
   LDOWNSAMPLE  =      F    k-point downsampling of WAVECAR
   LCHARG       =      F    write CHGCAR
   LVTOT        =      F    write LOCPOT, total local potential
   LVHAR        =      F    write LOCPOT, Hartree potential only
   LELF         =      F    write electronic localiz. function (ELF)
   LORBIT       =     11    0 simple, 1 ext, 2 COOP (PROOUT), +10 PAW based schemes


 Dipole corrections
   LMONO  =      F    monopole corrections only (constant potential shift)
   LDIPOL =      F    correct potential (dipole corrections)
   IDIPOL =      0    1-x, 2-y, 3-z, 4-all directions 
   EPSILON=  1.0000000 bulk dielectric constant

 Exchange correlation treatment:
   GGA     =    --    GGA type
   LEXCH   =     7    internal setting for exchange type
   VOSKOWN=      0    Vosko Wilk Nusair interpolation
   LHFCALC =     F    Hartree Fock is set to
   LHFONE  =     F    Hartree Fock one center treatment
   AEXX    =    0.0000 exact exchange contribution

 Linear response parameters
   LEPSILON=     F    determine dielectric tensor
   LRPA    =     F    only Hartree local field effects (RPA)
   LNABLA  =     F    use nabla operator in PAW spheres
   LVEL    =     F    velocity operator in full k-point grid
   LINTERFAST=   F  fast interpolation
   KINTER  =     0    interpolate to denser k-point grid
   CSHIFT  =0.1000    complex shift for real part using Kramers Kronig
   OMEGAMAX=  -1.0    maximum frequency
   DEG_THRESHOLD= 0.2000000E-02 threshold for treating states as degnerate
   RTIME   =   -0.100 relaxation time in fs
  (WPLASMAI=    0.000 imaginary part of plasma frequency in eV, 0.658/RTIME)
   DFIELD  = 0.0000000 0.0000000 0.0000000 field for delta impulse in time
 
 Orbital magnetization related:
   ORBITALMAG=     F  switch on orbital magnetization
   LCHIMAG   =     F  perturbation theory with respect to B field
   DQ        =  0.001000  dq finite difference perturbation B field
   LLRAUG    =     F  two centre corrections for induced B field



--------------------------------------------------------------------------------------------------------


 Static calculation
 charge density and potential remain constant during run
 spin polarized calculation
 Variant of blocked Davidson
 Davidson routine will perform the subspace rotation
 perform sub-space diagonalisation
    after iterative eigenvector-optimisation
 no mixing
 using additional bands            4
 reciprocal scheme for non local part
 use partial core corrections
 calculate Harris-corrections to forces 
   (improved forces if not selfconsistent)
 use gradient corrections 
 WARNING: stress and forces are not correct
  (second derivative of E(xc) not defined)
 use of overlap-Matrix (Vanderbilt PP)
 Methfessel and Paxton  Order N= 1 SIGMA  =   0.20


--------------------------------------------------------------------------------------------------------


  energy-cutoff  :      400.00
  volume of cell :       36.26
      direct lattice vectors                 reciprocal lattice vectors
     4.170000000  2.085000000  2.085000000     0.359712230 -0.119904077 -0.119904077
     2.085000000  4.170000000  2.085000000    -0.119904077  0.359712230 -0.119904077
     2.085000000  2.085000000  4.170000000    -0.119904077 -0.119904077  0.359712230

  length of vectors
     5.107186114  5.107186114  5.107186114     0.397676833  0.397676833  0.397676833


 
 k-points in units of 2pi/SCALE and weight: K-points                                
   0.00000000  0.00000000  0.00000000       0.008
   0.02631579 -0.02631579  0.02631579       0.008
   0.05263158 -0.05263158  0.05263158       0.008
   0.07894737 -0.07894737  0.07894737       0.008
   0.10526316 -0.10526316  0.10526316       0.008
   0.13157895 -0.13157895  0.13157895       0.008
   0.15789474 -0.15789474  0.15789474       0.008
   0.18421053 -0.18421053  0.18421053       0.008
   0.21052632 -0.21052632  0.21052632       0.008
   0.23684211 -0.23684211  0.23684211       0.008
   0.26315789 -0.26315789  0.26315789       0.008
   0.28947368 -0.28947368  0.28947368       0.008
   0.31578947 -0.31578947  0.31578947       0.008
   0.34210526 -0.34210526  0.34210526       0.008
   0.36842105 -0.36842105  0.36842105       0.008
   0.39473684 -0.39473684  0.39473684       0.008
   0.42105263 -0.42105263  0.42105263       0.008
   0.44736842 -0.44736842  0.44736842       0.008
   0.47368421 -0.47368421  0.47368421       0.008
   0.50000000 -0.50000000  0.50000000       0.008
   0.50000000 -0.50000000  0.50000000       0.008
   0.50000000 -0.48684211  0.50000000       0.008
   0.50000000 -0.47368421  0.50000000       0.008
   0.50000000 -0.46052632  0.50000000       0.008
   0.50000000 -0.44736842  0.50000000       0.008
   0.50000000 -0.43421053  0.50000000       0.008
   0.50000000 -0.42105263  0.50000000       0.008
   0.50000000 -0.40789474  0.50000000       0.008
   0.50000000 -0.39473684  0.50000000       0.008
   0.50000000 -0.38157895  0.50000000       0.008
   0.50000000 -0.36842105  0.50000000       0.008
   0.50000000 -0.35526316  0.50000000       0.008
   0.50000000 -0.34210526  0.50000000       0.008
   0.50000000 -0.32894737  0.50000000       0.008
   0.50000000 -0.31578947  0.50000000       0.008
   0.50000000 -0.30263158  0.50000000       0.008
   0.50000000 -0.28947368  0.50000000       0.008
   0.50000000 -0.27631579  0.50000000       0.008
   0.50000000 -0.26315789  0.50000000       0.008
   0.50000000 -0.25000000  0.50000000       0.008
   0.50000000 -0.25000000  0.50000000       0.008
   0.47368421 -0.23684211  0.47368421       0.008
   0.44736842 -0.22368421  0.44736842       0.008
   0.42105263 -0.21052632  0.42105263       0.008
   0.39473684 -0.19736842  0.39473684       0.008
   0.36842105 -0.18421053  0.36842105       0.008
   0.34210526 -0.17105263  0.34210526       0.008
   0.31578947 -0.15789474  0.31578947       0.008
   0.28947368 -0.14473684  0.28947368       0.008
   0.26315789 -0.13157895  0.26315789       0.008
   0.23684211 -0.11842105  0.23684211       0.008
   0.21052632 -0.10526316  0.21052632       0.008
   0.18421053 -0.09210526  0.18421053       0.008
   0.15789474 -0.07894737  0.15789474       0.008
   0.13157895 -0.06578947  0.13157895       0.008
   0.10526316 -0.05263158  0.10526316       0.008
   0.07894737 -0.03947368  0.07894737       0.008
   0.05263158 -0.02631579  0.05263158       0.008
   0.02631579 -0.01315789  0.02631579       0.008
   0.00000000  0.00000000  0.00000000       0.008
   0.00000000  0.00000000  0.00000000       0.008
   0.01315789  0.01315789  0.01315789       0.008
   0.02631579  0.02631579  0.02631579       0.008
   0.03947368  0.03947368  0.03947368       0.008
   0.05263158  0.05263158  0.05263158       0.008
   0.06578947  0.06578947  0.06578947       0.008
   0.07894737  0.07894737  0.07894737       0.008
   0.09210526  0.09210526  0.09210526       0.008
   0.10526316  0.10526316  0.10526316       0.008
   0.11842105  0.11842105  0.11842105       0.008
   0.13157895  0.13157895  0.13157895       0.008
   0.14473684  0.14473684  0.14473684       0.008
   0.15789474  0.15789474  0.15789474       0.008
   0.17105263  0.17105263  0.17105263       0.008
   0.18421053  0.18421053  0.18421053       0.008
   0.19736842  0.19736842  0.19736842       0.008
   0.21052632  0.21052632  0.21052632       0.008
   0.22368421  0.22368421  0.22368421       0.008
   0.23684211  0.23684211  0.23684211       0.008
   0.25000000  0.25000000  0.25000000       0.008
   0.25000000  0.25000000  0.25000000       0.008
   0.25000000  0.22368421  0.27631579       0.008
   0.25000000  0.19736842  0.30263158       0.008
   0.25000000  0.17105263  0.32894737       0.008
   0.25000000  0.14473684  0.35526316       0.008
   0.25000000  0.11842105  0.38157895       0.008
   0.25000000  0.09210526  0.40789474       0.008
   0.25000000  0.06578947  0.43421053       0.008
   0.25000000  0.03947368  0.46052632       0.008
   0.25000000  0.01315789  0.48684211       0.008
   0.25000000 -0.01315789  0.51315789       0.008
   0.25000000 -0.03947368  0.53947368       0.008
   0.25000000 -0.06578947  0.56578947       0.008
   0.25000000 -0.09210526  0.59210526       0.008
   0.25000000 -0.11842105  0.61842105       0.008
   0.25000000 -0.14473684  0.64473684       0.008
   0.25000000 -0.17105263  0.67105263       0.008
   0.25000000 -0.19736842  0.69736842       0.008
   0.25000000 -0.22368421  0.72368421       0.008
   0.25000000 -0.25000000  0.75000000       0.008
   0.25000000 -0.25000000  0.75000000       0.008
   0.26315789 -0.26315789  0.73684211       0.008
   0.27631579 -0.27631579  0.72368421       0.008
   0.28947368 -0.28947368  0.71052632       0.008
   0.30263158 -0.30263158  0.69736842       0.008
   0.31578947 -0.31578947  0.68421053       0.008
   0.32894737 -0.32894737  0.67105263       0.008
   0.34210526 -0.34210526  0.65789474       0.008
   0.35526316 -0.35526316  0.64473684       0.008
   0.36842105 -0.36842105  0.63157895       0.008
   0.38157895 -0.38157895  0.61842105       0.008
   0.39473684 -0.39473684  0.60526316       0.008
   0.40789474 -0.40789474  0.59210526       0.008
   0.42105263 -0.42105263  0.57894737       0.008
   0.43421053 -0.43421053  0.56578947       0.008
   0.44736842 -0.44736842  0.55263158       0.008
   0.46052632 -0.46052632  0.53947368       0.008
   0.47368421 -0.47368421  0.52631579       0.008
   0.48684211 -0.48684211  0.51315789       0.008
   0.50000000 -0.50000000  0.50000000       0.008
 
 k-points in reciprocal lattice and weights: K-points                                
   0.00000000  0.00000000  0.00000000       0.008
   0.02631579  0.00000000  0.02631579       0.008
   0.05263158  0.00000000  0.05263158       0.008
   0.07894737  0.00000000  0.07894737       0.008
   0.10526316  0.00000000  0.10526316       0.008
   0.13157895  0.00000000  0.13157895       0.008
   0.15789474  0.00000000  0.15789474       0.008
   0.18421053  0.00000000  0.18421053       0.008
   0.21052632  0.00000000  0.21052632       0.008
   0.23684211  0.00000000  0.23684211       0.008
   0.26315789  0.00000000  0.26315789       0.008
   0.28947368  0.00000000  0.28947368       0.008
   0.31578947  0.00000000  0.31578947       0.008
   0.34210526  0.00000000  0.34210526       0.008
   0.36842105  0.00000000  0.36842105       0.008
   0.39473684  0.00000000  0.39473684       0.008
   0.42105263  0.00000000  0.42105263       0.008
   0.44736842  0.00000000  0.44736842       0.008
   0.47368421  0.00000000  0.47368421       0.008
   0.50000000  0.00000000  0.50000000       0.008
   0.50000000  0.00000000  0.50000000       0.008
   0.50657895  0.01315789  0.50657895       0.008
   0.51315789  0.02631579  0.51315789       0.008
   0.51973684  0.03947368  0.51973684       0.008
   0.52631579  0.05263158  0.52631579       0.008
   0.53289474  0.06578947  0.53289474       0.008
   0.53947368  0.07894737  0.53947368       0.008
   0.54605263  0.09210526  0.54605263       0.008
   0.55263158  0.10526316  0.55263158       0.008
   0.55921053  0.11842105  0.55921053       0.008
   0.56578947  0.13157895  0.56578947       0.008
   0.57236842  0.14473684  0.57236842       0.008
   0.57894737  0.15789474  0.57894737       0.008
   0.58552632  0.17105263  0.58552632       0.008
   0.59210526  0.18421053  0.59210526       0.008
   0.59868421  0.19736842  0.59868421       0.008
   0.60526316  0.21052632  0.60526316       0.008
   0.61184211  0.22368421  0.61184211       0.008
   0.61842105  0.23684211  0.61842105       0.008
   0.62500000  0.25000000  0.62500000       0.008
   0.62500000  0.25000000  0.62500000       0.008
   0.59210526  0.23684211  0.59210526       0.008
   0.55921053  0.22368421  0.55921053       0.008
   0.52631579  0.21052632  0.52631579       0.008
   0.49342105  0.19736842  0.49342105       0.008
   0.46052632  0.18421053  0.46052632       0.008
   0.42763158  0.17105263  0.42763158       0.008
   0.39473684  0.15789474  0.39473684       0.008
   0.36184211  0.14473684  0.36184211       0.008
   0.32894737  0.13157895  0.32894737       0.008
   0.29605263  0.11842105  0.29605263       0.008
   0.26315789  0.10526316  0.26315789       0.008
   0.23026316  0.09210526  0.23026316       0.008
   0.19736842  0.07894737  0.19736842       0.008
   0.16447368  0.06578947  0.16447368       0.008
   0.13157895  0.05263158  0.13157895       0.008
   0.09868421  0.03947368  0.09868421       0.008
   0.06578947  0.02631579  0.06578947       0.008
   0.03289474  0.01315789  0.03289474       0.008
   0.00000000  0.00000000  0.00000000       0.008
   0.00000000  0.00000000  0.00000000       0.008
   0.02631579  0.02631579  0.02631579       0.008
   0.05263158  0.05263158  0.05263158       0.008
   0.07894737  0.07894737  0.07894737       0.008
   0.10526316  0.10526316  0.10526316       0.008
   0.13157895  0.13157895  0.13157895       0.008
   0.15789474  0.15789474  0.15789474       0.008
   0.18421053  0.18421053  0.18421053       0.008
   0.21052632  0.21052632  0.21052632       0.008
   0.23684211  0.23684211  0.23684211       0.008
   0.26315789  0.26315789  0.26315789       0.008
   0.28947368  0.28947368  0.28947368       0.008
   0.31578947  0.31578947  0.31578947       0.008
   0.34210526  0.34210526  0.34210526       0.008
   0.36842105  0.36842105  0.36842105       0.008
   0.39473684  0.39473684  0.39473684       0.008
   0.42105263  0.42105263  0.42105263       0.008
   0.44736842  0.44736842  0.44736842       0.008
   0.47368421  0.47368421  0.47368421       0.008
   0.50000000  0.50000000  0.50000000       0.008
   0.50000000  0.50000000  0.50000000       0.008
   0.50000000  0.48684211  0.51315789       0.008
   0.50000000  0.47368421  0.52631579       0.008
   0.50000000  0.46052632  0.53947368       0.008
   0.50000000  0.44736842  0.55263158       0.008
   0.50000000  0.43421053  0.56578947       0.008
   0.50000000  0.42105263  0.57894737       0.008
   0.50000000  0.40789474  0.59210526       0.008
   0.50000000  0.39473684  0.60526316       0.008
   0.50000000  0.38157895  0.61842105       0.008
   0.50000000  0.36842105  0.63157895       0.008
   0.50000000  0.35526316  0.64473684       0.008
   0.50000000  0.34210526  0.65789474       0.008
   0.50000000  0.32894737  0.67105263       0.008
   0.50000000  0.31578947  0.68421053       0.008
   0.50000000  0.30263158  0.69736842       0.008
   0.50000000  0.28947368  0.71052632       0.008
   0.50000000  0.27631579  0.72368421       0.008
   0.50000000  0.26315789  0.73684211       0.008
   0.50000000  0.25000000  0.75000000       0.008
   0.50000000  0.25000000  0.75000000       0.008
   0.50000000  0.23684211  0.73684211       0.008
   0.50000000  0.22368421  0.72368421       0.008
   0.50000000  0.21052632  0.71052632       0.008
   0.50000000  0.19736842  0.69736842       0.008
   0.50000000  0.18421053  0.68421053       0.008
   0.50000000  0.17105263  0.67105263       0.008
   0.50000000  0.15789474  0.65789474       0.008
   0.50000000  0.14473684  0.64473684       0.008
   0.50000000  0.13157895  0.63157895       0.008
   0.50000000  0.11842105  0.61842105       0.008
   0.50000000  0.10526316  0.60526316       0.008
   0.50000000  0.09210526  0.59210526       0.008
   0.50000000  0.07894737  0.57894737       0.008
   0.50000000  0.06578947  0.56578947       0.008
   0.50000000  0.05263158  0.55263158       0.008
   0.50000000  0.03947368  0.53947368       0.008
   0.50000000  0.02631579  0.52631579       0.008
   0.50000000  0.01315789  0.51315789       0.008
   0.50000000  0.00000000  0.50000000       0.008
 
 position of ions in fractional coordinates (direct lattice) 
   0.00000000  0.00000000  0.00000000
   0.50000000  0.50000000  0.50000000
   0.25000000  0.25000000  0.25000000
   0.75000000  0.75000000  0.75000000
 
 position of ions in cartesian coordinates  (Angst):
   0.00000000  0.00000000  0.00000000
   4.17000000  4.17000000  4.17000000
   2.08500000  2.08500000  2.08500000
   6.25500000  6.25500000  6.25500000
 


--------------------------------------------------------------------------------------------------------


 k-point  1 :   0.0000 0.0000 0.0000  plane waves:     663
 k-point  2 :   0.0263 0.0000 0.0263  plane waves:     663
 k-point  3 :   0.0526 0.0000 0.0526  plane waves:     667
 k-point  4 :   0.0789 0.0000 0.0789  plane waves:     667
 k-point  5 :   0.1053 0.0000 0.1053  plane waves:     661
 k-point  6 :   0.1316 0.0000 0.1316  plane waves:     662
 k-point  7 :   0.1579 0.0000 0.1579  plane waves:     657
 k-point  8 :   0.1842 0.0000 0.1842  plane waves:     647
 k-point  9 :   0.2105 0.0000 0.2105  plane waves:     645
 k-point 10 :   0.2368 0.0000 0.2368  plane waves:     652
 k-point 11 :   0.2632 0.0000 0.2632  plane waves:     655
 k-point 12 :   0.2895 0.0000 0.2895  plane waves:     662
 k-point 13 :   0.3158 0.0000 0.3158  plane waves:     664
 k-point 14 :   0.3421 0.0000 0.3421  plane waves:     662
 k-point 15 :   0.3684 0.0000 0.3684  plane waves:     656
 k-point 16 :   0.3947 0.0000 0.3947  plane waves:     660
 k-point 17 :   0.4211 0.0000 0.4211  plane waves:     662
 k-point 18 :   0.4474 0.0000 0.4474  plane waves:     671
 k-point 19 :   0.4737 0.0000 0.4737  plane waves:     673
 k-point 20 :   0.5000 0.0000 0.5000  plane waves:     674
 k-point 21 :   0.5000 0.0000 0.5000  plane waves:     674
 k-point 22 :   0.5066 0.0132 0.5066  plane waves:     674
 k-point 23 :   0.5132 0.0263 0.5132  plane waves:     666
 k-point 24 :   0.5197 0.0395 0.5197  plane waves:     667
 k-point 25 :   0.5263 0.0526 0.5263  plane waves:     667
 k-point 26 :   0.5329 0.0658 0.5329  plane waves:     669
 k-point 27 :   0.5395 0.0789 0.5395  plane waves:     669
 k-point 28 :   0.5461 0.0921 0.5461  plane waves:     669
 k-point 29 :   0.5526 0.1053 0.5526  plane waves:     670
 k-point 30 :   0.5592 0.1184 0.5592  plane waves:     668
 k-point 31 :   0.5658 0.1316 0.5658  plane waves:     660
 k-point 32 :   0.5724 0.1447 0.5724  plane waves:     658
 k-point 33 :   0.5789 0.1579 0.5789  plane waves:     658
 k-point 34 :   0.5855 0.1711 0.5855  plane waves:     657
 k-point 35 :   0.5921 0.1842 0.5921  plane waves:     659
 k-point 36 :   0.5987 0.1974 0.5987  plane waves:     661
 k-point 37 :   0.6053 0.2105 0.6053  plane waves:     654
 k-point 38 :   0.6118 0.2237 0.6118  plane waves:     654
 k-point 39 :   0.6184 0.2368 0.6184  plane waves:     656
 k-point 40 :   0.6250 0.2500 0.6250  plane waves:     656
 k-point 41 :   0.6250 0.2500 0.6250  plane waves:     656
 k-point 42 :   0.5921 0.2368 0.5921  plane waves:     653
 k-point 43 :   0.5592 0.2237 0.5592  plane waves:     653
 k-point 44 :   0.5263 0.2105 0.5263  plane waves:     653
 k-point 45 :   0.4934 0.1974 0.4934  plane waves:     660
 k-point 46 :   0.4605 0.1842 0.4605  plane waves:     658
 k-point 47 :   0.4276 0.1711 0.4276  plane waves:     656
 k-point 48 :   0.3947 0.1579 0.3947  plane waves:     656
 k-point 49 :   0.3618 0.1447 0.3618  plane waves:     650
 k-point 50 :   0.3289 0.1316 0.3289  plane waves:     650
 k-point 51 :   0.2961 0.1184 0.2961  plane waves:     653
 k-point 52 :   0.2632 0.1053 0.2632  plane waves:     653
 k-point 53 :   0.2303 0.0921 0.2303  plane waves:     656
 k-point 54 :   0.1974 0.0789 0.1974  plane waves:     661
 k-point 55 :   0.1645 0.0658 0.1645  plane waves:     665
 k-point 56 :   0.1316 0.0526 0.1316  plane waves:     665
 k-point 57 :   0.0987 0.0395 0.0987  plane waves:     669
 k-point 58 :   0.0658 0.0263 0.0658  plane waves:     667
 k-point 59 :   0.0329 0.0132 0.0329  plane waves:     663
 k-point 60 :   0.0000 0.0000 0.0000  plane waves:     663
 k-point 61 :   0.0000 0.0000 0.0000  plane waves:     663
 k-point 62 :   0.0263 0.0263 0.0263  plane waves:     663
 k-point 63 :   0.0526 0.0526 0.0526  plane waves:     666
 k-point 64 :   0.0789 0.0789 0.0789  plane waves:     666
 k-point 65 :   0.1053 0.1053 0.1053  plane waves:     666
 k-point 66 :   0.1316 0.1316 0.1316  plane waves:     666
 k-point 67 :   0.1579 0.1579 0.1579  plane waves:     664
 k-point 68 :   0.1842 0.1842 0.1842  plane waves:     664
 k-point 69 :   0.2105 0.2105 0.2105  plane waves:     664
 k-point 70 :   0.2368 0.2368 0.2368  plane waves:     661
 k-point 71 :   0.2632 0.2632 0.2632  plane waves:     655
 k-point 72 :   0.2895 0.2895 0.2895  plane waves:     658
 k-point 73 :   0.3158 0.3158 0.3158  plane waves:     658
 k-point 74 :   0.3421 0.3421 0.3421  plane waves:     658
 k-point 75 :   0.3684 0.3684 0.3684  plane waves:     652
 k-point 76 :   0.3947 0.3947 0.3947  plane waves:     652
 k-point 77 :   0.4211 0.4211 0.4211  plane waves:     652
 k-point 78 :   0.4474 0.4474 0.4474  plane waves:     649
 k-point 79 :   0.4737 0.4737 0.4737  plane waves:     649
 k-point 80 :   0.5000 0.5000 0.5000  plane waves:     652
 k-point 81 :   0.5000 0.5000 0.5000  plane waves:     652
 k-point 82 :   0.5000 0.4868 0.5132  plane waves:     650
 k-point 83 :   0.5000 0.4737 0.5263  plane waves:     650
 k-point 84 :   0.5000 0.4605 0.5395  plane waves:     648
 k-point 85 :   0.5000 0.4474 0.5526  plane waves:     652
 k-point 86 :   0.5000 0.4342 0.5658  plane waves:     658
 k-point 87 :   0.5000 0.4211 0.5789  plane waves:     658
 k-point 88 :   0.5000 0.4079 0.5921  plane waves:     654
 k-point 89 :   0.5000 0.3947 0.6053  plane waves:     652
 k-point 90 :   0.5000 0.3816 0.6184  plane waves:     652
 k-point 91 :   0.5000 0.3684 0.6316  plane waves:     652
 k-point 92 :   0.5000 0.3553 0.6447  plane waves:     656
 k-point 93 :   0.5000 0.3421 0.6579  plane waves:     654
 k-point 94 :   0.5000 0.3289 0.6711  plane waves:     650
 k-point 95 :   0.5000 0.3158 0.6842  plane waves:     652
 k-point 96 :   0.5000 0.3026 0.6974  plane waves:     654
 k-point 97 :   0.5000 0.2895 0.7105  plane waves:     660
 k-point 98 :   0.5000 0.2763 0.7237  plane waves:     658
 k-point 99 :   0.5000 0.2632 0.7368  plane waves:     660
 k-point ** :   0.5000 0.2500 0.7500  plane waves:     662
 k-point ** :   0.5000 0.2500 0.7500  plane waves:     662
 k-point ** :   0.5000 0.2368 0.7368  plane waves:     658
 k-point ** :   0.5000 0.2237 0.7237  plane waves:     659
 k-point ** :   0.5000 0.2105 0.7105  plane waves:     655
 k-point ** :   0.5000 0.1974 0.6974  plane waves:     654
 k-point ** :   0.5000 0.1842 0.6842  plane waves:     659
 k-point ** :   0.5000 0.1711 0.6711  plane waves:     661
 k-point ** :   0.5000 0.1579 0.6579  plane waves:     661
 k-point ** :   0.5000 0.1447 0.6447  plane waves:     663
 k-point ** :   0.5000 0.1316 0.6316  plane waves:     663
 k-point ** :   0.5000 0.1184 0.6184  plane waves:     661
 k-point ** :   0.5000 0.1053 0.6053  plane waves:     657
 k-point ** :   0.5000 0.0921 0.5921  plane waves:     661
 k-point ** :   0.5000 0.0789 0.5789  plane waves:     665
 k-point ** :   0.5000 0.0658 0.5658  plane waves:     667
 k-point ** :   0.5000 0.0526 0.5526  plane waves:     672
 k-point ** :   0.5000 0.0395 0.5395  plane waves:     672
 k-point ** :   0.5000 0.0263 0.5263  plane waves:     670
 k-point ** :   0.5000 0.0132 0.5132  plane waves:     672
 k-point ** :   0.5000 0.0000 0.5000  plane waves:     674

 maximum and minimum number of plane-waves per node :       674      645

 maximum number of plane-waves:       674
 maximum index in each direction: 
   IXMAX=    8   IYMAX=    8   IZMAX=    8
   IXMIN=   -8   IYMIN=   -8   IZMIN=   -9


 serial   3D FFT for wavefunctions
 parallel 3D FFT for charge:
    minimum data exchange during FFTs selected (reduces bandwidth)


 total amount of memory used by VASP MPI-rank0   147841. kBytes
=======================================================================

   base      :      30000. kBytes
   nonl-proj :      23336. kBytes
   fftplans  :      11932. kBytes
   grid      :      26693. kBytes
   one-center:        124. kBytes
   wavefun   :      55756. kBytes
 
     INWAV:  cpu time    0.0009: real time    0.0003
 initial charge density was supplied:
 number of electron      32.0000046 magnetization      -0.0000000
 keeping initial charge density in first step


--------------------------------------------------------------------------------------------------------


 Maximum index for augmentation-charges        19063 (set IRDMAX)


--------------------------------------------------------------------------------------------------------


 First call to EWALD:  gamma=   0.536
 Maximum number of real-space cells 3x 3x 3
 Maximum number of reciprocal cells 4x 4x 4

    FEWALD:  cpu time    0.0014: real time    0.0014


--------------------------------------- Iteration      1(   1)  ---------------------------------------


    POTLOK:  cpu time    0.8869: real time    1.2324
    SETDIJ:  cpu time    0.0377: real time    0.0378
     EDDAV:  cpu time   11.6840: real time   14.6872
       DOS:  cpu time    0.0146: real time    0.0283
    --------------------------------------------
      LOOP:  cpu time   12.6232: real time   15.9857

 eigenvalue-minimisations  :  9776
 total energy-change (2. order) : 0.2149240E+03  (-0.1406866E+04)
 number of electron      32.0000046 magnetization      -0.0000000
 augmentation part       32.0000046 magnetization      -0.0000000

 Free energy of the ion-electron system (eV)
  ---------------------------------------------------
  alpha Z        PSCENC =       217.71629331
  Ewald energy   TEWEN  =     -2604.77031634
  -Hartree energ DENC   =      -636.31563677
  -exchange      EXHF   =         0.00000000
  -V(xc)+E(xc)   XCENC  =       118.79114155
  PAW double counting   =      2352.33185573    -2495.47711383
  entropy T*S    EENTRO =         0.00013247
  eigenvalues    EBANDS =       237.90510615
  atomic energy  EATOM  =      3024.74254395
  Solvation  Ediel_sol  =         0.00000000
  ---------------------------------------------------
  free energy    TOTEN  =       214.92400622 eV

  energy without entropy =      214.92387375  energy(sigma->0) =      214.92396206


--------------------------------------------------------------------------------------------------------




--------------------------------------- Iteration      1(   2)  ---------------------------------------


     EDDAV:  cpu time   11.9651: real time   21.6876
       DOS:  cpu time    0.0172: real time    0.0173
    --------------------------------------------
      LOOP:  cpu time   11.9823: real time   21.7049

 eigenvalue-minimisations  : 10148
 total energy-change (2. order) :-0.2163613E+03  (-0.2038216E+03)
 number of electron      32.0000046 magnetization      -0.0000000
 augmentation part       32.0000046 magnetization      -0.0000000

 Free energy of the ion-electron system (eV)
  ---------------------------------------------------
  alpha Z        PSCENC =       217.71629331
  Ewald energy   TEWEN  =     -2604.77031634
  -Hartree energ DENC   =      -636.31563677
  -exchange      EXHF   =         0.00000000
  -V(xc)+E(xc)   XCENC  =       118.79114155
  PAW double counting   =      2352.33185573    -2495.47711383
  entropy T*S    EENTRO =        -0.00181706
  eigenvalues    EBANDS =        21.54576169
  atomic energy  EATOM  =      3024.74254395
  Solvation  Ediel_sol  =         0.00000000
  ---------------------------------------------------
  free energy    TOTEN  =        -1.43728776 eV

  energy without entropy =       -1.43547071  energy(sigma->0) =       -1.43668208


--------------------------------------------------------------------------------------------------------




--------------------------------------- Iteration      1(   3)  ---------------------------------------


     EDDAV:  cpu time   12.4081: real time   19.5180
       DOS:  cpu time    0.0193: real time    0.0193
    --------------------------------------------
      LOOP:  cpu time   12.4274: real time   19.5373

 eigenvalue-minimisations  : 10820
 total energy-change (2. order) :-0.2033775E+02  (-0.1917858E+02)
 number of electron      32.0000046 magnetization      -0.0000000
 augmentation part       32.0000046 magnetization      -0.0000000

 Free energy of the ion-electron system (eV)
  ---------------------------------------------------
  alpha Z        PSCENC =       217.71629331
  Ewald energy   TEWEN  =     -2604.77031634
  -Hartree energ DENC   =      -636.31563677
  -exchange      EXHF   =         0.00000000
  -V(xc)+E(xc)   XCENC  =       118.79114155
  PAW double counting   =      2352.33185573    -2495.47711383
  entropy T*S    EENTRO =         0.01880772
  eigenvalues    EBANDS =         1.18738296
  atomic energy  EATOM  =      3024.74254395
  Solvation  Ediel_sol  =         0.00000000
  ---------------------------------------------------
  free energy    TOTEN  =       -21.77504172 eV

  energy without entropy =      -21.79384944  energy(sigma->0) =      -21.78131096


--------------------------------------------------------------------------------------------------------




--------------------------------------- Iteration      1(   4)  ---------------------------------------


     EDDAV:  cpu time   11.8526: real time   16.8940
       DOS:  cpu time    0.0206: real time    0.0206
    --------------------------------------------
      LOOP:  cpu time   11.8731: real time   16.9146

 eigenvalue-minimisations  : 10284
 total energy-change (2. order) :-0.5125639E+00  (-0.5094245E+00)
 number of electron      32.0000046 magnetization      -0.0000000
 augmentation part       32.0000046 magnetization      -0.0000000

 Free energy of the ion-electron system (eV)
  ---------------------------------------------------
  alpha Z        PSCENC =       217.71629331
  Ewald energy   TEWEN  =     -2604.77031634
  -Hartree energ DENC   =      -636.31563677
  -exchange      EXHF   =         0.00000000
  -V(xc)+E(xc)   XCENC  =       118.79114155
  PAW double counting   =      2352.33185573    -2495.47711383
  entropy T*S    EENTRO =         0.02007394
  eigenvalues    EBANDS =         0.67355279
  atomic energy  EATOM  =      3024.74254395
  Solvation  Ediel_sol  =         0.00000000
  ---------------------------------------------------
  free energy    TOTEN  =       -22.28760567 eV

  energy without entropy =      -22.30767961  energy(sigma->0) =      -22.29429698


--------------------------------------------------------------------------------------------------------




--------------------------------------- Iteration      1(   5)  ---------------------------------------


     EDDAV:  cpu time   12.3304: real time   20.7482
       DOS:  cpu time    0.0199: real time    0.0200
    --------------------------------------------
      LOOP:  cpu time   12.3504: real time   20.7682

 eigenvalue-minimisations  : 10724
 total energy-change (2. order) :-0.8667523E-02  (-0.8665621E-02)
 number of electron      32.0000046 magnetization      -0.0000000
 augmentation part       32.0000046 magnetization      -0.0000000

 Free energy of the ion-electron system (eV)
  ---------------------------------------------------
  alpha Z        PSCENC =       217.71629331
  Ewald energy   TEWEN  =     -2604.77031634
  -Hartree energ DENC   =      -636.31563677
  -exchange      EXHF   =         0.00000000
  -V(xc)+E(xc)   XCENC  =       118.79114155
  PAW double counting   =      2352.33185573    -2495.47711383
  entropy T*S    EENTRO =         0.02007236
  eigenvalues    EBANDS =         0.66488685
  atomic energy  EATOM  =      3024.74254395
  Solvation  Ediel_sol  =         0.00000000
  ---------------------------------------------------
  free energy    TOTEN  =       -22.29627319 eV

  energy without entropy =      -22.31634555  energy(sigma->0) =      -22.30296398


--------------------------------------------------------------------------------------------------------




--------------------------------------- Iteration      1(   6)  ---------------------------------------


     EDDAV:  cpu time   12.1240: real time   19.3424
       DOS:  cpu time    0.0206: real time    0.0207
    --------------------------------------------
      LOOP:  cpu time   12.1446: real time   19.3630

 eigenvalue-minimisations  : 10520
 total energy-change (2. order) :-0.2681185E-03  (-0.2681160E-03)
 number of electron      32.0000046 magnetization      -0.0000000
 augmentation part       32.0000046 magnetization      -0.0000000

 Free energy of the ion-electron system (eV)
  ---------------------------------------------------
  alpha Z        PSCENC =       217.71629331
  Ewald energy   TEWEN  =     -2604.77031634
  -Hartree energ DENC   =      -636.31563677
  -exchange      EXHF   =         0.00000000
  -V(xc)+E(xc)   XCENC  =       118.79114155
  PAW double counting   =      2352.33185573    -2495.47711383
  entropy T*S    EENTRO =         0.02007205
  eigenvalues    EBANDS =         0.66461904
  atomic energy  EATOM  =      3024.74254395
  Solvation  Ediel_sol  =         0.00000000
  ---------------------------------------------------
  free energy    TOTEN  =       -22.29654131 eV

  energy without entropy =      -22.31661336  energy(sigma->0) =      -22.30323199


--------------------------------------------------------------------------------------------------------




--------------------------------------- Iteration      1(   7)  ---------------------------------------


     EDDAV:  cpu time    9.2736: real time   12.5190
       DOS:  cpu time    0.0185: real time    0.0186
    --------------------------------------------
      LOOP:  cpu time    9.2931: real time   12.5376

 eigenvalue-minimisations  :  6916
 total energy-change (2. order) :-0.8537640E-05  (-0.8538079E-05)
 number of electron      32.0000046 magnetization      -0.0000000
 augmentation part       32.0000046 magnetization      -0.0000000

 Free energy of the ion-electron system (eV)
  ---------------------------------------------------
  alpha Z        PSCENC =       217.71629331
  Ewald energy   TEWEN  =     -2604.77031634
  -Hartree energ DENC   =      -636.31563677
  -exchange      EXHF   =         0.00000000
  -V(xc)+E(xc)   XCENC  =       118.79114155
  PAW double counting   =      2352.33185573    -2495.47711383
  entropy T*S    EENTRO =         0.02007204
  eigenvalues    EBANDS =         0.66461052
  atomic energy  EATOM  =      3024.74254395
  Solvation  Ediel_sol  =         0.00000000
  ---------------------------------------------------
  free energy    TOTEN  =       -22.29654984 eV

  energy without entropy =      -22.31662188  energy(sigma->0) =      -22.30324052


--------------------------------------------------------------------------------------------------------




 average (electrostatic) potential at core
  the test charge radii are     0.9791  0.7215
  (the norm of the test charge is              1.0000)
       1 -42.5355       2 -42.5355       3 -71.8201       4 -71.8201
 
 
 
 E-fermi :   4.8608     XC(G=0): -12.7537     alpha+bet :-11.2748


 spin component 1

 k-point     1 :       0.0000    0.0000    0.0000
  band No.  band energies     occupation 
      1     -15.0850      1.00000
      2     -13.6830      1.00000
      3      -2.9549      1.00000
      4      -0.2630      1.00000
      5      -0.2630      1.00000
      6       2.2810      1.00000
      7       2.2810      1.00000
      8       2.2819      1.00000
      9       2.6583      1.00000
     10       2.6583      1.00000
     11       2.7352      1.00000
     12       3.3177      1.00000
     13       3.3177      1.00000
     14       4.0568      1.00000
     15       4.0568      1.00000
     16       4.3488      1.00088
     17       6.5851     -0.00000
     18       6.5851     -0.00000
     19       6.9175     -0.00000
     20      10.9074      0.00000

 k-point     2 :       0.0263    0.0000    0.0263
  band No.  band energies     occupation 
      1     -15.0769      1.00000
      2     -13.6828      1.00000
      3      -2.9402      1.00000
      4      -0.2689      1.00000
      5      -0.2578      1.00000
      6       2.1765      1.00000
      7       2.2105      1.00000
      8       2.2195      1.00000
      9       2.6876      1.00000
     10       2.6970      1.00000
     11       2.7589      1.00000
     12       3.3584      1.00000
     13       3.3686      1.00000
     14       4.0567      1.00000
     15       4.0651      1.00000
     16       4.3469      1.00084
     17       6.5623     -0.00000
     18       6.5701     -0.00000
     19       6.9713     -0.00000
     20      10.9541      0.00000

 k-point     3 :       0.0526    0.0000    0.0526
  band No.  band energies     occupation 
      1     -15.0528      1.00000
      2     -13.6828      1.00000
      3      -2.8966      1.00000
      4      -0.2872      1.00000
      5      -0.2432      1.00000
      6       1.9398      1.00000
      7       2.0516      1.00000
      8       2.0687      1.00000
      9       2.7357      1.00000
     10       2.7372      1.00000
     11       2.8242      1.00000
     12       3.4637      1.00000
     13       3.4974      1.00000
     14       4.0560      1.00000
     15       4.0921      1.00000
     16       4.3423      1.00076
     17       6.4966     -0.00000
     18       6.5248     -0.00000
     19       7.1258     -0.00000
     20      11.0895      0.00000

 k-point     4 :       0.0789    0.0000    0.0789
  band No.  band energies     occupation 
      1     -15.0132      1.00000
      2     -13.6814      1.00000
      3      -2.8245      1.00000
      4      -0.3139      1.00000
      5      -0.2173      1.00000
      6       1.6325      1.00000
      7       1.8589      1.00000
      8       1.8780      1.00000
      9       2.7584      1.00000
     10       2.7816      1.00000
     11       2.8927      1.00000
     12       3.5969      1.00000
     13       3.6595      1.00000
     14       4.0562      1.00000
     15       4.1445      1.00000
     16       4.3399      1.00072
     17       6.3998     -0.00000
     18       6.4533     -0.00000
     19       7.3629     -0.00000
     20      11.3010      0.00000

 k-point     5 :       0.1053    0.0000    0.1053
  band No.  band energies     occupation 
      1     -14.9585      1.00000
      2     -13.6786      1.00000
      3      -2.7251      1.00000
      4      -0.3478      1.00000
      5      -0.1806      1.00000
      6       1.2821      1.00000
      7       1.6547      1.00000
      8       1.6724      1.00000
      9       2.7761      1.00000
     10       2.8222      1.00000
     11       2.9503      1.00000
     12       3.7220      1.00000
     13       3.8080      1.00000
     14       4.0714      1.00000
     15       4.2322      1.00004
     16       4.3462      1.00083
     17       6.2835     -0.00000
     18       6.3591     -0.00000
     19       7.6611     -0.00000
     20      11.5711      0.00000

 k-point     6 :       0.1316    0.0000    0.1316
  band No.  band energies     occupation 
      1     -14.8893      1.00000
      2     -13.6770      1.00000
      3      -2.6038      1.00000
      4      -0.3895      1.00000
      5      -0.1352      1.00000
      6       0.9041      1.00000
      7       1.4498      1.00000
      8       1.4637      1.00000
      9       2.7902      1.00000
     10       2.8627      1.00000
     11       3.0002      1.00000
     12       3.8184      1.00000
     13       3.8828      1.00000
     14       4.1342      1.00000
     15       4.3578      1.00108
     16       4.3737      1.00154
     17       6.1585     -0.00000
     18       6.2473     -0.00000
     19       8.0016     -0.00000
     20      11.8760      0.00000

 k-point     7 :       0.1579    0.0000    0.1579
  band No.  band energies     occupation 
      1     -14.8073      1.00000
      2     -13.6737      1.00000
      3      -2.4624      1.00000
      4      -0.4314      1.00000
      5      -0.0794      1.00000
      6       0.5106      1.00000
      7       1.2494      1.00000
      8       1.2577      1.00000
      9       2.7989      1.00000
     10       2.9048      1.00000
     11       3.0451      1.00000
     12       3.8862      1.00000
     13       3.8873      1.00000
     14       4.2108      1.00002
     15       4.4466      1.00631
     16       4.5065      1.01554
     17       6.0417     -0.00000
     18       6.1280     -0.00000
     19       8.3655     -0.00000
     20      12.1931      0.00000

 k-point     8 :       0.1842    0.0000    0.1842
  band No.  band energies     occupation 
      1     -14.7136      1.00000
      2     -13.6694      1.00000
      3      -2.3065      1.00000
      4      -0.4679      1.00000
      5      -0.0180      1.00000
      6       0.1098      1.00000
      7       1.0597      1.00000
      8       1.0601      1.00000
      9       2.7995      1.00000
     10       2.9492      1.00000
     11       3.0883      1.00000
     12       3.8680      1.00000
     13       3.9389      1.00000
     14       4.2548      1.00008
     15       4.5547      1.02626
     16       4.6540      1.02831
     17       5.9482     -0.00000
     18       6.0123     -0.00000
     19       8.7385     -0.00000
     20      12.4900      0.00000

 k-point     9 :       0.2105    0.0000    0.2105
  band No.  band energies     occupation 
      1     -14.6114      1.00000
      2     -13.6649      1.00000
      3      -2.1445      1.00000
      4      -0.4945      1.00000
      5      -0.2885      1.00000
      6       0.0485      1.00000
      7       0.8703      1.00000
      8       0.8818      1.00000
      9       2.7877      1.00000
     10       2.9944      1.00000
     11       3.1307      1.00000
     12       3.8484      1.00000
     13       3.9805      1.00000
     14       4.2804      1.00016
     15       4.6483      1.03046
     16       4.7711      0.84052
     17       5.8930     -0.00000
     18       5.9212     -0.00000
     19       9.1052     -0.00000
     20      12.7259      0.00000

 k-point    10 :       0.2368    0.0000    0.2368
  band No.  band energies     occupation 
      1     -14.5024      1.00000
      2     -13.6609      1.00000
      3      -1.9888      1.00000
      4      -0.6868      1.00000
      5      -0.4921      1.00000
      6       0.1141      1.00000
      7       0.6920      1.00000
      8       0.7231      1.00000
      9       2.7600      1.00000
     10       3.0398      1.00000
     11       3.1723      1.00000
     12       3.8353      1.00000
     13       4.0153      1.00000
     14       4.3006      1.00027
     15       4.6974      0.99435
     16       4.8302      0.62790
     17       5.8800     -0.00000
     18       5.8904     -0.00000
     19       9.4565     -0.00000
     20      12.8576      0.00000

 k-point    11 :       0.2632    0.0000    0.2632
  band No.  band energies     occupation 
      1     -14.3887      1.00000
      2     -13.6558      1.00000
      3      -1.8522      1.00000
      4      -1.0612      1.00000
      5      -0.4611      1.00000
      6       0.1673      1.00000
      7       0.5266      1.00000
      8       0.5969      1.00000
      9       2.7152      1.00000
     10       3.0844      1.00000
     11       3.2134      1.00000
     12       3.8329      1.00000
     13       4.0431      1.00000
     14       4.3196      1.00044
     15       4.6978      0.99387
     16       4.8160      0.68438
     17       5.9046     -0.00000
     18       5.9420     -0.00000
     19       9.7843     -0.00000
     20      12.8656      0.00000

 k-point    12 :       0.2895    0.0000    0.2895
  band No.  band energies     occupation 
      1     -14.2735      1.00000
      2     -13.6505      1.00000
      3      -1.7481      1.00000
      4      -1.4178      1.00000
      5      -0.3831      1.00000
      6       0.1757      1.00000
      7       0.3772      1.00000
      8       0.5343      1.00000
      9       2.6522      1.00000
     10       3.1263      1.00000
     11       3.2523      1.00000
     12       3.8399      1.00000
     13       4.0616      1.00000
     14       4.3378      1.00068
     15       4.6636      1.02365
     16       4.7451      0.91021
     17       5.9842     -0.00000
     18       6.0327     -0.00000
     19      10.0774     -0.00000
     20      12.7664      0.00000

 k-point    13 :       0.3158    0.0000    0.3158
  band No.  band energies     occupation 
      1     -14.1588      1.00000
      2     -13.6453      1.00000
      3      -1.7554      1.00000
      4      -1.6766      1.00000
      5      -0.2592      1.00000
      6       0.1218      1.00000
      7       0.2499      1.00000
      8       0.5538      1.00000
      9       2.5729      1.00000
     10       3.1644      1.00000
     11       3.2881      1.00000
     12       3.8544      1.00000
     13       4.0644      1.00000
     14       4.3537      1.00099
     15       4.6160      1.03546
     16       4.6508      1.02958
     17       6.0935     -0.00000
     18       6.1441     -0.00000
     19      10.3303      0.00000
     20      12.5968      0.00000

 k-point    14 :       0.3421    0.0000    0.3421
  band No.  band energies     occupation 
      1     -14.0490      1.00000
      2     -13.6395      1.00000
      3      -2.0512      1.00000
      4      -1.6471      1.00000
      5      -0.1132      1.00000
      6       0.0380      1.00000
      7       0.1606      1.00000
      8       0.6202      1.00000
      9       2.4786      1.00000
     10       3.1969      1.00000
     11       3.3196      1.00000
     12       3.8720      1.00000
     13       4.0432      1.00000
     14       4.3633      1.00122
     15       4.5638      1.02831
     16       4.5741      1.03048
     17       6.2102     -0.00000
     18       6.2598     -0.00000
     19      10.5339      0.00000
     20      12.3946      0.00000

 k-point    15 :       0.3684    0.0000    0.3684
  band No.  band energies     occupation 
      1     -13.9464      1.00000
      2     -13.6343      1.00000
      3      -2.3138      1.00000
      4      -1.6376      1.00000
      5      -0.0582      1.00000
      6      -0.0457      1.00000
      7       0.2075      1.00000
      8       0.7019      1.00000
      9       2.3713      1.00000
     10       3.2223      1.00000
     11       3.3459      1.00000
     12       3.8888      1.00000
     13       3.9933      1.00000
     14       4.3611      1.00116
     15       4.5046      1.01516
     16       4.5521      1.02567
     17       6.3227     -0.00000
     18       6.3703     -0.00000
     19      10.6899      0.00000
     20      12.1857      0.00000

 k-point    16 :       0.3947    0.0000    0.3947
  band No.  band energies     occupation 
      1     -13.8579      1.00000
      2     -13.6293      1.00000
      3      -2.5379      1.00000
      4      -1.6410      1.00000
      5      -0.1221      1.00000
      6      -0.1120      1.00000
      7       0.3911      1.00000
      8       0.7845      1.00000
      9       2.2544      1.00000
     10       3.2388      1.00000
     11       3.3660      1.00000
     12       3.9009      1.00000
     13       3.9231      1.00000
     14       4.3470      1.00084
     15       4.4748      1.00995
     16       4.5521      1.02567
     17       6.4209     -0.00000
     18       6.4666     -0.00000
     19      10.7939      0.00000
     20      11.9902      0.00000

 k-point    17 :       0.4211    0.0000    0.4211
  band No.  band energies     occupation 
      1     -13.7839      1.00000
      2     -13.6257      1.00000
      3      -2.7165      1.00000
      4      -1.6502      1.00000
      5      -0.1823      1.00000
      6      -0.1700      1.00000
      7       0.5936      1.00000
      8       0.8584      1.00000
      9       2.1323      1.00000
     10       3.2462      1.00000
     11       3.3806      1.00000
     12       3.8511      1.00000
     13       3.9078      1.00000
     14       4.3301      1.00057
     15       4.4644      1.00847
     16       4.5652      1.02861
     17       6.5023     -0.00000
     18       6.5465     -0.00000
     19      10.8573      0.00000
     20      11.8228      0.00000

 k-point    18 :       0.4474    0.0000    0.4474
  band No.  band energies     occupation 
      1     -13.7292      1.00000
      2     -13.6238      1.00000
      3      -2.8496      1.00000
      4      -1.6609      1.00000
      5      -0.2251      1.00000
      6      -0.2135      1.00000
      7       0.7776      1.00000
      8       0.9171      1.00000
      9       2.0140      1.00000
     10       3.2459      1.00000
     11       3.3901      1.00000
     12       3.7931      1.00000
     13       3.9101      1.00000
     14       4.3171      1.00041
     15       4.4631      1.00829
     16       4.5807      1.03174
     17       6.5627     -0.00000
     18       6.6058     -0.00000
     19      10.8907      0.00000
     20      11.6947      0.00000

 k-point    19 :       0.4737    0.0000    0.4737
  band No.  band energies     occupation 
      1     -13.6949      1.00000
      2     -13.6224      1.00000
      3      -2.9292      1.00000
      4      -1.6683      1.00000
      5      -0.2517      1.00000
      6      -0.2410      1.00000
      7       0.9158      1.00000
      8       0.9555      1.00000
      9       1.9195      1.00000
     10       3.2422      1.00000
     11       3.3955      1.00000
     12       3.7568      1.00000
     13       3.9102      1.00000
     14       4.3097      1.00034
     15       4.4643      1.00845
     16       4.5926      1.03368
     17       6.5997     -0.00000
     18       6.6421     -0.00000
     19      10.9056      0.00000
     20      11.6147      0.00000

 k-point    20 :       0.5000    0.0000    0.5000
  band No.  band energies     occupation 
      1     -13.6829      1.00000
      2     -13.6226      1.00000
      3      -2.9553      1.00000
      4      -1.6724      1.00000
      5      -0.2606      1.00000
      6      -0.2502      1.00000
      7       0.9686      1.00000
      8       0.9691      1.00000
      9       1.8812      1.00000
     10       3.2401      1.00000
     11       3.3974      1.00000
     12       3.7447      1.00000
     13       3.9103      1.00000
     14       4.3075      1.00032
     15       4.4649      1.00854
     16       4.5976      1.03432
     17       6.6122     -0.00000
     18       6.6544     -0.00000
     19      10.9096      0.00000
     20      11.5875      0.00000

 k-point    21 :       0.5000    0.0000    0.5000
  band No.  band energies     occupation 
      1     -13.6829      1.00000
      2     -13.6226      1.00000
      3      -2.9553      1.00000
      4      -1.6724      1.00000
      5      -0.2606      1.00000
      6      -0.2502      1.00000
      7       0.9686      1.00000
      8       0.9691      1.00000
      9       1.8812      1.00000
     10       3.2401      1.00000
     11       3.3974      1.00000
     12       3.7447      1.00000
     13       3.9103      1.00000
     14       4.3075      1.00032
     15       4.4649      1.00854
     16       4.5976      1.03432
     17       6.6122     -0.00000
     18       6.6544     -0.00000
     19      10.9096      0.00000
     20      11.5875      0.00000

 k-point    22 :       0.5066    0.0132    0.5066
  band No.  band energies     occupation 
      1     -13.6831      1.00000
      2     -13.6231      1.00000
      3      -2.9538      1.00000
      4      -1.6729      1.00000
      5      -0.2604      1.00000
      6      -0.2500      1.00000
      7       0.9686      1.00000
      8       0.9691      1.00000
      9       1.8815      1.00000
     10       3.2401      1.00000
     11       3.3974      1.00000
     12       3.7445      1.00000
     13       3.9104      1.00000
     14       4.3080      1.00033
     15       4.4649      1.00853
     16       4.5974      1.03431
     17       6.6120     -0.00000
     18       6.6517     -0.00000
     19      10.9124      0.00000
     20      11.5887      0.00000

 k-point    23 :       0.5132    0.0263    0.5132
  band No.  band energies     occupation 
      1     -13.6838      1.00000
      2     -13.6231      1.00000
      3      -2.9494      1.00000
      4      -1.6708      1.00000
      5      -0.2597      1.00000
      6      -0.2494      1.00000
      7       0.9694      1.00000
      8       0.9698      1.00000
      9       1.8826      1.00000
     10       3.2401      1.00000
     11       3.3973      1.00000
     12       3.7441      1.00000
     13       3.9109      1.00000
     14       4.3095      1.00034
     15       4.4647      1.00851
     16       4.5971      1.03426
     17       6.6117     -0.00000
     18       6.6434     -0.00000
     19      10.9210      0.00000
     20      11.5926      0.00000

 k-point    24 :       0.5197    0.0395    0.5197
  band No.  band energies     occupation 
      1     -13.6851      1.00000
      2     -13.6257      1.00000
      3      -2.9420      1.00000
      4      -1.6730      1.00000
      5      -0.2585      1.00000
      6      -0.2492      1.00000
      7       0.9694      1.00000
      8       0.9698      1.00000
      9       1.8844      1.00000
     10       3.2399      1.00000
     11       3.3971      1.00000
     12       3.7434      1.00000
     13       3.9116      1.00000
     14       4.3119      1.00036
     15       4.4643      1.00846
     16       4.5963      1.03417
     17       6.6110     -0.00000
     18       6.6293     -0.00000
     19      10.9352      0.00000
     20      11.5988      0.00000

 k-point    25 :       0.5263    0.0526    0.5263
  band No.  band energies     occupation 
      1     -13.6867      1.00000
      2     -13.6294      1.00000
      3      -2.9318      1.00000
      4      -1.6761      1.00000
      5      -0.2569      1.00000
      6      -0.2479      1.00000
      7       0.9694      1.00000
      8       0.9698      1.00000
      9       1.8869      1.00000
     10       3.2397      1.00000
     11       3.3967      1.00000
     12       3.7424      1.00000
     13       3.9125      1.00000
     14       4.3152      1.00039
     15       4.4638      1.00838
     16       4.5952      1.03404
     17       6.6101     -0.00000
     18       6.6104     -0.00000
     19      10.9548      0.00000
     20      11.6073      0.00000

 k-point    26 :       0.5329    0.0658    0.5329
  band No.  band energies     occupation 
      1     -13.6890      1.00000
      2     -13.6342      1.00000
      3      -2.9190      1.00000
      4      -1.6798      1.00000
      5      -0.2549      1.00000
      6      -0.2462      1.00000
      7       0.9694      1.00000
      8       0.9699      1.00000
      9       1.8900      1.00000
     10       3.2394      1.00000
     11       3.3961      1.00000
     12       3.7410      1.00000
     13       3.9135      1.00000
     14       4.3193      1.00044
     15       4.4631      1.00829
     16       4.5935      1.03381
     17       6.5865     -0.00000
     18       6.6089     -0.00000
     19      10.9797      0.00000
     20      11.6181      0.00000

 k-point    27 :       0.5395    0.0789    0.5395
  band No.  band energies     occupation 
      1     -13.6914      1.00000
      2     -13.6399      1.00000
      3      -2.9030      1.00000
      4      -1.6841      1.00000
      5      -0.2524      1.00000
      6      -0.2443      1.00000
      7       0.9695      1.00000
      8       0.9700      1.00000
      9       1.8939      1.00000
     10       3.2391      1.00000
     11       3.3956      1.00000
     12       3.7393      1.00000
     13       3.9147      1.00000
     14       4.3240      1.00049
     15       4.4622      1.00818
     16       4.5922      1.03363
     17       6.5578     -0.00000
     18       6.6075     -0.00000
     19      11.0097      0.00000
     20      11.6310      0.00000

 k-point    28 :       0.5461    0.0921    0.5461
  band No.  band energies     occupation 
      1     -13.6942      1.00000
      2     -13.6467      1.00000
      3      -2.8843      1.00000
      4      -1.6889      1.00000
      5      -0.2495      1.00000
      6      -0.2421      1.00000
      7       0.9697      1.00000
      8       0.9702      1.00000
      9       1.8985      1.00000
     10       3.2387      1.00000
     11       3.3950      1.00000
     12       3.7373      1.00000
     13       3.9161      1.00000
     14       4.3292      1.00055
     15       4.4613      1.00805
     16       4.5909      1.03343
     17       6.5247     -0.00000
     18       6.6059     -0.00000
     19      11.0443      0.00000
     20      11.6458      0.00000

 k-point    29 :       0.5526    0.1053    0.5526
  band No.  band energies     occupation 
      1     -13.6976      1.00000
      2     -13.6546      1.00000
      3      -2.8632      1.00000
      4      -1.6940      1.00000
      5      -0.2462      1.00000
      6      -0.2396      1.00000
      7       0.9700      1.00000
      8       0.9705      1.00000
      9       1.9038      1.00000
     10       3.2382      1.00000
     11       3.3943      1.00000
     12       3.7350      1.00000
     13       3.9174      1.00000
     14       4.3344      1.00063
     15       4.4602      1.00792
     16       4.5895      1.03323
     17       6.4874     -0.00000
     18       6.6040     -0.00000
     19      11.0832      0.00000
     20      11.6622      0.00000

 k-point    30 :       0.5592    0.1184    0.5592
  band No.  band energies     occupation 
      1     -13.7008      1.00000
      2     -13.6635      1.00000
      3      -2.8391      1.00000
      4      -1.6993      1.00000
      5      -0.2425      1.00000
      6      -0.2358      1.00000
      7       0.9703      1.00000
      8       0.9709      1.00000
      9       1.9097      1.00000
     10       3.2376      1.00000
     11       3.3937      1.00000
     12       3.7323      1.00000
     13       3.9189      1.00000
     14       4.3399      1.00072
     15       4.4591      1.00777
     16       4.5886      1.03309
     17       6.4468     -0.00000
     18       6.6021     -0.00000
     19      11.1265      0.00000
     20      11.6801      0.00000

 k-point    31 :       0.5658    0.1316    0.5658
  band No.  band energies     occupation 
      1     -13.7047      1.00000
      2     -13.6721      1.00000
      3      -2.8127      1.00000
      4      -1.7027      1.00000
      5      -0.2385      1.00000
      6      -0.2331      1.00000
      7       0.9727      1.00000
      8       0.9733      1.00000
      9       1.9165      1.00000
     10       3.2370      1.00000
     11       3.3930      1.00000
     12       3.7293      1.00000
     13       3.9204      1.00000
     14       4.3455      1.00082
     15       4.4579      1.00762
     16       4.5880      1.03300
     17       6.4025     -0.00000
     18       6.5998     -0.00000
     19      11.1732      0.00000
     20      11.6996      0.00000

 k-point    32 :       0.5724    0.1447    0.5724
  band No.  band energies     occupation 
      1     -13.7085      1.00000
      2     -13.6830      1.00000
      3      -2.7832      1.00000
      4      -1.7078      1.00000
      5      -0.2341      1.00000
      6      -0.2302      1.00000
      7       0.9733      1.00000
      8       0.9740      1.00000
      9       1.9237      1.00000
     10       3.2362      1.00000
     11       3.3923      1.00000
     12       3.7259      1.00000
     13       3.9218      1.00000
     14       4.3501      1.00091
     15       4.4566      1.00746
     16       4.5879      1.03298
     17       6.3555     -0.00000
     18       6.5975     -0.00000
     19      11.2231      0.00000
     20      11.7194      0.00000

 k-point    33 :       0.5789    0.1579    0.5789
  band No.  band energies     occupation 
      1     -13.7130      1.00000
      2     -13.6950      1.00000
      3      -2.7522      1.00000
      4      -1.7126      1.00000
      5      -0.2294      1.00000
      6      -0.2275      1.00000
      7       0.9741      1.00000
      8       0.9749      1.00000
      9       1.9316      1.00000
     10       3.2353      1.00000
     11       3.3916      1.00000
     12       3.7221      1.00000
     13       3.9228      1.00000
     14       4.3540      1.00099
     15       4.4552      1.00729
     16       4.5883      1.03304
     17       6.3057     -0.00000
     18       6.5950     -0.00000
     19      11.2758      0.00000
     20      11.7395      0.00000

 k-point    34 :       0.5855    0.1711    0.5855
  band No.  band energies     occupation 
      1     -13.7177      1.00000
      2     -13.7078      1.00000
      3      -2.7193      1.00000
      4      -1.7167      1.00000
      5      -0.2244      1.00000
      6      -0.2242      1.00000
      7       0.9751      1.00000
      8       0.9760      1.00000
      9       1.9401      1.00000
     10       3.2343      1.00000
     11       3.3910      1.00000
     12       3.7179      1.00000
     13       3.9237      1.00000
     14       4.3569      1.00106
     15       4.4538      1.00712
     16       4.5893      1.03319
     17       6.2542     -0.00000
     18       6.5923     -0.00000
     19      11.3315      0.00000
     20      11.7596      0.00000

 k-point    35 :       0.5921    0.1842    0.5921
  band No.  band energies     occupation 
      1     -13.7244      1.00000
      2     -13.7205      1.00000
      3      -2.6845      1.00000
      4      -1.7202      1.00000
      5      -0.2220      1.00000
      6      -0.2204      1.00000
      7       0.9764      1.00000
      8       0.9774      1.00000
      9       1.9493      1.00000
     10       3.2332      1.00000
     11       3.3905      1.00000
     12       3.7132      1.00000
     13       3.9242      1.00000
     14       4.3586      1.00110
     15       4.4523      1.00695
     16       4.5909      1.03343
     17       6.2005     -0.00000
     18       6.5888     -0.00000
     19      11.3887      0.00000
     20      11.7789      0.00000

 k-point    36 :       0.5987    0.1974    0.5987
  band No.  band energies     occupation 
      1     -13.7377      1.00000
      2     -13.7276      1.00000
      3      -2.6481      1.00000
      4      -1.7226      1.00000
      5      -0.2203      1.00000
      6      -0.2150      1.00000
      7       0.9780      1.00000
      8       0.9792      1.00000
      9       1.9590      1.00000
     10       3.2320      1.00000
     11       3.3901      1.00000
     12       3.7082      1.00000
     13       3.9243      1.00000
     14       4.3589      1.00111
     15       4.4507      1.00677
[...]
      9       1.9664      1.00000
     10       3.2420      1.00000
     11       3.3936      1.00000
     12       3.7774      1.00000
     13       3.9138      1.00000
     14       4.3214      1.00046
     15       4.4642      1.00843
     16       4.5910      1.03346
     17       6.5645     -0.00000
     18       6.6177     -0.00000
     19      11.0135      0.00000
     20      11.6481      0.00000

 k-point   118 :       0.5000    0.0263    0.5263
  band No.  band energies     occupation 
      1     -13.6826      1.00000
      2     -13.6224      1.00000
      3      -2.9406      1.00000
      4      -1.6684      1.00000
      5      -0.2652      1.00000
      6      -0.2460      1.00000
      7       0.9141      1.00000
      8       0.9563      1.00000
      9       1.9216      1.00000
     10       3.2411      1.00000
     11       3.3958      1.00000
     12       3.7594      1.00000
     13       3.9118      1.00000
     14       4.3137      1.00038
     15       4.4646      1.00849
     16       4.5947      1.03397
     17       6.5912     -0.00000
     18       6.6381     -0.00000
     19      10.9563      0.00000
     20      11.6146      0.00000

 k-point   119 :       0.5000    0.0132    0.5132
  band No.  band energies     occupation 
      1     -13.6828      1.00000
      2     -13.6223      1.00000
      3      -2.9516      1.00000
      4      -1.6710      1.00000
      5      -0.2616      1.00000
      6      -0.2494      1.00000
      7       0.9547      1.00000
      8       0.9658      1.00000
      9       1.8917      1.00000
     10       3.2404      1.00000
     11       3.3970      1.00000
     12       3.7484      1.00000
     13       3.9107      1.00000
     14       4.3090      1.00034
     15       4.4649      1.00853
     16       4.5969      1.03424
     17       6.6069     -0.00000
     18       6.6503     -0.00000
     19      10.9213      0.00000
     20      11.5943      0.00000

 k-point   120 :       0.5000    0.0000    0.5000
  band No.  band energies     occupation 
      1     -13.6829      1.00000
      2     -13.6226      1.00000
      3      -2.9553      1.00000
      4      -1.6724      1.00000
      5      -0.2606      1.00000
      6      -0.2502      1.00000
      7       0.9686      1.00000
      8       0.9691      1.00000
      9       1.8812      1.00000
     10       3.2401      1.00000
     11       3.3974      1.00000
     12       3.7447      1.00000
     13       3.9103      1.00000
     14       4.3075      1.00032
     15       4.4649      1.00854
     16       4.5976      1.03432
     17       6.6122     -0.00000
     18       6.6544     -0.00000
     19      10.9096      0.00000
     20      11.5875      0.00000


--------------------------------------------------------------------------------------------------------


 soft charge-density along one line, spin component           1
         0         1         2         3         4         5         6         7         8         9
 total charge-density along one line
 
 soft charge-density along one line, spin component           2
         0         1         2         3         4         5         6         7         8         9
 total charge-density along one line
 
 pseudopotential strength for first ion, spin component:           1
 -5.473   0.000  -0.003   0.000   0.004   0.000  -0.003   0.000  -0.000   0.000  -0.670   0.000   0.001   0.000  -0.002   0.000
 -0.003   0.000  -5.473   0.000  -0.002   0.000  -0.003   0.000   0.003   0.000   0.001   0.000  -0.670   0.000   0.001   0.000
  0.004   0.000  -0.002   0.000  -5.572   0.000  -0.002   0.000   0.000   0.000  -0.002   0.000   0.001   0.000  -0.640   0.000
 -0.003   0.000  -0.003   0.000  -0.002   0.000  -5.473   0.000  -0.003   0.000   0.001   0.000   0.001   0.000   0.001   0.000
 -0.000   0.000   0.003   0.000   0.000   0.000  -0.003   0.000  -5.572   0.000   0.000   0.000  -0.001   0.000  -0.000   0.000
 -0.670   0.000   0.001   0.000  -0.002   0.000   0.001   0.000   0.000   0.000   1.582   0.000  -0.001   0.000   0.001   0.000
  0.001   0.000  -0.670   0.000   0.001   0.000   0.001   0.000  -0.001   0.000  -0.001   0.000   1.582   0.000  -0.000   0.000
 -0.002   0.000   0.001   0.000  -0.640   0.000   0.001   0.000  -0.000   0.000   0.001   0.000  -0.000   0.000   1.574   0.000
  0.001   0.000   0.001   0.000   0.001   0.000  -0.670   0.000   0.001   0.000  -0.001   0.000  -0.001   0.000  -0.000   0.000
  0.000   0.000  -0.001   0.000  -0.000   0.000   0.001   0.000  -0.640   0.000  -0.000   0.000   0.001   0.000   0.000   0.000
  0.001   0.000   0.001   0.000   0.000   0.000   0.001   0.000   0.000   0.000  -0.000   0.000  -0.000   0.000   0.000   0.000
 -0.000   0.000  -0.000   0.000  -0.000   0.000  -0.000   0.000  -0.000   0.000   0.000   0.000   0.000   0.000   0.000   0.000
 -0.000   0.000   0.000   0.000  -0.000   0.000  -0.000   0.000  -0.000   0.000   0.000   0.000   0.000   0.000   0.000   0.000
 -0.000   0.000   0.000   0.000   0.000   0.000  -0.000   0.000  -0.000   0.000  -0.000   0.000   0.000   0.000  -0.000   0.000
  0.000   0.000  -0.000   0.000   0.000   0.000   0.000   0.000  -0.000   0.000  -0.000   0.000  -0.000   0.000  -0.000   0.000
  0.000   0.000  -0.000   0.000  -0.000   0.000   0.000   0.000   0.000   0.000  -0.000   0.000   0.000   0.000   0.000   0.000
  0.000   0.000  -0.000   0.000  -0.000   0.000   0.000   0.000   0.000   0.000  -0.000   0.000   0.000   0.000   0.000   0.000
  0.000   0.000   0.000   0.000  -0.000   0.000   0.000   0.000   0.000   0.000   0.000   0.000  -0.000   0.000   0.000   0.000
 pseudopotential strength for first ion, spin component:           2
 -4.522   0.000  -0.002   0.000   0.001   0.000  -0.002   0.000   0.000   0.000  -1.095   0.000   0.001   0.000  -0.000   0.000
 -0.002   0.000  -4.522   0.000  -0.000   0.000  -0.002   0.000   0.001   0.000   0.001   0.000  -1.095   0.000   0.000   0.000
  0.001   0.000  -0.000   0.000  -4.231   0.000  -0.000   0.000   0.000   0.000  -0.000   0.000   0.000   0.000  -1.183   0.000
 -0.002   0.000  -0.002   0.000  -0.000   0.000  -4.522   0.000  -0.001   0.000   0.001   0.000   0.001   0.000   0.000   0.000
  0.000   0.000   0.001   0.000   0.000   0.000  -0.001   0.000  -4.231   0.000  -0.000   0.000  -0.000   0.000  -0.000   0.000
 -1.095   0.000   0.001   0.000  -0.000   0.000   0.001   0.000  -0.000   0.000   1.771   0.000  -0.000   0.000   0.000   0.000
  0.001   0.000  -1.095   0.000   0.000   0.000   0.001   0.000  -0.000   0.000  -0.000   0.000   1.771   0.000  -0.000   0.000
 -0.000   0.000   0.000   0.000  -1.183   0.000   0.000   0.000  -0.000   0.000   0.000   0.000  -0.000   0.000   1.793   0.000
  0.001   0.000   0.001   0.000   0.000   0.000  -1.095   0.000   0.000   0.000  -0.000   0.000  -0.000   0.000  -0.000   0.000
 -0.000   0.000  -0.000   0.000  -0.000   0.000   0.000   0.000  -1.183   0.000   0.000   0.000   0.000   0.000   0.000   0.000
  0.000   0.000   0.000   0.000   0.000   0.000   0.000   0.000   0.000   0.000  -0.000   0.000  -0.000   0.000   0.000   0.000
 -0.000   0.000  -0.000   0.000  -0.000   0.000  -0.000   0.000  -0.000   0.000   0.000   0.000   0.000   0.000   0.000   0.000
 -0.000   0.000   0.000   0.000   0.000   0.000  -0.000   0.000  -0.000   0.000   0.000   0.000  -0.000   0.000   0.000   0.000
 -0.000   0.000   0.000   0.000   0.000   0.000  -0.000   0.000   0.000   0.000  -0.000   0.000   0.000   0.000  -0.000   0.000
 -0.000   0.000  -0.000   0.000   0.000   0.000   0.000   0.000  -0.000   0.000  -0.000   0.000  -0.000   0.000  -0.000   0.000
  0.000   0.000   0.000   0.000  -0.000   0.000   0.000   0.000   0.000   0.000  -0.000   0.000   0.000   0.000   0.000   0.000
  0.000   0.000  -0.000   0.000  -0.000   0.000   0.000   0.000  -0.000   0.000  -0.000   0.000   0.000   0.000   0.000   0.000
  0.000   0.000   0.000   0.000  -0.000   0.000  -0.000   0.000   0.000   0.000  -0.000   0.000  -0.000   0.000   0.000   0.000
 total augmentation occupancy for first ion, spin component:           1
  1.800   0.000   0.000   0.000   0.000   0.000   0.000   0.000   0.000   0.000   0.000   0.000   0.000   0.000   0.000   0.000
  0.000   1.800   0.000   0.000   0.000   0.000   0.000   0.000   0.000   0.000   0.000   0.000   0.000   0.000   0.000   0.000
  0.000   0.000   1.800   0.000   0.000   0.000   0.000   0.000   0.000   0.000   0.000   0.000   0.000   0.000   0.000   0.000
  0.000   0.000   0.000   1.800   0.000   0.000   0.000   0.000   0.000   0.000   0.000   0.000   0.000   0.000   0.000   0.000
  0.000   0.000   0.000   0.000   1.800   0.000   0.000   0.000   0.000   0.000   0.000   0.000   0.000   0.000   0.000   0.000
  0.000   0.000   0.000   0.000   0.000   0.000   0.000   0.000   0.000   0.000   0.000   0.000   0.000   0.000   0.000   0.000
  0.000   0.000   0.000   0.000   0.000   0.000   0.000   0.000   0.000   0.000   0.000   0.000   0.000   0.000   0.000   0.000
  0.000   0.000   0.000   0.000   0.000   0.000   0.000   0.000   0.000   0.000   0.000   0.000   0.000   0.000   0.000   0.000
  0.000   0.000   0.000   0.000   0.000   0.000   0.000   0.000   0.000   0.000   0.000   0.000   0.000   0.000   0.000   0.000
  0.000   0.000   0.000   0.000   0.000   0.000   0.000   0.000   0.000   0.000   0.000   0.000   0.000   0.000   0.000   0.000
  0.000   0.000   0.000   0.000   0.000   0.000   0.000   0.000   0.000   0.000   1.000   0.000   0.000   0.000   0.000   0.000
  0.000   0.000   0.000   0.000   0.000   0.000   0.000   0.000   0.000   0.000   0.000   0.000   0.000   0.000   0.000   0.000
  0.000   0.000   0.000   0.000   0.000   0.000   0.000   0.000   0.000   0.000   0.000   0.000   0.000   0.000   0.000   0.000
  0.000   0.000   0.000   0.000   0.000   0.000   0.000   0.000   0.000   0.000   0.000   0.000   0.000   0.000   0.000   0.000
  0.000   0.000   0.000   0.000   0.000   0.000   0.000   0.000   0.000   0.000   0.000   0.000   0.000   0.000   0.000   0.000
  0.000   0.000   0.000   0.000   0.000   0.000   0.000   0.000   0.000   0.000   0.000   0.000   0.000   0.000   0.000   0.000
  0.000   0.000   0.000   0.000   0.000   0.000   0.000   0.000   0.000   0.000   0.000   0.000   0.000   0.000   0.000   0.000
  0.000   0.000   0.000   0.000   0.000   0.000   0.000   0.000   0.000   0.000   0.000   0.000   0.000   0.000   0.000   0.000
 total augmentation occupancy for first ion, spin component:           2
  0.360   0.000   0.000   0.000   0.000   0.000   0.000   0.000   0.000   0.000   0.000   0.000   0.000   0.000   0.000   0.000
  0.000   0.360   0.000   0.000   0.000   0.000   0.000   0.000   0.000   0.000   0.000   0.000   0.000   0.000   0.000   0.000
  0.000   0.000   0.360   0.000   0.000   0.000   0.000   0.000   0.000   0.000   0.000   0.000   0.000   0.000   0.000   0.000
  0.000   0.000   0.000   0.360   0.000   0.000   0.000   0.000   0.000   0.000   0.000   0.000   0.000   0.000   0.000   0.000
  0.000   0.000   0.000   0.000   0.360   0.000   0.000   0.000   0.000   0.000   0.000   0.000   0.000   0.000   0.000   0.000
  0.000   0.000   0.000   0.000   0.000   0.000   0.000   0.000   0.000   0.000   0.000   0.000   0.000   0.000   0.000   0.000
  0.000   0.000   0.000   0.000   0.000   0.000   0.000   0.000   0.000   0.000   0.000   0.000   0.000   0.000   0.000   0.000
  0.000   0.000   0.000   0.000   0.000   0.000   0.000   0.000   0.000   0.000   0.000   0.000   0.000   0.000   0.000   0.000
  0.000   0.000   0.000   0.000   0.000   0.000   0.000   0.000   0.000   0.000   0.000   0.000   0.000   0.000   0.000   0.000
  0.000   0.000   0.000   0.000   0.000   0.000   0.000   0.000   0.000   0.000   0.000   0.000   0.000   0.000   0.000   0.000
  0.000   0.000   0.000   0.000   0.000   0.000   0.000   0.000   0.000   0.000   0.200   0.000   0.000   0.000   0.000   0.000
  0.000   0.000   0.000   0.000   0.000   0.000   0.000   0.000   0.000   0.000   0.000   0.000   0.000   0.000   0.000   0.000
  0.000   0.000   0.000   0.000   0.000   0.000   0.000   0.000   0.000   0.000   0.000   0.000   0.000   0.000   0.000   0.000
  0.000   0.000   0.000   0.000   0.000   0.000   0.000   0.000   0.000   0.000   0.000   0.000   0.000   0.000   0.000   0.000
  0.000   0.000   0.000   0.000   0.000   0.000   0.000   0.000   0.000   0.000   0.000   0.000   0.000   0.000   0.000   0.000
  0.000   0.000   0.000   0.000   0.000   0.000   0.000   0.000   0.000   0.000   0.000   0.000   0.000   0.000   0.000   0.000
  0.000   0.000   0.000   0.000   0.000   0.000   0.000   0.000   0.000   0.000   0.000   0.000   0.000   0.000   0.000   0.000
  0.000   0.000   0.000   0.000   0.000   0.000   0.000   0.000   0.000   0.000   0.000   0.000   0.000   0.000   0.000   0.000


------------------------ aborting loop because EDIFF is reached ----------------------------------------


 


 total charge     
 
# of ion       s       p       d       tot
------------------------------------------
    1        0.337   0.332   8.385   9.055
    2        0.337   0.332   8.385   9.055
    3        1.560   3.454   0.000   5.014
    4        1.560   3.454   0.000   5.014
--------------------------------------------------
tot          3.795   7.573  16.770  28.137
 


 magnetization (x)
 
# of ion       s       p       d       tot
------------------------------------------
    1       -0.001  -0.011   1.022   1.011
    2        0.001   0.011  -1.022  -1.011
    3       -0.000  -0.000   0.000  -0.000
    4       -0.000   0.000   0.000   0.000
--------------------------------------------------
tot         -0.000   0.000  -0.000  -0.000
 
    CHARGE:  cpu time    1.4534: real time    2.3633
    FORLOC:  cpu time    0.0157: real time    0.0287
    FORNL :  cpu time    1.3950: real time    1.6450
    STRESS:  cpu time    1.6241: real time    2.0397
    FORCOR:  cpu time    0.8514: real time    0.8945
    FORHAR:  cpu time    0.0384: real time    0.0385
    OFIELD:  cpu time    0.0013: real time    0.0013

  FORCE on cell =-STRESS in cart. coord.  units (eV):
  Direction    XX          YY          ZZ          XY          YZ          ZX
  --------------------------------------------------------------------------------------
  Alpha Z   217.71629   217.71629   217.71629
  Ewald    -868.25805  -868.25805  -868.25805     0.00000    -0.00000    -0.00000
  Hartree   215.84458   215.84458   215.84458    -0.01986    -0.01986    -0.01986
  E(xc)    -170.88256  -170.88256  -170.88256    -0.02194    -0.02194    -0.02194
  Local     187.50422   187.50422   187.50422     0.20095     0.20095     0.20095
  n-local  -117.04195  -113.23440  -116.23563     0.36841     0.16234    -0.24143
  augment   119.26157   119.26157   119.26157     0.11130     0.11130     0.11130
  Kinetic   420.44447   414.25813   420.17346    -0.25594    -0.36294    -0.54376
  Fock        0.00000     0.00000     0.00000     0.00000     0.00000     0.00000
  -------------------------------------------------------------------------------------
  Total       3.97409     3.97409     3.97409    -0.02048    -0.02048    -0.02048
  in kB     175.61832   175.61832   175.61832    -0.90524    -0.90524    -0.90524
  external pressure =      175.62 kB  Pullay stress =        0.00 kB


 VOLUME and BASIS-vectors are now :
 -----------------------------------------------------------------------------
  energy-cutoff  :      400.00
  volume of cell :       36.26
      direct lattice vectors                 reciprocal lattice vectors
     4.170000000  2.085000000  2.085000000     0.359712230 -0.119904077 -0.119904077
     2.085000000  4.170000000  2.085000000    -0.119904077  0.359712230 -0.119904077
     2.085000000  2.085000000  4.170000000    -0.119904077 -0.119904077  0.359712230

  length of vectors
     5.107186114  5.107186114  5.107186114     0.397676833  0.397676833  0.397676833


 FORCES acting on ions
    electron-ion (+dipol)            ewald-force                    non-local-force                 convergence-correction
 -----------------------------------------------------------------------------------------------
   -.120E-12 -.112E-12 -.755E-13   0.000E+00 -.284E-13 -.568E-13   0.000E+00 0.000E+00 0.000E+00   0.228E-12 0.257E-12 0.244E-12
   0.730E-12 0.207E-11 0.214E-11   0.568E-13 0.284E-13 0.000E+00   0.106E-21 -.222E-20 -.847E-21   -.688E-12 -.714E-12 -.683E-12
   -.472E-12 0.636E-12 0.635E-12   -.426E-13 -.131E-13 0.169E-13   0.106E-21 -.318E-21 0.318E-21   -.103E-12 -.113E-12 -.127E-12
   0.243E-11 -.941E-12 -.934E-12   -.152E-13 0.134E-13 0.426E-13   -.529E-22 -.424E-21 0.000E+00   0.772E-13 0.872E-13 0.102E-12
 -----------------------------------------------------------------------------------------------
   0.257E-11 0.165E-11 0.177E-11   -.869E-15 0.280E-15 0.262E-14   0.159E-21 -.296E-20 -.529E-21   -.486E-12 -.482E-12 -.463E-12
 
 
 POSITION                                       TOTAL-FORCE (eV/Angst)
 -----------------------------------------------------------------------------------
      0.00000      0.00000      0.00000        -0.000000      0.000000     -0.000000
      4.17000      4.17000      4.17000        -0.000000     -0.000000     -0.000000
      2.08500      2.08500      2.08500         0.000000      0.000000     -0.000000
      6.25500      6.25500      6.25500        -0.000000     -0.000000      0.000000
 -----------------------------------------------------------------------------------
    total drift:                                0.000000      0.000000      0.000000


--------------------------------------------------------------------------------------------------------



  FREE ENERGIE OF THE ION-ELECTRON SYSTEM (eV)
  ---------------------------------------------------
  free  energy   TOTEN  =       -22.29654984 eV

  energy  without entropy=      -22.31662188  energy(sigma->0) =      -22.30324052
 


--------------------------------------------------------------------------------------------------------


    POTLOK:  cpu time    0.8899: real time    1.0183


--------------------------------------------------------------------------------------------------------


     LOOP+:  cpu time   89.0781: real time  134.9719
    4ORBIT:  cpu time    0.0000: real time    0.0000
 


 total charge     
 
# of ion       s       p       d       tot
------------------------------------------
    1        0.337   0.332   8.385   9.055
    2        0.337   0.332   8.385   9.055
    3        1.560   3.454   0.000   5.014
    4        1.560   3.454   0.000   5.014
--------------------------------------------------
tot          3.795   7.573  16.770  28.137
 


 magnetization (x)
 
# of ion       s       p       d       tot
------------------------------------------
    1       -0.001  -0.011   1.022   1.011
    2        0.001   0.011  -1.022  -1.011
    3       -0.000  -0.000   0.000  -0.000
    4       -0.000   0.000   0.000   0.000
--------------------------------------------------
tot         -0.000   0.000  -0.000  -0.000
 

 total amount of memory used by VASP MPI-rank0   147841. kBytes
=======================================================================

   base      :      30000. kBytes
   nonl-proj :      23336. kBytes
   fftplans  :      11932. kBytes
   grid      :      26693. kBytes
   one-center:        124. kBytes
   wavefun   :      55756. kBytes
 
  
  
 General timing and accounting informations for this job:
 ========================================================
  
                  Total CPU time used (sec):       91.453
                            User time (sec):       90.321
                          System time (sec):        1.133
                         Elapsed time (sec):      139.485
  
                   Maximum memory used (kb):      199800.
                   Average memory used (kb):           0.
  
                          Minor page faults:        45254
                          Major page faults:            0
                 Voluntary context switches:          327
