W bcc                                   
   3.16520000000000     
    -0.500000    0.500000    0.500000
     0.500000   -0.500000    0.500000
     0.500000    0.500000   -0.500000
   W 
     1
Direct
  0.000000  0.000000  0.000000
 
   20   20   20
  13.816      13.205      11.967      11.138      10.949      10.669      9.6522      8.1489      6.8980      6.2182    
  6.0056      6.2182      6.8980      8.1489      9.6522      10.669      10.949      11.138      11.967      13.205    
  13.205      12.958      11.861      10.886      10.571      10.444      9.7428      8.4142      7.1007      6.2885    
  5.9454      6.0123      6.5035      7.5056      8.9206      10.120      10.620      10.757      11.301      12.386    
  11.967      11.861      10.934      9.9215      9.4775      9.4251      9.0754      8.1331      7.0002      6.1848    
  5.7716      5.7220      6.0308      6.7426      7.8846      9.1049      9.8814      10.194      10.565      11.301    
  11.138      10.886      9.9215      8.7921      8.1389      8.0137      7.8987      7.3778      6.5827      5.9057    
  5.5062      5.3966      5.5629      6.0435      6.8655      7.9497      8.9542      9.6552      10.194      10.757    
  10.949      10.571      9.4775      8.1389      7.1741      6.7972      6.6903      6.4377      5.9689      5.5004    
  5.1857      5.0771      5.1610      5.4666      6.0373      6.8808      7.9161      8.9542      9.8814      10.620    
  10.669      10.444      9.4251      8.0137      6.7972      6.1057      5.8201      5.6189      5.3424      5.0560    
  4.8562      4.7923      4.8497      5.0388      5.4217      6.0296      6.8808      7.9497      9.1049      10.120    
  9.6522      9.7428      9.0754      7.8987      6.6903      5.8201      5.3342      5.0554      4.8365      4.6597    
  4.5607      4.5556      4.6227      4.7566      5.0020      5.4217      6.0373      6.8655      7.8846      8.9206    
  8.1489      8.4142      8.1331      7.3778      6.4377      5.6189      5.0554      4.7063      4.4887      4.3641    
  4.3276      4.3670      4.4555      4.5783      4.7566      5.0388      5.4666      6.0435      6.7426      7.5056    
  6.8980      7.1007      7.0002      6.5827      5.9689      5.3424      4.8365      4.4887      4.2791      4.1791    
  4.1670      4.2227      4.3240      4.4555      4.6227      4.8497      5.1610      5.5629      6.0308      6.5035    
  6.2182      6.2885      6.1848      5.9057      5.5004      5.0560      4.6597      4.3641      4.1791      4.0894    
  4.0755      4.1233      4.2227      4.3670      4.5556      4.7923      5.0771      5.3966      5.7220      6.0123    
  6.0056      5.9454      5.7716      5.5062      5.1857      4.8562      4.5607      4.3276      4.1670      4.0755    
  4.0461      4.0755      4.1670      4.3276      4.5607      4.8562      5.1857      5.5062      5.7716      5.9454    
  6.2182      6.0123      5.7220      5.3966      5.0771      4.7923      4.5556      4.3670      4.2227      4.1233    
  4.0755      4.0894      4.1791      4.3641      4.6597      5.0560      5.5004      5.9057      6.1848      6.2885    
  6.8980      6.5035      6.0308      5.5629      5.1610      4.8497      4.6227      4.4555      4.3240      4.2227    
  4.1670      4.1791      4.2791      4.4887      4.8365      5.3424      5.9689      6.5827      7.0002      7.1007    
  8.1489      7.5056      6.7426      6.0435      5.4666      5.0388      4.7566      4.5783      4.4555      4.3670    
  4.3276      4.3641      4.4887      4.7063      5.0554      5.6189      6.4377      7.3778      8.1331      8.4142    
  9.6522      8.9206      7.8846      6.8655      6.0373      5.4217      5.0020      4.7566      4.6227      4.5556    
  4.5607      4.6597      4.8365      5.0554      5.3342      5.8201      6.6903      7.8987      9.0754      9.7428    
  10.669      10.120      9.1049      7.9497      6.8808      6.0296      5.4217      5.0388      4.8497      4.7923    
  4.8562      5.0560      5.3424      5.6189      5.8201      6.1057      6.7972      8.0137      9.4251      10.444    
  10.949      10.620      9.8814      8.9542      7.9161      6.8808      6.0373      5.4666      5.1610      5.0771    
  5.1857      5.5004      5.9689      6.4377      6.6903      6.7972      7.1741      8.1389      9.4775      10.571    
  11.138      10.757      10.194      9.6552      8.9542      7.9497      6.8655      6.0435      5.5629      5.3966    
  5.5062      5.9057      6.5827      7.3778      7.8987      8.0137      8.1389      8.7921      9.9215      10.886    
  11.967      11.301      10.565      10.194      9.8814      9.1049      7.8846      6.7426      6.0308      5.7220    
  5.7716      6.1848      7.0002      8.1331      9.0754      9.4251      9.4775      9.9215      10.934      11.861    
  13.205      12.386      11.301      10.757      10.620      10.120      8.9206      7.5056      6.5035      6.0123    
  5.9454      6.2885      7.1007      8.4142      9.7428      10.444      10.571      10.886      11.861      12.958    
  13.205      12.958      11.861      10.886      10.571      10.444      9.7428      8.4142      7.1007      6.2885    
  5.9454      6.0123      6.5035      7.5056      8.9206      10.120      10.620      10.757      11.301      12.386    
  12.958      13.164      12.323      11.243      10.722      10.607      10.119      8.9222      7.5086      6.5068    
  6.0134      5.9434      6.2861      7.1006      8.4166      9.7490      10.460      10.604      10.930      11.895    
  11.861      12.323      11.825      10.845      10.192      10.022      9.7398      8.8493      7.5835      6.5405    
  5.9555      5.7701      5.9547      6.5393      7.5816      8.8477      9.7447      10.043      10.233      10.896    
  10.886      11.243      10.845      9.9195      9.1463      8.8592      8.7061      8.1735      7.2440      6.3452    
  5.7672      5.5214      5.5828      5.9666      6.7041      7.7588      8.7676      9.3814      9.7276      10.214    
  10.571      10.722      10.192      9.1463      8.1557      7.6346      7.4474      7.1605      6.5898      5.9457    
  5.4699      5.2315      5.2263      5.4542      5.9588      6.7466      7.7234      8.6376      9.3750      10.023    
  10.444      10.607      10.022      8.8592      7.6346      6.8106      6.4282      6.1875      5.8475      5.4430    
  5.1129      4.9360      4.9195      5.0519      5.3812      5.9431      6.7406      7.7232      8.7633      9.7332    
  9.7428      10.119      9.7398      8.7061      7.4474      6.4282      5.8223      5.4865      5.2172      4.9599    
  4.7597      4.6655      4.6747      4.7684      4.9754      5.3589      5.9441      6.7473      7.7568      8.8423    
  8.4142      8.9222      8.8493      8.1735      7.1605      6.1875      5.4865      5.0523      4.7721      4.5778    
  4.4642      4.4396      4.4859      4.5785      4.7259      4.9761      5.3820      5.9586      6.7019      7.5781    
  7.1007      7.5086      7.5835      7.2440      6.5898      5.8475      5.2172      4.7721      4.4873      4.3217    
  4.2535      4.2668      4.3382      4.4435      4.5788      4.7688      5.0516      5.4528      5.9643      6.5374    
  6.2885      6.5068      6.5405      6.3452      5.9457      5.4430      4.9599      4.5778      4.3217      4.1795    
  4.1282      4.1486      4.2237      4.3382      4.4858      4.6744      4.9187      5.2253      5.5824      5.9556    
  5.9454      6.0134      5.9555      5.7672      5.4699      5.1129      4.7597      4.4642      4.2535      4.1282    
  4.0758      4.0845      4.1484      4.2666      4.4394      4.6653      4.9361      5.2322      5.5229      5.7721    
  6.0123      5.9434      5.7701      5.5214      5.2315      4.9360      4.6655      4.4396      4.2668      4.1486    
  4.0845      4.0756      4.1279      4.2535      4.4647      4.7609      5.1145      5.4715      5.7683      5.9556    
  6.5035      6.2861      5.9547      5.5828      5.2263      4.9195      4.6747      4.4859      4.3382      4.2237    
  4.1484      4.1279      4.1796      4.3229      4.5801      4.9626      5.4449      5.9459      6.3434      6.5374    
  7.5056      7.1006      6.5393      5.9666      5.4542      5.0519      4.7684      4.5785      4.4435      4.3382    
  4.2666      4.2535      4.3229      4.4902      4.7758      5.2198      5.8470      6.5859      7.2381      7.5781    
  8.9206      8.4166      7.5816      6.7041      5.9588      5.3812      4.9754      4.7259      4.5788      4.4858    
  4.4394      4.4647      4.5801      4.7758      5.0551      5.4855      6.1811      7.1500      8.1628      8.8423    
  10.120      9.7490      8.8477      7.7588      6.7466      5.9431      5.3589      4.9761      4.7688      4.6744    
  4.6653      4.7609      4.9626      5.2198      5.4855      5.8147      6.4135      7.4295      8.6914      9.7332    
  10.620      10.460      9.7447      8.7676      7.7234      6.7406      5.9441      5.3820      5.0516      4.9187    
  4.9361      5.1145      5.4449      5.8470      6.1811      6.4135      6.7892      7.6130      8.8463      10.023    
  10.757      10.604      10.043      9.3814      8.6376      7.7232      6.7473      5.9586      5.4528      5.2253    
  5.2322      5.4715      5.9459      6.5859      7.1500      7.4295      7.6130      8.1400      9.1476      10.214    
  11.301      10.930      10.233      9.7276      9.3750      8.7633      7.7568      6.7019      5.9643      5.5824    
  5.5229      5.7683      6.3434      7.2381      8.1628      8.6914      8.8463      9.1476      9.9462      10.896    
  12.386      11.895      10.896      10.214      10.023      9.7332      8.8423      7.5781      6.5374      5.9556    
  5.7721      5.9556      6.5374      7.5781      8.8423      9.7332      10.023      10.214      10.896      11.895    
  11.967      11.861      10.934      9.9215      9.4775      9.4251      9.0754      8.1331      7.0002      6.1848    
  5.7716      5.7220      6.0308      6.7426      7.8846      9.1049      9.8814      10.194      10.565      11.301    
  11.861      12.323      11.825      10.845      10.192      10.022      9.7398      8.8493      7.5835      6.5405    
  5.9555      5.7701      5.9547      6.5393      7.5816      8.8477      9.7447      10.043      10.233      10.896    
  10.934      11.825      11.906      11.241      10.526      10.183      9.8861      9.1128      7.8895      6.7449    
  6.0318      5.7221      5.7712      6.1844      7.0003      8.1348      9.0829      9.4438      9.5061      9.9462    
  9.9215      10.845      11.241      10.883      10.216      9.7351      9.3923      8.7772      7.7636      6.7044    
  5.9651      5.5824      5.5225      5.7683      6.3441      7.2399      8.1678      8.7014      8.8575      9.1476    
  9.4775      10.192      10.526      10.216      9.5146      8.8821      8.4490      7.9625      7.2263      6.3952    
  5.7475      5.3653      5.2476      5.3656      5.7481      6.3951      7.2225      7.9503      8.4242      8.8463    
  9.4251      10.022      10.183      9.7351      8.8821      8.0441      7.4525      6.9964      6.4783      5.9012    
  5.4142      5.0986      4.9789      5.0262      5.2593      5.7149      6.3745      7.1645      7.9474      8.6914    
  9.0754      9.7398      9.8861      9.3923      8.4490      7.4525      6.6942      6.1805      5.7622      5.3672    
  5.0362      4.8199      4.7397      4.7678      4.9065      5.2073      5.6978      6.3742      7.2207      8.1628    
  8.1331      8.8493      9.1128      8.7772      7.9625      6.9964      6.1805      5.6097      5.2121      4.9107    
  4.6896      4.5669      4.5414      4.5830      4.6808      4.8702      5.2071      5.7145      6.3942      7.2381    
  7.0002      7.5835      7.8895      7.7636      7.2263      6.4783      5.7622      5.2121      4.8318      4.5777    
  4.4245      4.3661      4.3841      4.4486      4.5422      4.6806      4.9062      5.2590      5.7476      6.3434    
  6.1848      6.5405      6.7449      6.7044      6.3952      5.9012      5.3672      4.9107      4.5777      4.3648    
  4.2543      4.2276      4.2648      4.3437      4.4486      4.5829      4.7678      5.0262      5.3657      5.7683    
  5.7716      5.9555      6.0318      5.9651      5.7475      5.4142      5.0362      4.6896      4.4245      4.2543    
  4.1680      4.1490      4.1843      4.2646      4.3840      4.5415      4.7401      4.9793      5.2480      5.5229    
  5.7220      5.7701      5.7221      5.5824      5.3653      5.0986      4.8199      4.5669      4.3661      4.2276    
  4.1490      4.1237      4.1486      4.2271      4.3660      4.5674      4.8207      5.0993      5.3657      5.5824    
  6.0308      5.9547      5.7712      5.5225      5.2476      4.9789      4.7397      4.5414      4.3841      4.2648    
  4.1843      4.1486      4.1674      4.2541      4.4252      4.6912      5.0381      5.4155      5.7476      5.9643    
  6.7426      6.5393      6.1844      5.7683      5.3656      5.0262      4.7678      4.5830      4.4486      4.3437    
  4.2646      4.2271      4.2541      4.3656      4.5803      4.9146      5.3708      5.9028      6.3942      6.7019    
  7.8846      7.5816      7.0003      6.3441      5.7481      5.2593      4.9065      4.6808      4.5422      4.4486    
  4.3840      4.3660      4.4252      4.5803      4.8368      5.2179      5.7657      6.4770      7.2207      7.7568    
  9.1049      8.8477      8.1348      7.2399      6.3951      5.7149      5.2073      4.8702      4.6806      4.5829    
  4.5415      4.5674      4.6912      4.9146      5.2179      5.6140      6.1786      6.9864      7.9474      8.7633    
  9.8814      9.7447      9.0829      8.1678      7.2225      6.3745      5.6978      5.2071      4.9062      4.7678    
  4.7401      4.8207      5.0381      5.3708      5.7657      6.1786      6.6819      7.4302      8.4242      9.3750    
  10.194      10.043      9.4438      8.7014      7.9503      7.1645      6.3742      5.7145      5.2590      5.0262    
  4.9793      5.0993      5.4155      5.9028      6.4770      6.9864      7.4302      8.0143      8.8575      9.7276    
  10.565      10.233      9.5061      8.8575      8.4242      7.9474      7.2207      6.3942      5.7476      5.3657    
  5.2480      5.3657      5.7476      6.3942      7.2207      7.9474      8.4242      8.8575      9.5061      10.233    
  11.301      10.896      9.9462      9.1476      8.8463      8.6914      8.1628      7.2381      6.3434      5.7683    
  5.5229      5.5824      5.9643      6.7019      7.7568      8.7633      9.3750      9.7276      10.233      10.930    
  11.138      10.886      9.9215      8.7921      8.1389      8.0137      7.8987      7.3778      6.5827      5.9057    
  5.5062      5.3966      5.5629      6.0435      6.8655      7.9497      8.9542      9.6552      10.194      10.757    
  10.886      11.243      10.845      9.9195      9.1463      8.8592      8.7061      8.1735      7.2440      6.3452    
  5.7672      5.5214      5.5828      5.9666      6.7041      7.7588      8.7676      9.3814      9.7276      10.214    
  9.9215      10.845      11.241      10.883      10.216      9.7351      9.3923      8.7772      7.7636      6.7044    
  5.9651      5.5824      5.5225      5.7683      6.3441      7.2399      8.1678      8.7014      8.8575      9.1476    
  8.7921      9.9195      10.883      11.140      10.766      10.210      9.6720      8.9656      7.9533      6.8642    
  6.0418      5.5631      5.3979      5.5063      5.9040      6.5800      7.3755      7.8978      8.0143      8.1400    
  8.1389      9.1463      10.216      10.766      10.622      10.065      9.3993      8.6457      7.7225      6.7434    
  5.9565      5.4532      5.2260      5.2315      5.4698      5.9446      6.5857      7.1506      7.4302      7.6130    
  8.0137      8.8592      9.7351      10.210      10.065      9.4644      8.7128      7.9502      7.1577      6.3678    
  5.7121      5.2591      5.0261      4.9782      5.0984      5.4157      5.9037      6.4778      6.9864      7.4295    
  7.8987      8.7061      9.3923      9.6720      9.3993      8.7128      7.8979      7.1415      6.4666      5.8617    
  5.3659      5.0105      4.8201      4.7659      4.8205      5.0114      5.3689      5.8687      6.4770      7.1500    
  7.3778      8.1735      8.7772      8.9656      8.6457      7.9502      7.1415      6.4189      5.8339      5.3650    
  5.0023      4.7529      4.6289      4.6001      4.6345      4.7449      4.9797      5.3679      5.9028      6.5859    
  6.5827      7.2440      7.7636      7.9533      7.7225      7.1577      6.4666      5.8339      5.3334      4.9592    
  4.6912      4.5300      4.4682      4.4744      4.5168      4.5949      4.7441      5.0104      5.4155      5.9459    
  5.9057      6.3452      6.7044      6.8642      6.7434      6.3678      5.8617      5.3650      4.9592      4.6612    
  4.4666      4.3670      4.3461      4.3780      4.4371      4.5164      4.6339      4.8204      5.0993      5.4715    
  5.5062      5.7672      5.9651      6.0418      5.9565      5.7121      5.3659      5.0023      4.6912      4.4666    
  4.3299      4.2678      4.2649      4.3060      4.3778      4.4741      4.6002      4.7666      4.9793      5.2322    
  5.3966      5.5214      5.5824      5.5631      5.4532      5.2591      5.0105      4.7529      4.5300      4.3670    
  4.2678      4.2233      4.2237      4.2646      4.3457      4.4679      4.6289      4.8204      5.0262      5.2253    
  5.5629      5.5828      5.5225      5.3979      5.2260      5.0261      4.8201      4.6289      4.4682      4.3461    
  4.2649      4.2237      4.2228      4.2668      4.3658      4.5289      4.7524      5.0104      5.2590      5.4528    
  6.0435      5.9666      5.7683      5.5063      5.2315      4.9782      4.7659      4.6001      4.4744      4.3780    
  4.3060      4.2646      4.2668      4.3282      4.4647      4.6902      5.0029      5.3679      5.7145      5.9586    
  6.8655      6.7041      6.3441      5.9040      5.4698      5.0984      4.8205      4.6345      4.5168      4.4371    
  4.3778      4.3457      4.3658      4.4647      4.6600      4.9608      5.3701      5.8687      6.3742      6.7473    
  7.9497      7.7588      7.2399      6.5800      5.9446      5.4157      5.0114      4.7449      4.5949      4.5164    
  4.4741      4.4679      4.5289      4.6902      4.9608      5.3400      5.8448      6.4778      7.1645      7.7232    
  8.9542      8.7676      8.1678      7.3755      6.5857      5.9037      5.3689      4.9797      4.7441      4.6339    
  4.6002      4.6289      4.7524      5.0029      5.3701      5.8448      6.4322      7.1506      7.9503      8.6376    
  9.6552      9.3814      8.7014      7.8978      7.1506      6.4778      5.8687      5.3679      5.0104      4.8204    
  4.7666      4.8204      5.0104      5.3679      5.8687      6.4778      7.1506      7.8978      8.7014      9.3814    
  10.194      9.7276      8.8575      8.0143      7.4302      6.9864      6.4770      5.9028      5.4155      5.0993    
  4.9793      5.0262      5.2590      5.7145      6.3742      7.1645      7.9503      8.7014      9.4438      10.043    
  10.757      10.214      9.1476      8.1400      7.6130      7.4295      7.1500      6.5859      5.9459      5.4715    
  5.2322      5.2253      5.4528      5.9586      6.7473      7.7232      8.6376      9.3814      10.043      10.604    
  10.949      10.571      9.4775      8.1389      7.1741      6.7972      6.6903      6.4377      5.9689      5.5004    
  5.1857      5.0771      5.1610      5.4666      6.0373      6.8808      7.9161      8.9542      9.8814      10.620    
  10.571      10.722      10.192      9.1463      8.1557      7.6346      7.4474      7.1605      6.5898      5.9457    
  5.4699      5.2315      5.2263      5.4542      5.9588      6.7466      7.7234      8.6376      9.3750      10.023    
  9.4775      10.192      10.526      10.216      9.5146      8.8821      8.4490      7.9625      7.2263      6.3952    
  5.7475      5.3653      5.2476      5.3656      5.7481      6.3951      7.2225      7.9503      8.4242      8.8463    
  8.1389      9.1463      10.216      10.766      10.622      10.065      9.3993      8.6457      7.7225      6.7434    
  5.9565      5.4532      5.2260      5.2315      5.4698      5.9446      6.5857      7.1506      7.4302      7.6130    
  7.1741      8.1557      9.5146      10.622      10.998      10.654      9.8939      8.9507      7.9065      6.8727    
  6.0329      5.4650      5.1605      5.0770      5.1856      5.4995      5.9663      6.4322      6.6819      6.7892    
  6.7972      7.6346      8.8821      10.065      10.654      10.475      9.7385      8.7498      7.7052      6.7288    
  5.9389      5.3805      5.0514      4.9188      4.9361      5.1140      5.4436      5.8448      6.1786      6.4135    
  6.6903      7.4474      8.4490      9.3993      9.8939      9.7385      9.0610      8.1409      7.2013      6.3633    
  5.6944      5.2071      4.9068      4.7682      4.7403      4.8205      5.0375      5.3701      5.7657      6.1811    
  6.4377      7.1605      7.9625      8.6457      8.9507      8.7498      8.1409      7.3498      6.5693      5.8979    
  5.3694      4.9819      4.7457      4.6347      4.6006      4.6290      4.7522      5.0029      5.3708      5.8470    
  5.9689      6.5898      7.2263      7.7225      7.9065      7.7052      7.2013      6.5693      5.9592      5.4446    
  5.0418      4.7559      4.5927      4.5241      4.5077      4.5233      4.5907      4.7524      5.0381      5.4449    
  5.5004      5.9457      6.3952      6.7434      6.8727      6.7288      6.3633      5.8979      5.4446      5.0612    
  4.7659      4.5701      4.4689      4.4383      4.4459      4.4719      4.5232      4.6289      4.8207      5.1145    
  5.1857      5.4699      5.7475      5.9565      6.0329      5.9389      5.6944      5.3694      5.0418      4.7659    
  4.5654      4.4415      4.3843      4.3776      4.4025      4.4457      4.5073      4.6002      4.7401      4.9361    
  5.0771      5.2315      5.3653      5.4532      5.4650      5.3805      5.2071      4.9819      4.7559      4.5701    
  4.4415      4.3676      4.3379      4.3431      4.3774      4.4377      4.5232      4.6339      4.7678      4.9187    
  5.1610      5.2263      5.2476      5.2260      5.1605      5.0514      4.9068      4.7457      4.5927      4.4689    
  4.3843      4.3379      4.3234      4.3377      4.3835      4.4673      4.5907      4.7441      4.9062      5.0516    
  5.4666      5.4542      5.3656      5.2315      5.0770      4.9188      4.7682      4.6347      4.5241      4.4383    
  4.3776      4.3431      4.3377      4.3666      4.4391      4.5664      4.7522      4.9797      5.2071      5.3820    
  6.0373      5.9588      5.7481      5.4698      5.1856      4.9361      4.7403      4.6006      4.5077      4.4459    
  4.4025      4.3774      4.3835      4.4391      4.5608      4.7601      5.0375      5.3689      5.6978      5.9441    
  6.8808      6.7466      6.3951      5.9446      5.4995      5.1140      4.8205      4.6290      4.5233      4.4719    
  4.4457      4.4377      4.4673      4.5664      4.7601      5.0559      5.4436      5.9037      6.3745      6.7406    
  7.9161      7.7234      7.2225      6.5857      5.9663      5.4436      5.0375      4.7522      4.5907      4.5232    
  4.5073      4.5232      4.5907      4.7522      5.0375      5.4436      5.9663      6.5857      7.2225      7.7234    
  8.9542      8.6376      7.9503      7.1506      6.4322      5.8448      5.3701      5.0029      4.7524      4.6289    
  4.6002      4.6339      4.7441      4.9797      5.3689      5.9037      6.5857      7.3755      8.1678      8.7676    
  9.8814      9.3750      8.4242      7.4302      6.6819      6.1786      5.7657      5.3708      5.0381      4.8207    
  4.7401      4.7678      4.9062      5.2071      5.6978      6.3745      7.2225      8.1678      9.0829      9.7447    
  10.620      10.023      8.8463      7.6130      6.7892      6.4135      6.1811      5.8470      5.4449      5.1145    
  4.9361      4.9187      5.0516      5.3820      5.9441      6.7406      7.7234      8.7676      9.7447      10.460    
  10.669      10.444      9.4251      8.0137      6.7972      6.1057      5.8201      5.6189      5.3424      5.0560    
  4.8562      4.7923      4.8497      5.0388      5.4217      6.0296      6.8808      7.9497      9.1049      10.120    
  10.444      10.607      10.022      8.8592      7.6346      6.8106      6.4282      6.1875      5.8475      5.4430    
  5.1129      4.9360      4.9195      5.0519      5.3812      5.9431      6.7406      7.7232      8.7633      9.7332    
  9.4251      10.022      10.183      9.7351      8.8821      8.0441      7.4525      6.9964      6.4783      5.9012    
  5.4142      5.0986      4.9789      5.0262      5.2593      5.7149      6.3745      7.1645      7.9474      8.6914    
  8.0137      8.8592      9.7351      10.210      10.065      9.4644      8.7128      7.9502      7.1577      6.3678    
  5.7121      5.2591      5.0261      4.9782      5.0984      5.4157      5.9037      6.4778      6.9864      7.4295    
  6.7972      7.6346      8.8821      10.065      10.654      10.475      9.7385      8.7498      7.7052      6.7288    
  5.9389      5.3805      5.0514      4.9188      4.9361      5.1140      5.4436      5.8448      6.1786      6.4135    
  6.1057      6.8106      8.0441      9.4644      10.475      10.676      10.101      9.0736      7.9230      6.8672    
  6.0263      5.4219      5.0387      4.8496      4.7931      4.8572      5.0559      5.3400      5.6140      5.8147    
  5.8201      6.4282      7.4525      8.7128      9.7385      10.101      9.7116      8.8088      7.7334      6.7379    
  5.9442      5.3617      4.9774      4.7696      4.6755      4.6659      4.7601      4.9608      5.2179      5.4855    
  5.6189      6.1875      6.9964      7.9502      8.7498      9.0736      8.8088      8.1038      7.2263      6.3967    
  5.7223      5.2131      4.8729      4.6819      4.5838      4.5415      4.5664      4.6902      4.9146      5.2198    
  5.3424      5.8475      6.4783      7.1577      7.7052      7.9230      7.7334      7.2263      6.5816      5.9558    
  5.4274      5.0185      4.7478      4.5960      4.5169      4.4739      4.4673      4.5289      4.6912      4.9626    
  5.0560      5.4430      5.9012      6.3678      6.7288      6.8672      6.7379      6.3967      5.9558      5.5140    
  5.1252      4.8260      4.6305      4.5235      4.4718      4.4455      4.4377      4.4679      4.5674      4.7609    
  4.8562      5.1129      5.4142      5.7121      5.9389      6.0263      5.9442      5.7223      5.4274      5.1252    
  4.8642      4.6681      4.5412      4.4732      4.4453      4.4387      4.4457      4.4741      4.5415      4.6653    
  4.7923      4.9360      5.0986      5.2591      5.3805      5.4219      5.3617      5.2131      5.0185      4.8260    
  4.6681      4.5554      4.4843      4.4472      4.4363      4.4455      4.4719      4.5164      4.5829      4.6744    
  4.8497      4.9195      4.9789      5.0261      5.0514      5.0387      4.9774      4.8729      4.7478      4.6305    
  4.5412      4.4843      4.4539      4.4424      4.4480      4.4739      4.5233      4.5949      4.6806      4.7688    
  5.0388      5.0519      5.0262      4.9782      4.9188      4.8496      4.7696      4.6819      4.5960      4.5235    
  4.4732      4.4472      4.4424      4.4550      4.4857      4.5415      4.6290      4.7449      4.8702      4.9761    
  5.4217      5.3812      5.2593      5.0984      4.9361      4.7931      4.6755      4.5838      4.5169      4.4718    
  4.4453      4.4363      4.4480      4.4857      4.5559      4.6659      4.8205      5.0114      5.2073      5.3589    
  6.0296      5.9431      5.7149      5.4157      5.1140      4.8572      4.6659      4.5415      4.4739      4.4455    
  4.4387      4.4455      4.4739      4.5415      4.6659      4.8572      5.1140      5.4157      5.7149      5.9431    
  6.8808      6.7406      6.3745      5.9037      5.4436      5.0559      4.7601      4.5664      4.4673      4.4377    
  4.4457      4.4719      4.5233      4.6290      4.8205      5.1140      5.4995      5.9446      6.3951      6.7466    
  7.9497      7.7232      7.1645      6.4778      5.8448      5.3400      4.9608      4.6902      4.5289      4.4679    
  4.4741      4.5164      4.5949      4.7449      5.0114      5.4157      5.9446      6.5800      7.2399      7.7588    
  9.1049      8.7633      7.9474      6.9864      6.1786      5.6140      5.2179      4.9146      4.6912      4.5674    
  4.5415      4.5829      4.6806      4.8702      5.2073      5.7149      6.3951      7.2399      8.1348      8.8477    
  10.120      9.7332      8.6914      7.4295      6.4135      5.8147      5.4855      5.2198      4.9626      4.7609    
  4.6653      4.6744      4.7688      4.9761      5.3589      5.9431      6.7466      7.7588      8.8477      9.7490    
  9.6522      9.7428      9.0754      7.8987      6.6903      5.8201      5.3342      5.0554      4.8365      4.6597    
  4.5607      4.5556      4.6227      4.7566      5.0020      5.4217      6.0373      6.8655      7.8846      8.9206    
  9.7428      10.119      9.7398      8.7061      7.4474      6.4282      5.8223      5.4865      5.2172      4.9599    
  4.7597      4.6655      4.6747      4.7684      4.9754      5.3589      5.9441      6.7473      7.7568      8.8423    
  9.0754      9.7398      9.8861      9.3923      8.4490      7.4525      6.6942      6.1805      5.7622      5.3672    