W bcc                                   
   3.16520000000000     
    -0.500000    0.500000    0.500000
     0.500000   -0.500000    0.500000
     0.500000    0.500000   -0.500000
   W 
     1
Direct
  0.000000  0.000000  0.000000
 
   20   20   20
 0.13815590644E+02 0.13205480693E+02 0.11967303893E+02 0.11137829812E+02 0.10948685139E+02
 0.10669017556E+02 0.96522468139E+01 0.81488523785E+01 0.68979797062E+01 0.62182498933E+01
 0.60055545437E+01 0.62182498933E+01 0.68979797062E+01 0.81488523785E+01 0.96522468139E+01
 0.10669017556E+02 0.10948685139E+02 0.11137829812E+02 0.11967303893E+02 0.13205480693E+02
 0.13205480693E+02 0.12958367573E+02 0.11860775369E+02 0.10885515224E+02 0.10571190020E+02
 0.10444136709E+02 0.97427815469E+01 0.84141699416E+01 0.71006786871E+01 0.62884649977E+01
 0.59453603688E+01 0.60122866255E+01 0.65034995742E+01 0.75055508031E+01 0.89205851162E+01
 0.10120475663E+02 0.10619808290E+02 0.10757152412E+02 0.11301297186E+02 0.12386489642E+02
 0.11967303893E+02 0.11860775336E+02 0.10933594754E+02 0.99214957268E+01 0.94774549249E+01
 0.94251069426E+01 0.90754089805E+01 0.81331381590E+01 0.70002196547E+01 0.61847530238E+01
 0.57716481625E+01 0.57220227585E+01 0.60307807327E+01 0.67425847640E+01 0.78846065792E+01
 0.91049445282E+01 0.98813761227E+01 0.10194395447E+02 0.10564695295E+02 0.11301297216E+02
 0.11137829812E+02 0.10885515122E+02 0.99214956106E+01 0.87920544357E+01 0.81388812241E+01
 0.80137206087E+01 0.78987040046E+01 0.73778283278E+01 0.65827290392E+01 0.59057166255E+01
 0.55061513568E+01 0.53966397392E+01 0.55628525373E+01 0.60434912313E+01 0.68654819995E+01
 0.79496764754E+01 0.89542233570E+01 0.96551879547E+01 0.10194395533E+02 0.10757152500E+02
 0.10948685139E+02 0.10571189846E+02 0.94774546640E+01 0.81388810338E+01 0.71740762135E+01
 0.67971551802E+01 0.66902587921E+01 0.64377114009E+01 0.59689486618E+01 0.55003789178E+01
 0.51856854203E+01 0.50771077206E+01 0.51610150228E+01 0.54666464053E+01 0.60372914300E+01
 0.68808371878E+01 0.79161176435E+01 0.89542234575E+01 0.98813762951E+01 0.10619808433E+02
 0.10669017556E+02 0.10444136502E+02 0.94251065935E+01 0.80137202673E+01 0.67971549863E+01
 0.61056533109E+01 0.58200752399E+01 0.56188655860E+01 0.53424120760E+01 0.50560344820E+01
 0.48562072517E+01 0.47923122768E+01 0.48496510124E+01 0.50387648429E+01 0.54217043307E+01
 0.60295942124E+01 0.68808372457E+01 0.79496766214E+01 0.91049447304E+01 0.10120475821E+02
 0.96522468139E+01 0.97427813638E+01 0.90754086480E+01 0.78987036334E+01 0.66902585066E+01
 0.58200751061E+01 0.53341957214E+01 0.50553996452E+01 0.48365168239E+01 0.46597291137E+01
 0.45607063626E+01 0.45555898339E+01 0.46226864745E+01 0.47566460428E+01 0.50020383108E+01
 0.54217043402E+01 0.60372914831E+01 0.68654821186E+01 0.78846067415E+01 0.89205852453E+01
 0.81488523785E+01 0.84141698221E+01 0.81331379269E+01 0.73778280447E+01 0.64377111501E+01
 0.56188654255E+01 0.50553995821E+01 0.47062883854E+01 0.44887347036E+01 0.43641042162E+01
 0.43276150712E+01 0.43670306792E+01 0.44554741017E+01 0.45782853253E+01 0.47566460354E+01
 0.50387648366E+01 0.54666464212E+01 0.60434912872E+01 0.67425848512E+01 0.75055508780E+01
 0.68979797062E+01 0.71006786330E+01 0.70002195410E+01 0.65827288890E+01 0.59689485148E+01
 0.53424119666E+01 0.48365167645E+01 0.44887346840E+01 0.42790734933E+01 0.41791420857E+01
 0.41669611553E+01 0.42227169654E+01 0.43239603784E+01 0.44554740985E+01 0.46226864643E+01
 0.48496509971E+01 0.51610150126E+01 0.55628525438E+01 0.60307807578E+01 0.65034996016E+01
 0.62182498933E+01 0.62884649832E+01 0.61847529896E+01 0.59057165758E+01 0.55003788645E+01
 0.50560344377E+01 0.46597290857E+01 0.43641042035E+01 0.41791420824E+01 0.40893973380E+01
 0.40755136539E+01 0.41233277681E+01 0.42227169654E+01 0.43670306779E+01 0.45555898291E+01
 0.47923122678E+01 0.50771077099E+01 0.53966397318E+01 0.57220227580E+01 0.60122866296E+01
 0.60055545437E+01 0.59453603669E+01 0.57716481561E+01 0.55061513464E+01 0.51856854087E+01
 0.48562072420E+01 0.45607063564E+01 0.43276150683E+01 0.41669611544E+01 0.40755136538E+01
 0.40461386596E+01 0.40755136538E+01 0.41669611544E+01 0.43276150683E+01 0.45607063564E+01
 0.48562072420E+01 0.51856854087E+01 0.55061513464E+01 0.57716481561E+01 0.59453603669E+01
 0.62182498933E+01 0.60122866296E+01 0.57220227580E+01 0.53966397318E+01 0.50771077099E+01
 0.47923122678E+01 0.45555898291E+01 0.43670306779E+01 0.42227169654E+01 0.41233277681E+01
 0.40755136539E+01 0.40893973380E+01 0.41791420824E+01 0.43641042035E+01 0.46597290857E+01
 0.50560344377E+01 0.55003788645E+01 0.59057165758E+01 0.61847529896E+01 0.62884649832E+01
 0.68979797062E+01 0.65034996016E+01 0.60307807578E+01 0.55628525438E+01 0.51610150126E+01
 0.48496509971E+01 0.46226864643E+01 0.44554740985E+01 0.43239603784E+01 0.42227169654E+01
 0.41669611553E+01 0.41791420857E+01 0.42790734933E+01 0.44887346840E+01 0.48365167645E+01
 0.53424119666E+01 0.59689485148E+01 0.65827288890E+01 0.70002195410E+01 0.71006786330E+01
 0.81488523785E+01 0.75055508780E+01 0.67425848512E+01 0.60434912872E+01 0.54666464212E+01
 0.50387648366E+01 0.47566460354E+01 0.45782853253E+01 0.44554741017E+01 0.43670306792E+01
 0.43276150712E+01 0.43641042162E+01 0.44887347036E+01 0.47062883854E+01 0.50553995821E+01
 0.56188654255E+01 0.64377111501E+01 0.73778280447E+01 0.81331379269E+01 0.84141698221E+01
 0.96522468139E+01 0.89205852453E+01 0.78846067415E+01 0.68654821186E+01 0.60372914831E+01
 0.54217043402E+01 0.50020383108E+01 0.47566460428E+01 0.46226864745E+01 0.45555898339E+01
 0.45607063626E+01 0.46597291137E+01 0.48365168239E+01 0.50553996452E+01 0.53341957214E+01
 0.58200751061E+01 0.66902585066E+01 0.78987036334E+01 0.90754086480E+01 0.97427813638E+01
 0.10669017556E+02 0.10120475821E+02 0.91049447304E+01 0.79496766214E+01 0.68808372457E+01
 0.60295942124E+01 0.54217043307E+01 0.50387648429E+01 0.48496510124E+01 0.47923122768E+01
 0.48562072517E+01 0.50560344820E+01 0.53424120760E+01 0.56188655860E+01 0.58200752399E+01
 0.61056533109E+01 0.67971549863E+01 0.80137202673E+01 0.94251065935E+01 0.10444136502E+02
 0.10948685139E+02 0.10619808433E+02 0.98813762951E+01 0.89542234575E+01 0.79161176435E+01
 0.68808371878E+01 0.60372914300E+01 0.54666464053E+01 0.51610150228E+01 0.50771077206E+01
 0.51856854203E+01 0.55003789178E+01 0.59689486618E+01 0.64377114009E+01 0.66902587921E+01
 0.67971551802E+01 0.71740762135E+01 0.81388810338E+01 0.94774546640E+01 0.10571189846E+02
 0.11137829812E+02 0.10757152500E+02 0.10194395533E+02 0.96551879547E+01 0.89542233570E+01
 0.79496764754E+01 0.68654819995E+01 0.60434912313E+01 0.55628525373E+01 0.53966397392E+01
 0.55061513568E+01 0.59057166255E+01 0.65827290392E+01 0.73778283278E+01 0.78987040046E+01
 0.80137206087E+01 0.81388812241E+01 0.87920544357E+01 0.99214956106E+01 0.10885515122E+02
 0.11967303893E+02 0.11301297216E+02 0.10564695295E+02 0.10194395447E+02 0.98813761227E+01
 0.91049445282E+01 0.78846065792E+01 0.67425847640E+01 0.60307807327E+01 0.57220227585E+01
 0.57716481625E+01 0.61847530238E+01 0.70002196547E+01 0.81331381590E+01 0.90754089805E+01
 0.94251069426E+01 0.94774549249E+01 0.99214957268E+01 0.10933594754E+02 0.11860775336E+02
 0.13205480693E+02 0.12386489642E+02 0.11301297186E+02 0.10757152412E+02 0.10619808290E+02
 0.10120475663E+02 0.89205851162E+01 0.75055508031E+01 0.65034995742E+01 0.60122866255E+01
 0.59453603688E+01 0.62884649977E+01 0.71006786871E+01 0.84141699416E+01 0.97427815469E+01
 0.10444136709E+02 0.10571190020E+02 0.10885515224E+02 0.11860775369E+02 0.12958367573E+02
 0.13205480693E+02 0.12958367573E+02 0.11860775336E+02 0.10885515122E+02 0.10571189846E+02
 0.10444136502E+02 0.97427813638E+01 0.84141698221E+01 0.71006786330E+01 0.62884649832E+01
 0.59453603669E+01 0.60122866296E+01 0.65034996016E+01 0.75055508780E+01 0.89205852453E+01
 0.10120475821E+02 0.10619808433E+02 0.10757152500E+02 0.11301297216E+02 0.12386489642E+02
 0.12958367573E+02 0.13164431903E+02 0.12322544443E+02 0.11243049380E+02 0.10722175599E+02
 0.10606772539E+02 0.10118604213E+02 0.89221664882E+01 0.75085800321E+01 0.65068151698E+01
 0.60133805931E+01 0.59434260975E+01 0.62860749819E+01 0.71005563385E+01 0.84166184410E+01
 0.97490390666E+01 0.10460446353E+02 0.10604056108E+02 0.10929764131E+02 0.11895091430E+02
 0.11860775369E+02 0.12322544443E+02 0.11825152880E+02 0.10844779025E+02 0.10191693909E+02
 0.10022044511E+02 0.97398141234E+01 0.88492501748E+01 0.75835426354E+01 0.65405387282E+01
 0.59555224409E+01 0.57700619501E+01 0.59547247975E+01 0.65392750321E+01 0.75816273521E+01
 0.88477258019E+01 0.97446752085E+01 0.10043155092E+02 0.10233296066E+02 0.10895553620E+02
 0.10885515224E+02 0.11243049380E+02 0.10844778972E+02 0.99195081155E+01 0.91462654513E+01
 0.88591613052E+01 0.87061228178E+01 0.81735053877E+01 0.72439807903E+01 0.63452466851E+01
 0.57672225380E+01 0.55213721013E+01 0.55827970067E+01 0.59665793121E+01 0.67041091865E+01
 0.77587582206E+01 0.87676440668E+01 0.93814444838E+01 0.97275817598E+01 0.10213862616E+02
 0.10571190020E+02 0.10722175599E+02 0.10191693772E+02 0.91462653140E+01 0.81556729157E+01
 0.76346010099E+01 0.74474092533E+01 0.71604663948E+01 0.65898392195E+01 0.59457379196E+01
 0.54699095124E+01 0.52314849985E+01 0.52263463533E+01 0.54542454560E+01 0.59587769093E+01
 0.67465611986E+01 0.77233531311E+01 0.86375721743E+01 0.93750480485E+01 0.10023339979E+02
 0.10444136709E+02 0.10606772539E+02 0.10022044312E+02 0.88591610338E+01 0.76346008282E+01
 0.68106100307E+01 0.64281592017E+01 0.61875299338E+01 0.58475431293E+01 0.54430283350E+01
 0.51129184640E+01 0.49359965221E+01 0.49194623194E+01 0.50518738977E+01 0.53811504993E+01
 0.59430734793E+01 0.67406048906E+01 0.77231768073E+01 0.87633374505E+01 0.97331803606E+01
 0.97427815469E+01 0.10118604213E+02 0.97398139197E+01 0.87061224976E+01 0.74474089600E+01
 0.64281590460E+01 0.58223217682E+01 0.54864612828E+01 0.52172311107E+01 0.49598730113E+01
 0.47596921142E+01 0.46654651903E+01 0.46747063691E+01 0.47684264877E+01 0.49754019339E+01
 0.53588801509E+01 0.59441069881E+01 0.67472601511E+01 0.77567957599E+01 0.88422883772E+01
 0.84141699416E+01 0.89221664882E+01 0.88492500215E+01 0.81735051220E+01 0.71604661119E+01
 0.61875297267E+01 0.54864611909E+01 0.50522766937E+01 0.47720723781E+01 0.45778123397E+01
 0.44641666569E+01 0.44396029216E+01 0.44858508175E+01 0.45784848502E+01 0.47259242184E+01
 0.49760778705E+01 0.53820120957E+01 0.59585888174E+01 0.67019492244E+01 0.75781109734E+01
 0.71006786871E+01 0.75085800321E+01 0.75835425526E+01 0.72439806333E+01 0.65898390332E+01
 0.58475429691E+01 0.52172310116E+01 0.47720723408E+01 0.44873432160E+01 0.43217319635E+01
 0.42534998661E+01 0.42668301858E+01 0.43382134369E+01 0.44434917990E+01 0.45787563984E+01
 0.47687559370E+01 0.50515721769E+01 0.54527981185E+01 0.59643030647E+01 0.65374126089E+01
 0.62884649977E+01 0.65068151698E+01 0.65405386987E+01 0.63452466232E+01 0.59457378381E+01
 0.54430282560E+01 0.49598729535E+01 0.45778123097E+01 0.43217319547E+01 0.41794974511E+01
 0.41282329539E+01 0.41486203922E+01 0.42236874417E+01 0.43381807647E+01 0.44858088607E+01
 0.46743894611E+01 0.49186643715E+01 0.52253463765E+01 0.55823574411E+01 0.59556044073E+01
 0.59453603688E+01 0.60133805931E+01 0.59555224340E+01 0.57672225219E+01 0.54699094893E+01
 0.51129184402E+01 0.47596920962E+01 0.44641666477E+01 0.42534998643E+01 0.41282329552E+01
 0.40758377837E+01 0.40844754974E+01 0.41484049988E+01 0.42665525617E+01 0.44393576625E+01
 0.46653155413E+01 0.49361298366E+01 0.52322200383E+01 0.55228946071E+01 0.57721243446E+01
 0.60122866255E+01 0.59434260975E+01 0.57700619479E+01 0.55213720933E+01 0.52314849863E+01
 0.49359965107E+01 0.46654651844E+01 0.44396029225E+01 0.42668301911E+01 0.41486203979E+01
 0.40844755006E+01 0.40755728705E+01 0.41278965308E+01 0.42534512889E+01 0.44647003649E+01
 0.47608625679E+01 0.51145165167E+01 0.54715205251E+01 0.57683118207E+01 0.59556043946E+01
 0.65034995742E+01 0.62860749819E+01 0.59547248057E+01 0.55827970067E+01 0.52263463410E+01
 0.49194623017E+01 0.46747063566E+01 0.44858508155E+01 0.43382134432E+01 0.42236874498E+01
 0.41484050043E+01 0.41278965333E+01 0.41795918039E+01 0.43228853736E+01 0.45801037024E+01
 0.49625654953E+01 0.54449285236E+01 0.59458879170E+01 0.63434445887E+01 0.65374125447E+01
 0.75055508031E+01 0.71005563385E+01 0.65392750690E+01 0.59665793459E+01 0.54542454658E+01
 0.50518738872E+01 0.47684264734E+01 0.45784848449E+01 0.44434918037E+01 0.43381807724E+01
 0.42665525673E+01 0.42534512938E+01 0.43228853802E+01 0.44901933368E+01 0.47757647999E+01
 0.52197568140E+01 0.58470227688E+01 0.65858942887E+01 0.72380838292E+01 0.75781108137E+01
 0.89205851162E+01 0.84166184410E+01 0.75816274264E+01 0.67041092685E+01 0.59587769581E+01
 0.53811505116E+01 0.49754019300E+01 0.47259242177E+01 0.45787564052E+01 0.44858088679E+01
 0.44393576667E+01 0.44647003738E+01 0.45801037259E+01 0.47757648302E+01 0.50551395384E+01
 0.54854854253E+01 0.61811155715E+01 0.71499871739E+01 0.81628059235E+01 0.88422881160E+01
 0.10120475663E+02 0.97490390666E+01 0.88477258959E+01 0.77587583247E+01 0.67465612607E+01
 0.59430734962E+01 0.53588801487E+01 0.49760778732E+01 0.47687559479E+01 0.46743894696E+01
 0.46653155445E+01 0.47608625829E+01 0.49625655467E+01 0.52197569037E+01 0.54854855101E+01
 0.58146902549E+01 0.64135058170E+01 0.74295209428E+01 0.86913575381E+01 0.97331800511E+01
 0.10619808290E+02 0.10460446353E+02 0.97446752836E+01 0.87676441305E+01 0.77233531383E+01
 0.67406048535E+01 0.59441069475E+01 0.53820120806E+01 0.50515721849E+01 0.49186643812E+01
 0.49361298401E+01 0.51145165380E+01 0.54449286050E+01 0.58470229310E+01 0.61811157767E+01
 0.64135059694E+01 0.67892042277E+01 0.76130174813E+01 0.88463252118E+01 0.10023339709E+02
 0.10757152412E+02 0.10604056108E+02 0.10043155115E+02 0.93814444503E+01 0.86375720611E+01
 0.77231766550E+01 0.67472600241E+01 0.59585887531E+01 0.54527981076E+01 0.52253463831E+01
 0.52322200420E+01 0.54715205492E+01 0.59458880159E+01 0.65858945027E+01 0.71499874806E+01
 0.74295212467E+01 0.76130176635E+01 0.81400257031E+01 0.91475966810E+01 0.10213862454E+02
 0.11301297186E+02 0.10929764131E+02 0.10233296033E+02 0.97275816281E+01 0.93750478136E+01
 0.87633371778E+01 0.77567955359E+01 0.67019490974E+01 0.59643030232E+01 0.55823574387E+01
 0.55228946098E+01 0.57683118416E+01 0.63434446815E+01 0.72380840439E+01 0.81628062553E+01
 0.86913579076E+01 0.88463255037E+01 0.91475968196E+01 0.99461531540E+01 0.10895553566E+02
 0.12386489642E+02 0.11895091430E+02 0.10895553566E+02 0.10213862454E+02 0.10023339709E+02
 0.97331800511E+01 0.88422881160E+01 0.75781108137E+01 0.65374125447E+01 0.59556043946E+01
 0.57721243446E+01 0.59556044073E+01 0.65374126089E+01 0.75781109734E+01 0.88422883772E+01
 0.97331803606E+01 0.10023339979E+02 0.10213862616E+02 0.10895553620E+02 0.11895091430E+02
 0.11967303893E+02 0.11860775369E+02 0.10933594754E+02 0.99214956106E+01 0.94774546640E+01
 0.94251065935E+01 0.90754086480E+01 0.81331379269E+01 0.70002195410E+01 0.61847529896E+01
 0.57716481561E+01 0.57220227580E+01 0.60307807578E+01 0.67425848512E+01 0.78846067415E+01
 0.91049447304E+01 0.98813762951E+01 0.10194395533E+02 0.10564695295E+02 0.11301297186E+02
 0.11860775336E+02 0.12322544443E+02 0.11825152880E+02 0.10844778972E+02 0.10191693772E+02
 0.10022044312E+02 0.97398139197E+01 0.88492500215E+01 0.75835425526E+01 0.65405386987E+01
 0.59555224340E+01 0.57700619479E+01 0.59547248057E+01 0.65392750690E+01 0.75816274264E+01
 0.88477258959E+01 0.97446752836E+01 0.10043155115E+02 0.10233296033E+02 0.10895553566E+02
 0.10933594754E+02 0.11825152880E+02 0.11906351350E+02 0.11240625366E+02 0.10526400181E+02
 0.10182989627E+02 0.98861065649E+01 0.91127700240E+01 0.78895278574E+01 0.67448875972E+01
 0.60318393927E+01 0.57221445206E+01 0.57711663089E+01 0.61843819077E+01 0.70003120990E+01
 0.81347986773E+01 0.90828587842E+01 0.94437974997E+01 0.95061205030E+01 0.99461531540E+01
 0.99214957268E+01 0.10844779025E+02 0.11240625366E+02 0.10883327589E+02 0.10215716872E+02
 0.97350828222E+01 0.93922827733E+01 0.87772027672E+01 0.77636346679E+01 0.67044014395E+01
 0.59651115343E+01 0.55823504267E+01 0.55225072947E+01 0.57682709064E+01 0.63440736088E+01
 0.72398601640E+01 0.81677927320E+01 0.87014232401E+01 0.88575255654E+01 0.91475968196E+01
 0.94774549249E+01 0.10191693909E+02 0.10526400181E+02 0.10215716816E+02 0.95146065228E+01
 0.88821049533E+01 0.84489712859E+01 0.79625140013E+01 0.72262961622E+01 0.63952250201E+01
 0.57475030273E+01 0.53652732756E+01 0.52475978330E+01 0.53656339593E+01 0.57481048542E+01
 0.63951071558E+01 0.72225493871E+01 0.79502896889E+01 0.84242285281E+01 0.88463255037E+01
 0.94251069426E+01 0.10022044511E+02 0.10182989627E+02 0.97350826924E+01 0.88821048326E+01
 0.80440789193E+01 0.74524710346E+01 0.69964066975E+01 0.64783293357E+01 0.59012222171E+01
 0.54142274887E+01 0.50985779841E+01 0.49788556968E+01 0.50261626154E+01 0.52593235671E+01
 0.57148654830E+01 0.63745302512E+01 0.71644853035E+01 0.79474112225E+01 0.86913579076E+01
 0.90754089805E+01 0.97398141234E+01 0.98861065649E+01 0.93922826036E+01 0.84489710686E+01
 0.74524708982E+01 0.66941552242E+01 0.61804717877E+01 0.57622226026E+01 0.53671588131E+01
 0.50361519067E+01 0.48199135506E+01 0.47397286281E+01 0.47678390544E+01 0.49064833264E+01
 0.52072743528E+01 0.56977510487E+01 0.63741793820E+01 0.72206998008E+01 0.81628062553E+01
 0.81331381590E+01 0.88492501748E+01 0.91127700240E+01 0.87772026132E+01 0.79625137707E+01
 0.69964064968E+01 0.61804716869E+01 0.56096510337E+01 0.52121495905E+01 0.49107007570E+01
 0.46895687229E+01 0.45669258758E+01 0.45413921457E+01 0.45829825083E+01 0.46807537834E+01
 0.48702174013E+01 0.52070619027E+01 0.57144956521E+01 0.63942313360E+01 0.72380840439E+01
 0.70002196547E+01 0.75835426354E+01 0.78895278574E+01 0.77636345676E+01 0.72262959938E+01
 0.64783291626E+01 0.57622224808E+01 0.52121495391E+01 0.48318323495E+01 0.45776587406E+01
 0.44245397654E+01 0.43660727163E+01 0.43841292215E+01 0.44486362554E+01 0.45421621012E+01
 0.46805828732E+01 0.49061626695E+01 0.52589527891E+01 0.57476194020E+01 0.63434446815E+01
 0.61847530238E+01 0.65405387282E+01 0.67448875972E+01 0.67044013945E+01 0.63952249357E+01
 0.59012221185E+01 0.53671587305E+01 0.49107007082E+01 0.45776587240E+01 0.43648090592E+01
 0.42543423525E+01 0.42275807938E+01 0.42648378408E+01 0.43436894829E+01 0.44485597456E+01
 0.45828865049E+01 0.47677764903E+01 0.50261711285E+01 0.53656620465E+01 0.57683118416E+01
 0.57716481625E+01 0.59555224409E+01 0.60318393927E+01 0.59651115204E+01 0.57475029985E+01
 0.54142274519E+01 0.50361518729E+01 0.46895687011E+01 0.44245397574E+01 0.42543423526E+01
 0.41680203799E+01 0.41489935663E+01 0.41842983201E+01 0.42646373142E+01 0.43839946972E+01
 0.45414868838E+01 0.47400660389E+01 0.49793257479E+01 0.52480489689E+01 0.55228946098E+01
 0.57220227585E+01 0.57700619501E+01 0.57221445206E+01 0.55823504207E+01 0.53652732632E+01
 0.50985779695E+01 0.48199135398E+01 0.45669258731E+01 0.43660727214E+01 0.42275808021E+01
 0.41489935722E+01 0.41236919253E+01 0.41486127433E+01 0.42271435284E+01 0.43659861651E+01
 0.45673741937E+01 0.48207183580E+01 0.50993355830E+01 0.53656620426E+01 0.55823574387E+01
 0.60307807327E+01 0.59547247975E+01 0.57711663089E+01 0.55225072914E+01 0.52475978207E+01
 0.49788556790E+01 0.47397286141E+01 0.45413921429E+01 0.43841292303E+01 0.42648378550E+01
 0.41842983318E+01 0.41486127486E+01 0.41674240980E+01 0.42540863741E+01 0.44252017522E+01
 0.46911991560E+01 0.50380825072E+01 0.54155096822E+01 0.57476193541E+01 0.59643030232E+01
 0.67425847640E+01 0.65392750321E+01 0.61843819077E+01 0.57682709174E+01 0.53656339601E+01
 0.50261626013E+01 0.47678390355E+01 0.45829824982E+01 0.44486362597E+01 0.43436894966E+01
 0.42646373275E+01 0.42271435357E+01 0.42540863766E+01 0.43656384269E+01 0.45802631879E+01
 0.49146363131E+01 0.53707713242E+01 0.59027677568E+01 0.63942311998E+01 0.67019490974E+01
 0.78846065792E+01 0.75816273521E+01 0.70003120990E+01 0.63440736436E+01 0.57481048847E+01
 0.52593235754E+01 0.49064833179E+01 0.46807537744E+01 0.45421621024E+01 0.44485597554E+01
 0.43839947073E+01 0.43659861711E+01 0.44252017575E+01 0.45802631957E+01 0.48368244779E+01
 0.52179462880E+01 0.57656657391E+01 0.64770185196E+01 0.72206995714E+01 0.77567955359E+01
 0.91049445282E+01 0.88477258019E+01 0.81347986773E+01 0.72398602110E+01 0.63951072027E+01
 0.57148655067E+01 0.52072743564E+01 0.48702174003E+01 0.46805828774E+01 0.45828865125E+01
 0.45414868887E+01 0.45673741974E+01 0.46911991693E+01 0.49146363436E+01 0.52179463230E+01
 0.56139509538E+01 0.61786147474E+01 0.69863768896E+01 0.79474109549E+01 0.87633371778E+01
 0.98813761227E+01 0.97446752085E+01 0.90828587842E+01 0.81677927566E+01 0.72225493973E+01
 0.63745302389E+01 0.56977510295E+01 0.52070618941E+01 0.49061626747E+01 0.47677764984E+01
 0.47400660405E+01 0.48207183607E+01 0.50380825342E+01 0.53707713939E+01 0.57656658406E+01
 0.61786148312E+01 0.66819041986E+01 0.74301878604E+01 0.84242283113E+01 0.93750478136E+01
 0.10194395447E+02 0.10043155092E+02 0.94437974997E+01 0.87014232053E+01 0.79502895977E+01
 0.71644851827E+01 0.63741792791E+01 0.57144955975E+01 0.52589527789E+01 0.50261711347E+01
 0.49793257486E+01 0.50993355864E+01 0.54155097235E+01 0.59027678688E+01 0.64770186983E+01
 0.69863770799E+01 0.74301879814E+01 0.80143247688E+01 0.88575254620E+01 0.97275816281E+01
 0.10564695295E+02 0.10233296066E+02 0.95061205030E+01 0.88575254620E+01 0.84242283113E+01
 0.79474109549E+01 0.72206995714E+01 0.63942311998E+01 0.57476193541E+01 0.53656620426E+01
 0.52480489689E+01 0.53656620465E+01 0.57476194020E+01 0.63942313360E+01 0.72206998008E+01
 0.79474112225E+01 0.84242285281E+01 0.88575255654E+01 0.95061205030E+01 0.10233296033E+02
 0.11301297216E+02 0.10895553620E+02 0.99461531540E+01 0.91475966810E+01 0.88463252118E+01
 0.86913575381E+01 0.81628059235E+01 0.72380838292E+01 0.63434445887E+01 0.57683118207E+01
 0.55228946071E+01 0.55823574411E+01 0.59643030647E+01 0.67019492244E+01 0.77567957599E+01
 0.87633374505E+01 0.93750480485E+01 0.97275817598E+01 0.10233296066E+02 0.10929764131E+02
 0.11137829812E+02 0.10885515224E+02 0.99214957268E+01 0.87920544357E+01 0.81388810338E+01
 0.80137202673E+01 0.78987036334E+01 0.73778280447E+01 0.65827288890E+01 0.59057165758E+01
 0.55061513464E+01 0.53966397318E+01 0.55628525438E+01 0.60434912872E+01 0.68654821186E+01
 0.79496766214E+01 0.89542234575E+01 0.96551879547E+01 0.10194395447E+02 0.10757152412E+02
 0.10885515122E+02 0.11243049380E+02 0.10844779025E+02 0.99195081155E+01 0.91462653140E+01
 0.88591610338E+01 0.87061224976E+01 0.81735051220E+01 0.72439806333E+01 0.63452466232E+01
 0.57672225219E+01 0.55213720933E+01 0.55827970067E+01 0.59665793459E+01 0.67041092685E+01
 0.77587583247E+01 0.87676441305E+01 0.93814444503E+01 0.97275816281E+01 0.10213862454E+02
 0.99214956106E+01 0.10844778972E+02 0.11240625366E+02 0.10883327589E+02 0.10215716816E+02
 0.97350826924E+01 0.93922826036E+01 0.87772026132E+01 0.77636345676E+01 0.67044013945E+01
 0.59651115204E+01 0.55823504207E+01 0.55225072914E+01 0.57682709174E+01 0.63440736436E+01
 0.72398602110E+01 0.81677927566E+01 0.87014232053E+01 0.88575254620E+01 0.91475966810E+01
 0.87920544357E+01 0.99195081155E+01 0.10883327589E+02 0.11139650574E+02 0.10766457341E+02
 0.10210258104E+02 0.96719689469E+01 0.89655710043E+01 0.79532917013E+01 0.68641589768E+01
 0.60417900988E+01 0.55630757948E+01 0.53978676577E+01 0.55063378021E+01 0.59040279808E+01
 0.65799940882E+01 0.73754867116E+01 0.78977784699E+01 0.80143247688E+01 0.81400257031E+01
 0.81388812241E+01 0.91462654513E+01 0.10215716872E+02 0.10766457341E+02 0.10621987080E+02
 0.10065111008E+02 0.93993169649E+01 0.86457175714E+01 0.77224878995E+01 0.67433944728E+01
 0.59564910264E+01 0.54531877365E+01 0.52260052420E+01 0.52314788912E+01 0.54698383379E+01
 0.59446492790E+01 0.65857414485E+01 0.71505849810E+01 0.74301879814E+01 0.76130176635E+01
 0.80137206087E+01 0.88591613052E+01 0.97350828222E+01 0.10210258104E+02 0.10065110961E+02
 0.94644094011E+01 0.87128180248E+01 0.79502196836E+01 0.71577204869E+01 0.63678128133E+01
 0.57120817226E+01 0.52591499639E+01 0.50261450092E+01 0.49782416539E+01 0.50983922540E+01
 0.54157108649E+01 0.59037275902E+01 0.64777556864E+01 0.69863770799E+01 0.74295212467E+01
 0.78987040046E+01 0.87061228178E+01 0.93922827733E+01 0.96719689469E+01 0.93993168672E+01
 0.87128179393E+01 0.78979249042E+01 0.71415425896E+01 0.64666287258E+01 0.58616826945E+01
 0.53659359012E+01 0.50105297358E+01 0.48200985076E+01 0.47659454442E+01 0.48204561320E+01
 0.50113994909E+01 0.53688512320E+01 0.58687366867E+01 0.64770186983E+01 0.71499874806E+01
 0.73778283278E+01 0.81735053877E+01 0.87772027672E+01 0.89655710043E+01 0.86457174552E+01
 0.79502195422E+01 0.71415425056E+01 0.64189420631E+01 0.58338757185E+01 0.53650386839E+01
 0.50023128249E+01 0.47529388347E+01 0.46289167157E+01 0.46000885393E+01 0.46345139208E+01
 0.47449117815E+01 0.49796895743E+01 0.53679166319E+01 0.59027678688E+01 0.65858945027E+01
 0.65827290392E+01 0.72439807903E+01 0.77636346679E+01 0.79532917013E+01 0.77224878053E+01
 0.71577203512E+01 0.64666286126E+01 0.58338756644E+01 0.53334014132E+01 0.49592178467E+01
 0.46912322615E+01 0.45299902620E+01 0.44682070730E+01 0.44743584387E+01 0.45168367550E+01
 0.45948992716E+01 0.47440961253E+01 0.50103607817E+01 0.54155097235E+01 0.59458880159E+01
 0.59057166255E+01 0.63452466851E+01 0.67044014395E+01 0.68641589768E+01 0.67433944196E+01
 0.63678127260E+01 0.58616826075E+01 0.53650386254E+01 0.49592178240E+01 0.46612419839E+01
 0.44666279219E+01 0.43670292721E+01 0.43461408696E+01 0.43779680292E+01 0.44370943113E+01
 0.45164173145E+01 0.46338881848E+01 0.48203638261E+01 0.50993355864E+01 0.54715205492E+01
 0.55061513568E+01 0.57672225380E+01 0.59651115343E+01 0.60417900988E+01 0.59564910055E+01
 0.57120816844E+01 0.53659358585E+01 0.50023127919E+01 0.46912322454E+01 0.44666279190E+01
 0.43298678137E+01 0.42677560593E+01 0.42648885355E+01 0.43060472162E+01 0.43777710118E+01
 0.44741061393E+01 0.46001508545E+01 0.47666351537E+01 0.49793257486E+01 0.52322200420E+01
 0.53966397392E+01 0.55213721013E+01 0.55823504267E+01 0.55630757948E+01 0.54531877280E+01
 0.52591499488E+01 0.50105297201E+01 0.47529388252E+01 0.45299902618E+01 0.43670292785E+01
 0.42677560657E+01 0.42232522901E+01 0.42237288927E+01 0.42645628395E+01 0.43456706598E+01
 0.44678647118E+01 0.46289313748E+01 0.48203638304E+01 0.50261711347E+01 0.52253463831E+01
 0.55628525373E+01 0.55827970067E+01 0.55225072947E+01 0.53978676577E+01 0.52260052340E+01
 0.50261449944E+01 0.48200984933E+01 0.46289167101E+01 0.44682070795E+01 0.43461408845E+01
 0.42648885508E+01 0.42237289013E+01 0.42227944107E+01 0.42668024228E+01 0.43657989580E+01
 0.45289347000E+01 0.47523868234E+01 0.50103607754E+01 0.52589527789E+01 0.54527981076E+01
 0.60434912313E+01 0.59665793121E+01 0.57682709064E+01 0.55063378021E+01 0.52314788875E+01
 0.49782416396E+01 0.47659454243E+01 0.46000885255E+01 0.44743584397E+01 0.43779680440E+01
 0.43060472356E+01 0.42645628534E+01 0.42668024279E+01 0.43281552040E+01 0.44647041242E+01
 0.46901848016E+01 0.50029029557E+01 0.53679165985E+01 0.57144955975E+01 0.59585887531E+01
 0.68654819995E+01 0.67041091865E+01 0.63440736088E+01 0.59040279808E+01 0.54698383481E+01
 0.50983922548E+01 0.48204561193E+01 0.46345139051E+01 0.45168367490E+01 0.44370943197E+01
 0.43777710279E+01 0.43456706730E+01 0.43657989634E+01 0.44647041247E+01 0.46600487293E+01
 0.49607785040E+01 0.53701010535E+01 0.58687366251E+01 0.63741792791E+01 0.67472600241E+01
 0.79496764754E+01 0.77587582206E+01 0.72398601640E+01 0.65799940882E+01 0.59446493003E+01
 0.54157108828E+01 0.50113994946E+01 0.47449117756E+01 0.45948992670E+01 0.45164173177E+01
 0.44741061480E+01 0.44678647193E+01 0.45289347034E+01 0.46901848042E+01 0.49607785087E+01
 0.53399654040E+01 0.58447700268E+01 0.64777556170E+01 0.71644851827E+01 0.77231766550E+01
 0.89542233570E+01 0.87676440668E+01 0.81677927320E+01 0.73754867116E+01 0.65857414555E+01
 0.59037275937E+01 0.53688512305E+01 0.49796895721E+01 0.47440961263E+01 0.46338881882E+01
 0.46001508569E+01 0.46289313752E+01 0.47523868266E+01 0.50029029690E+01 0.53701010781E+01
 0.58447700508E+01 0.64322236321E+01 0.71505849360E+01 0.79502895977E+01 0.86375720611E+01
 0.96551879547E+01 0.93814444838E+01 0.87014232401E+01 0.78977784699E+01 0.71505849360E+01
 0.64777556170E+01 0.58687366251E+01 0.53679165985E+01 0.50103607754E+01 0.48203638304E+01
 0.47666351537E+01 0.48203638261E+01 0.50103607817E+01 0.53679166319E+01 0.58687366867E+01
 0.64777556864E+01 0.71505849810E+01 0.78977784699E+01 0.87014232053E+01 0.93814444503E+01
 0.10194395533E+02 0.97275817598E+01 0.88575255654E+01 0.80143247688E+01 0.74301878604E+01
 0.69863768896E+01 0.64770185196E+01 0.59027677568E+01 0.54155096822E+01 0.50993355830E+01
 0.49793257479E+01 0.50261711285E+01 0.52589527891E+01 0.57144956521E+01 0.63741793820E+01
 0.71644853035E+01 0.79502896889E+01 0.87014232401E+01 0.94437974997E+01 0.10043155115E+02
 0.10757152500E+02 0.10213862616E+02 0.91475968196E+01 0.81400257031E+01 0.76130174813E+01
 0.74295209428E+01 0.71499871739E+01 0.65858942887E+01 0.59458879170E+01 0.54715205251E+01
 0.52322200383E+01 0.52253463765E+01 0.54527981185E+01 0.59585888174E+01 0.67472601511E+01
 0.77231768073E+01 0.86375721743E+01 0.93814444838E+01 0.10043155092E+02 0.10604056108E+02
 0.10948685139E+02 0.10571190020E+02 0.94774549249E+01 0.81388812241E+01 0.71740762135E+01
 0.67971549863E+01 0.66902585066E+01 0.64377111501E+01 0.59689485148E+01 0.55003788645E+01
 0.51856854087E+01 0.50771077099E+01 0.51610150126E+01 0.54666464212E+01 0.60372914831E+01
 0.68808372457E+01 0.79161176435E+01 0.89542233570E+01 0.98813761227E+01 0.10619808290E+02
 0.10571189846E+02 0.10722175599E+02 0.10191693909E+02 0.91462654513E+01 0.81556729157E+01
 0.76346008282E+01 0.74474089600E+01 0.71604661119E+01 0.65898390332E+01 0.59457378381E+01