   1   1   0   0
  0.1585526E+02  0.2741144E-09  0.2741144E-09  0.2741144E-09  0.5000000E-15
  1.000000000000000E-004
  CAR 
 W bcc                                   
     29.59284141     -3.73834690  301      7.77794315      1.00000000
     -3.738  0.0000E+00  0.0000E+00
     -3.627  0.0000E+00  0.0000E+00
     -3.516  0.0000E+00  0.0000E+00
     -3.405 -0.2115E-31 -0.2350E-32
     -3.294 -0.1525E-27 -0.1695E-28
     -3.183 -0.5906E-24 -0.6563E-25
     -3.072 -0.1226E-20 -0.1363E-21
     -2.961 -0.1363E-17 -0.1516E-18
     -2.850 -0.7854E-15 -0.8742E-16
     -2.738 -0.2477E-12 -0.2761E-13
     -2.627 -0.4150E-10 -0.4638E-11
     -2.516 -0.3675E-08 -0.4130E-09
     -2.405 -0.1707E-06 -0.1938E-07
     -2.294 -0.4104E-05 -0.4753E-06
     -2.183 -0.4973E-04 -0.6001E-05
     -2.072 -0.2853E-03 -0.3769E-04
     -1.961 -0.6044E-03 -0.1048E-03
     -1.850  0.7070E-03 -0.2629E-04
     -1.738  0.6418E-02  0.6868E-03
     -1.627  0.1721E-01  0.2599E-02
     -1.516  0.2746E-01  0.5650E-02
     -1.405  0.3003E-01  0.8987E-02
     -1.294  0.3716E-01  0.1312E-01
     -1.183  0.5143E-01  0.1883E-01
     -1.072  0.5046E-01  0.2444E-01
     -0.961  0.4122E-01  0.2902E-01
     -0.850  0.5476E-01  0.3510E-01
     -0.739  0.7920E-01  0.4390E-01
     -0.627  0.7880E-01  0.5266E-01
     -0.516  0.5775E-01  0.5907E-01
     -0.405  0.5669E-01  0.6537E-01
     -0.294  0.8989E-01  0.7536E-01
     -0.183  0.1101E+00  0.8759E-01
     -0.072  0.1016E+00  0.9888E-01
      0.039  0.9102E-01  0.1090E+00
      0.150  0.7838E-01  0.1177E+00
      0.261  0.9525E-01  0.1283E+00
      0.372  0.1429E+00  0.1442E+00
      0.484  0.1528E+00  0.1611E+00
      0.595  0.1291E+00  0.1755E+00
      0.706  0.1265E+00  0.1895E+00
      0.817  0.1268E+00  0.2036E+00
      0.928  0.1381E+00  0.2190E+00
      1.039  0.1974E+00  0.2409E+00
      1.150  0.2347E+00  0.2670E+00
      1.261  0.2096E+00  0.2902E+00
      1.372  0.1880E+00  0.3111E+00
      1.484  0.2333E+00  0.3371E+00
      1.595  0.4198E+00  0.3837E+00
      1.706  0.6320E+00  0.4539E+00
      1.817  0.6476E+00  0.5259E+00
      1.928  0.5764E+00  0.5899E+00
      2.039  0.6628E+00  0.6635E+00
      2.150  0.7341E+00  0.7451E+00
      2.261  0.6584E+00  0.8183E+00
      2.372  0.7180E+00  0.8980E+00
      2.483  0.9067E+00  0.9988E+00
      2.595  0.8946E+00  0.1098E+01
      2.706  0.7381E+00  0.1180E+01
      2.817  0.8353E+00  0.1273E+01
      2.928  0.1151E+01  0.1401E+01
      3.039  0.1187E+01  0.1533E+01
      3.150  0.1018E+01  0.1646E+01
      3.261  0.1069E+01  0.1765E+01
      3.372  0.1127E+01  0.1890E+01
      3.483  0.8428E+00  0.1983E+01
      3.595  0.5306E+00  0.2042E+01
      3.706  0.4675E+00  0.2094E+01
      3.817  0.4371E+00  0.2143E+01
      3.928  0.3352E+00  0.2180E+01
      4.039  0.3266E+00  0.2216E+01
      4.150  0.4758E+00  0.2269E+01
      4.261  0.8603E+00  0.2365E+01
      4.372  0.1432E+01  0.2524E+01
      4.483  0.1923E+01  0.2738E+01
      4.594  0.2091E+01  0.2970E+01
      4.706  0.1818E+01  0.3172E+01
      4.817  0.1449E+01  0.3333E+01
      4.928  0.1287E+01  0.3476E+01
      5.039  0.1180E+01  0.3607E+01
      5.150  0.1103E+01  0.3729E+01
      5.261  0.1078E+01  0.3849E+01
      5.372  0.1006E+01  0.3961E+01
      5.483  0.1064E+01  0.4079E+01
      5.594  0.1452E+01  0.4241E+01
      5.705  0.1891E+01  0.4451E+01
      5.817  0.1973E+01  0.4670E+01
      5.928  0.1713E+01  0.4860E+01
      6.039  0.1389E+01  0.5014E+01
      6.150  0.1171E+01  0.5145E+01
      6.261  0.1056E+01  0.5262E+01
      6.372  0.9908E+00  0.5372E+01
      6.483  0.8722E+00  0.5469E+01
      6.594  0.6624E+00  0.5542E+01
      6.705  0.4754E+00  0.5595E+01
      6.817  0.3806E+00  0.5638E+01
      6.928  0.3644E+00  0.5678E+01
      7.039  0.3583E+00  0.5718E+01
      7.150  0.3332E+00  0.5755E+01
      7.261  0.3135E+00  0.5790E+01
      7.372  0.2614E+00  0.5819E+01
      7.483  0.2680E+00  0.5849E+01
      7.594  0.4313E+00  0.5896E+01
      7.705  0.5715E+00  0.5960E+01
      7.816  0.5278E+00  0.6019E+01
      7.928  0.3840E+00  0.6061E+01
      8.039  0.3630E+00  0.6102E+01
      8.150  0.5022E+00  0.6157E+01
      8.261  0.5890E+00  0.6223E+01
      8.372  0.6294E+00  0.6293E+01
      8.483  0.7590E+00  0.6377E+01
      8.594  0.8539E+00  0.6472E+01
      8.705  0.8267E+00  0.6564E+01
      8.816  0.7531E+00  0.6647E+01
      8.928  0.6849E+00  0.6724E+01
      9.039  0.7120E+00  0.6803E+01
      9.150  0.8875E+00  0.6901E+01
      9.261  0.1061E+01  0.7019E+01
      9.372  0.1150E+01  0.7147E+01
      9.483  0.1228E+01  0.7283E+01
      9.594  0.1193E+01  0.7416E+01
      9.705  0.1009E+01  0.7528E+01
      9.816  0.9244E+00  0.7631E+01
      9.927  0.1032E+01  0.7745E+01
     10.039  0.1110E+01  0.7869E+01
     10.150  0.1142E+01  0.7996E+01
     10.261  0.1222E+01  0.8131E+01
     10.372  0.1239E+01  0.8269E+01
     10.483  0.1134E+01  0.8395E+01
     10.594  0.1054E+01  0.8512E+01
     10.705  0.1181E+01  0.8643E+01
     10.816  0.1601E+01  0.8821E+01
     10.927  0.2311E+01  0.9078E+01
     11.038  0.2738E+01  0.9382E+01
     11.150  0.2217E+01  0.9628E+01
     11.261  0.1278E+01  0.9770E+01
     11.372  0.7949E+00  0.9859E+01
     11.483  0.7702E+00  0.9944E+01
     11.594  0.9034E+00  0.1004E+02
     11.705  0.9983E+00  0.1016E+02
     11.816  0.8673E+00  0.1025E+02
     11.927  0.5814E+00  0.1032E+02
     12.038  0.3978E+00  0.1036E+02
     12.150  0.3963E+00  0.1040E+02
     12.261  0.4345E+00  0.1045E+02
     12.372  0.3800E+00  0.1050E+02
     12.483  0.3134E+00  0.1053E+02
     12.594  0.3008E+00  0.1056E+02
     12.705  0.3423E+00  0.1060E+02
     12.816  0.5343E+00  0.1066E+02
     12.927  0.7177E+00  0.1074E+02
     13.038  0.6323E+00  0.1081E+02
     13.149  0.4486E+00  0.1086E+02
     13.261  0.3493E+00  0.1090E+02
     13.372  0.2682E+00  0.1093E+02
     13.483  0.1529E+00  0.1095E+02
     13.594  0.7755E-01  0.1095E+02
     13.705  0.1636E+00  0.1097E+02
     13.816  0.3442E+00  0.1101E+02
     13.927  0.4213E+00  0.1106E+02
     14.038  0.4221E+00  0.1110E+02
     14.149  0.4299E+00  0.1115E+02
     14.260  0.3950E+00  0.1120E+02
     14.372  0.3183E+00  0.1123E+02
     14.483  0.2638E+00  0.1126E+02
     14.594  0.2600E+00  0.1129E+02
     14.705  0.2916E+00  0.1132E+02
     14.816  0.3153E+00  0.1136E+02
     14.927  0.2978E+00  0.1139E+02
     15.038  0.2953E+00  0.1142E+02
     15.149  0.3089E+00  0.1146E+02
     15.260  0.3285E+00  0.1149E+02
     15.372  0.3756E+00  0.1154E+02
     15.483  0.3603E+00  0.1158E+02
     15.594  0.2703E+00  0.1161E+02
     15.705  0.2581E+00  0.1163E+02
     15.816  0.3142E+00  0.1167E+02
     15.927  0.3106E+00  0.1170E+02
     16.038  0.3033E+00  0.1174E+02
     16.149  0.3848E+00  0.1178E+02
     16.260  0.4122E+00  0.1183E+02
     16.371  0.3284E+00  0.1186E+02
     16.483  0.2947E+00  0.1190E+02
     16.594  0.2900E+00  0.1193E+02
     16.705  0.2238E+00  0.1195E+02
     16.816  0.1602E+00  0.1197E+02
     16.927  0.1615E+00  0.1199E+02
     17.038  0.2300E+00  0.1201E+02
     17.149  0.3616E+00  0.1205E+02
     17.260  0.4434E+00  0.1210E+02
     17.371  0.4091E+00  0.1215E+02
     17.483  0.3445E+00  0.1219E+02
     17.594  0.3042E+00  0.1222E+02
     17.705  0.3174E+00  0.1226E+02
     17.816  0.3631E+00  0.1230E+02
     17.927  0.3677E+00  0.1234E+02
     18.038  0.3970E+00  0.1238E+02
     18.149  0.5968E+00  0.1245E+02
     18.260  0.7625E+00  0.1253E+02
     18.371  0.6719E+00  0.1261E+02
     18.482  0.4706E+00  0.1266E+02
     18.594  0.3282E+00  0.1270E+02
     18.705  0.2861E+00  0.1273E+02
     18.816  0.3095E+00  0.1276E+02
     18.927  0.3246E+00  0.1280E+02
     19.038  0.3383E+00  0.1284E+02
     19.149  0.4279E+00  0.1288E+02
     19.260  0.5257E+00  0.1294E+02
     19.371  0.5000E+00  0.1300E+02
     19.482  0.3829E+00  0.1304E+02
     19.593  0.2725E+00  0.1307E+02
     19.705  0.2489E+00  0.1310E+02
     19.816  0.3539E+00  0.1314E+02
     19.927  0.4355E+00  0.1319E+02
     20.038  0.3816E+00  0.1323E+02
     20.149  0.3446E+00  0.1327E+02
     20.260  0.4504E+00  0.1332E+02
     20.371  0.6321E+00  0.1339E+02
     20.482  0.6999E+00  0.1346E+02
     20.593  0.6052E+00  0.1353E+02
     20.705  0.5441E+00  0.1359E+02
     20.816  0.5658E+00  0.1365E+02
     20.927  0.5779E+00  0.1372E+02
     21.038  0.6160E+00  0.1379E+02
     21.149  0.7491E+00  0.1387E+02
     21.260  0.8842E+00  0.1397E+02
     21.371  0.8749E+00  0.1407E+02
     21.482  0.6996E+00  0.1414E+02
     21.593  0.4988E+00  0.1420E+02
     21.704  0.3989E+00  0.1424E+02
     21.816  0.4789E+00  0.1430E+02
     21.927  0.6689E+00  0.1437E+02
     22.038  0.7875E+00  0.1446E+02
     22.149  0.7121E+00  0.1454E+02
     22.260  0.5912E+00  0.1460E+02
     22.371  0.5657E+00  0.1467E+02
     22.482  0.5101E+00  0.1472E+02
     22.593  0.4328E+00  0.1477E+02
     22.704  0.4204E+00  0.1482E+02
     22.815  0.4077E+00  0.1486E+02
     22.927  0.3863E+00  0.1491E+02
     23.038  0.4174E+00  0.1495E+02
     23.149  0.5172E+00  0.1501E+02
     23.260  0.5950E+00  0.1508E+02
     23.371  0.5162E+00  0.1513E+02
     23.482  0.3873E+00  0.1518E+02
     23.593  0.3861E+00  0.1522E+02
     23.704  0.4065E+00  0.1526E+02
     23.815  0.3708E+00  0.1531E+02
     23.927  0.4285E+00  0.1535E+02
     24.038  0.4836E+00  0.1541E+02
     24.149  0.3870E+00  0.1545E+02
     24.260  0.3697E+00  0.1549E+02
     24.371  0.4745E+00  0.1554E+02
     24.482  0.4653E+00  0.1560E+02
     24.593  0.3392E+00  0.1563E+02
     24.704  0.2513E+00  0.1566E+02
     24.815  0.2768E+00  0.1569E+02
     24.926  0.3598E+00  0.1573E+02
     25.038  0.3628E+00  0.1577E+02
     25.149  0.2925E+00  0.1580E+02
     25.260  0.2945E+00  0.1584E+02
     25.371  0.3361E+00  0.1587E+02
     25.482  0.2912E+00  0.1591E+02
     25.593  0.1705E+00  0.1593E+02
     25.704  0.5509E-01  0.1593E+02
     25.815  0.1177E-01  0.1593E+02
     25.926  0.3356E-01  0.1594E+02
     26.038  0.8961E-01  0.1595E+02
     26.149  0.1283E+00  0.1596E+02
     26.260  0.9276E-01  0.1597E+02
     26.371  0.3154E-01  0.1598E+02
     26.482  0.1992E-01  0.1598E+02
     26.593  0.4175E-01  0.1598E+02
     26.704  0.4892E-01  0.1599E+02
     26.815  0.3606E-01  0.1599E+02
     26.926  0.2565E-01  0.1599E+02
     27.037  0.2409E-01  0.1600E+02
     27.149  0.1462E-01  0.1600E+02
     27.260  0.1997E-02  0.1600E+02
     27.371 -0.7716E-03  0.1600E+02
     27.482  0.2766E-02  0.1600E+02
     27.593  0.5535E-02  0.1600E+02
     27.704  0.3954E-02  0.1600E+02
     27.815  0.9042E-03  0.1600E+02
     27.926 -0.2216E-03  0.1600E+02
     28.037 -0.1440E-03  0.1600E+02
     28.148 -0.2601E-04  0.1600E+02
     28.260 -0.2147E-05  0.1600E+02
     28.371 -0.8880E-07  0.1600E+02
     28.482 -0.1902E-08  0.1600E+02
     28.593 -0.2141E-10  0.1600E+02
     28.704 -0.1276E-12  0.1600E+02
     28.815 -0.4047E-15  0.1600E+02
     28.926  0.0000E+00  0.1600E+02
     29.037  0.0000E+00  0.1600E+02
     29.148  0.0000E+00  0.1600E+02
     29.260  0.0000E+00  0.1600E+02
     29.371  0.0000E+00  0.1600E+02
     29.482  0.0000E+00  0.1600E+02
     29.593  0.0000E+00  0.1600E+02
