    1    1    1    1
  0.1585526E+02  0.2741144E-09  0.2741144E-09  0.2741144E-09  0.5000000E-15
  1.000000000000000E-004
  CAR 
 W bcc                                   
      6   1340     16
 
  0.2500000E-01  0.2500000E-01  0.2500000E-01  0.2500000E-03
    1       -1.621475
    2       -1.620557
    3        6.319160
    4        6.320084
    5        6.430665
    6        6.430979
    7        6.946637
    8        6.946883
    9        9.984813
   10        9.986465
   11       10.028380
   12       10.030032
   13       23.154899
   14       23.155997
   15       23.425454
   16       23.443081
 
  0.7500000E-01  0.2500000E-01  0.2500000E-01  0.7500000E-03
    1       -1.279972
    2       -1.279054
    3        6.178276
    4        6.179175
    5        6.367370
    6        6.368101
    7        7.231975
    8        7.232642
    9        9.733386
   10        9.735008
   11       10.052071
   12       10.053726
   13       23.410105
   14       23.411214
   15       24.007302
   16       24.008436
 
  0.1250000E+00  0.2500000E-01  0.2500000E-01  0.7500000E-03
    1       -0.743780
    2       -0.742861
    3        5.916195
    4        5.917103
    5        6.203787
    6        6.204654
    7        7.774531
    8        7.775309
    9        9.480613
   10        9.482186
   11       10.111723
   12       10.113388
   13       23.723513
   14       23.724642
   15       24.833629
   16       24.834677
 
  0.1750000E+00  0.2500000E-01  0.2500000E-01  0.7500000E-03
    1       -0.071637
    2       -0.070715
    3        5.580126
    4        5.581050
    5        5.985744
    6        5.986682
    7        8.532686
    8        8.533487
    9        9.385595
   10        9.387088
   11       10.209850
   12       10.211521
   13       23.703223
   14       23.704316
   15       25.323855
   16       25.324957
 
  0.2250000E+00  0.2500000E-01  0.2500000E-01  0.7500000E-03
    1        0.632573
    2        0.633502
    3        5.227318
    4        5.228252
    5        5.827912
    6        5.828892
    7        9.343410
    8        9.344227
    9        9.573276
   10        9.573800
   11       10.365536
   12       10.367151
   13       23.082227
   14       23.083181
   15       24.564611
   16       24.565592
 
  0.2750000E+00  0.2500000E-01  0.2500000E-01  0.7500000E-03
    1        1.213160
    2        1.214107
    3        4.896449
    4        4.897388
    5        5.917566
    6        5.918555
    7        9.603416
    8        9.604803
    9       10.332113
   10       10.333153
   11       10.784409
   12       10.784986
   13       22.093990
   14       22.094744
   15       23.179227
   16       23.180076
 
  0.3250000E+00  0.2500000E-01  0.2500000E-01  0.7500000E-03
    1        1.539064
    2        1.540038
    3        4.616598
    4        4.617540
    5        6.388841
    6        6.389810
    7        9.813522
    8        9.814904
    9       10.611131
   10       10.612779
   11       11.832415
   12       11.833106
   13       21.024728
   14       21.025201
   15       21.733024
   16       21.733614
 
  0.3750000E+00  0.2500000E-01  0.2500000E-01  0.7500000E-03
    1        1.636399
    2        1.637399
    3        4.406158
    4        4.407102
    5        7.155973
    6        7.156900
    7        9.964465
    8        9.965861
    9       10.788550
   10       10.790303
   11       12.919417
   12       12.920154
   13       19.964511
   14       19.965204
   15       20.621185
   16       20.621688
 
  0.4250000E+00  0.2500000E-01  0.2500000E-01  0.7500000E-03
    1        1.632278
    2        1.633293
    3        4.276520
    4        4.277467
    5        7.932923
    6        7.933784
    7        9.986341
    8        9.987800
    9       10.896219
   10       10.898058
   11       13.760652
   12       13.761397
   13       19.111845
   14       19.112786
   15       19.983866
   16       19.984492
 
  0.4750000E+00  0.2500000E-01  0.2500000E-01  0.7500000E-03
    1        1.620729
    2        1.621749
    3        4.232225
    4        4.233172
    5        8.296278
    6        8.297081
    7        9.942723
    8        9.944237
    9       10.928216
   10       10.930091
   11       14.086248
   12       14.086996
   13       18.786434
   14       18.787427
   15       19.772627
   16       19.773272
 
 -0.4750000E+00  0.2500000E-01  0.2500000E-01  0.7500000E-03
    1        1.632278
    2        1.633293
    3        4.276522
    4        4.277470
    5        7.932928
    6        7.933787
    7        9.986390
    8        9.987822
    9       10.896217
   10       10.898053
   11       13.760545
   12       13.761306
   13       19.111782
   14       19.112740
   15       19.983860
   16       19.984508
 
 -0.4250000E+00  0.2500000E-01  0.2500000E-01  0.7500000E-03
    1        1.636398
    2        1.637398
    3        4.406160
    4        4.407107
    5        7.155991
    6        7.156912
    7        9.964551
    8        9.965885
    9       10.788548
   10       10.790293
   11       12.919231
   12       12.920007
   13       19.964423
   14       19.965178
   15       20.621136
   16       20.621721
 
 -0.3750000E+00  0.2500000E-01  0.2500000E-01  0.7500000E-03
    1        1.539060
    2        1.540035
    3        4.616602
    4        4.617548
    5        6.388877
    6        6.389836
    7        9.813635
    8        9.814931
    9       10.611112
   10       10.612781
   11       11.832187
   12       11.832977
   13       21.024677
   14       21.025226
   15       21.732962
   16       21.733614
 
 -0.3250000E+00  0.2500000E-01  0.2500000E-01  0.7500000E-03
    1        1.213152
    2        1.214098
    3        4.896454
    4        4.897398
    5        5.917621
    6        5.918596
    7        9.603542
    8        9.604843
    9       10.331848
   10       10.333268
   11       10.784041
   12       10.785032
   13       22.093990
   14       22.094754
   15       23.179196
   16       23.180047
 
 -0.2750000E+00  0.2500000E-01  0.2500000E-01  0.7500000E-03
    1        0.632561
    2        0.633489
    3        5.227323
    4        5.228264
    5        5.827988
    6        5.828950
    7        9.343509
    8        9.344282
    9        9.572948
   10        9.573698
   11       10.365534
   12       10.367106
   13       23.082238
   14       23.083189
   15       24.564619
   16       24.565587
 
 -0.2250000E+00  0.2500000E-01  0.2500000E-01  0.7500000E-03
    1       -0.071649
    2       -0.070729
    3        5.580132
    4        5.581064
    5        5.985852
    6        5.986761
    7        8.532513
    8        8.533335
    9        9.385631
   10        9.387057
   11       10.209867
   12       10.211477
   13       23.703225
   14       23.704321
   15       25.323912
   16       25.324961
 
 -0.1750000E+00  0.2500000E-01  0.2500000E-01  0.7500000E-03
    1       -0.743791
    2       -0.742874
    3        5.916219
    4        5.917106
    5        6.203956
    6        6.204751
    7        7.774341
    8        7.775152
    9        9.480652
   10        9.482159
   11       10.111743
   12       10.113344
   13       23.723483
   14       23.724628
   15       24.833680
   16       24.834622
 
 -0.1250000E+00  0.2500000E-01  0.2500000E-01  0.7500000E-03
    1       -1.279980
    2       -1.279063
    3        6.178428
    4        6.179112
    5        6.367636
    6        6.368113
    7        7.231778
    8        7.232511
    9        9.733430
   10        9.734960
   11       10.052094
   12       10.053656
   13       23.410039
   14       23.411178
   15       24.007400
   16       24.008467
 
 -0.7500000E-01  0.2500000E-01  0.2500000E-01  0.7500000E-03
    1       -1.621479
    2       -1.620562
    3        6.319622
    4        6.319918
    5        6.430647
    6        6.430983
    7        6.946353
    8        6.946865
    9        9.985354
   10        9.985907
   11       10.028932
   12       10.029478
   13       23.154811
   14       23.155949
   15       23.427685
   16       23.429539
 
 -0.2500000E-01  0.2500000E-01  0.2500000E-01  0.7500000E-03
    1       -1.738347
    2       -1.737429
    3        6.379134
    4        6.379644
    5        6.401503
    6        6.401971
    7        6.890745
    8        6.891016
    9        9.995704
   10        9.997350
   11       10.120868
   12       10.122528
   13       23.143390
   14       23.146039
   15       23.146785
   16       23.148538
 
  0.7500000E-01  0.7500000E-01  0.2500000E-01  0.7500000E-03
    1       -0.845809
    2       -0.844890
    3        5.995228
    4        5.996140
    5        6.142086
    6        6.142949
    7        7.732149
    8        7.732926
    9        9.563672
   10        9.565283
   11       10.066017
   12       10.067679
   13       23.712635
   14       23.713743
   15       24.625947
   16       24.627029
 
  0.1250000E+00  0.7500000E-01  0.2500000E-01  0.7500000E-03
    1       -0.241106
    2       -0.240186
    3        5.708897
    4        5.709814
    5        5.890572
    6        5.891495
    7        8.439287
    8        8.440082
    9        9.395539
   10        9.397096
   11       10.194244
   12       10.195921
   13       24.041794
   14       24.042911
   15       25.027946
   16       25.028998
 
  0.1750000E+00  0.7500000E-01  0.2500000E-01  0.7500000E-03
    1        0.461856
    2        0.462779
    3        5.361125
    4        5.362058
    5        5.669696
    6        5.670664
    7        9.215802
    8        9.216507
    9        9.475683
   10        9.476429
   11       10.361373
   12       10.363035
   13       23.699206
   14       23.700192
   15       24.958367
   16       24.959387
 
  0.2250000E+00  0.7500000E-01  0.2500000E-01  0.7500000E-03
    1        1.136344
    2        1.137277
    3        5.021885
    4        5.022826
    5        5.596505
    6        5.597494
    7        9.440004
    8        9.441433
    9       10.269550
   10       10.270003
   11       10.684861
   12       10.685620
   13       22.722711
   14       22.723500
   15       23.950740
   16       23.951665
 
  0.2750000E+00  0.7500000E-01  0.2500000E-01  0.7500000E-03
    1        1.613544
    2        1.614500
    3        4.727293
    4        4.728236
    5        5.842829
    6        5.843811
    7        9.652416
    8        9.653857
    9       10.602633
   10       10.604242
   11       11.666442
   12       11.667063
   13       21.560730
   14       21.561360
   15       22.554902
   16       22.555684
 
  0.3250000E+00  0.7500000E-01  0.2500000E-01  0.7500000E-03
    1        1.817170
    2        1.818156
    3        4.494732
    4        4.495676
    5        6.457458
    6        6.458411
    7        9.862656
    8        9.864094
    9       10.776172
   10       10.777916
   11       12.797695
   12       12.798411
   13       20.345074
   14       20.345821
   15       21.327999
   16       21.328674
 
  0.3750000E+00  0.7500000E-01  0.2500000E-01  0.7500000E-03
    1        1.845720
    2        1.846726
    3        4.334369
    4        4.335313
    5        7.233549
    6        7.234461
    7        9.976508
    8        9.977973
    9       10.919206
   10       10.921009
   11       13.785499
   12       13.786233
   13       19.227515
   14       19.228441
   15       20.520352
   16       20.521017
 
  0.4250000E+00  0.7500000E-01  0.2500000E-01  0.7500000E-03
    1        1.827879
    2        1.828895
    3        4.253289
    4        4.254234
    5        7.813857
    6        7.814721
    7        9.969253
    8        9.970770
    9       11.017867
   10       11.019702
   11       14.387597
   12       14.388336
   13       18.549627
   14       18.550613
   15       20.120957
   16       20.121609
 
  0.4750000E+00  0.7500000E-01  0.2500000E-01  0.7500000E-03
    1        1.827879
    2        1.828895
    3        4.253290
    4        4.254237
    5        7.813861
    6        7.814722
    7        9.969291
    8        9.970792
    9       11.017866
   10       11.019700
   11       14.387494
   12       14.388245
   13       18.549570
   14       18.550563
   15       20.120962
   16       20.121618
 
 -0.4750000E+00  0.7500000E-01  0.2500000E-01  0.7500000E-03
    1        1.845719
    2        1.846726
    3        4.334374
    4        4.335321
    5        7.233569
    6        7.234472
    7        9.976613
    8        9.978017
    9       10.919200
   10       10.920995
   11       13.785225
   12       13.785997
   13       19.227387
   14       19.228335
   15       20.520355
   16       20.521043
 
 -0.4250000E+00  0.7500000E-01  0.2500000E-01  0.7500000E-03
    1        1.817165
    2        1.818151
    3        4.494741
    4        4.495689
    5        6.457500
    6        6.458438
    7        9.862801
    8        9.864139
    9       10.776159
   10       10.777898
   11       12.797317
   12       12.798109
   13       20.344940
   14       20.345742
   15       21.327971
   16       21.328702
 
 -0.3750000E+00  0.7500000E-01  0.2500000E-01  0.7500000E-03
    1        1.613530
    2        1.614487
    3        4.727304
    4        4.728254
    5        5.842905
    6        5.843865
    7        9.652570
    8        9.653906
    9       10.602572
   10       10.604252
   11       11.666011
   12       11.666825
   13       21.560665
   14       21.561343
   15       22.554858
   16       22.555674
 
 -0.3250000E+00  0.7500000E-01  0.2500000E-01  0.7500000E-03
    1        1.136321
    2        1.137254
    3        5.021898
    4        5.022847
    5        5.596613
    6        5.597572
    7        9.440139
    8        9.441481
    9       10.268961
   10       10.270196
   11       10.684477
   12       10.685631
   13       22.722711
   14       22.723498
   15       23.950733
   16       23.951640
 
 -0.2750000E+00  0.7500000E-01  0.2500000E-01  0.7500000E-03
    1        0.461830
    2        0.462751
    3        5.361135
    4        5.362085
    5        5.669849
    6        5.670781
    7        9.215720
    8        9.216472
    9        9.475464
   10        9.476241
   11       10.361384
   12       10.362958
   13       23.699229
   14       23.700198
   15       24.958409
   16       24.959373
 
 -0.2250000E+00  0.7500000E-01  0.2500000E-01  0.7500000E-03
    1       -0.241131
    2       -0.240214
    3        5.708923
    4        5.709833
    5        5.890788
    6        5.891637
    7        8.438974
    8        8.439817
    9        9.395607
   10        9.397047
   11       10.194273
   12       10.195849
   13       24.041766
   14       24.042897
   15       25.028035
   16       25.028927
 
 -0.1750000E+00  0.7500000E-01  0.2500000E-01  0.7500000E-03
    1       -0.845829
    2       -0.844913
    3        5.995460
    4        5.996084
    5        6.142399
    6        6.142958
    7        7.731840
    8        7.732678
    9        9.563734
   10        9.565211
   11       10.066053
   12       10.067593
   13       23.712554
   14       23.713699
   15       24.626022
   16       24.626990
 
 -0.1250000E+00  0.7500000E-01  0.2500000E-01  0.7500000E-03
    1       -1.279985
    2       -1.279069
    3        6.178665
    4        6.179156
    5        6.367544
    6        6.368091
    7        7.231681
    8        7.232462
    9        9.733408
   10        9.734930
   11       10.052095
   12       10.053663
   13       23.410013
   14       23.411162
   15       24.007376
   16       24.008458
 
 -0.7500000E-01  0.7500000E-01  0.2500000E-01  0.7500000E-03
    1       -1.505450
    2       -1.504533
    3        6.302152
    4        6.302533
    5        6.450630
    6        6.451165
    7        6.975815
    8        6.976406
    9        9.741283
   10        9.742892
   11       10.165978
   12       10.167637
   13       23.341194
   14       23.342351
   15       23.556214
   16       23.556285
 
 -0.2500000E-01  0.7500000E-01  0.2500000E-01  0.7500000E-03
    1       -1.505446
    2       -1.504528
    3        6.301807
    4        6.302576
    5        6.450797
    6        6.451052
    7        6.976051
    8        6.976436
    9        9.741285
   10        9.742905
   11       10.165977
   12       10.167643
   13       23.341263
   14       23.342391
   15       23.555773
   16       23.556216
 
  0.7500000E-01  0.1250000E+00  0.2500000E-01  0.7500000E-03
    1       -0.241106
    2       -0.240186
    3        5.708897
    4        5.709814
    5        5.890572
    6        5.891495
    7        8.439287
    8        8.440082
    9        9.395538
   10        9.397096
   11       10.194244
   12       10.195921
   13       24.041794
   14       24.042911
   15       25.027946
   16       25.028998
 
  0.1250000E+00  0.1250000E+00  0.2500000E-01  0.7500000E-03
    1        0.405638
    2        0.406560
    3        5.480095
    4        5.480947
    5        5.534107
    6        5.534994
    7        9.177577
    8        9.178128
    9        9.421932
   10        9.422399
   11       10.393626
   12       10.395307
   13       24.314440
   14       24.315340
   15       24.612299
   16       24.613308
 
  0.1750000E+00  0.1250000E+00  0.2500000E-01  0.7500000E-03
    1        1.113152
    2        1.114078
    3        5.150272
    4        5.151230
    5        5.337039
    6        5.338003
    7        9.285316
    8        9.286762
    9       10.268263
   10       10.268400
   11       10.696249
   12       10.697330
   13       23.263614
   14       23.264379
   15       24.556946
   16       24.557984
 
  0.2250000E+00  0.1250000E+00  0.2500000E-01  0.7500000E-03
    1        1.732523
    2        1.733463
    3        4.840841
    4        4.841803
    5        5.362241
    6        5.363216
    7        9.440557
    8        9.442017
    9       10.662999
   10       10.664567
   11       11.626766
   12       11.627354
   13       21.992165
   14       21.992879
   15       23.588931
   16       23.589861
 
  0.2750000E+00  0.1250000E+00  0.2500000E-01  0.7500000E-03
    1        2.095170
    2        2.096137
    3        4.600657
    4        4.601612
    5        5.730975
    6        5.731943
    7        9.664191
    8        9.665648
    9       10.813070
   10       10.814807
   11       12.804914
   12       12.805632
   13       20.662893
   14       20.663678
   15       22.345336
   16       22.346158
 
  0.3250000E+00  0.1250000E+00  0.2500000E-01  0.7500000E-03
    1        2.198604
    2        2.199597
    3        4.429111
    4        4.430059
    5        6.386174
    6        6.387123
    7        9.870024
    8        9.871487
    9       10.937596
   10       10.939371
   11       13.924771
   12       13.925515
   13       19.354747
   14       19.355656
   15       21.374625
   16       21.375363
 
  0.3750000E+00  0.1250000E+00  0.2500000E-01  0.7500000E-03
    1        2.188284
    2        2.189292
    3        4.325542
    4        4.326487
    5        7.028389
    6        7.029318
    7        9.949245
    8        9.950742
    9       11.076787
   10       11.078554
   11       14.768975
   12       14.769725
   13       18.336494
   14       18.337470
   15       20.785019
   16       20.785711
 
  0.4250000E+00  0.1250000E+00  0.2500000E-01  0.7500000E-03
    1        2.173795
    2        2.174809
    3        4.291254
    4        4.292200
    5        7.304663
    6        7.305576
    7        9.943589
    8        9.945106
    9       11.154867
   10       11.156623
   11       15.091290
   12       15.092042
   13       17.946775
   14       17.947771
   15       20.581986
   16       20.582665
 
  0.4750000E+00  0.1250000E+00  0.2500000E-01  0.7500000E-03
    1        2.188284
    2        2.189293
    3        4.325548
    4        4.326496
    5        7.028402
    6        7.029320
    7        9.949324
    8        9.950790
    9       11.076780
   10       11.078544
   11       14.768691
   12       14.769464
   13       18.336387
   14       18.337378
   15       20.785043
   16       20.785738
 
 -0.4750000E+00  0.1250000E+00  0.2500000E-01  0.7500000E-03
    1        2.198599
    2        2.199593
    3        4.429123
    4        4.430077
    5        6.386207
    6        6.387136
    7        9.870162
    8        9.871552
    9       10.937572
   10       10.939342
   11       13.924321
   12       13.925115
   13       19.354574
   14       19.355507
   15       21.374662
   16       21.375413
 
 -0.4250000E+00  0.1250000E+00  0.2500000E-01  0.7500000E-03
    1        2.095154
    2        2.096122
    3        4.600677
    4        4.601637
    5        5.731048
    6        5.731986
    7        9.664342
    8        9.665711
    9       10.813025
   10       10.814776
   11       12.804420
   12       12.805229
   13       20.662723
   14       20.663540
   15       22.345369
   16       22.346214
 
 -0.3750000E+00  0.1250000E+00  0.2500000E-01  0.7500000E-03
    1        1.732491
    2        1.733430
    3        4.840875
    4        4.841834
    5        5.362355
    6        5.363283
    7        9.440682
    8        9.442060
    9       10.662898
   10       10.664570
   11       11.626231
   12       11.627046
   13       21.992063
   14       21.992791
   15       23.588966
   16       23.589896
 
 -0.3250000E+00  0.1250000E+00  0.2500000E-01  0.7500000E-03
    1        1.113111
    2        1.114033
    3        5.150328
    4        5.151262
    5        5.337210
    6        5.338097
    7        9.285406
    8        9.286788
    9       10.267532
   10       10.268535
   11       10.696004
   12       10.697260
   13       23.263595
   14       23.264320
   15       24.557004
   16       24.557985
 
 -0.2750000E+00  0.1250000E+00  0.2500000E-01  0.7500000E-03
    1        0.405596
    2        0.406513
    3        5.480142
    4        5.481020
    5        5.534267
    6        5.535154
    7        9.177327
    8        9.178095
    9        9.421651
   10        9.422236
   11       10.393639
   12       10.395229
   13       24.314769
   14       24.314995
   15       24.612517
   16       24.613019
 
 -0.2250000E+00  0.1250000E+00  0.2500000E-01  0.7500000E-03
    1       -0.241142
    2       -0.240227
    3        5.709092
    4        5.709920
    5        5.890701
    6        5.891587
    7        8.438902
    8        8.439763
    9        9.395584
   10        9.397019
   11       10.194271
   12       10.195855
   13       24.041711
   14       24.042854
   15       25.028072
   16       25.028971
 
 -0.1750000E+00  0.1250000E+00  0.2500000E-01  0.7500000E-03
    1       -0.743807
    2       -0.742891
    3        5.916460
    4        5.917233
    5        6.203897
    6        6.204735
    7        7.774185
    8        7.775038
    9        9.480615
   10        9.482102
   11       10.111736
   12       10.113342
   13       23.723423
   14       23.724586
   15       24.833708
   16       24.834672
 
 -0.1250000E+00  0.1250000E+00  0.2500000E-01  0.7500000E-03
    1       -1.059197
    2       -1.058281
    3        6.102926
    4        6.103617
    5        6.386307
    6        6.387048
    7        7.348370
    8        7.349181
    9        9.437068
   10        9.438621
   11       10.206969
   12       10.208634
   13       23.639853
   14       23.641025
   15       24.342841
   16       24.343807
 
 -0.7500000E-01  0.1250000E+00  0.2500000E-01  0.7500000E-03
    1       -1.166431
    2       -1.165514
    3        6.213744
    4        6.214331
    5        6.399514
    6        6.399939
    7        7.212086
    8        7.212818
    9        9.392419
   10        9.393995
   11       10.274508
   12       10.276188
   13       23.667926
   14       23.669085
   15       24.151837
   16       24.152886
 
 -0.2500000E-01  0.1250000E+00  0.2500000E-01  0.7500000E-03
    1       -1.059183
    2       -1.058265
    3        6.102649
    4        6.103515
    5        6.386284
    6        6.386999
    7        7.348632
    8        7.349349
    9        9.437086
   10        9.438664
   11       10.206980
   12       10.208654
   13       23.639929
   14       23.641072
   15       24.343137
   16       24.343775
 
  0.7500000E-01  0.1750000E+00  0.2500000E-01  0.7500000E-03
    1        0.461856
    2        0.462779
    3        5.361125
    4        5.362058
    5        5.669696
    6        5.670664
    7        9.215802
    8        9.216507
    9        9.475683
   10        9.476429
   11       10.361373
   12       10.363035
   13       23.699206
   14       23.700192
   15       24.958367
   16       24.959387
 
  0.1250000E+00  0.1750000E+00  0.2500000E-01  0.7500000E-03
    1        1.113152
    2        1.114078
    3        5.150272
    4        5.151230
    5        5.337039
    6        5.338003
    7        9.285316
    8        9.286762
    9       10.268263
   10       10.268400
   11       10.696249
   12       10.697330
   13       23.263614
   14       23.264379
   15       24.556945
   16       24.557984
 
  0.1750000E+00  0.1750000E+00  0.2500000E-01  0.7500000E-03
    1        1.792502
    2        1.793434
    3        4.908667
    4        4.909679
    5        5.150825
    6        5.151757
    7        9.344994
    8        9.346458
    9       10.694093
   10       10.695644
   11       11.623966
   12       11.624551
   13       22.181411
   14       22.182133
   15       24.261402
   16       24.262366
 
  0.2250000E+00  0.1750000E+00  0.2500000E-01  0.7500000E-03
    1        2.336276
    2        2.337222
    3        4.675432
    4        4.676438
    5        5.239221
    6        5.240158
    7        9.509819
    8        9.511281
    9       10.850286
   10       10.852017
   11       12.843106
   12       12.843834
   13       20.874781
   14       20.875565
   15       23.380721
   16       23.381591
 
  0.2750000E+00  0.1750000E+00  0.2500000E-01  0.7500000E-03
    1        2.596281
    2        2.597252
    3        4.518299
    4        4.519280
    5        5.646632
    6        5.647579
    7        9.732872
    8        9.734330
    9       10.929452
   10       10.931211
   11       14.074032
   12       14.074795
   13       19.481671
   14       19.482562
   15       22.326716
   16       22.327522
 
  0.3250000E+00  0.1750000E+00  0.2500000E-01  0.7500000E-03
    1        2.639398
    2        2.640390
    3        4.423380
    4        4.424342
    5        6.213488
    6        6.214441
    7        9.913480
    8        9.914947
    9       11.025520
   10       11.027237
   11       15.153964
   12       15.154737
   13       18.218319
   14       18.219287
   15       21.526510
   16       21.527278
 
  0.3750000E+00  0.1750000E+00  0.2500000E-01  0.7500000E-03
    1        2.621272
    2        2.622274
    3        4.377804
    4        4.378758
    5        6.618719
    6        6.619676
    7        9.971239
    8        9.972729
    9       11.155314
   10       11.156977
   11       15.821530
   12       15.822282
   13       17.440730
   14       17.441707
   15       21.056774
   16       21.057530
 
  0.4250000E+00  0.1750000E+00  0.2500000E-01  0.7500000E-03
    1        2.621271
    2        2.622274
    3        4.377809
    4        4.378765
    5        6.618723
    6        6.619672
    7        9.971280
    8        9.972757
    9       11.155309
   10       11.156972
   11       15.821301
   12       15.822067
   13       17.440712
   14       17.441700
   15       21.056816
   16       21.057573
 
  0.4750000E+00  0.1750000E+00  0.2500000E-01  0.7500000E-03
    1        2.639394
    2        2.640387
    3        4.423397
    4        4.424364
    5        6.213506
    6        6.214436
    7        9.913593
    8        9.915011
    9       11.025489
   10       11.027202
   11       15.153470
   12       15.154275
   13       18.218200
   14       18.219192
   15       21.526601
   16       21.527371
 
 -0.4750000E+00  0.1750000E+00  0.2500000E-01  0.7500000E-03
    1        2.596264
    2        2.597237
    3        4.518336
    4        4.519316
    5        5.646685
    6        5.647591
    7        9.733014
    8        9.734396
    9       10.929404
   10       10.931162
   11       14.073460
   12       14.074276
   13       19.481469
   14       19.482389
   15       22.326833
   16       22.327646
 
 -0.4250000E+00  0.1750000E+00  0.2500000E-01  0.7500000E-03
    1        2.336233
    2        2.337180
    3        4.675512
    4        4.676488
    5        5.239309
    6        5.240180
    7        9.509939
    8        9.511321
    9       10.850234
   10       10.851982
   11       12.842517
   12       12.843337
   13       20.874572
   14       20.875380
   15       23.380854
   16       23.381725
 
 -0.3750000E+00  0.1750000E+00  0.2500000E-01  0.7500000E-03
    1        1.792442
    2        1.793371
    3        4.908844
    4        4.909754
    5        5.150930
    6        5.151762
    7        9.345088
    8        9.346477
    9       10.693983
   10       10.695631
   11       11.623389
   12       11.624191
   13       22.181269
   14       22.181995
   15       24.261541
   16       24.262477
 
 -0.3250000E+00  0.1750000E+00  0.2500000E-01  0.7500000E-03
    1        1.113089
    2        1.114010
    3        5.150491
    4        5.151371
    5        5.337093
    6        5.338054
    7        9.285365
    8        9.286748
    9       10.267556
   10       10.268442
   11       10.696015
   12       10.697210
   13       23.263560
   14       23.264280
   15       24.556995
   16       24.557994
 
 -0.2750000E+00  0.1750000E+00  0.2500000E-01  0.7500000E-03
    1        0.461799
    2        0.462715
    3        5.361322
    4        5.362207
    5        5.669778
    6        5.670771
    7        9.215491
    8        9.216422
    9        9.475385
   10        9.476251
   11       10.361384
   12       10.362960